mesh: [    48,    48,    48 ]
nqpoint: 2600   
reciprocal_lattice:
- [   0.25020668,   0.00000000,   0.00000000 ] # a*
- [   0.00000000,   0.25020668,   0.00000000 ] # b*
- [   0.00000000,   0.00000000,   0.25020668 ] # c*
natom:   4      
lattice:
- [     3.996695790351783,     0.000000000000000,     0.000000000000000 ] # a
- [     0.000000000000000,     3.996695790351783,     0.000000000000000 ] # b
- [     0.000000000000000,     0.000000000000000,     3.996695790351783 ] # c
points:
- symbol: Ag # 1
  coordinates: [  0.000000000000000,  0.000000000000000,  0.000000000000000 ]
  mass: 107.868200
- symbol: Ag # 2
  coordinates: [  0.500000000000000,  0.500000000000000,  0.000000000000000 ]
  mass: 107.868200
- symbol: Ag # 3
  coordinates: [  0.500000000000000,  0.000000000000000,  0.500000000000000 ]
  mass: 107.868200
- symbol: Ag # 4
  coordinates: [  0.000000000000000,  0.500000000000000,  0.500000000000000 ]
  mass: 107.868200
phonon:
- q-position: [    0.0104167,    0.0104167,    0.0104167 ]
  weight: 8    
  band:
  - # 1
    frequency:     0.0908131036
  - # 2
    frequency:     0.0908131036
  - # 3
    frequency:     0.2142520701
  - # 4
    frequency:     4.1315080989
  - # 5
    frequency:     4.1315080989
  - # 6
    frequency:     4.1315080989
  - # 7
    frequency:     4.1345435025
  - # 8
    frequency:     4.1345435025
  - # 9
    frequency:     4.1345435025
  - # 10
    frequency:     6.3167976769
  - # 11
    frequency:     6.3167976769
  - # 12
    frequency:     6.3167976769

- q-position: [    0.0312500,    0.0104167,    0.0104167 ]
  weight: 24   
  band:
  - # 1
    frequency:     0.1851346422
  - # 2
    frequency:     0.2095226223
  - # 3
    frequency:     0.3878660050
  - # 4
    frequency:     4.1269787471
  - # 5
    frequency:     4.1297454741
  - # 6
    frequency:     4.1297454741
  - # 7
    frequency:     4.1300035359
  - # 8
    frequency:     4.1405004581
  - # 9
    frequency:     4.1405004581
  - # 10
    frequency:     6.3107988547
  - # 11
    frequency:     6.3123224328
  - # 12
    frequency:     6.3123224328

- q-position: [    0.0520833,    0.0104167,    0.0104167 ]
  weight: 24   
  band:
  - # 1
    frequency:     0.3189541083
  - # 2
    frequency:     0.3392104376
  - # 3
    frequency:     0.5860383515
  - # 4
    frequency:     4.1179259117
  - # 5
    frequency:     4.1209295004
  - # 6
    frequency:     4.1278656004
  - # 7
    frequency:     4.1278656004
  - # 8
    frequency:     4.1507546576
  - # 9
    frequency:     4.1507546576
  - # 10
    frequency:     6.2988000941
  - # 11
    frequency:     6.3033894619
  - # 12
    frequency:     6.3033894619

- q-position: [    0.0729167,    0.0104167,    0.0104167 ]
  weight: 24   
  band:
  - # 1
    frequency:     0.4546333932
  - # 2
    frequency:     0.4705917058
  - # 3
    frequency:     0.7921474563
  - # 4
    frequency:     4.1043613133
  - # 5
    frequency:     4.1073331756
  - # 6
    frequency:     4.1254620065
  - # 7
    frequency:     4.1254620065
  - # 8
    frequency:     4.1656840283
  - # 9
    frequency:     4.1656840283
  - # 10
    frequency:     6.2807992448
  - # 11
    frequency:     6.2900337343
  - # 12
    frequency:     6.2900337343

- q-position: [    0.0937500,    0.0104167,    0.0104167 ]
  weight: 24   
  band:
  - # 1
    frequency:     0.5893741276
  - # 2
    frequency:     0.6022089336
  - # 3
    frequency:     1.0012049359
  - # 4
    frequency:     4.0863024933
  - # 5
    frequency:     4.0892321892
  - # 6
    frequency:     4.1224399108
  - # 7
    frequency:     4.1224399108
  - # 8
    frequency:     4.1853408462
  - # 9
    frequency:     4.1853408462
  - # 10
    frequency:     6.2567932861
  - # 11
    frequency:     6.2723075453
  - # 12
    frequency:     6.2723075453

- q-position: [    0.1145833,    0.0104167,    0.0104167 ]
  weight: 24   
  band:
  - # 1
    frequency:     0.7229852939
  - # 2
    frequency:     0.7335525147
  - # 3
    frequency:     1.2110262037
  - # 4
    frequency:     4.0637727670
  - # 5
    frequency:     4.0666499684
  - # 6
    frequency:     4.1188050246
  - # 7
    frequency:     4.1188050246
  - # 8
    frequency:     4.2096632739
  - # 9
    frequency:     4.2096632739
  - # 10
    frequency:     6.2267785689
  - # 11
    frequency:     6.2502803240
  - # 12
    frequency:     6.2502803240

- q-position: [    0.1354167,    0.0104167,    0.0104167 ]
  weight: 24   
  band:
  - # 1
    frequency:     0.8554796285
  - # 2
    frequency:     0.8643429815
  - # 3
    frequency:     1.4204382955
  - # 4
    frequency:     4.0368011614
  - # 5
    frequency:     4.0396156746
  - # 6
    frequency:     4.1146007725
  - # 7
    frequency:     4.1146007725
  - # 8
    frequency:     4.2385385512
  - # 9
    frequency:     4.2385385512
  - # 10
    frequency:     6.1907511342
  - # 11
    frequency:     6.2240383805
  - # 12
    frequency:     6.2240383805

- q-position: [    0.1562500,    0.0104167,    0.0104167 ]
  weight: 24   
  band:
  - # 1
    frequency:     0.9868428938
  - # 2
    frequency:     0.9943792415
  - # 3
    frequency:     1.6286965876
  - # 4
    frequency:     4.0054223381
  - # 5
    frequency:     4.0081641234
  - # 6
    frequency:     4.1098898373
  - # 7
    frequency:     4.1098898373
  - # 8
    frequency:     4.2718218946
  - # 9
    frequency:     4.2718218946
  - # 10
    frequency:     6.1487071025
  - # 11
    frequency:     6.1936845930
  - # 12
    frequency:     6.1936845930

- q-position: [    0.1770833,    0.0104167,    0.0104167 ]
  weight: 24   
  band:
  - # 1
    frequency:     1.1170233270
  - # 2
    frequency:     1.1234929843
  - # 3
    frequency:     1.8352614997
  - # 4
    frequency:     3.9696765025
  - # 5
    frequency:     3.9723356890
  - # 6
    frequency:     4.1047474589
  - # 7
    frequency:     4.1047474589
  - # 8
    frequency:     4.3093436425
  - # 9
    frequency:     4.3093436425
  - # 10
    frequency:     6.1006431299
  - # 11
    frequency:     6.1593380360
  - # 12
    frequency:     6.1593380360

- q-position: [    0.1979167,    0.0104167,    0.0104167 ]
  weight: 24   
  band:
  - # 1
    frequency:     1.2459429157
  - # 2
    frequency:     1.2515317319
  - # 3
    frequency:     2.0397027010
  - # 4
    frequency:     3.9296092985
  - # 5
    frequency:     3.9321761948
  - # 6
    frequency:     4.0992581403
  - # 7
    frequency:     4.0992581403
  - # 8
    frequency:     4.3509129571
  - # 9
    frequency:     4.3509129571
  - # 10
    frequency:     6.0465569251
  - # 11
    frequency:     6.1211335533
  - # 12
    frequency:     6.1211335533

- q-position: [    0.2187500,    0.0104167,    0.0104167 ]
  weight: 24   
  band:
  - # 1
    frequency:     1.3735069083
  - # 2
    frequency:     1.3783515677
  - # 3
    frequency:     2.2416541390
  - # 4
    frequency:     3.8852716906
  - # 5
    frequency:     3.8877367906
  - # 6
    frequency:     4.0935134261
  - # 7
    frequency:     4.0935134261
  - # 8
    frequency:     4.3963203876
  - # 9
    frequency:     4.3963203876
  - # 10
    frequency:     5.9864478193
  - # 11
    frequency:     6.0792212773
  - # 12
    frequency:     6.0792212773

- q-position: [    0.2395833,    0.0104167,    0.0104167 ]
  weight: 24   
  band:
  - # 1
    frequency:     1.4996100191
  - # 2
    frequency:     1.5038136861
  - # 3
    frequency:     2.4407913659
  - # 4
    frequency:     3.8367198343
  - # 5
    frequency:     3.8390738166
  - # 6
    frequency:     4.0876100215
  - # 7
    frequency:     4.0876100215
  - # 8
    frequency:     4.4453400038
  - # 9
    frequency:     4.4453400038
  - # 10
    frequency:     5.9203173838
  - # 11
    frequency:     6.0337660975
  - # 12
    frequency:     6.0337660975

- q-position: [    0.2604167,    0.0104167,    0.0104167 ]
  weight: 24   
  band:
  - # 1
    frequency:     1.6241403244
  - # 2
    frequency:     1.6277826369
  - # 3
    frequency:     2.6368194506
  - # 4
    frequency:     3.7840149342
  - # 5
    frequency:     3.7862486562
  - # 6
    frequency:     4.0816480029
  - # 7
    frequency:     4.0816480029
  - # 8
    frequency:     4.4977313321
  - # 9
    frequency:     4.4977313321
  - # 10
    frequency:     5.8481700855
  - # 11
    frequency:     5.9849470826
  - # 12
    frequency:     5.9849470826

- q-position: [    0.2812500,    0.0104167,    0.0104167 ]
  weight: 24   
  band:
  - # 1
    frequency:     1.7469817355
  - # 2
    frequency:     1.7501253932
  - # 3
    frequency:     2.8294662517
  - # 4
    frequency:     3.7272230921
  - # 5
    frequency:     3.7293275771
  - # 6
    frequency:     4.0757290370
  - # 7
    frequency:     4.0757290370
  - # 8
    frequency:     4.5532411719
  - # 9
    frequency:     4.5532411719
  - # 10
    frequency:     5.7700139737
  - # 11
    frequency:     5.9329568583
  - # 12
    frequency:     5.9329568583

- q-position: [    0.3020833,    0.0104167,    0.0104167 ]
  weight: 24   
  band:
  - # 1
    frequency:     1.8680156152
  - # 2
    frequency:     1.8707108501
  - # 3
    frequency:     3.0184785479
  - # 4
    frequency:     3.6664151463
  - # 5
    frequency:     3.6683815632
  - # 6
    frequency:     4.0699545898
  - # 7
    frequency:     4.0699545898
  - # 8
    frequency:     4.6116053145
  - # 9
    frequency:     4.6116053145
  - # 10
    frequency:     5.6858613885
  - # 11
    frequency:     5.8780009454
  - # 12
    frequency:     5.8780009454

- q-position: [    0.3229167,    0.0104167,    0.0104167 ]
  weight: 24   
  band:
  - # 1
    frequency:     1.9871218738
  - # 2
    frequency:     1.9894095654
  - # 3
    frequency:     3.2036197573
  - # 4
    frequency:     3.6016665011
  - # 5
    frequency:     3.6034861371
  - # 6
    frequency:     4.0644241325
  - # 7
    frequency:     4.0644241325
  - # 8
    frequency:     4.6725501716
  - # 9
    frequency:     4.6725501716
  - # 10
    frequency:     5.5957296841
  - # 11
    frequency:     5.8202970617
  - # 12
    frequency:     5.8202970617

- q-position: [    0.3437500,    0.0104167,    0.0104167 ]
  weight: 24   
  band:
  - # 1
    frequency:     2.1041797449
  - # 2
    frequency:     2.1060936419
  - # 3
    frequency:     3.3846685618
  - # 4
    frequency:     3.5330569502
  - # 5
    frequency:     3.5347211744
  - # 6
    frequency:     4.0592333656
  - # 7
    frequency:     4.0592333656
  - # 8
    frequency:     4.7357943109
  - # 9
    frequency:     4.7357943109
  - # 10
    frequency:     5.4996419557
  - # 11
    frequency:     5.7600743928
  - # 12
    frequency:     5.7600743928

- q-position: [    0.3645833,    0.0104167,    0.0104167 ]
  weight: 24   
  band:
  - # 1
    frequency:     2.2190683599
  - # 2
    frequency:     2.2206367003
  - # 3
    frequency:     3.4606704934
  - # 4
    frequency:     3.4621707119
  - # 5
    frequency:     3.5614180560
  - # 6
    frequency:     4.0544724895
  - # 7
    frequency:     4.0544724895
  - # 8
    frequency:     4.8010499006
  - # 9
    frequency:     4.8010499006
  - # 10
    frequency:     5.3976277654
  - # 11
    frequency:     5.6975728384
  - # 12
    frequency:     5.6975728384

- q-position: [    0.3854167,    0.0104167,    0.0104167 ]
  weight: 24   
  band:
  - # 1
    frequency:     2.3316671954
  - # 2
    frequency:     2.3329139101
  - # 3
    frequency:     3.3845951484
  - # 4
    frequency:     3.3859227487
  - # 5
    frequency:     3.7336751992
  - # 6
    frequency:     4.0502245532
  - # 7
    frequency:     4.0502245532
  - # 8
    frequency:     4.8680240580
  - # 9
    frequency:     4.8680240580
  - # 10
    frequency:     5.2897238551
  - # 11
    frequency:     5.6330422415
  - # 12
    frequency:     5.6330422415

- q-position: [    0.4062500,    0.0104167,    0.0104167 ]
  weight: 24   
  band:
  - # 1
    frequency:     2.4418564382
  - # 2
    frequency:     2.4428020622
  - # 3
    frequency:     3.3049227590
  - # 4
    frequency:     3.3060690432
  - # 5
    frequency:     3.9012604356
  - # 6
    frequency:     4.0465639144
  - # 7
    frequency:     4.0465639144
  - # 8
    frequency:     4.9364200912
  - # 9
    frequency:     4.9364200912
  - # 10
    frequency:     5.1759748416
  - # 11
    frequency:     5.5667416236
  - # 12
    frequency:     5.5667416236

- q-position: [    0.4270833,    0.0104167,    0.0104167 ]
  weight: 24   
  band:
  - # 1
    frequency:     2.5495172976
  - # 2
    frequency:     2.5501796699
  - # 3
    frequency:     3.2217488002
  - # 4
    frequency:     3.2227049056
  - # 5
    frequency:     4.0435548444
  - # 6
    frequency:     4.0435548444
  - # 7
    frequency:     4.0640074010
  - # 8
    frequency:     5.0059385831
  - # 9
    frequency:     5.0059385831
  - # 10
    frequency:     5.0564338857
  - # 11
    frequency:     5.4989384837
  - # 12
    frequency:     5.4989384837

- q-position: [    0.4479167,    0.0104167,    0.0104167 ]
  weight: 24   
  band:
  - # 1
    frequency:     2.6545322824
  - # 2
    frequency:     2.6549270936
  - # 3
    frequency:     3.1351721829
  - # 4
    frequency:     3.1359289872
  - # 5
    frequency:     4.0412503085
  - # 6
    frequency:     4.0412503085
  - # 7
    frequency:     4.2217626619
  - # 8
    frequency:     4.9311633282
  - # 9
    frequency:     5.0762780843
  - # 10
    frequency:     5.0762780843
  - # 11
    frequency:     5.4299084060
  - # 12
    frequency:     5.4299084060

- q-position: [    0.4687500,    0.0104167,    0.0104167 ]
  weight: 24   
  band:
  - # 1
    frequency:     2.7567854562
  - # 2
    frequency:     2.7569266813
  - # 3
    frequency:     3.0452950580
  - # 4
    frequency:     3.0458430669
  - # 5
    frequency:     4.0396909533
  - # 6
    frequency:     4.0396909533
  - # 7
    frequency:     4.3743854557
  - # 8
    frequency:     4.8002352879
  - # 9
    frequency:     5.1471338964
  - # 10
    frequency:     5.1471338964
  - # 11
    frequency:     5.3599365040
  - # 12
    frequency:     5.3599365040

- q-position: [    0.4895833,    0.0104167,    0.0104167 ]
  weight: 24   
  band:
  - # 1
    frequency:     2.8560629240
  - # 2
    frequency:     2.8561626784
  - # 3
    frequency:     2.9522226217
  - # 4
    frequency:     2.9525518355
  - # 5
    frequency:     4.0389043222
  - # 6
    frequency:     4.0389043222
  - # 7
    frequency:     4.5217474084
  - # 8
    frequency:     4.6637322170
  - # 9
    frequency:     5.2181690350
  - # 10
    frequency:     5.2181690350
  - # 11
    frequency:     5.2893466189
  - # 12
    frequency:     5.2893466189

- q-position: [    0.0312500,    0.0312500,    0.0104167 ]
  weight: 24   
  band:
  - # 1
    frequency:     0.1962975816
  - # 2
    frequency:     0.2774680676
  - # 3
    frequency:     0.5281664778
  - # 4
    frequency:     4.1235862725
  - # 5
    frequency:     4.1252069251
  - # 6
    frequency:     4.1252069251
  - # 7
    frequency:     4.1359504238
  - # 8
    frequency:     4.1359504238
  - # 9
    frequency:     4.1507993767
  - # 10
    frequency:     6.3063710648
  - # 11
    frequency:     6.3063710648
  - # 12
    frequency:     6.3078502040

- q-position: [    0.0520833,    0.0312500,    0.0104167 ]
  weight: 48   
  band:
  - # 1
    frequency:     0.2899422988
  - # 2
    frequency:     0.3847097859
  - # 3
    frequency:     0.7023783316
  - # 4
    frequency:     4.1161354670
  - # 5
    frequency:     4.1180201211
  - # 6
    frequency:     4.1232869837
  - # 7
    frequency:     4.1268565419
  - # 8
    frequency:     4.1462059880
  - # 9
    frequency:     4.1646314508
  - # 10
    frequency:     6.2944671465
  - # 11
    frequency:     6.2975329457
  - # 12
    frequency:     6.2989232275

- q-position: [    0.0729167,    0.0312500,    0.0104167 ]
  weight: 48   
  band:
  - # 1
    frequency:     0.4168398962
  - # 2
    frequency:     0.5043689507
  - # 3
    frequency:     0.8897315168
  - # 4
    frequency:     4.1025423608
  - # 5
    frequency:     4.1129754288
  - # 6
    frequency:     4.1132311699
  - # 7
    frequency:     4.1208150342
  - # 8
    frequency:     4.1611452343
  - # 9
    frequency:     4.1820413481
  - # 10
    frequency:     6.2766083995
  - # 11
    frequency:     6.2843193545
  - # 12
    frequency:     6.2855764021

- q-position: [    0.0937500,    0.0312500,    0.0104167 ]
  weight: 48   
  band:
  - # 1
    frequency:     0.5516883035
  - # 2
    frequency:     0.6289854316
  - # 3
    frequency:     1.0840544312
  - # 4
    frequency:     4.0844444522
  - # 5
    frequency:     4.0950928048
  - # 6
    frequency:     4.1081423457
  - # 7
    frequency:     4.1176983462
  - # 8
    frequency:     4.1808178969
  - # 9
    frequency:     4.2032987723
  - # 10
    frequency:     6.2527916184
  - # 11
    frequency:     6.2667824151
  - # 12
    frequency:     6.2678619164

- q-position: [    0.1145833,    0.0312500,    0.0104167 ]
  weight: 48   
  band:
  - # 1
    frequency:     0.6878550953
  - # 2
    frequency:     0.7557288168
  - # 3
    frequency:     1.2822304030
  - # 4
    frequency:     4.0618641163
  - # 5
    frequency:     4.0724660363
  - # 6
    frequency:     4.1032984729
  - # 7
    frequency:     4.1139434464
  - # 8
    frequency:     4.2051607033
  - # 9
    frequency:     4.2285730148
  - # 10
    frequency:     6.2230129232
  - # 11
    frequency:     6.2449913254
  - # 12
    frequency:     6.2458490601

- q-position: [    0.1354167,    0.0312500,    0.0104167 ]
  weight: 48   
  band:
  - # 1
    frequency:     0.8234252467
  - # 2
    frequency:     0.8832862658
  - # 3
    frequency:     1.4823218368
  - # 4
    frequency:     4.0348291876
  - # 5
    frequency:     4.0453814826
  - # 6
    frequency:     4.0983141268
  - # 7
    frequency:     4.1095939974
  - # 8
    frequency:     4.2340599325
  - # 9
    frequency:     4.2579280009
  - # 10
    frequency:     6.1872680899
  - # 11
    frequency:     6.2190321025
  - # 12
    frequency:     6.2196239721

- q-position: [    0.1562500,    0.0312500,    0.0104167 ]
  weight: 48   
  band:
  - # 1
    frequency:     0.9577745061
  - # 2
    frequency:     1.0109368323
  - # 3
    frequency:     1.6830018929
  - # 4
    frequency:     4.0033728744
  - # 5
    frequency:     4.0138757100
  - # 6
    frequency:     4.0931310385
  - # 7
    frequency:     4.1047126860
  - # 8
    frequency:     4.2673700040
  - # 9
    frequency:     4.2913439208
  - # 10
    frequency:     6.1455529563
  - # 11
    frequency:     6.1890072666
  - # 12
    frequency:     6.1892893303

- q-position: [    0.1770833,    0.0312500,    0.0104167 ]
  weight: 48   
  band:
  - # 1
    frequency:     1.0906712515
  - # 2
    frequency:     1.1382247550
  - # 3
    frequency:     1.8833036264
  - # 4
    frequency:     3.9675336611
  - # 5
    frequency:     3.9779911337
  - # 6
    frequency:     4.0877418093
  - # 7
    frequency:     4.0993746712
  - # 8
    frequency:     4.3049205087
  - # 9
    frequency:     4.3287380954
  - # 10
    frequency:     6.0978638964
  - # 11
    frequency:     6.1549639833
  - # 12
    frequency:     6.1550354659

- q-position: [    0.1979167,    0.0312500,    0.0104167 ]
  weight: 48   
  band:
  - # 1
    frequency:     1.2220059379
  - # 2
    frequency:     1.2648265660
  - # 3
    frequency:     2.0824862522
  - # 4
    frequency:     3.9273552016
  - # 5
    frequency:     3.9377758991
  - # 6
    frequency:     4.0821743524
  - # 7
    frequency:     4.0936643657
  - # 8
    frequency:     4.3465198736
  - # 9
    frequency:     4.3699808167
  - # 10
    frequency:     6.0441983586
  - # 11
    frequency:     6.1167825269
  - # 12
    frequency:     6.1172510461

- q-position: [    0.2187500,    0.0312500,    0.0104167 ]
  weight: 48   
  band:
  - # 1
    frequency:     1.3517024843
  - # 2
    frequency:     1.3904906330
  - # 3
    frequency:     2.2799574842
  - # 4
    frequency:     3.8828862062
  - # 5
    frequency:     3.8932837420
  - # 6
    frequency:     4.0764808709
  - # 7
    frequency:     4.0876732617
  - # 8
    frequency:     4.3919579169
  - # 9
    frequency:     4.4149065889
  - # 10
    frequency:     5.9845554606
  - # 11
    frequency:     6.0748948286
  - # 12
    frequency:     6.0758035651

- q-position: [    0.2395833,    0.0312500,    0.0104167 ]
  weight: 48   
  band:
  - # 1
    frequency:     1.4796886118
  - # 2
    frequency:     1.5150071193
  - # 3
    frequency:     2.4752264193
  - # 4
    frequency:     3.8341803268
  - # 5
    frequency:     3.8445738245
  - # 6
    frequency:     4.0707300867
  - # 7
    frequency:     4.0814980850
  - # 8
    frequency:     4.4410079845
  - # 9
    frequency:     4.4633220351
  - # 10
    frequency:     5.9189366332
  - # 11
    frequency:     6.0294655032
  - # 12
    frequency:     6.0308572574

- q-position: [    0.2604167,    0.0312500,    0.0104167 ]
  weight: 48   
  band:
  - # 1
    frequency:     1.6058865846
  - # 2
    frequency:     1.6381919715
  - # 3
    frequency:     2.6678741219
  - # 4
    frequency:     3.7812960424
  - # 5
    frequency:     3.7917105475
  - # 6
    frequency:     4.0650016081
  - # 7
    frequency:     4.0752390370
  - # 8
    frequency:     4.4934288901
  - # 9
    frequency:     4.5150115705
  - # 10
    frequency:     5.8473463064
  - # 11
    frequency:     5.9806733433
  - # 12
    frequency:     5.9825904531

- q-position: [    0.2812500,    0.0312500,    0.0104167 ]
  weight: 48   
  band:
  - # 1
    frequency:     1.7302111823
  - # 2
    frequency:     1.7598778910
  - # 3
    frequency:     2.8575348330
  - # 4
    frequency:     3.7242965486
  - # 5
    frequency:     3.7347633363
  - # 6
    frequency:     4.0593816546
  - # 7
    frequency:     4.0689980435
  - # 8
    frequency:     4.5489667347
  - # 9
    frequency:     4.5697416174
  - # 10
    frequency:     5.7697926293
  - # 11
    frequency:     5.9287107096
  - # 12
    frequency:     5.9311949527

- q-position: [    0.3020833,    0.0312500,    0.0104167 ]
  weight: 48   
  band:
  - # 1
    frequency:     1.8525701570
  - # 2
    frequency:     1.8799090095
  - # 3
    frequency:     3.0438837187
  - # 4
    frequency:     3.6632496500
  - # 5
    frequency:     3.6738064048
  - # 6
    frequency:     4.0539596418
  - # 7
    frequency:     4.0628769901
  - # 8
    frequency:     4.6073566222
  - # 9
    frequency:     4.6272638648
  - # 10
    frequency:     5.6862882147
  - # 11
    frequency:     5.8737828876
  - # 12
    frequency:     5.8768753674

- q-position: [    0.3229167,    0.0312500,    0.0104167 ]
  weight: 48   
  band:
  - # 1
    frequency:     1.9728654218
  - # 2
    frequency:     1.9981376345
  - # 3
    frequency:     3.2266287280
  - # 4
    frequency:     3.5982276544
  - # 5
    frequency:     3.6089184995
  - # 6
    frequency:     4.0488253214
  - # 7
    frequency:     4.0569759536
  - # 8
    frequency:     4.6683242732
  - # 9
    frequency:     4.6873178849
  - # 10
    frequency:     5.5968509028
  - # 11
    frequency:     5.8161074187
  - # 12
    frequency:     5.8198484301

- q-position: [    0.3437500,    0.0312500,    0.0104167 ]
  weight: 48   
  band:
  - # 1
    frequency:     2.0909943357
  - # 2
    frequency:     2.1144222086
  - # 3
    frequency:     3.4055050795
  - # 4
    frequency:     3.5293072618
  - # 5
    frequency:     3.5401826332
  - # 6
    frequency:     4.0440663014
  - # 7
    frequency:     4.0513914503
  - # 8
    frequency:     4.7315875275
  - # 9
    frequency:     4.7496332945
  - # 10
    frequency:     5.5015045339
  - # 11
    frequency:     5.7559134206
  - # 12
    frequency:     5.7603422911

- q-position: [    0.3645833,    0.0312500,    0.0104167 ]
  weight: 48   
  band:
  - # 1
    frequency:     2.2068508730
  - # 2
    frequency:     2.2286260049
  - # 3
    frequency:     3.4565694404
  - # 4
    frequency:     3.4676858183
  - # 5
    frequency:     3.5802714539
  - # 6
    frequency:     4.0397658479
  - # 7
    frequency:     4.0462147268
  - # 8
    frequency:     4.7968577157
  - # 9
    frequency:     4.8139315618
  - # 10
    frequency:     5.4002797238
  - # 11
    frequency:     5.6934409246
  - # 12
    frequency:     5.6985958243

- q-position: [    0.3854167,    0.0312500,    0.0104167 ]
  weight: 48   
  band:
  - # 1
    frequency:     2.3203266284
  - # 2
    frequency:     2.3406162882
  - # 3
    frequency:     3.3800992796
  - # 4
    frequency:     3.3915188116
  - # 5
    frequency:     3.7507073071
  - # 6
    frequency:     4.0360009210
  - # 7
    frequency:     4.0415301268
  - # 8
    frequency:     4.8638408507
  - # 9
    frequency:     4.8799274833
  - # 10
    frequency:     5.2932146349
  - # 11
    frequency:     5.6289402939
  - # 12
    frequency:     5.6348579974

- q-position: [    0.4062500,    0.0312500,    0.0104167 ]
  weight: 48   
  band:
  - # 1
    frequency:     2.4313116657
  - # 2
    frequency:     2.4502637756
  - # 3
    frequency:     3.2999858100
  - # 4
    frequency:     3.3117758827
  - # 5
    frequency:     3.9166109237
  - # 6
    frequency:     4.0328404265
  - # 7
    frequency:     4.0374135660
  - # 8
    frequency:     4.9322385015
  - # 9
    frequency:     4.9473302124
  - # 10
    frequency:     5.1803557374
  - # 11
    frequency:     5.5626718952
  - # 12
    frequency:     5.5693874540

- q-position: [    0.4270833,    0.0312500,    0.0104167 ]
  weight: 48   
  band:
  - # 1
    frequency:     2.5396952362
  - # 2
    frequency:     2.5574422965
  - # 3
    frequency:     3.2163217849
  - # 4
    frequency:     3.2285546132
  - # 5
    frequency:     4.0303436836
  - # 6
    frequency:     4.0339311478
  - # 7
    frequency:     4.0777979618
  - # 8
    frequency:     5.0017478898
  - # 9
    frequency:     5.0158433146
  - # 10
    frequency:     5.0617585543
  - # 11
    frequency:     5.4949065924
  - # 12
    frequency:     5.5024527752

- q-position: [    0.4479167,    0.0312500,    0.0104167 ]
  weight: 48   
  band:
  - # 1
    frequency:     2.6453663959
  - # 2
    frequency:     2.6620285866
  - # 3
    frequency:     3.1292034209
  - # 4
    frequency:     3.1419557307
  - # 5
    frequency:     4.0285591161
  - # 6
    frequency:     4.0311379518
  - # 7
    frequency:     4.2341003204
  - # 8
    frequency:     4.9374883888
  - # 9
    frequency:     5.0720593119
  - # 10
    frequency:     5.0851614452
  - # 11
    frequency:     5.4259294958
  - # 12
    frequency:     5.4343353292

- q-position: [    0.4687500,    0.0312500,    0.0104167 ]
  weight: 48   
  band:
  - # 1
    frequency:     2.7482145468
  - # 2
    frequency:     2.7639021725
  - # 3
    frequency:     3.0387300996
  - # 4
    frequency:     3.0520829776
  - # 5
    frequency:     4.0275231835
  - # 6
    frequency:     4.0290770251
  - # 7
    frequency:     4.3853652178
  - # 8
    frequency:     4.8076210292
  - # 9
    frequency:     5.1428393326
  - # 10
    frequency:     5.1549476418
  - # 11
    frequency:     5.3560629971
  - # 12
    frequency:     5.3653462719

- q-position: [    0.4895833,    0.0312500,    0.0104167 ]
  weight: 48   
  band:
  - # 1
    frequency:     2.8481299227
  - # 2
    frequency:     2.8629453174
  - # 3
    frequency:     2.9450040364
  - # 4
    frequency:     2.9590430093
  - # 5
    frequency:     4.0272595636
  - # 6
    frequency:     4.0277786005
  - # 7
    frequency:     4.5314544011
  - # 8
    frequency:     4.6722434345
  - # 9
    frequency:     5.2135303126
  - # 10
    frequency:     5.2244810926
  - # 11
    frequency:     5.2860192449
  - # 12
    frequency:     5.2960271430

- q-position: [    0.0520833,    0.0520833,    0.0104167 ]
  weight: 24   
  band:
  - # 1
    frequency:     0.3147118543
  - # 2
    frequency:     0.4680290955
  - # 3
    frequency:     0.8583903075
  - # 4
    frequency:     4.1078451007
  - # 5
    frequency:     4.1141351014
  - # 6
    frequency:     4.1141351014
  - # 7
    frequency:     4.1371152698
  - # 8
    frequency:     4.1371152698
  - # 9
    frequency:     4.1828571960
  - # 10
    frequency:     6.2858185770
  - # 11
    frequency:     6.2858185770
  - # 12
    frequency:     6.2900081684

- q-position: [    0.0729167,    0.0520833,    0.0104167 ]
  weight: 48   
  band:
  - # 1
    frequency:     0.4002300881
  - # 2
    frequency:     0.5705591128
  - # 3
    frequency:     1.0302803424
  - # 4
    frequency:     4.0984722166
  - # 5
    frequency:     4.1004206529
  - # 6
    frequency:     4.1115263800
  - # 7
    frequency:     4.1234957093
  - # 8
    frequency:     4.1520746082
  - # 9
    frequency:     4.2042764535
  - # 10
    frequency:     6.2682437752
  - # 11
    frequency:     6.2728889703
  - # 12
    frequency:     6.2766790408

- q-position: [    0.0937500,    0.0520833,    0.0104167 ]
  weight: 48   
  band:
  - # 1
    frequency:     0.5165582000
  - # 2
    frequency:     0.6833113140
  - # 3
    frequency:     1.2108108069
  - # 4
    frequency:     4.0821596812
  - # 5
    frequency:     4.0898718196
  - # 6
    frequency:     4.1053670270
  - # 7
    frequency:     4.1082207356
  - # 8
    frequency:     4.1717792237
  - # 9
    frequency:     4.2288833330
  - # 10
    frequency:     6.2448048977
  - # 11
    frequency:     6.2557300378
  - # 12
    frequency:     6.2589878222

- q-position: [    0.1145833,    0.0520833,    0.0104167 ]
  weight: 48   
  band:
  - # 1
    frequency:     0.6453294669
  - # 2
    frequency:     0.8016211197
  - # 3
    frequency:     1.3966132325
  - # 4
    frequency:     4.0593735658
  - # 5
    frequency:     4.0818889521
  - # 6
    frequency:     4.0827553524
  - # 7
    frequency:     4.1042263863
  - # 8
    frequency:     4.1961630160
  - # 9
    frequency:     4.2567855846
  - # 10
    frequency:     6.2154975120
  - # 11
    frequency:     6.2344104204
  - # 12
    frequency:     6.2370035245

- q-position: [    0.1354167,    0.0520833,    0.0104167 ]
  weight: 48   
  band:
  - # 1
    frequency:     0.7787189407