 running on    4 nodes
 distr:  one band on    1 nodes,    4 groups
 vasp.4.6.28 25Jul05 complex 
 POSCAR found :  1 types and   36 ions

 ----------------------------------------------------------------------------- 
|                                                                             |
|  ADVICE TO THIS USER RUNNING 'VASP/VAMP'   (HEAR YOUR MASTER'S VOICE ...):  |
|                                                                             |
|      You have a (more or less) 'large supercell' and for larger cells       |
|      it might be more efficient to use real space projection operators      |
|      So try LREAL= Auto  in the INCAR   file.                               |
|      Mind: If you want to do an extremely accurate calculations keep the    |
|      reciprocal projection scheme          (i.e. LREAL=.FALSE.)             |
|                                                                             |
 ----------------------------------------------------------------------------- 

 LDA part: xc-table for Pade appr. of Perdew
 generate k-points for:   7   7   5
 POSCAR, INCAR and KPOINTS ok, starting setup
 WARNING: wrap around errors must be expected
 FFT: planning ...           1
 reading WAVECAR
 WARNING: random wavefunctions but no delay for mixing, default for NELMDL
 entering main loop
       N       E                     dE             d eps       ncg     rms          rms(c)
DAV:   1     0.497029700208E+04    0.49703E+04   -0.17216E+05 53840   0.180E+03
DAV:   2     0.874861745765E+02   -0.48828E+04   -0.48082E+04 53136   0.636E+02
DAV:   3    -0.293382257944E+03   -0.38087E+03   -0.35852E+03 77768   0.160E+02
DAV:   4    -0.324659962848E+03   -0.31278E+02   -0.30363E+02 72672   0.400E+01
DAV:   5    -0.325591895618E+03   -0.93193E+00   -0.90905E+00 69448   0.619E+00    0.361E+01
DAV:   6    -0.285914574616E+03    0.39677E+02   -0.12512E+02 58152   0.377E+01    0.906E+00
DAV:   7    -0.284068419450E+03    0.18462E+01   -0.15690E+01 69688   0.115E+01    0.364E+00
DAV:   8    -0.284185425470E+03   -0.11701E+00   -0.30838E+00 70304   0.715E+00    0.410E+00
DAV:   9    -0.283988404205E+03    0.19702E+00   -0.10536E+00 74504   0.470E+00    0.193E+00
DAV:  10    -0.283914758579E+03    0.73646E-01   -0.16751E-01 71336   0.150E+00    0.117E+00
DAV:  11    -0.283873049256E+03    0.41709E-01   -0.28372E-01 62720   0.177E+00    0.248E-01
DAV:  12    -0.283874141937E+03   -0.10927E-02   -0.11304E-02 71536   0.376E-01    0.274E-01
DAV:  13    -0.283872882348E+03    0.12596E-02   -0.30852E-03 69432   0.204E-01    0.141E-01
DAV:  14    -0.283872462578E+03    0.41977E-03   -0.13125E-03 69808   0.150E-01    0.590E-02
DAV:  15    -0.283872454142E+03    0.84352E-05   -0.18841E-04 73208   0.678E-02    0.419E-02
DAV:  16    -0.283872449946E+03    0.41964E-05   -0.62514E-05 73424   0.381E-02    0.309E-02
DAV:  17    -0.283872406522E+03    0.43424E-04   -0.46694E-05 67408   0.240E-02    0.139E-02
DAV:  18    -0.283872390412E+03    0.16110E-04   -0.10539E-05 71168   0.137E-02    0.528E-03
DAV:  19    -0.283872382920E+03    0.74914E-05   -0.23413E-06 70688   0.607E-03    0.195E-03
DAV:  20    -0.283872381394E+03    0.15264E-05   -0.37371E-07 73272   0.289E-03    0.806E-04
DAV:  21    -0.283872380720E+03    0.67398E-06   -0.77597E-08 53648   0.113E-03    0.354E-04
DAV:  22    -0.283872380780E+03   -0.59699E-07   -0.13601E-08 37384   0.704E-04    0.227E-04
DAV:  23    -0.283872381005E+03   -0.22478E-06   -0.62764E-09 35240   0.399E-04    0.116E-04
DAV:  24    -0.283872381042E+03   -0.37857E-07   -0.28631E-09 34432   0.230E-04    0.930E-05
DAV:  25    -0.283872381073E+03   -0.30625E-07   -0.14354E-09 33744   0.179E-04    0.581E-05
DAV:  26    -0.283872381080E+03   -0.73560E-08   -0.66882E-10 33528   0.888E-05
   1 F= -.28387238E+03 E0= -.28387120E+03  d E =-.235507E-02
