  36  36   0   0
  0.1780783E+02  0.8820702E-09  0.8820702E-09  0.9483699E-09  0.5000000E-15
  1.000000000000000E-004
  CAR 
 unknown system                          
      8.53246578    -29.46038573  301      5.70892513      1.00000000
    -29.460  0.0000E+00  0.0000E+00
    -29.334  0.0000E+00  0.0000E+00
    -29.207  0.0000E+00  0.0000E+00
    -29.080  0.0000E+00  0.0000E+00
    -28.954  0.0000E+00  0.0000E+00
    -28.827  0.0000E+00  0.0000E+00
    -28.701  0.0000E+00  0.0000E+00
    -28.574  0.0000E+00  0.0000E+00
    -28.447  0.0000E+00  0.0000E+00
    -28.321  0.0000E+00  0.0000E+00
    -28.194  0.0000E+00  0.0000E+00
    -28.067  0.0000E+00  0.0000E+00
    -27.941  0.0000E+00  0.0000E+00
    -27.814  0.0000E+00  0.0000E+00
    -27.687  0.5967E+01  0.7557E+00
    -27.561  0.2076E+03  0.2937E+02
    -27.434  0.1407E+03  0.6232E+02
    -27.307  0.1703E+03  0.9467E+02
    -27.181  0.3854E+03  0.1633E+03
    -27.054  0.1736E+03  0.2154E+03
    -26.928  0.0000E+00  0.2160E+03
    -26.801  0.0000E+00  0.2160E+03
    -26.674  0.0000E+00  0.2160E+03
    -26.548  0.0000E+00  0.2160E+03
    -26.421  0.0000E+00  0.2160E+03
    -26.294  0.0000E+00  0.2160E+03
    -26.168  0.0000E+00  0.2160E+03
    -26.041  0.0000E+00  0.2160E+03
    -25.914  0.0000E+00  0.2160E+03
    -25.788  0.0000E+00  0.2160E+03
    -25.661  0.0000E+00  0.2160E+03
    -25.534  0.0000E+00  0.2160E+03
    -25.408  0.0000E+00  0.2160E+03
    -25.281  0.0000E+00  0.2160E+03
    -25.155  0.0000E+00  0.2160E+03
    -25.028  0.0000E+00  0.2160E+03
    -24.901  0.0000E+00  0.2160E+03
    -24.775  0.0000E+00  0.2160E+03
    -24.648  0.0000E+00  0.2160E+03
    -24.521  0.0000E+00  0.2160E+03
    -24.395  0.0000E+00  0.2160E+03
    -24.268  0.0000E+00  0.2160E+03
    -24.141  0.0000E+00  0.2160E+03
    -24.015  0.0000E+00  0.2160E+03
    -23.888  0.0000E+00  0.2160E+03
    -23.761  0.0000E+00  0.2160E+03
    -23.635  0.0000E+00  0.2160E+03
    -23.508  0.0000E+00  0.2160E+03
    -23.382  0.0000E+00  0.2160E+03
    -23.255  0.0000E+00  0.2160E+03
    -23.128  0.0000E+00  0.2160E+03
    -23.002  0.0000E+00  0.2160E+03
    -22.875  0.0000E+00  0.2160E+03
    -22.748  0.0000E+00  0.2160E+03
    -22.622  0.0000E+00  0.2160E+03
    -22.495  0.0000E+00  0.2160E+03
    -22.368  0.0000E+00  0.2160E+03
    -22.242  0.0000E+00  0.2160E+03
    -22.115  0.0000E+00  0.2160E+03
    -21.988  0.0000E+00  0.2160E+03
    -21.862  0.0000E+00  0.2160E+03
    -21.735  0.0000E+00  0.2160E+03
    -21.609  0.0000E+00  0.2160E+03
    -21.482  0.0000E+00  0.2160E+03
    -21.355  0.0000E+00  0.2160E+03
    -21.229  0.0000E+00  0.2160E+03
    -21.102  0.0000E+00  0.2160E+03
    -20.975  0.0000E+00  0.2160E+03
    -20.849  0.0000E+00  0.2160E+03
    -20.722  0.0000E+00  0.2160E+03
    -20.595  0.0000E+00  0.2160E+03
    -20.469  0.0000E+00  0.2160E+03
    -20.342  0.0000E+00  0.2160E+03
    -20.215  0.0000E+00  0.2160E+03
    -20.089  0.0000E+00  0.2160E+03
    -19.962  0.0000E+00  0.2160E+03
    -19.836  0.0000E+00  0.2160E+03
    -19.709  0.0000E+00  0.2160E+03
    -19.582  0.0000E+00  0.2160E+03
    -19.456  0.0000E+00  0.2160E+03
    -19.329  0.0000E+00  0.2160E+03
    -19.202  0.0000E+00  0.2160E+03
    -19.076  0.0000E+00  0.2160E+03
    -18.949  0.0000E+00  0.2160E+03
    -18.822  0.0000E+00  0.2160E+03
    -18.696  0.0000E+00  0.2160E+03
    -18.569  0.0000E+00  0.2160E+03
    -18.442  0.0000E+00  0.2160E+03
    -18.316  0.0000E+00  0.2160E+03
    -18.189  0.0000E+00  0.2160E+03
    -18.063  0.0000E+00  0.2160E+03
    -17.936  0.0000E+00  0.2160E+03
    -17.809  0.0000E+00  0.2160E+03
    -17.683  0.0000E+00  0.2160E+03
    -17.556  0.0000E+00  0.2160E+03
    -17.429  0.0000E+00  0.2160E+03
    -17.303  0.0000E+00  0.2160E+03
    -17.176  0.0000E+00  0.2160E+03
    -17.049  0.0000E+00  0.2160E+03
    -16.923  0.0000E+00  0.2160E+03
    -16.796  0.0000E+00  0.2160E+03
    -16.669  0.0000E+00  0.2160E+03
    -16.543  0.0000E+00  0.2160E+03
    -16.416  0.0000E+00  0.2160E+03
    -16.290  0.0000E+00  0.2160E+03
    -16.163  0.0000E+00  0.2160E+03
    -16.036  0.0000E+00  0.2160E+03
    -15.910  0.0000E+00  0.2160E+03
    -15.783  0.0000E+00  0.2160E+03
    -15.656  0.0000E+00  0.2160E+03
    -15.530  0.0000E+00  0.2160E+03
    -15.403  0.0000E+00  0.2160E+03
    -15.276  0.0000E+00  0.2160E+03
    -15.150  0.0000E+00  0.2160E+03
    -15.023  0.0000E+00  0.2160E+03
    -14.896  0.0000E+00  0.2160E+03
    -14.770  0.0000E+00  0.2160E+03
    -14.643  0.0000E+00  0.2160E+03
    -14.517  0.0000E+00  0.2160E+03
    -14.390  0.0000E+00  0.2160E+03
    -14.263  0.0000E+00  0.2160E+03
    -14.137  0.0000E+00  0.2160E+03
    -14.010  0.0000E+00  0.2160E+03
    -13.883  0.0000E+00  0.2160E+03
    -13.757  0.0000E+00  0.2160E+03
    -13.630  0.0000E+00  0.2160E+03
    -13.503  0.0000E+00  0.2160E+03
    -13.377  0.0000E+00  0.2160E+03
    -13.250  0.0000E+00  0.2160E+03
    -13.123  0.0000E+00  0.2160E+03
    -12.997  0.0000E+00  0.2160E+03
    -12.870  0.0000E+00  0.2160E+03
    -12.744  0.0000E+00  0.2160E+03
    -12.617  0.0000E+00  0.2160E+03
    -12.490  0.0000E+00  0.2160E+03
    -12.364  0.0000E+00  0.2160E+03
    -12.237  0.0000E+00  0.2160E+03
    -12.110  0.0000E+00  0.2160E+03
    -11.984  0.0000E+00  0.2160E+03
    -11.857  0.0000E+00  0.2160E+03
    -11.730  0.0000E+00  0.2160E+03
    -11.604  0.0000E+00  0.2160E+03
    -11.477  0.0000E+00  0.2160E+03
    -11.350  0.0000E+00  0.2160E+03
    -11.224  0.0000E+00  0.2160E+03
    -11.097  0.0000E+00  0.2160E+03
    -10.971  0.0000E+00  0.2160E+03
    -10.844  0.0000E+00  0.2160E+03
    -10.717  0.0000E+00  0.2160E+03
    -10.591  0.0000E+00  0.2160E+03
    -10.464  0.0000E+00  0.2160E+03
    -10.337  0.0000E+00  0.2160E+03
    -10.211  0.0000E+00  0.2160E+03
    -10.084  0.0000E+00  0.2160E+03
     -9.957  0.0000E+00  0.2160E+03
     -9.831  0.0000E+00  0.2160E+03
     -9.704  0.0000E+00  0.2160E+03
     -9.577  0.0000E+00  0.2160E+03
     -9.451  0.0000E+00  0.2160E+03
     -9.324  0.0000E+00  0.2160E+03
     -9.198  0.0000E+00  0.2160E+03
     -9.071  0.0000E+00  0.2160E+03
     -8.944  0.0000E+00  0.2160E+03
     -8.818  0.0000E+00  0.2160E+03
     -8.691  0.0000E+00  0.2160E+03
     -8.564  0.0000E+00  0.2160E+03
     -8.438  0.0000E+00  0.2160E+03
     -8.311  0.0000E+00  0.2160E+03
     -8.184  0.0000E+00  0.2160E+03
     -8.058  0.0000E+00  0.2160E+03
     -7.931  0.0000E+00  0.2160E+03
     -7.804  0.0000E+00  0.2160E+03
     -7.678  0.0000E+00  0.2160E+03
     -7.551  0.0000E+00  0.2160E+03
     -7.425  0.0000E+00  0.2160E+03
     -7.298  0.0000E+00  0.2160E+03
     -7.171  0.0000E+00  0.2160E+03
     -7.045  0.0000E+00  0.2160E+03
     -6.918  0.0000E+00  0.2160E+03
     -6.791  0.0000E+00  0.2160E+03
     -6.665  0.0000E+00  0.2160E+03
     -6.538  0.0000E+00  0.2160E+03
     -6.411  0.0000E+00  0.2160E+03
     -6.285  0.0000E+00  0.2160E+03
     -6.158  0.0000E+00  0.2160E+03
     -6.031  0.0000E+00  0.2160E+03
     -5.905  0.0000E+00  0.2160E+03
     -5.778  0.0000E+00  0.2160E+03
     -5.652  0.0000E+00  0.2160E+03
     -5.525  0.0000E+00  0.2160E+03
     -5.398  0.0000E+00  0.2160E+03
     -5.272  0.0000E+00  0.2160E+03
     -5.145  0.0000E+00  0.2160E+03
     -5.018  0.0000E+00  0.2160E+03
     -4.892  0.0000E+00  0.2160E+03
     -4.765  0.0000E+00  0.2160E+03
     -4.638  0.0000E+00  0.2160E+03
     -4.512  0.0000E+00  0.2160E+03
     -4.385  0.0000E+00  0.2160E+03
     -4.258  0.0000E+00  0.2160E+03
     -4.132  0.0000E+00  0.2160E+03
     -4.005  0.0000E+00  0.2160E+03
     -3.879  0.0000E+00  0.2160E+03
     -3.752  0.0000E+00  0.2160E+03
     -3.625  0.0000E+00  0.2160E+03
     -3.499  0.0000E+00  0.2160E+03
     -3.372  0.0000E+00  0.2160E+03
     -3.245  0.0000E+00  0.2160E+03
     -3.119  0.0000E+00  0.2160E+03
     -2.992  0.0000E+00  0.2160E+03
     -2.865  0.0000E+00  0.2160E+03
     -2.739  0.0000E+00  0.2160E+03
     -2.612  0.0000E+00  0.2160E+03
     -2.485  0.0000E+00  0.2160E+03
     -2.359  0.0000E+00  0.2160E+03
     -2.232  0.0000E+00  0.2160E+03
     -2.106  0.0000E+00  0.2160E+03
     -1.979  0.0000E+00  0.2160E+03
     -1.852  0.0000E+00  0.2160E+03
     -1.726  0.0000E+00  0.2160E+03
     -1.599  0.0000E+00  0.2160E+03
     -1.472  0.0000E+00  0.2160E+03
     -1.346  0.0000E+00  0.2160E+03
     -1.219  0.0000E+00  0.2160E+03
     -1.092  0.0000E+00  0.2160E+03
     -0.966  0.0000E+00  0.2160E+03
     -0.839  0.0000E+00  0.2160E+03
     -0.712  0.0000E+00  0.2160E+03
     -0.586  0.0000E+00  0.2160E+03
     -0.459  0.0000E+00  0.2160E+03
     -0.333  0.1776E+00  0.2160E+03
     -0.206  0.9119E+00  0.2162E+03
     -0.079  0.1191E+01  0.2164E+03
      0.047  0.1355E+01  0.2167E+03
      0.174  0.3242E+01  0.2171E+03
      0.301  0.7879E+00  0.2172E+03
      0.427  0.3314E+01  0.2178E+03
      0.554  0.2029E+01  0.2183E+03
      0.681  0.1800E+01  0.2185E+03
      0.807  0.1423E+01  0.2191E+03
      0.934  0.2812E+01  0.2198E+03
      1.061  0.4882E+01  0.2205E+03
      1.187  0.3233E+01  0.2209E+03
      1.314  0.3259E+01  0.2217E+03
      1.440  0.4074E+01  0.2225E+03
      1.567  0.2311E+01  0.2232E+03
      1.694  0.3042E+01  0.2240E+03
      1.820  0.7656E+01  0.2252E+03
      1.947  0.4456E+01  0.2260E+03
      2.074  0.4115E+01  0.2270E+03
      2.200  0.7438E+01  0.2282E+03
      2.327  0.7098E+01  0.2295E+03
      2.454  0.4254E+01  0.2307E+03
      2.580  0.6766E+01  0.2321E+03
      2.707  0.6320E+01  0.2339E+03
      2.834  0.5821E+01  0.2353E+03
      2.960  0.1485E+02  0.2386E+03
      3.087  0.9566E+01  0.2406E+03
      3.213  0.2302E+02  0.2448E+03
      3.340  0.1627E+02  0.2494E+03
      3.467  0.2251E+02  0.2542E+03
      3.593  0.1864E+02  0.2576E+03
      3.720  0.2892E+02  0.2636E+03
      3.847  0.1953E+02  0.2681E+03
      3.973  0.3112E+02  0.2748E+03
      4.100  0.3777E+02  0.2813E+03
      4.227  0.2649E+02  0.2885E+03
      4.353  0.2539E+02  0.2928E+03
      4.480  0.2357E+02  0.2980E+03
      4.607  0.2586E+02  0.3035E+03
      4.733  0.2582E+02  0.3098E+03
      4.860  0.3714E+02  0.3178E+03
      4.986  0.4268E+02  0.3270E+03
      5.113  0.4471E+02  0.3362E+03
      5.240  0.3901E+02  0.3450E+03
      5.366  0.1860E+02  0.3495E+03
      5.493  0.2594E+02  0.3537E+03
      5.620  0.1723E+02  0.3570E+03
      5.746  0.2587E+02  0.3614E+03
      5.873  0.4141E+02  0.3686E+03
      6.000  0.5327E+02  0.3788E+03
      6.126  0.5272E+02  0.3892E+03
      6.253  0.4030E+02  0.3981E+03
      6.380  0.5723E+02  0.4092E+03
      6.506  0.5361E+02  0.4200E+03
      6.633  0.4284E+02  0.4286E+03
      6.759  0.9150E+01  0.4319E+03
      6.886  0.0000E+00  0.4320E+03
      7.013  0.0000E+00  0.4320E+03
      7.139  0.0000E+00  0.4320E+03
      7.266  0.0000E+00  0.4320E+03
      7.393  0.0000E+00  0.4320E+03
      7.519  0.0000E+00  0.4320E+03
      7.646  0.0000E+00  0.4320E+03
      7.773  0.0000E+00  0.4320E+03
      7.899  0.0000E+00  0.4320E+03
      8.026  0.0000E+00  0.4320E+03
      8.153  0.0000E+00  0.4320E+03
      8.279  0.0000E+00  0.4320E+03
      8.406  0.0000E+00  0.4320E+03
      8.532  0.0000E+00  0.4320E+03
