   36   36    1    1
  0.1780783E+02  0.8820702E-09  0.8820702E-09  0.9483699E-09  0.5000000E-15
  1.000000000000000E-004
  CAR 
 unknown system                          
  360  123  216
 
  0.0000000E+00  0.0000000E+00  0.0000000E+00  0.4081633E-02
   1      -27.7334
   2      -27.5584
   3      -27.5583
   4      -27.5583
   5      -27.5582
   6      -27.5562
   7      -27.5562
   8      -27.5561
   9      -27.5561
  10      -27.5560
  11      -27.5559
  12      -27.5558
  13      -27.5557
  14      -27.5537
  15      -27.5536
  16      -27.5535
  17      -27.5534
  18      -27.5511
  19      -27.5510
  20      -27.5508
  21      -27.5507
  22      -27.5506
  23      -27.5505
  24      -27.4964
  25      -27.4960
  26      -27.4743
  27      -27.4741
  28      -27.4732
  29      -27.4732
  30      -27.4731
  31      -27.4730
  32      -27.4260
  33      -27.4255
  34      -27.4029
  35      -27.4026
  36      -27.4013
  37      -27.4010
  38      -27.3993
  39      -27.3990
  40      -27.3989
  41      -27.3986
  42      -27.3793
  43      -27.3791
  44      -27.3790
  45      -27.3790
  46      -27.3787
  47      -27.3786
  48      -27.3489
  49      -27.3485
  50      -27.3453
  51      -27.3451
  52      -27.3001
  53      -27.2997
  54      -27.2431
  55      -27.2428
  56      -27.2427
  57      -27.2425
  58      -27.2415
  59      -27.2415
  60      -27.2412
  61      -27.2411
  62      -27.2411
  63      -27.2410
  64      -27.2409
  65      -27.2408
  66      -27.2408
  67      -27.2404
  68      -27.2311
  69      -27.2309
  70      -27.2309
  71      -27.2308
  72      -27.1926
  73      -27.1922
  74      -27.1921
  75      -27.1918
  76      -27.1895
  77      -27.1892
  78      -27.1868
  79      -27.1867
  80      -27.1867
  81      -27.1866
  82      -27.1736
  83      -27.1734
  84      -27.1733
  85      -27.1732
  86      -27.1650
  87      -27.1649
  88      -27.1649
  89      -27.1648
  90      -27.1647
  91      -27.1647
  92      -27.1646
  93      -27.1643
  94      -27.1366
  95      -27.1277
  96      -27.1051
  97      -27.1050
  98      -27.1041
  99      -27.0980
 100      -27.0978
 101      -27.0977
 102      -27.0976
 103      -27.0929
 104      -27.0928
 105      -27.0861
 106      -27.0859
 107      -27.0489
 108      -27.0442
 109       -0.3920
 110        1.3904
 111        1.3907
 112        2.1515
 113        2.1518
 114        2.1519
 115        2.1522
 116        2.1689
 117        2.1692
 118        3.0222
 119        3.0225
 120        3.0227
 121        3.0228
 122        3.0229
 123        3.0231
 124        3.0232
 125        3.0234
 126        3.0365
 127        3.0370
 128        3.0371
 129        3.0372
 130        3.0791
 131        4.0444
 132        4.0450
 133        4.0504
 134        4.0508
 135        4.0510
 136        4.0514
 137        4.1098
 138        4.1115
 139        4.2730
 140        4.2739
 141        4.2927
 142        4.2939
 143        4.2940
 144        4.2943
 145        4.3785
 146        4.3787
 147        4.3912
 148        4.3914
 149        4.4745
 150        4.4746
 151        4.5133
 152        4.5142
 153        4.5149
 154        4.5159
 155        4.6694
 156        4.6706
 157        4.6707
 158        4.6719
 159        5.0318
 160        5.0341
 161        5.0344
 162        5.0345
 163        5.0346
 164        5.0350
 165        5.0351
 166        5.0357
 167        5.0374
 168        5.0376
 169        5.0377
 170        5.0400
 171        5.1458
 172        5.1464
 173        5.1465
 174        5.1475
 175        5.1728
 176        5.1743
 177        5.4822
 178        5.4823
 179        5.4823
 180        5.4825
 181        5.7177
 182        5.7202
 183        5.8807
 184        5.8817
 185        5.9313
 186        5.9329
 187        6.2493
 188        6.2497
 189        6.2502
 190        6.2505
 191        6.2507
 192        6.2513
 193        6.2514
 194        6.2524
 195        6.2788
 196        6.2888
 197        6.2900
 198        6.2904
 199        6.2915
 200        6.3733
 201        6.3736
 202        6.4079
 203        6.4084
 204        6.4086
 205        6.4097
 206        6.4330
 207        6.4349
 208        6.4366
 209        6.4418
 210        6.4448
 211        6.4532
 212        6.4557
 213        6.4577
 214        6.4587
 215        6.4621
 216        6.4690
 
  0.1428571E+00  0.1387779E-16  0.0000000E+00  0.8163265E-02
   1      -27.7289
   2      -27.5944
   3      -27.5943
   4      -27.5912
   5      -27.5745
   6      -27.5744
   7      -27.5727
   8      -27.5726
   9      -27.5685
  10      -27.5683
  11      -27.5650
  12      -27.5649
  13      -27.5648
  14      -27.5647
  15      -27.5356
  16      -27.5355
  17      -27.5329
  18      -27.5328
  19      -27.5288
  20      -27.5283
  21      -27.5261
  22      -27.5150
  23      -27.5148
  24      -27.5117
  25      -27.5050
  26      -27.5022
  27      -27.5010
  28      -27.4986
  29      -27.4422
  30      -27.4418
  31      -27.4274
  32      -27.4269
  33      -27.4263
  34      -27.4150
  35      -27.4121
  36      -27.4100
  37      -27.4056
  38      -27.4044
  39      -27.3879
  40      -27.3877
  41      -27.3873
  42      -27.3870
  43      -27.3857
  44      -27.3855
  45      -27.3795
  46      -27.3769
  47      -27.3556
  48      -27.3544
  49      -27.3206
  50      -27.3188
  51      -27.3153
  52      -27.2835
  53      -27.2831
  54      -27.2522
  55      -27.2491
  56      -27.2489
  57      -27.2464
  58      -27.2463
  59      -27.2457
  60      -27.2451
  61      -27.2450
  62      -27.2429
  63      -27.2412
  64      -27.2410
  65      -27.2399
  66      -27.2397
  67      -27.2331
  68      -27.2315
  69      -27.2314
  70      -27.2240
  71      -27.2164
  72      -27.2131
  73      -27.2060
  74      -27.2026
  75      -27.1873
  76      -27.1872
  77      -27.1868
  78      -27.1868
  79      -27.1817
  80      -27.1810
  81      -27.1808
  82      -27.1795
  83      -27.1766
  84      -27.1765
  85      -27.1731
  86      -27.1729
  87      -27.1693
  88      -27.1680
  89      -27.1678
  90      -27.1603
  91      -27.1601
  92      -27.1507
  93      -27.1505
  94      -27.1454
  95      -27.1320
  96      -27.1159
  97      -27.1088
  98      -27.1066
  99      -27.1059
 100      -27.1051
 101      -27.0997
 102      -27.0996
 103      -27.0984
 104      -27.0893
 105      -27.0892
 106      -27.0874
 107      -27.0584
 108      -27.0464
 109       -0.3289
 110        1.4445
 111        1.4448
 112        1.5954
 113        1.9180
 114        1.9315
 115        2.4558
 116        2.4753
 117        2.6707
 118        2.7986
 119        2.7988
 120        2.9562
 121        2.9564
 122        2.9681
 123        2.9683
 124        3.1301
 125        3.1326
 126        3.1328
 127        3.1471
 128        3.1473
 129        3.1527
 130        3.1530
 131        3.9337
 132        4.0213
 133        4.0285
 134        4.0897
 135        4.0989
 136        4.1067
 137        4.1079
 138        4.1144
 139        4.1212
 140        4.1759
 141        4.1987
 142        4.2250
 143        4.2368
 144        4.2771
 145        4.2776
 146        4.2786
 147        4.2792
 148        4.3862
 149        4.3867
 150        4.4031
 151        4.4147
 152        4.5150
 153        4.5350
 154        4.5359
 155        4.8989
 156        4.8996
 157        4.9052
 158        4.9059
 159        4.9653
 160        4.9664
 161        5.0109
 162        5.0116
 163        5.0120
 164        5.0129
 165        5.0839
 166        5.0848
 167        5.0878
 168        5.0889
 169        5.0943
 170        5.1087
 171        5.1173
 172        5.1187
 173        5.1190
 174        5.1377
 175        5.1652
 176        5.2189
 177        5.4709
 178        5.4712
 179        5.4734
 180        5.4736
 181        5.6832
 182        5.6856
 183        5.8448
 184        5.8873
 185        5.9721
 186        6.0178
 187        6.1021
 188        6.1026
 189        6.1091
 190        6.1097
 191        6.1417
 192        6.1422
 193        6.1644
 194        6.2777
 195        6.2894
 196        6.2899
 197        6.2954
 198        6.3094
 199        6.3242
 200        6.3302
 201        6.3307
 202        6.3471
 203        6.3549
 204        6.3659
 205        6.3661
 206        6.3807
 207        6.3968
 208        6.3991
 209        6.4001
 210        6.4622
 211        6.4630
 212        6.4858
 213        6.4946
 214        6.5068
 215        6.5072
 216        6.5254
 
  0.2857143E+00  0.5551115E-16  0.0000000E+00  0.8163265E-02
   1      -27.7154
   2      -27.6299
   3      -27.6235
   4      -27.6235
   5      -27.5873
   6      -27.5873
   7      -27.5864
   8      -27.5863
   9      -27.5807
  10      -27.5805
  11      -27.5782
  12      -27.5782
  13      -27.5780
  14      -27.5780
  15      -27.5643
  16      -27.5198
  17      -27.5190
  18      -27.5176
  19      -27.5174
  20      -27.5161
  21      -27.5154
  22      -27.5152
  23      -27.5146
  24      -27.5027
  25      -27.5019
  26      -27.4789
  27      -27.4786
  28      -27.4783
  29      -27.4618
  30      -27.4316
  31      -27.4300
  32      -27.4295
  33      -27.4277
  34      -27.4275
  35      -27.4248
  36      -27.4113
  37      -27.4092
  38      -27.4090
  39      -27.4074
  40      -27.3591
  41      -27.3590
  42      -27.3588
  43      -27.3576
  44      -27.3552
  45      -27.3550
  46      -27.3442
  47      -27.3438
  48      -27.3425
  49      -27.2911
  50      -27.2873
  51      -27.2705
  52      -27.2642
  53      -27.2641
  54      -27.2628
  55      -27.2600
  56      -27.2599
  57      -27.2567
  58      -27.2563
  59      -27.2479
  60      -27.2463
  61      -27.2462
  62      -27.2460
  63      -27.2411
  64      -27.2409
  65      -27.2400
  66      -27.2399
  67      -27.2389
  68      -27.2229
  69      -27.2223
  70      -27.2191
  71      -27.2165
  72      -27.2129
  73      -27.2129
  74      -27.1936
  75      -27.1884
  76      -27.1883
  77      -27.1875
  78      -27.1874
  79      -27.1872
  80      -27.1870
  81      -27.1851
  82      -27.1849
  83      -27.1815
  84      -27.1814
  85      -27.1744
  86      -27.1735
  87      -27.1731
  88      -27.1652
  89      -27.1650
  90      -27.1599
  91      -27.1598
  92      -27.1494
  93      -27.1421
  94      -27.1378
  95      -27.1355
  96      -27.1353
  97      -27.1316
  98      -27.1207
  99      -27.1206
 100      -27.1135
 101      -27.1130
 102      -27.1112
 103      -27.1085
 104      -27.0966
 105      -27.0964
 106      -27.0883
 107      -27.0766
 108      -27.0507
 109       -0.1421
 110        1.0535
 111        1.6025
 112        1.6028
 113        1.7607
 114        1.7693
 115        2.4952
 116        2.4954
 117        2.8173
 118        2.8377
 119        2.9241
 120        2.9243
 121        2.9321
 122        2.9323
 123        3.0946
 124        3.2113
 125        3.2116
 126        3.2772
 127        3.2886
 128        3.2889
 129        3.3019
 130        3.3021
 131        3.7973
 132        3.9687
 133        3.9819
 134        3.9845
 135        3.9857
 136        3.9914
 137        3.9919
 138        3.9944
 139        3.9949
 140        4.0437
 141        4.0538
 142        4.0787
 143        4.0933
 144        4.1068
 145        4.1303
 146        4.2158
 147        4.2232
 148        4.2880
 149        4.3137
 150        4.4923
 151        4.5033
 152        4.6303
 153        4.6476
 154        4.8292
 155        4.9154
 156        4.9165
 157        4.9985
 158        5.0191
 159        5.0221
 160        5.0230
 161        5.0259
 162        5.0269
 163        5.0707
 164        5.0934
 165        5.0994
 166        5.1134
 167        5.1144
 168        5.1166
 169        5.1177
 170        5.1396
 171        5.1404
 172        5.1423
 173        5.1434
 174        5.2185
 175        5.2199
 176        5.3590
 177        5.5032
 178        5.5037
 179        5.5123
 180        5.5127
 181        5.5915
 182        5.5937
 183        5.8575
 184        5.8799
 185        5.8943
 186        5.9584
 187        5.9589
 188        5.9805
 189        5.9810
 190        6.0678
 191        6.0804
 192        6.0809
 193        6.0966
 194        6.1387
 195        6.1424
 196        6.1592
 197        6.1831
 198        6.1836
 199        6.2195
 200        6.2200
 201        6.2687
 202        6.3081
 203        6.3199
 204        6.3211
 205        6.3215
 206        6.3217
 207        6.3373
 208        6.3514
 209        6.3694
 210        6.4540
 211        6.4762
 212        6.5572
 213        6.5574
 214        6.5794
 215        6.6158
 216        6.6783
 
  0.4285714E+00  0.5551115E-16  0.0000000E+00  0.8163265E-02
   1      -27.6936
   2      -27.6647
   3      -27.6392
   4      -27.6391
   5      -27.5923
   6      -27.5923
   7      -27.5920
   8      -27.5920
   9      -27.5889
  10      -27.5888
  11      -27.5887
  12      -27.5887
  13      -27.5868
  14      -27.5867
  15      -27.5843
  16      -27.5290
  17      -27.5283
  18      -27.5245
  19      -27.5235
  20      -27.5065
  21      -27.5063
  22      -27.5056
  23      -27.5055
  24      -27.4797
  25      -27.4738
  26      -27.4727
  27      -27.4581
  28      -27.4528
  29      -27.4524
  30      -27.4431
  31      -27.4414
  32      -27.4413
  33      -27.4401
  34      -27.4375
  35      -27.4372
  36      -27.4370
  37      -27.4363
  38      -27.3781
  39      -27.3761
  40      -27.3527
  41      -27.3513
  42      -27.3267
  43      -27.3237
  44      -27.3235
  45      -27.3231
  46      -27.3188
  47      -27.3186
  48      -27.2960
  49      -27.2903
  50      -27.2902
  51      -27.2900
  52      -27.2850
  53      -27.2849
  54      -27.2768
  55      -27.2657
  56      -27.2618
  57      -27.2617
  58      -27.2537
  59      -27.2462
  60      -27.2461
  61      -27.2429
  62      -27.2411
  63      -27.2409
  64      -27.2404
  65      -27.2404
  66      -27.2389
  67      -27.2187
  68      -27.2093
  69      -27.2076
  70      -27.2074
  71      -27.2042
  72      -27.1928
  73      -27.1898
  74      -27.1897
  75      -27.1896
  76      -27.1895
  77      -27.1894
  78      -27.1894
  79      -27.1877
  80      -27.1876
  81      -27.1864
  82      -27.1863
  83      -27.1847
  84      -27.1847
  85      -27.1742
  86      -27.1706
  87      -27.1701
  88      -27.1693
  89      -27.1644
  90      -27.1636
  91      -27.1634
  92      -27.1616
  93      -27.1616
  94      -27.1565
  95      -27.1514
  96      -27.1514
  97      -27.1347
  98      -27.1330
  99      -27.1227
 100      -27.1208
 101      -27.1205
 102      -27.1204
 103      -27.1202
 104      -27.1164
 105      -27.1072
 106      -27.1071
 107      -27.0663
 108      -27.0574
 109        0.1606
 110        0.5658
 111        1.6830
 112        1.6860
 113        1.8500
 114        1.8503
 115        2.1611
 116        2.1614
 117        2.9142
 118        2.9144
 119        2.9171
 120        2.9172
 121        3.2151
 122        3.2309
 123        3.2312
 124        3.2352
 125        3.3784
 126        3.4881
 127        3.4884
 128        3.4987
 129        3.4990
 130        3.5002
 131        3.6153
 132        3.6342
 133        3.6638
 134        3.7249
 135        3.7252
 136        3.7319
 137        3.7323
 138        3.7591
 139        3.9186
 140        4.0643
 141        4.0706
 142        4.0838
 143        4.0930
 144        4.1034
 145        4.1181
 146        4.1884
 147        4.2088
 148        4.3054
 149        4.3094
 150        4.5601
 151        4.5641
 152        4.7530
 153        4.7702
 154        4.8793
 155        4.8890
 156        4.8902
 157        4.8976
 158        4.9982
 159        5.0079
 160        5.0678
 161        5.0687
 162        5.0763
 163        5.0772
 164        5.1079
 165        5.1266
 166        5.1276
 167        5.1377
 168        5.1387
 169        5.1644
 170        5.1759
 171        5.1765
 172        5.1772
 173        5.1784
 174        5.3380
 175        5.3396
 176        5.4683
 177        5.4702
 178        5.5253
 179        5.5741
 180        5.7043
 181        5.7046
 182        5.7278
 183        5.7280
 184        5.8243
 185        5.8709
 186        5.8713
 187        5.8791
 188        5.8795
 189        5.9155
 190        5.9451
 191        5.9666
 192        5.9670
 193        5.9971
 194        5.9974
 195        6.0126
 196        6.0353
 197        6.1447
 198        6.1450
 199        6.2281
 200        6.2367
 201        6.2395
 202        6.2398
 203        6.2648
 204        6.2661
 205        6.2709
 206        6.2727
 207        6.3483
 208        6.3608
 209        6.3645
 210        6.3930
 211        6.4672
 212        6.6154
 213        6.6914
 214        6.7121
 215        6.7207
 216        6.7274
 
  0.0000000E+00  0.1428571E+00  0.0000000E+00  0.8163265E-02
   1      -27.7289
   2      -27.5944
   3      -27.5943
   4      -27.5912
   5      -27.5745
   6      -27.5744
   7      -27.5727
   8      -27.5726
   9      -27.5685
  10      -27.5684
  11      -27.5650
  12      -27.5649
  13      -27.5648
  14      -27.5647
  15      -27.5356
  16      -27.5355
  17      -27.5329
  18      -27.5328
  19      -27.5287
  20      -27.5284
  21      -27.5261
  22      -27.5151
  23      -27.5149
  24      -27.5116
  25      -27.5050
  26      -27.5022
  27      -27.5010
  28      -27.4985
  29      -27.4423
  30      -27.4417
  31      -27.4274
  32      -27.4269
  33      -27.4263
  34      -27.4150
  35      -27.4121
  36      -27.4100
  37      -27.4057
  38      -27.4044
  39      -27.3878
  40      -27.3877
  41      -27.3873
  42      -27.3870
  43      -27.3857
  44      -27.3855
  45      -27.3795
  46      -27.3770
  47      -27.3556
  48      -27.3544
  49      -27.3206
  50      -27.3187
  51      -27.3154
  52      -27.2836
  53      -27.2831
  54      -27.2522
  55      -27.2490
  56      -27.2489
  57      -27.2465
  58      -27.2463
  59      -27.2457
  60      -27.2451
  61      -27.2449
  62      -27.2429
  63      -27.2412
  64      -27.2410
  65      -27.2399
  66      -27.2398
  67      -27.2331
  68      -27.2315
  69      -27.2314
  70      -27.2240
  71      -27.2165
  72      -27.2131
  73      -27.2059
  74      -27.2026
  75      -27.1873
  76      -27.1872
  77      -27.1868
  78      -27.1868
  79      -27.1816
  80      -27.1810
  81      -27.1808
  82      -27.1795
  83      -27.1766
  84      -27.1764
  85      -27.1731
  86      -27.1729
  87      -27.1694
  88      -27.1679
  89      -27.1678
  90      -27.1603
  91      -27.1601
  92      -27.1507
  93      -27.1505
  94      -27.1454
  95      -27.1320
  96      -27.1159
  97      -27.1088
  98      -27.1066
  99      -27.1059
 100      -27.1051
 101      -27.0997
 102      -27.0996
 103      -27.0984
 104      -27.0893
 105      -27.0892
 106      -27.0874
 107      -27.0584
 108      -27.0464
 109       -0.3289
 110        1.4445
 111        1.4448
 112        1.5954
 113        1.9180
 114        1.9315
 115        2.4557
 116        2.4753
 117        2.6708
 118        2.7986
 119        2.7988
 120        2.9562
 121        2.9564
 122        2.9681
 123        2.9683
 124        3.1301
 125        3.1327
 126        3.1329
 127        3.1471
 128        3.1474
 129        3.1526
 130        3.1529
 131        3.9339
 132        4.0212
 133        4.0283
 134        4.0899
 135        4.0990
 136        4.1067
 137        4.1082
 138        4.1144
 139        4.1211
 140        4.1759
 141        4.1983
 142        4.2249
 143        4.2367
 144        4.2769
 145        4.2776
 146        4.2788
 147        4.2795
 148        4.3862
 149        4.3866
 150        4.4027
 151        4.4146
 152        4.5150
 153        4.5350
 154        4.5363
 155        4.8988
 156        4.8995
 157        4.9051
 158        4.9058
 159        4.9655
 160        4.9666
 161        5.0106
 162        5.0116
 163        5.0119
 164        5.0129
 165        5.0837
 166        5.0847
 167        5.0880
 168        5.0889
 169        5.0944
 170        5.1087
 171        5.1176
 172        5.1186
 173        5.1190
 174        5.1378
 175        5.1652
 176        5.2188
 177        5.4711
 178        5.4713
 179        5.4733
 180        5.4736
 181        5.6832
 182        5.6856
 183        5.8449
 184        5.8871
 185        5.9724
 186        6.0176
 187        6.1019
 188        6.1024
 189        6.1094
 190        6.1099
 191        6.1417
 192        6.1422
 193        6.1644
 194        6.2777
 195        6.2896
 196        6.2901
 197        6.2952
 198        6.3096
 199        6.3241
 200        6.3302
 201        6.3307
 202        6.3463
 203        6.3551
 204        6.3660
 205        6.3661
 206        6.3808
 207        6.3968
 208        6.3992
 209        6.4007
 210        6.4622
 211        6.4668
 212        6.4883
 213        6.4942
 214        6.5066
 215        6.5072
 216        6.5257
 
  0.1428571E+00  0.1428571E+00  0.0000000E+00  0.8163265E-02
   1      -27.7199
   2      -27.6082
   3      -27.6081
   4      -27.6080
   5      -27.6080
   6      -27.6079
   7      -27.6078
   8      -27.5788
   9      -27.5788
  10      -27.5696
  11      -27.5696
  12      -27.5523
  13      -27.5522
  14      -27.5520
  15      -27.5520
  16      -27.5443
  17      -27.5442
  18      -27.5412
  19      -27.5409
  20      -27.5240
  21      -27.5008
  22      -27.4969
  23      -27.4967
  24      -27.4967
  25      -27.4965
  26      -27.4916
  27      -27.4914
  28      -27.4686
  29      -27.4684
  30      -27.4445
  31      -27.4444
  32      -27.4303
  33      -27.4289
  34      -27.4284
  35      -27.4214
  36      -27.4056
  37      -27.3977
  38      -27.3894
  39      -27.3893
  40      -27.3770
  41      -27.3770
  42      -27.3764
  43      -27.3667
  44      -27.3664
  45      -27.3661
  46      -27.3659
  47      -27.3576
  48      -27.2988
  49      -27.2975
  50      -27.2973
  51      -27.2940
  52      -27.2636
  53      -27.2569
  54      -27.2568
  55      -27.2549
  56      -27.2547
  57      -27.2546
  58      -27.2544
  59      -27.2537
  60      -27.2502
  61      -27.2500
  62      -27.2499
  63      -27.2498
  64      -27.2489
  65      -27.2488
  66      -27.2302
  67      -27.2298
  68      -27.2260
  69      -27.2258
  70      -27.2257
  71      -27.2255
  72      -27.2030
  73      -27.2029
  74      -27.1955
  75      -27.1953
  76      -27.1884
  77      -27.1883
  78      -27.1871
  79      -27.1871
  80      -27.1826
  81      -27.1825
  82      -27.1824
  83      -27.1822
  84      -27.1781
  85      -27.1780
  86      -27.1779
  87      -27.1778
  88      -27.1643
  89      -27.1603
  90      -27.1599
  91      -27.1460
  92      -27.1458
  93      -27.1458
  94      -27.1456
  95      -27.1390
  96      -27.1268
  97      -27.1267
  98      -27.1169
  99      -27.1167
 100      -27.1144
 101      -27.1143
 102      -27.1095
 103      -27.0933
 104      -27.0932
 105      -27.0874
 106      -27.0872
 107      -27.0777
 108      -27.0493
 109       -0.2045
 110        1.3637
 111        1.3641
 112        1.5501
 113        1.5505
 114        2.3232
 115        2.3235
 116        2.6874
 117        2.6877
 118        2.6879
 119        2.6879
 120        2.9333
 121        2.9336
 122        3.1627
 123        3.1632
 124        3.1632
 125        3.1633
 126        3.2243
 127        3.2247
 128        3.2248
 129        3.2250
 130        3.2289
 131        3.8972
 132        3.8974
 133        4.0116
 134        4.0390
 135        4.0396
 136        4.0454
 137        4.0461
 138        4.0683
 139        4.0916
 140        4.0920
 141        4.0961
 142        4.1015
 143        4.1020
 144        4.1130
 145        4.1688
 146        4.1694
 147        4.2544
 148        4.2742
 149        4.2750
 150        4.4287
 151        4.5327
 152        4.6629
 153        4.6636
 154        4.6637
 155        4.9550
 156        4.9558
 157        4.9564
 158        4.9567
 159        5.0324
 160        5.0333
 161        5.0343
 162        5.0355
 163        5.0745
 164        5.0748
 165        5.0756
 166        5.0757
 167        5.0760
 168        5.0777
 169        5.1052
 170        5.1063
 171        5.1690
 172        5.1702
 173        5.1704
 174        5.1715
 175        5.2399
 176        5.2408
 177        5.4855
 178        5.4863
 179        5.4892
 180        5.4893
 181        5.6186
 182        5.6209
 183        5.8581
 184        5.8787
 185        5.9693
 186        6.0438
 187        6.0444
 188        6.0445
 189        6.0451
 190        6.0641
 191        6.0651
 192        6.0656
 193        6.0663
 194        6.0723
 195        6.0935
 196        6.1159
 197        6.2102
 198        6.2113
 199        6.2469
 200        6.2478
 201        6.3249
 202        6.3258
 203        6.3268
 204        6.3270
 205        6.3654
 206        6.3659
 207        6.4619
 208        6.4630
 209        6.5286
 210        6.5289
 211        6.5291
 212        6.5294
 213        6.5362
 214        6.5370
 215        6.5379
 216        6.5383
 
  0.2857143E+00  0.1428571E+00  0.0000000E+00  0.8163265E-02
   1      -27.7023
   2      -27.6449
   3      -27.6303
   4      -27.6302
   5      -27.6185
   6      -27.6133
   7      -27.6133
   8      -27.5962
   9      -27.5962
  10      -27.5742
  11      -27.5742
  12      -27.5735
  13      -27.5668
  14      -27.5667
  15      -27.5527
  16      -27.5486
  17      -27.5432
  18      -27.5365
  19      -27.5364
  20      -27.5099
  21      -27.4988
  22      -27.4879
  23      -27.4838
  24      -27.4836
  25      -27.4701
  26      -27.4686
  27      -27.4655
  28      -27.4652
  29      -27.4636
  30      -27.4531
  31      -27.4410
  32      -27.4401
  33      -27.4376
  34      -27.4351
  35      -27.4343
  36      -27.4338
  37      -27.4213
  38      -27.4183
  39      -27.3891
  40      -27.3454
  41      -27.3448
  42      -27.3359
  43      -27.3357
  44      -27.3331
  45      -27.3329
  46      -27.3262
  47      -27.3105
  48      -27.2934
  49      -27.2787
  50      -27.2771
  51      -27.2768
  52      -27.2766
  53      -27.2708
  54      -27.2666
  55      -27.2660
  56      -27.2660
  57      -27.2655
  58      -27.2601
  59      -27.2599
  60      -27.2517
  61      -27.2517
  62      -27.2496
  63      -27.2459
  64      -27.2404
  65      -27.2379
  66      -27.2301
  67      -27.2213
  68      -27.2211
  69      -27.2148
  70      -27.2146
  71      -27.2025
  72      -27.2025
  73      -27.1989
  74      -27.1913
  75      -27.1901
  76      -27.1900
  77      -27.1896
  78      -27.1882
  79      -27.1881
  80      -27.1873
  81      -27.1873
  82      -27.1870
  83      -27.1868
  84      -27.1849
  85      -27.1848
  86      -27.1796
  87      -27.1764
  88      -27.1763
  89      -27.1572
  90      -27.1566
  91      -27.1544
  92      -27.1456
  93      -27.1455
  94      -27.1418
  95      -27.1414
  96      -27.1397
  97      -27.1396
  98      -27.1390
  99      -27.1309
 100      -27.1307
 101      -27.1219
 102      -27.1167
 103      -27.1105
 104      -27.1027
 105      -27.1026
 106      -27.0953
 107      -27.0762
 108      -27.0563
 109        0.0398
 110        0.8460
 111        1.2239
 112        1.7530
 113        1.7533
 114        2.2312
 115        2.3630
 116        2.3632
 117        2.6228
 118        2.6230
 119        2.7680
 120        3.1905
 121        3.1907
 122        3.2386
 123        3.2614
 124        3.2617
 125        3.2918
 126        3.3542
 127        3.3545
 128        3.3862
 129        3.3864
 130        3.4147
 131        3.6524
 132        3.7621
 133        3.7791
 134        3.7796
 135        3.8662
 136        3.8666
 137        3.8700
 138        3.9149
 139        3.9206
 140        3.9525
 141        4.0161
 142        4.0274
 143        4.1002
 144        4.1091
 145        4.1274
 146        4.1911
 147        4.2410
 148        4.3453
 149        4.3560
 150        4.3970
 151        4.6066
 152        4.7610
 153        4.7964
 154        4.8838
 155        4.8972
 156        4.9195
 157        4.9206
 158        4.9683
 159        4.9900
 160        4.9911
 161        4.9986
 162        5.0779
 163        5.0940
 164        5.0948
 165        5.1307
 166        5.1311
 167        5.1320
 168        5.1333
 169        5.1350
 170        5.1359
 171        5.2161
 172        5.2173
 173        5.2251
 174        5.2742
 175        5.2756
 176        5.4269
 177        5.5121
 178        5.5141
 179        5.5544
 180        5.5550
 181        5.6595
 182        5.7116
 183        5.7119
 184        5.8635
 185        5.8639
 186        5.8754
 187        5.8996
 188        5.9198
 189        5.9201
 190        5.9409
 191        5.9838
 192        5.9842
 193        6.0482
 194        6.0842
 195        6.0846
 196        6.1328
 197        6.1414
 198        6.1614
 199        6.2231
 200        6.2471
 201        6.2589
 202        6.2591
 203        6.2742
 204        6.3165
 205        6.3322
 206        6.3327
 207        6.3585
 208        6.4031
 209        6.4198
 210        6.4698
 211        6.5501
 212        6.5596
 213        6.6648
 214        6.6835
 215        6.7141
 216        6.7153
 
  0.4285714E+00  0.1428571E+00  0.0000000E+00  0.8163265E-02
   1      -27.6769
   2      -27.6768
   3      -27.6382
   4      -27.6381
   5      -27.6220
   6      -27.6093
   7      -27.6093
   8      -27.6087
   9      -27.6086
  10      -27.5838
  11      -27.5746
  12      -27.5746
  13      -27.5740
  14      -27.5740
  15      -27.5550
  16      -27.5512
  17      -27.5508
  18      -27.5311
  19      -27.5310
  20      -27.4994
  21      -27.4940
  22      -27.4792
  23      -27.4786
  24      -27.4784
  25      -27.4762
  26      -27.4753
  27      -27.4535
  28      -27.4528
  29      -27.4513
  30      -27.4460