 vasp.4.6.28 25Jul05 complex 
 executed on             LinuxIFC date 2016.11.25  19:18:01
 running on    4 nodes
 distr:  one band on    1 nodes,    4 groups


--------------------------------------------------------------------------------------------------------


 INCAR:
 POTCAR:   PAW_PBE Ti_pv 07Sep2000                
 POTCAR:   PAW_PBE Ti_pv 07Sep2000                
   VRHFIN =Ti: d3 s1                                                            
   LEXCH  = PE                                                                  
   EATOM  =  1042.3781 eV,   76.6126 Ry                                         
                                                                                
   TITEL  = PAW_PBE Ti_pv 07Sep2000                                             
   LULTRA =        F    use ultrasoft PP ?                                      
   IUNSCR =        1    unscreen: 0-lin 1-nonlin 2-no                           
   RPACOR =    2.200    partial core radius                                     
   POMASS =   47.880; ZVAL   =   10.000    mass and valenz                      
   RCORE  =    2.500    outmost cutoff radius                                   
   RWIGS  =    2.500; RWIGS  =    1.323    wigner-seitz radius (au A)           
   ENMAX  =  222.338; ENMIN  =  166.753 eV                                      
   RCLOC  =    1.701    cutoff for local pot                                    
   LCOR   =        T    correct aug charges                                     
   LPAW   =        T    paw PP                                                  
   EAUG   =  482.848                                                            
   DEXC   =    -.008                                                            
   RMAX   =    3.092    core radius for proj-oper                               
   RAUG   =    1.300    factor for augmentation sphere                          
   RDEP   =    2.538    radius for radial grids                                 
   QCUT   =   -4.042; QGAM   =    8.085    optimization parameters              
                                                                                
   Description                                                                  
     l     E      TYP  RCUT    TYP  RCUT                                        
     1   .000     23  2.300                                                     
     1  -.100     23  2.300                                                     
     2   .000     23  2.500                                                     
     2   .000     23  2.500                                                     
     0   .000     23  2.500                                                     
     0  1.500     23  2.500                                                     
     3   .000      7   .000                                                     
  local pseudopotential read in
  partial core-charges read in
  atomic valenz-charges read in
  non local Contribution for L=           1  read in
    real space projection operators read in
  non local Contribution for L=           1  read in
    real space projection operators read in
  non local Contribution for L=           2  read in
    real space projection operators read in
  non local Contribution for L=           2  read in
    real space projection operators read in
  non local Contribution for L=           0  read in
    real space projection operators read in
  non local Contribution for L=           0  read in
    real space projection operators read in
    PAW grid and wavefunctions read in
 
   number of l-projection  operators is LMAX  =           6
   number of lm-projection operators is LMMAX =          18
 

 ----------------------------------------------------------------------------- 
|                                                                             |
|  ADVICE TO THIS USER RUNNING 'VASP/VAMP'   (HEAR YOUR MASTER'S VOICE ...):  |
|                                                                             |
|      You have a (more or less) 'large supercell' and for larger cells       |
|      it might be more efficient to use real space projection operators      |
|      So try LREAL= Auto  in the INCAR   file.                               |
|      Mind: If you want to do an extremely accurate calculations keep the    |
|      reciprocal projection scheme          (i.e. LREAL=.FALSE.)             |
|                                                                             |
 ----------------------------------------------------------------------------- 

 PAW_PBE Ti_pv 07Sep2000                :
 energy of atom  1       EATOM=-1042.3781
 kinetic energy error for atom=    0.0024 (will be added to EATOM!!)
 
 EXHCAR: internal setup
 exchange correlation table for  LEXCH =        8
   RHO(1)=    0.500       N(1)  =     2000
   RHO(2)=  100.500       N(2)  =     4000
 
 POSCAR: Ti                                      
  positions in direct lattice
  No initial velocities read in
 


--------------------------------------------------------------------------------------------------------


 ion  position               nearest neighbor table
   1  0.112  0.223  0.126-  22 2.91  19 2.91  21 2.91  31 2.92  28 2.92  30 2.93   2 2.93   7 2.94
                             4 2.94   3 2.95   5 2.95   9 2.96
   2  0.444  0.223  0.125-  19 2.92  28 2.92  23 2.92  32 2.92  29 2.92  20 2.92   1 2.93   3 2.94
                             8 2.94   5 2.94   7 2.95   6 2.95
   3  0.777  0.223  0.125-  20 2.92  29 2.92  24 2.92  33 2.92  30 2.92  21 2.92   2 2.94   9 2.94
                             6 2.94   1 2.95   8 2.95   4 2.95
   4  0.111  0.556  0.125-  24 2.92  33 2.92  25 2.92  34 2.92  22 2.92  31 2.92   6 2.94   5 2.94
                             7 2.94   1 2.94   3 2.95   8 2.95
   5  0.444  0.556  0.125-  22 2.92  31 2.92  26 2.92  35 2.92  32 2.92  23 2.92   4 2.94   6 2.94
                             2 2.94   8 2.94   1 2.95   9 2.95
   6  0.777  0.556  0.125-  23 2.92  32 2.92  27 2.92  36 2.92  33 2.92  24 2.92   4 2.94   5 2.94
                             3 2.94   9 2.94   7 2.95   2 2.95
   7  0.111  0.889  0.125-  27 2.92  36 2.92  28 2.92  19 2.92  34 2.92  25 2.92   1 2.94   9 2.94
                             8 2.94   4 2.94   2 2.95   6 2.95
   8  0.444  0.889  0.125-  25 2.92  34 2.92  29 2.92  20 2.92  26 2.92  35 2.92   7 2.94   9 2.94
                             2 2.94   5 2.94   3 2.95   4 2.95
   9  0.777  0.889  0.125-  26 2.92  35 2.92  30 2.92  21 2.92  27 2.92  36 2.92   7 2.94   8 2.94
                             3 2.94   6 2.94   5 2.95   1 2.96
  10  0.111  0.223  0.625-  21 2.92  30 2.92  22 2.92  31 2.92  19 2.92  28 2.92  12 2.94  11 2.94
                            16 2.94  13 2.94  18 2.95  14 2.95
  11  0.444  0.223  0.625-  19 2.92  28 2.92  23 2.92  32 2.92  29 2.92  20 2.92  10 2.94  12 2.94
                            17 2.94  14 2.94  16 2.95  15 2.95
  12  0.777  0.223  0.625-  20 2.92  29 2.92  24 2.92  33 2.92  30 2.92  21 2.92  10 2.94  11 2.94
                            18 2.94  15 2.94  17 2.95  13 2.95
  13  0.111  0.556  0.625-  24 2.92  33 2.92  25 2.92  34 2.92  22 2.92  31 2.92  15 2.94  14 2.94
                            10 2.94  16 2.94  12 2.95  17 2.95
  14  0.444  0.556  0.625-  22 2.92  31 2.92  26 2.92  35 2.92  32 2.92  23 2.92  13 2.94  15 2.94
                            11 2.94  17 2.94  10 2.95  18 2.95
  15  0.777  0.556  0.625-  23 2.92  32 2.92  27 2.92  36 2.92  33 2.92  24 2.92  13 2.94  14 2.94
                            12 2.94  18 2.94  16 2.95  11 2.95
  16  0.111  0.889  0.625-  27 2.92  36 2.92  28 2.92  19 2.92  34 2.92  25 2.92  18 2.94  17 2.94
                            10 2.94  13 2.94  11 2.95  15 2.95
  17  0.444  0.889  0.625-  25 2.92  34 2.92  29 2.92  20 2.92  26 2.92  35 2.92  16 2.94  18 2.94
                            11 2.94  14 2.94  12 2.95  13 2.95
  18  0.777  0.889  0.625-  26 2.92  35 2.92  30 2.92  21 2.92  27 2.92  36 2.92  16 2.94  17 2.94
                            12 2.94  15 2.94  10 2.95  14 2.95
  19  0.223  0.111  0.375-   1 2.91   2 2.92  11 2.92   7 2.92  16 2.92  10 2.92  21 2.94  20 2.94
                            25 2.94  22 2.94  27 2.95  23 2.95
  20  0.556  0.111  0.375-   3 2.92  12 2.92   8 2.92  17 2.92   2 2.92  11 2.92  19 2.94  21 2.94
                            26 2.94  23 2.94  25 2.95  24 2.95
  21  0.889  0.111  0.375-   1 2.91  10 2.92   9 2.92  18 2.92  12 2.92   3 2.92  19 2.94  20 2.94
                            27 2.94  24 2.94  26 2.95  22 2.95
  22  0.223  0.444  0.375-   1 2.91   5 2.92  14 2.92  10 2.92  13 2.92   4 2.92  24 2.94  23 2.94
                            19 2.94  25 2.94  21 2.95  26 2.95
  23  0.556  0.444  0.375-   6 2.92  15 2.92  11 2.92   2 2.92  14 2.92   5 2.92  22 2.94  24 2.94
                            20 2.94  26 2.94  19 2.95  27 2.95
  24  0.889  0.444  0.375-   4 2.92  13 2.92  12 2.92   3 2.92   6 2.92  15 2.92  22 2.94  23 2.94
                            21 2.94  27 2.94  25 2.95  20 2.95
  25  0.223  0.777  0.375-   8 2.92  17 2.92  13 2.92   4 2.92  16 2.92   7 2.92  27 2.94  26 2.94
                            19 2.94  22 2.94  20 2.95  24 2.95
  26  0.556  0.777  0.375-   9 2.92  18 2.92  14 2.92   5 2.92  17 2.92   8 2.92  25 2.94  27 2.94
                            20 2.94  23 2.94  21 2.95  22 2.95
  27  0.889  0.777  0.375-   7 2.92  16 2.92  15 2.92   6 2.92   9 2.92  18 2.92  25 2.94  26 2.94
                            21 2.94  24 2.94  19 2.95  23 2.95
  28  0.223  0.111  0.875-   2 2.92  11 2.92   7 2.92  16 2.92  10 2.92   1 2.92  30 2.94  29 2.94
                            34 2.94  31 2.94  36 2.95  32 2.95
  29  0.556  0.111  0.875-   3 2.92  12 2.92   8 2.92  17 2.92   2 2.92  11 2.92  28 2.94  30 2.94
                            35 2.94  32 2.94  34 2.95  33 2.95
  30  0.889  0.111  0.875-  10 2.92   9 2.92  18 2.92  12 2.92   3 2.92   1 2.93  28 2.94  29 2.94
                            36 2.94  33 2.94  35 2.95  31 2.95
  31  0.223  0.444  0.875-   5 2.92  14 2.92  10 2.92  13 2.92   4 2.92   1 2.92  33 2.94  32 2.94
                            28 2.94  34 2.94  30 2.95  35 2.95
  32  0.556  0.444  0.875-   6 2.92  15 2.92  11 2.92   2 2.92  14 2.92   5 2.92  31 2.94  33 2.94
                            29 2.94  35 2.94  28 2.95  36 2.95
  33  0.889  0.444  0.875-   4 2.92  13 2.92  12 2.92   3 2.92   6 2.92  15 2.92  31 2.94  32 2.94
                            30 2.94  36 2.94  34 2.95  29 2.95
  34  0.223  0.777  0.875-   8 2.92  17 2.92  13 2.92   4 2.92  16 2.92   7 2.92  36 2.94  35 2.94
                            28 2.94  31 2.94  29 2.95  33 2.95
  35  0.556  0.777  0.875-   9 2.92  18 2.92  14 2.92   5 2.92  17 2.92   8 2.92  34 2.94  36 2.94
                            29 2.94  32 2.94  30 2.95  31 2.95
  36  0.889  0.777  0.875-   7 2.92  16 2.92  15 2.92   6 2.92   9 2.92  18 2.92  34 2.94  35 2.94
                            30 2.94  33 2.94  28 2.95  32 2.95
 
  LATTYP: Found a base centered orthorhombic cell.
 ALAT       =     8.8635622795
 B/A-ratio  =     1.7208744689
 C/A-ratio  =     1.0699646938
  
  Lattice vectors:
  
 A1 = (   8.8206670999,   0.0247654402,   0.0000000000)
 A2 = (  -4.3888858705,   7.6513046101,   0.0000000000)
 A3 = (   0.0000000000,   0.0000000000,   9.4836987000)
 Subroutine PRICEL returns:
 Original cell was already a primitive cell.
 

Analysis of symmetry for initial positions (statically):

 Routine SETGRP: Setting up the symmetry group for a 
 base centered orthorhombic supercell.


 Subroutine GETGRP returns: Found  1 space group operations
 (whereof  1 operations were pure point group operations)
 out of a pool of  8 trial point group operations.


The static configuration has the point symmetry C_1 .

Analysis of symmetry for dynamics (positions and initial velocities):

 Subroutine DYNSYM returns: Found  1 space group operations
 (whereof  1 operations were pure point group operations)
 out of a pool of  1 trial space group operations
 (whereof  1 operations were pure point group operations)
 and found also     1 'primitive' translations


The dynamic configuration has the point symmetry C_1 .
 
 
 KPOINTS: Automatic mesh                          

Automatic generation of k-mesh.
 generate k-points for:   7   7   5
 
 Subroutine IBZKPT returns following result:
 ===========================================
 
 Found    123 irreducible k-points:
 
 Following reciprocal coordinates:
            Coordinates               Weight
  0.000000  0.000000  0.000000      1.000000
  0.142857  0.000000  0.000000      2.000000
  0.285714  0.000000  0.000000      2.000000
  0.428571  0.000000  0.000000      2.000000
  0.000000  0.142857  0.000000      2.000000
  0.142857  0.142857  0.000000      2.000000
  0.285714  0.142857  0.000000      2.000000
  0.428571  0.142857  0.000000      2.000000
 -0.428571  0.142857  0.000000      2.000000
 -0.285714  0.142857  0.000000      2.000000
 -0.142857  0.142857  0.000000      2.000000
  0.000000  0.285714  0.000000      2.000000
  0.142857  0.285714  0.000000      2.000000
  0.285714  0.285714  0.000000      2.000000
  0.428571  0.285714  0.000000      2.000000
 -0.428571  0.285714  0.000000      2.000000
 -0.285714  0.285714  0.000000      2.000000
 -0.142857  0.285714  0.000000      2.000000
  0.000000  0.428571  0.000000      2.000000
  0.142857  0.428571  0.000000      2.000000
  0.285714  0.428571  0.000000      2.000000
  0.428571  0.428571  0.000000      2.000000
 -0.428571  0.428571  0.000000      2.000000
 -0.285714  0.428571  0.000000      2.000000
 -0.142857  0.428571  0.000000      2.000000
  0.000000  0.000000  0.200000      2.000000
  0.142857  0.000000  0.200000      2.000000
  0.285714  0.000000  0.200000      2.000000
  0.428571  0.000000  0.200000      2.000000
 -0.428571 -0.000000  0.200000      2.000000
 -0.285714 -0.000000  0.200000      2.000000
 -0.142857 -0.000000  0.200000      2.000000
  0.000000  0.142857  0.200000      2.000000
  0.142857  0.142857  0.200000      2.000000
  0.285714  0.142857  0.200000      2.000000
  0.428571  0.142857  0.200000      2.000000
 -0.428571  0.142857  0.200000      2.000000
 -0.285714  0.142857  0.200000      2.000000
 -0.142857  0.142857  0.200000      2.000000
  0.000000  0.285714  0.200000      2.000000
  0.142857  0.285714  0.200000      2.000000
  0.285714  0.285714  0.200000      2.000000
  0.428571  0.285714  0.200000      2.000000
 -0.428571  0.285714  0.200000      2.000000
 -0.285714  0.285714  0.200000      2.000000
 -0.142857  0.285714  0.200000      2.000000
  0.000000  0.428571  0.200000      2.000000
  0.142857  0.428571  0.200000      2.000000
  0.285714  0.428571  0.200000      2.000000
  0.428571  0.428571  0.200000      2.000000
 -0.428571  0.428571  0.200000      2.000000
 -0.285714  0.428571  0.200000      2.000000
 -0.142857  0.428571  0.200000      2.000000
  0.000000 -0.428571  0.200000      2.000000
  0.142857 -0.428571  0.200000      2.000000
  0.285714 -0.428571  0.200000      2.000000
  0.428571 -0.428571  0.200000      2.000000
 -0.428571 -0.428571  0.200000      2.000000
 -0.285714 -0.428571  0.200000      2.000000
 -0.142857 -0.428571  0.200000      2.000000
 -0.000000 -0.285714  0.200000      2.000000
  0.142857 -0.285714  0.200000      2.000000
  0.285714 -0.285714  0.200000      2.000000
  0.428571 -0.285714  0.200000      2.000000
 -0.428571 -0.285714  0.200000      2.000000
 -0.285714 -0.285714  0.200000      2.000000
 -0.142857 -0.285714  0.200000      2.000000
 -0.000000 -0.142857  0.200000      2.000000
  0.142857 -0.142857  0.200000      2.000000
  0.285714 -0.142857  0.200000      2.000000
  0.428571 -0.142857  0.200000      2.000000
 -0.428571 -0.142857  0.200000      2.000000
 -0.285714 -0.142857  0.200000      2.000000
 -0.142857 -0.142857  0.200000      2.000000
  0.000000  0.000000  0.400000      2.000000
  0.142857  0.000000  0.400000      2.000000
  0.285714  0.000000  0.400000      2.000000
  0.428571  0.000000  0.400000      2.000000
 -0.428571 -0.000000  0.400000      2.000000
 -0.285714 -0.000000  0.400000      2.000000
 -0.142857 -0.000000  0.400000      2.000000
  0.000000  0.142857  0.400000      2.000000
  0.142857  0.142857  0.400000      2.000000
  0.285714  0.142857  0.400000      2.000000
  0.428571  0.142857  0.400000      2.000000
 -0.428571  0.142857  0.400000      2.000000
 -0.285714  0.142857  0.400000      2.000000
 -0.142857  0.142857  0.400000      2.000000
  0.000000  0.285714  0.400000      2.000000
  0.142857  0.285714  0.400000      2.000000
  0.285714  0.285714  0.400000      2.000000
  0.428571  0.285714  0.400000      2.000000
 -0.428571  0.285714  0.400000      2.000000
 -0.285714  0.285714  0.400000      2.000000
 -0.142857  0.285714  0.400000      2.000000
  0.000000  0.428571  0.400000      2.000000
  0.142857  0.428571  0.400000      2.000000
  0.285714  0.428571  0.400000      2.000000
  0.428571  0.428571  0.400000      2.000000
 -0.428571  0.428571  0.400000      2.000000
 -0.285714  0.428571  0.400000      2.000000
 -0.142857  0.428571  0.400000      2.000000
  0.000000 -0.428571  0.400000      2.000000
  0.142857 -0.428571  0.400000      2.000000
  0.285714 -0.428571  0.400000      2.000000
  0.428571 -0.428571  0.400000      2.000000
 -0.428571 -0.428571  0.400000      2.000000
 -0.285714 -0.428571  0.400000      2.000000
 -0.142857 -0.428571  0.400000      2.000000
 -0.000000 -0.285714  0.400000      2.000000
  0.142857 -0.285714  0.400000      2.000000
  0.285714 -0.285714  0.400000      2.000000
  0.428571 -0.285714  0.400000      2.000000
 -0.428571 -0.285714  0.400000      2.000000
 -0.285714 -0.285714  0.400000      2.000000
 -0.142857 -0.285714  0.400000      2.000000
 -0.000000 -0.142857  0.400000      2.000000
  0.142857 -0.142857  0.400000      2.000000
  0.285714 -0.142857  0.400000      2.000000
  0.428571 -0.142857  0.400000      2.000000
 -0.428571 -0.142857  0.400000      2.000000
 -0.285714 -0.142857  0.400000      2.000000
 -0.142857 -0.142857  0.400000      2.000000
 
 Following cartesian coordinates:
            Coordinates               Weight
  0.000000  0.000000  0.000000      1.000000
  0.016170  0.009275  0.000000      2.000000
  0.032339  0.018550  0.000000      2.000000
  0.048509  0.027825  0.000000      2.000000
 -0.000052  0.018641  0.000000      2.000000
  0.016117  0.027916  0.000000      2.000000
  0.032287  0.037191  0.000000      2.000000
  0.048457  0.046466  0.000000      2.000000
 -0.048561 -0.009184  0.000000      2.000000
 -0.032392  0.000091  0.000000      2.000000
 -0.016222  0.009366  0.000000      2.000000
 -0.000105  0.037282  0.000000      2.000000
  0.016065  0.046557  0.000000      2.000000
  0.032235  0.055832  0.000000      2.000000
  0.048404  0.065107  0.000000      2.000000
 -0.048614  0.009456  0.000000      2.000000
 -0.032444  0.018732  0.000000      2.000000
 -0.016274  0.028007  0.000000      2.000000
 -0.000157  0.055923  0.000000      2.000000
  0.016013  0.065198  0.000000      2.000000
  0.032182  0.074473  0.000000      2.000000
  0.048352  0.083748  0.000000      2.000000
 -0.048666  0.028097  0.000000      2.000000
 -0.032496  0.037373  0.000000      2.000000
 -0.016327  0.046648  0.000000      2.000000
  0.000000  0.000000  0.021089      2.000000
  0.016170  0.009275  0.021089      2.000000
  0.032339  0.018550  0.021089      2.000000
  0.048509  0.027825  0.021089      2.000000
 -0.048509 -0.027825  0.021089      2.000000
 -0.032339 -0.018550  0.021089      2.000000
 -0.016170 -0.009275  0.021089      2.000000
 -0.000052  0.018641  0.021089      2.000000
  0.016117  0.027916  0.021089      2.000000
  0.032287  0.037191  0.021089      2.000000
  0.048457  0.046466  0.021089      2.000000
 -0.048561 -0.009184  0.021089      2.000000
 -0.032392  0.000091  0.021089      2.000000
 -0.016222  0.009366  0.021089      2.000000
 -0.000105  0.037282  0.021089      2.000000
  0.016065  0.046557  0.021089      2.000000
  0.032235  0.055832  0.021089      2.000000
  0.048404  0.065107  0.021089      2.000000
 -0.048614  0.009456  0.021089      2.000000
 -0.032444  0.018732  0.021089      2.000000
 -0.016274  0.028007  0.021089      2.000000
 -0.000157  0.055923  0.021089      2.000000
  0.016013  0.065198  0.021089      2.000000
  0.032182  0.074473  0.021089      2.000000
  0.048352  0.083748  0.021089      2.000000
 -0.048666  0.028097  0.021089      2.000000
 -0.032496  0.037373  0.021089      2.000000
 -0.016327  0.046648  0.021089      2.000000
  0.000157 -0.055923  0.021089      2.000000
  0.016327 -0.046648  0.021089      2.000000
  0.032496 -0.037373  0.021089      2.000000
  0.048666 -0.028097  0.021089      2.000000
 -0.048352 -0.083748  0.021089      2.000000
 -0.032182 -0.074473  0.021089      2.000000
 -0.016013 -0.065198  0.021089      2.000000
  0.000105 -0.037282  0.021089      2.000000
  0.016274 -0.028007  0.021089      2.000000
  0.032444 -0.018732  0.021089      2.000000
  0.048614 -0.009456  0.021089      2.000000
 -0.048404 -0.065107  0.021089      2.000000
 -0.032235 -0.055832  0.021089      2.000000
 -0.016065 -0.046557  0.021089      2.000000
  0.000052 -0.018641  0.021089      2.000000
  0.016222 -0.009366  0.021089      2.000000
  0.032392 -0.000091  0.021089      2.000000
  0.048561  0.009184  0.021089      2.000000
 -0.048457 -0.046466  0.021089      2.000000
 -0.032287 -0.037191  0.021089      2.000000
 -0.016117 -0.027916  0.021089      2.000000
  0.000000  0.000000  0.042178      2.000000
  0.016170  0.009275  0.042178      2.000000
  0.032339  0.018550  0.042178      2.000000
  0.048509  0.027825  0.042178      2.000000
 -0.048509 -0.027825  0.042178      2.000000
 -0.032339 -0.018550  0.042178      2.000000
 -0.016170 -0.009275  0.042178      2.000000
 -0.000052  0.018641  0.042178      2.000000
  0.016117  0.027916  0.042178      2.000000
  0.032287  0.037191  0.042178      2.000000
  0.048457  0.046466  0.042178      2.000000
 -0.048561 -0.009184  0.042178      2.000000
 -0.032392  0.000091  0.042178      2.000000
 -0.016222  0.009366  0.042178      2.000000
 -0.000105  0.037282  0.042178      2.000000
  0.016065  0.046557  0.042178      2.000000
  0.032235  0.055832  0.042178      2.000000
  0.048404  0.065107  0.042178      2.000000
 -0.048614  0.009456  0.042178      2.000000
 -0.032444  0.018732  0.042178      2.000000
 -0.016274  0.028007  0.042178      2.000000
 -0.000157  0.055923  0.042178      2.000000
  0.016013  0.065198  0.042178      2.000000
  0.032182  0.074473  0.042178      2.000000
  0.048352  0.083748  0.042178      2.000000
 -0.048666  0.028097  0.042178      2.000000
 -0.032496  0.037373  0.042178      2.000000
 -0.016327  0.046648  0.042178      2.000000
  0.000157 -0.055923  0.042178      2.000000
  0.016327 -0.046648  0.042178      2.000000
  0.032496 -0.037373  0.042178      2.000000
  0.048666 -0.028097  0.042178      2.000000
 -0.048352 -0.083748  0.042178      2.000000
 -0.032182 -0.074473  0.042178      2.000000
 -0.016013 -0.065198  0.042178      2.000000
  0.000105 -0.037282  0.042178      2.000000
  0.016274 -0.028007  0.042178      2.000000
  0.032444 -0.018732  0.042178      2.000000
  0.048614 -0.009456  0.042178      2.000000
 -0.048404 -0.065107  0.042178      2.000000
 -0.032235 -0.055832  0.042178      2.000000
 -0.016065 -0.046557  0.042178      2.000000
  0.000052 -0.018641  0.042178      2.000000
  0.016222 -0.009366  0.042178      2.000000
  0.032392 -0.000091  0.042178      2.000000
  0.048561  0.009184  0.042178      2.000000
 -0.048457 -0.046466  0.042178      2.000000
 -0.032287 -0.037191  0.042178      2.000000
 -0.016117 -0.027916  0.042178      2.000000
 


--------------------------------------------------------------------------------------------------------




 Dimension of arrays:
   k-Points           NKPTS =    123   number of bands    NBANDS=    216
   number of dos      NEDOS =    301   number of ions     NIONS =     36
   non local maximal  LDIM  =      6   non local SUM 2l+1 LMDIM =     18
   total plane-waves  NPLWV = 286720
   max r-space proj   IRMAX =      1   max aug-charges    IRDMAX=  17561
   dimension x,y,z NGX =    64 NGY =   64 NGZ =   70
   dimension x,y,z NGXF=   128 NGYF=  128 NGZF=  140
   support grid    NGXF=   128 NGYF=  128 NGZF=  140
   ions per type =              36
 NGX,Y,Z   is equivalent  to a cutoff of  12.06, 12.06, 12.27 a.u.
 NGXF,Y,Z  is equivalent  to a cutoff of  24.12, 24.12, 24.54 a.u.


 I would recommend the setting:
   dimension x,y,z NGX =    64 NGY =   64 NGZ =   69
 SYSTEM =  unknown system                          
 POSCAR =  Ti                                      

 Startparameter for this run:
   NWRITE =      2    write-flag & timer
   PREC   = accura    medium, high low
   ISTART =      0    job   : 0-new  1-cont  2-samecut
   ICHARG =      2    charge: 1-file 2-atom 10-const
   ISPIN  =      1    spin polarized calculation?
   LNONCOLLINEAR =      F non collinear calculations
   LSORBIT =      F    spin-orbit coupling
   INIWAV =      1    electr: 0-lowe 1-rand  2-diag
   LASPH  =      F    aspherical Exc in radial PAW
   METAGGA=      F    non-selfconsistent MetaGGA calc.

 Electronic Relaxation 1
   ENCUT  =  500.0 eV  36.75 Ry    6.06 a.u.  16.08 16.08 17.29*2*pi/ulx,y,z
   ENINI  =  500.0     initial cutoff
   ENAUG  =  482.8 eV  augmentation charge cutoff
   NELM   =     60;   NELMIN=  2; NELMDL=  0     # of ELM steps 
   EDIFF  = 0.1E-07   stopping-criterion for ELM
   LREAL  =      F    real-space projection
   LCOMPAT=      F    compatible to vasp.4.4
   LREAL_COMPAT= F    compatible to vasp.4.5.1-3
   GGA_COMPAT  = T    GGA compatible to vasp.4.4-vasp.4.6
   LMAXPAW     = -100 max onsite density
   LMAXMIX     =    2 max onsite mixed and CHGCAR
   VOSKOWN=      0    Vosko Wilk Nusair interpolation
   ROPT   =    0.00000
 Ionic relaxation
   EDIFFG = 0.1E-06   stopping-criterion for IOM
   NSW    =      0    number of steps for IOM
   NBLOCK =      1;   KBLOCK =      1    inner block; outer block 
   IBRION =     -1    ionic relax: 0-MD 1-quasi-New 2-CG
   NFREE  =      0    steps in history (QN), initial steepest desc. (CG)
   ISIF   =      2    stress and relaxation
   IWAVPR =     10    prediction:  0-non 1-charg 2-wave 3-comb
   ISYM   =      2    0-nonsym 1-usesym 2-fastsym
   LCORR  =      T    Harris-Foulkes like correction to forces

   POTIM  =   0.50    time-step for ionic-motion
   TEIN   =    0.0    initial temperature
   TEBEG  =    0.0;   TEEND  =   0.0 temperature during run
   SMASS  =  -3.00    Nose mass-parameter (am)
   estimated Nose-frequenzy (Omega)   =  0.10E-29 period in steps =****** mass=  -0.178E-26a.u.
   NPACO  =    256;   APACO  = 16.0  distance and # of slots for P.C.
   PSTRESS=    0.0 pullay stress

  Mass of Ions in am
   POMASS =  47.88
  Ionic Valenz
   ZVAL   =  10.00
  Atomic Wigner-Seitz radii
   RWIGS  =  -1.00
   NELECT =     360.0000    total number of electrons
   NUPDOWN=      -1.0000    fix difference up-down

 DOS related values:
   EMIN   =  10.00;   EMAX   =-10.00  energy-range for DOS
   ISMEAR =     0;   SIGMA  =   0.01  broadening in eV -4-tet -1-fermi 0-gaus

 Electronic relaxation 2 (details)
   IALGO  =     38    algorithm
   LDIAG  =      T    sub-space diagonalisation
   IMIX   =      4    mixing-type and parameters
     AMIX     =   0.40;   BMIX     =  1.00
     AMIX_MAG =   1.60;   BMIX_MAG =  1.00
     AMIN     =   0.10
     WC   =   100.;   INIMIX=   1;  MIXPRE=   1

 Intra band minimization:
   WEIMIN = 0.0000     energy-eigenvalue tresh-hold
   EBREAK =  0.12E-10  absolut break condition
   DEPER  =   0.30     relativ break condition  

   TIME   =   0.10     timestep for ELM

  volume/ion in A,a.u.               =      17.81       120.17
  Fermi-wavevector in a.u.,eV,Ry     =   1.350634 24.819930  1.824213

 Second variation
   LSECVAR=     F    do a second variation
 
 Write flags
   LWAVE  =      F    write WAVECAR
   LCHARG =      F    write CHGCAR
   LVTOT  =      F    write LOCPOT, local potential
   LELF   =      F    write electronic localiz. function (ELF)
   LORBIT =      0    0 simple, 1 ext, 2 COOP (PROOUT)


 Dipole corrections
   IDIPOL =      0    1-x, 2-y, 3-z
   LDIPOL =      F    correct potential



--------------------------------------------------------------------------------------------------------


 Static calculation
 charge density will be updated during run
 non-spin polarized calculation
 Variant of blocked Davidson
 Davidson routine will perform the subspace rotation
 performe sub-space diagonalisation
    after iterative eigenvector-optimisation
 modified Broyden-mixing scheme, WC =      100.0
 initial mixing is a Kerker type mixing with AMIX =  0.4000 and BMIX =      1.0000
 Hartree-type preconditioning will be used
 using additional bands           36
 reciprocal scheme for non local part
 use partial core corrections
 calculate Harris-corrections to forces 
   (improved forces if not selfconsistent)
 use gradient corrections 
 use of overlap-Matrix (Vanderbilt PP)
 Gauss-broadening in eV      SIGMA  =   0.01


--------------------------------------------------------------------------------------------------------


  energy-cutoff  :      500.00
  volume of cell :      641.08
      direct lattice vectors                 reciprocal lattice vectors
     8.820667100  0.024765440  0.000000000     0.113187820  0.064925977  0.000000000
    -4.388885871  7.651304610  0.000000000    -0.000366362  0.130486516  0.000000000
     0.000000000  0.000000000  9.483698700     0.000000000  0.000000000  0.105444092

  length of vectors
     8.820701866  8.820701867  9.483698700     0.130487030  0.130487030  0.105444092


 
 k-points in units of 2pi/SCALE and weight: Automatic mesh                          
   0.00000000  0.00000000  0.00000000       0.004
   0.01616969  0.00927514  0.00000000       0.008
   0.03233938  0.01855028  0.00000000       0.008
   0.04850907  0.02782542  0.00000000       0.008
  -0.00005234  0.01864093  0.00000000       0.008
   0.01611735  0.02791607  0.00000000       0.008
   0.03228704  0.03719121  0.00000000       0.008
   0.04845673  0.04646635  0.00000000       0.008
  -0.04856140 -0.00918449  0.00000000       0.008
  -0.03239171  0.00009065  0.00000000       0.008
  -0.01622203  0.00936579  0.00000000       0.008
  -0.00010467  0.03728186  0.00000000       0.008
   0.01606501  0.04655700  0.00000000       0.008
   0.03223470  0.05583214  0.00000000       0.008
   0.04840439  0.06510728  0.00000000       0.008
  -0.04861374  0.00945644  0.00000000       0.008
  -0.03244405  0.01873158  0.00000000       0.008
  -0.01627436  0.02800672  0.00000000       0.008
  -0.00015701  0.05592279  0.00000000       0.008
   0.01601268  0.06519793  0.00000000       0.008
   0.03218236  0.07447307  0.00000000       0.008
   0.04835205  0.08374821  0.00000000       0.008
  -0.04866608  0.02809737  0.00000000       0.008
  -0.03249639  0.03737251  0.00000000       0.008
  -0.01632670  0.04664765  0.00000000       0.008
   0.00000000  0.00000000  0.02108882       0.008
   0.01616969  0.00927514  0.02108882       0.008
   0.03233938  0.01855028  0.02108882       0.008
   0.04850907  0.02782542  0.02108882       0.008
  -0.04850907 -0.02782542  0.02108882       0.008
  -0.03233938 -0.01855028  0.02108882       0.008
  -0.01616969 -0.00927514  0.02108882       0.008
  -0.00005234  0.01864093  0.02108882       0.008
   0.01611735  0.02791607  0.02108882       0.008
   0.03228704  0.03719121  0.02108882       0.008
   0.04845673  0.04646635  0.02108882       0.008
  -0.04856140 -0.00918449  0.02108882       0.008
  -0.03239171  0.00009065  0.02108882       0.008
  -0.01622203  0.00936579  0.02108882       0.008
  -0.00010467  0.03728186  0.02108882       0.008
   0.01606501  0.04655700  0.02108882       0.008
   0.03223470  0.05583214  0.02108882       0.008
   0.04840439  0.06510728  0.02108882       0.008
  -0.04861374  0.00945644  0.02108882       0.008
  -0.03244405  0.01873158  0.02108882       0.008
  -0.01627436  0.02800672  0.02108882       0.008
  -0.00015701  0.05592279  0.02108882       0.008
   0.01601268  0.06519793  0.02108882       0.008
   0.03218236  0.07447307  0.02108882       0.008
   0.04835205  0.08374821  0.02108882       0.008
  -0.04866608  0.02809737  0.02108882       0.008
  -0.03249639  0.03737251  0.02108882       0.008
  -0.01632670  0.04664765  0.02108882       0.008
   0.00015701 -0.05592279  0.02108882       0.008
   0.01632670 -0.04664765  0.02108882       0.008
   0.03249639 -0.03737251  0.02108882       0.008
   0.04866608 -0.02809737  0.02108882       0.008
  -0.04835205 -0.08374821  0.02108882       0.008
  -0.03218236 -0.07447307  0.02108882       0.008
  -0.01601268 -0.06519793  0.02108882       0.008
   0.00010467 -0.03728186  0.02108882       0.008
   0.01627436 -0.02800672  0.02108882       0.008
   0.03244405 -0.01873158  0.02108882       0.008
   0.04861374 -0.00945644  0.02108882       0.008
  -0.04840439 -0.06510728  0.02108882       0.008
  -0.03223470 -0.05583214  0.02108882       0.008
  -0.01606501 -0.04655700  0.02108882       0.008
   0.00005234 -0.01864093  0.02108882       0.008
   0.01622203 -0.00936579  0.02108882       0.008
   0.03239171 -0.00009065  0.02108882       0.008
   0.04856140  0.00918449  0.02108882       0.008
  -0.04845673 -0.04646635  0.02108882       0.008
  -0.03228704 -0.03719121  0.02108882       0.008
  -0.01611735 -0.02791607  0.02108882       0.008
   0.00000000  0.00000000  0.04217764       0.008
   0.01616969  0.00927514  0.04217764       0.008
   0.03233938  0.01855028  0.04217764       0.008
   0.04850907  0.02782542  0.04217764       0.008
  -0.04850907 -0.02782542  0.04217764       0.008
  -0.03233938 -0.01855028  0.04217764       0.008
  -0.01616969 -0.00927514  0.04217764       0.008
  -0.00005234  0.01864093  0.04217764       0.008
   0.01611735  0.02791607  0.04217764       0.008
   0.03228704  0.03719121  0.04217764       0.008
   0.04845673  0.04646635  0.04217764       0.008
  -0.04856140 -0.00918449  0.04217764       0.008
  -0.03239171  0.00009065  0.04217764       0.008
  -0.01622203  0.00936579  0.04217764       0.008
  -0.00010467  0.03728186  0.04217764       0.008
   0.01606501  0.04655700  0.04217764       0.008
   0.03223470  0.05583214  0.04217764       0.008
   0.04840439  0.06510728  0.04217764       0.008
  -0.04861374  0.00945644  0.04217764       0.008
  -0.03244405  0.01873158  0.04217764       0.008
  -0.01627436  0.02800672  0.04217764       0.008
  -0.00015701  0.05592279  0.04217764       0.008
   0.01601268  0.06519793  0.04217764       0.008
   0.03218236  0.07447307  0.04217764       0.008
   0.04835205  0.08374821  0.04217764       0.008
  -0.04866608  0.02809737  0.04217764       0.008
  -0.03249639  0.03737251  0.04217764       0.008
  -0.01632670  0.04664765  0.04217764       0.008
   0.00015701 -0.05592279  0.04217764       0.008
   0.01632670 -0.04664765  0.04217764       0.008
   0.03249639 -0.03737251  0.04217764       0.008
   0.04866608 -0.02809737  0.04217764       0.008
  -0.04835205 -0.08374821  0.04217764       0.008
  -0.03218236 -0.07447307  0.04217764       0.008
  -0.01601268 -0.06519793  0.04217764       0.008
   0.00010467 -0.03728186  0.04217764       0.008
   0.01627436 -0.02800672  0.04217764       0.008
   0.03244405 -0.01873158  0.04217764       0.008
   0.04861374 -0.00945644  0.04217764       0.008
  -0.04840439 -0.06510728  0.04217764       0.008
  -0.03223470 -0.05583214  0.04217764       0.008
  -0.01606501 -0.04655700  0.04217764       0.008
   0.00005234 -0.01864093  0.04217764       0.008
   0.01622203 -0.00936579  0.04217764       0.008
   0.03239171 -0.00009065  0.04217764       0.008
   0.04856140  0.00918449  0.04217764       0.008
  -0.04845673 -0.04646635  0.04217764       0.008
  -0.03228704 -0.03719121  0.04217764       0.008
  -0.01611735 -0.02791607  0.04217764       0.008
 
 k-points in reciprocal lattice and weights: Automatic mesh                          
   0.00000000  0.00000000  0.00000000       0.004
   0.14285714  0.00000000  0.00000000       0.008
   0.28571429  0.00000000  0.00000000       0.008
   0.42857143  0.00000000  0.00000000       0.008
   0.00000000  0.14285714  0.00000000       0.008
   0.14285714  0.14285714  0.00000000       0.008
   0.28571429  0.14285714  0.00000000       0.008
   0.42857143  0.14285714  0.00000000       0.008
  -0.42857143  0.14285714  0.00000000       0.008
  -0.28571429  0.14285714  0.00000000       0.008
  -0.14285714  0.14285714  0.00000000       0.008
   0.00000000  0.28571429  0.00000000       0.008
   0.14285714  0.28571429  0.00000000       0.008
   0.28571429  0.28571429  0.00000000       0.008
   0.42857143  0.28571429  0.00000000       0.008
  -0.42857143  0.28571429  0.00000000       0.008
  -0.28571429  0.28571429  0.00000000       0.008
  -0.14285714  0.28571429  0.00000000       0.008
   0.00000000  0.42857143  0.00000000       0.008
   0.14285714  0.42857143  0.00000000       0.008
   0.28571429  0.42857143  0.00000000       0.008
   0.42857143  0.42857143  0.00000000       0.008
  -0.42857143  0.42857143  0.00000000       0.008
  -0.28571429  0.42857143  0.00000000       0.008
  -0.14285714  0.42857143  0.00000000       0.008
   0.00000000  0.00000000  0.20000000       0.008
   0.14285714  0.00000000  0.20000000       0.008
   0.28571429  0.00000000  0.20000000       0.008
   0.42857143  0.00000000  0.20000000       0.008
  -0.42857143 -0.00000000  0.20000000       0.008
  -0.28571429 -0.00000000  0.20000000       0.008
  -0.14285714 -0.00000000  0.20000000       0.008
   0.00000000  0.14285714  0.20000000       0.008
   0.14285714  0.14285714  0.20000000       0.008
   0.28571429  0.14285714  0.20000000       0.008
   0.42857143  0.14285714  0.20000000       0.008
  -0.42857143  0.14285714  0.20000000       0.008
  -0.28571429  0.14285714  0.20000000       0.008
  -0.14285714  0.14285714  0.20000000       0.008
   0.00000000  0.28571429  0.20000000       0.008
   0.14285714  0.28571429  0.20000000       0.008
   0.28571429  0.28571429  0.20000000       0.008
   0.42857143  0.28571429  0.20000000       0.008
  -0.42857143  0.28571429  0.20000000       0.008
  -0.28571429  0.28571429  0.20000000       0.008
  -0.14285714  0.28571429  0.20000000       0.008
   0.00000000  0.42857143  0.20000000       0.008
   0.14285714  0.42857143  0.20000000       0.008
   0.28571429  0.42857143  0.20000000       0.008
   0.42857143  0.42857143  0.20000000       0.008
  -0.42857143  0.42857143  0.20000000       0.008
  -0.28571429  0.42857143  0.20000000       0.008
  -0.14285714  0.42857143  0.20000000       0.008
   0.00000000 -0.42857143  0.20000000       0.008
   0.14285714 -0.42857143  0.20000000       0.008
   0.28571429 -0.42857143  0.20000000       0.008
   0.42857143 -0.42857143  0.20000000       0.008
  -0.42857143 -0.42857143  0.20000000       0.008
  -0.28571429 -0.42857143  0.20000000       0.008
  -0.14285714 -0.42857143  0.20000000       0.008
  -0.00000000 -0.28571429  0.20000000       0.008
   0.14285714 -0.28571429  0.20000000       0.008
   0.28571429 -0.28571429  0.20000000       0.008
   0.42857143 -0.28571429  0.20000000       0.008
  -0.42857143 -0.28571429  0.20000000       0.008
  -0.28571429 -0.28571429  0.20000000       0.008
  -0.14285714 -0.28571429  0.20000000       0.008
  -0.00000000 -0.14285714  0.20000000       0.008
   0.14285714 -0.14285714  0.20000000       0.008
   0.28571429 -0.14285714  0.20000000       0.008
   0.42857143 -0.14285714  0.20000000       0.008
  -0.42857143 -0.14285714  0.20000000       0.008
  -0.28571429 -0.14285714  0.20000000       0.008
  -0.14285714 -0.14285714  0.20000000       0.008
   0.00000000  0.00000000  0.40000000       0.008
   0.14285714  0.00000000  0.40000000       0.008
   0.28571429  0.00000000  0.40000000       0.008
   0.42857143  0.00000000  0.40000000       0.008
  -0.42857143 -0.00000000  0.40000000       0.008
  -0.28571429 -0.00000000  0.40000000       0.008
  -0.14285714 -0.00000000  0.40000000       0.008
   0.00000000  0.14285714  0.40000000       0.008
   0.14285714  0.14285714  0.40000000       0.008
   0.28571429  0.14285714  0.40000000       0.008
   0.42857143  0.14285714  0.40000000       0.008
  -0.42857143  0.14285714  0.40000000       0.008
  -0.28571429  0.14285714  0.40000000       0.008
  -0.14285714  0.14285714  0.40000000       0.008
   0.00000000  0.28571429  0.40000000       0.008
   0.14285714  0.28571429  0.40000000       0.008
   0.28571429  0.28571429  0.40000000       0.008
   0.42857143  0.28571429  0.40000000       0.008
  -0.42857143  0.28571429  0.40000000       0.008
  -0.28571429  0.28571429  0.40000000       0.008
  -0.14285714  0.28571429  0.40000000       0.008
   0.00000000  0.42857143  0.40000000       0.008
   0.14285714  0.42857143  0.40000000       0.008
   0.28571429  0.42857143  0.40000000       0.008
   0.42857143  0.42857143  0.40000000       0.008
  -0.42857143  0.42857143  0.40000000       0.008
  -0.28571429  0.42857143  0.40000000       0.008
  -0.14285714  0.42857143  0.40000000       0.008
   0.00000000 -0.42857143  0.40000000       0.008
   0.14285714 -0.42857143  0.40000000       0.008
   0.28571429 -0.42857143  0.40000000       0.008
   0.42857143 -0.42857143  0.40000000       0.008
  -0.42857143 -0.42857143  0.40000000       0.008
  -0.28571429 -0.42857143  0.40000000       0.008
  -0.14285714 -0.42857143  0.40000000       0.008
  -0.00000000 -0.28571429  0.40000000       0.008
   0.14285714 -0.28571429  0.40000000       0.008
   0.28571429 -0.28571429  0.40000000       0.008
   0.42857143 -0.28571429  0.40000000       0.008
  -0.42857143 -0.28571429  0.40000000       0.008
  -0.28571429 -0.28571429  0.40000000       0.008
  -0.14285714 -0.28571429  0.40000000       0.008
  -0.00000000 -0.14285714  0.40000000       0.008
   0.14285714 -0.14285714  0.40000000       0.008
   0.28571429 -0.14285714  0.40000000       0.008
   0.42857143 -0.14285714  0.40000000       0.008
  -0.42857143 -0.14285714  0.40000000       0.008
  -0.28571429 -0.14285714  0.40000000       0.008
  -0.14285714 -0.14285714  0.40000000       0.008
 
 position of ions in fractional coordinates (direct lattice) 
   0.11151550  0.22258994  0.12577210
   0.44407673  0.22258994  0.12500000
   0.77741006  0.22258994  0.12500000
   0.11074339  0.55592327  0.12500000
   0.44407673  0.55592327  0.12500000
   0.77741006  0.55592327  0.12500000
   0.11074339  0.88925661  0.12500000
   0.44407673  0.88925661  0.12500000
   0.77741006  0.88925661  0.12500000
   0.11074339  0.22258994  0.62500000
   0.44407673  0.22258994  0.62500000
   0.77741006  0.22258994  0.62500000
   0.11074339  0.55592327  0.62500000
   0.44407673  0.55592327  0.62500000
   0.77741006  0.55592327  0.62500000
   0.11074339  0.88925661  0.62500000
   0.44407673  0.88925661  0.62500000
   0.77741006  0.88925661  0.62500000
   0.22258994  0.11074339  0.37500000
   0.55592327  0.11074339  0.37500000
   0.88925661  0.11074339  0.37500000
   0.22258994  0.44407673  0.37500000
   0.55592327  0.44407673  0.37500000
   0.88925661  0.44407673  0.37500000
   0.22258994  0.77741006  0.37500000
   0.55592327  0.77741006  0.37500000
   0.88925661  0.77741006  0.37500000
   0.22258994  0.11074339  0.87500000
   0.55592327  0.11074339  0.87500000
   0.88925661  0.11074339  0.87500000
   0.22258994  0.44407673  0.87500000
   0.55592327  0.44407673  0.87500000
   0.88925661  0.44407673  0.87500000
   0.22258994  0.77741006  0.87500000
   0.55592327  0.77741006  0.87500000
   0.88925661  0.77741006  0.87500000
 
 position of ions in cartesian coordinates  (Angst):
   0.00671924  1.70586515  1.19278472
   2.94013115  1.71410118  1.18546234
   5.88035352  1.72235633  1.18546234
  -1.46305318  4.25628090  1.18546234
   1.47716919  4.26453605  1.18546234
   4.41739156  4.27279120  1.18546234
  -2.92601513  6.80671577  1.18546234
   0.01420723  6.81497092  1.18546234
   2.95442960  6.82322607  1.18546234
  -0.00009122  1.70584603  5.92731169
   2.94013115  1.71410118  5.92731169
   5.88035352  1.72235633  5.92731169
  -1.46305318  4.25628090  5.92731169
   1.47716919  4.26453605  5.92731169
   4.41739156  4.27279120  5.92731169
  -2.92601513  6.80671577  5.92731169
   0.01420723  6.81497092  5.92731169
   2.95442960  6.82322607  5.92731169
   1.47735163  0.85284398  3.55638701
   4.41757399  0.86109913  3.55638701
   7.35779636  0.86935428  3.55638701
   0.01438967  3.40327885  3.55638701
   2.95461204  3.41153400  3.55638701
   5.89483440  3.41978915  3.55638701
  -1.44857229  5.95371372  3.55638701
   1.49165008  5.96196887  3.55638701
   4.43187245  5.97022402  3.55638701
   1.47735163  0.85284398  8.29823636
   4.41757399  0.86109913  8.29823636
   7.35779636  0.86935428  8.29823636
   0.01438967  3.40327885  8.29823636
   2.95461204  3.41153400  8.29823636
   5.89483440  3.41978915  8.29823636
  -1.44857229  5.95371372  8.29823636
   1.49165008  5.96196887  8.29823636
   4.43187245  5.97022402  8.29823636
 


--------------------------------------------------------------------------------------------------------


 k-point  1 :  0.00000.00000.0000  plane waves:  16249
 k-point  2 :  0.14290.00000.0000  plane waves:  16265
 k-point  3 :  0.28570.00000.0000  plane waves:  16287
 k-point  4 :  0.42860.00000.0000  plane waves:  16284
 k-point  5 :  0.00000.14290.0000  plane waves:  16265
 k-point  6 :  0.14290.14290.0000  plane waves:  16288
 k-point  7 :  0.28570.14290.0000  plane waves:  16270
 k-point  8 :  0.42860.14290.0000  plane waves:  16280
 k-point  9 :  -.42860.14290.0000  plane waves:  16276
 k-point 10 :  -.28570.14290.0000  plane waves:  16268
 k-point 11 :  -.14290.14290.0000  plane waves:  16274
 k-point 12 :  0.00000.28570.0000  plane waves:  16287
 k-point 13 :  0.14290.28570.0000  plane waves:  16270
 k-point 14 :  0.28570.28570.0000  plane waves:  16278
 k-point 15 :  0.42860.28570.0000  plane waves:  16281
 k-point 16 :  -.42860.28570.0000  plane waves:  16265
 k-point 17 :  -.28570.28570.0000  plane waves:  16282
 k-point 18 :  -.14290.28570.0000  plane waves:  16268
 k-point 19 :  0.00000.42860.0000  plane waves:  16284
 k-point 20 :  0.14290.42860.0000  plane waves:  16280
 k-point 21 :  0.28570.42860.0000  plane waves:  16281
 k-point 22 :  0.42860.42860.0000  plane waves:  16302
 k-point 23 :  -.42860.42860.0000  plane waves:  16294
 k-point 24 :  -.28570.42860.0000  plane waves:  16265
 k-point 25 :  -.14290.42860.0000  plane waves:  16276
 k-point 26 :  0.00000.00000.2000  plane waves:  16259
 k-point 27 :  0.14290.00000.2000  plane waves:  16254
 k-point 28 :  0.28570.00000.2000  plane waves:  16275
 k-point 29 :  0.42860.00000.2000  plane waves:  16279
 k-point 30 :  -.4286-.00000.2000  plane waves:  16279
 k-point 31 :  -.2857-.00000.2000  plane waves:  16275
 k-point 32 :  -.1429-.00000.2000  plane waves:  16254
 k-point 33 :  0.00000.14290.2000  plane waves:  16254
 k-point 34 :  0.14290.14290.2000  plane waves:  16272
 k-point 35 :  0.28570.14290.2000  plane waves:  16286
 k-point 36 :  0.42860.14290.2000  plane waves:  16275
 k-point 37 :  -.42860.14290.2000  plane waves:  16282
 k-point 38 :  -.28570.14290.2000  plane waves:  16264
 k-point 39 :  -.14290.14290.2000  plane waves:  16273
 k-point 40 :  0.00000.28570.2000  plane waves:  16275
 k-point 41 :  0.14290.28570.2000  plane waves:  16286
 k-point 42 :  0.28570.28570.2000  plane waves:  16282
 k-point 43 :  0.42860.28570.2000  plane waves:  16268
 k-point 44 :  -.42860.28570.2000  plane waves:  16285
 k-point 45 :  -.28570.28570.2000  plane waves:  16274
 k-point 46 :  -.14290.28570.2000  plane waves:  16264
 k-point 47 :  0.00000.42860.2000  plane waves:  16279
 k-point 48 :  0.14290.42860.2000  plane waves:  16275
 k-point 49 :  0.28570.42860.2000  plane waves:  16268
 k-point 50 :  0.42860.42860.2000  plane waves:  16282
 k-point 51 :  -.42860.42860.2000  plane waves:  16295
 k-point 52 :  -.28570.42860.2000  plane waves:  16285
 k-point 53 :  -.14290.42860.2000  plane waves:  16282
 k-point 54 :  0.0000-.42860.2000  plane waves:  16279
 k-point 55 :  0.1429-.42860.2000  plane waves:  16282
 k-point 56 :  0.2857-.42860.2000  plane waves:  16285
 k-point 57 :  0.4286-.42860.2000  plane waves:  16295
 k-point 58 :  -.4286-.42860.2000  plane waves:  16282
 k-point 59 :  -.2857-.42860.2000  plane waves:  16268
 k-point 60 :  -.1429-.42860.2000  plane waves:  16275
 k-point 61 :  -.0000-.28570.2000  plane waves:  16275
 k-point 62 :  0.1429-.28570.2000  plane waves:  16264
 k-point 63 :  0.2857-.28570.2000  plane waves:  16274
 k-point 64 :  0.4286-.28570.2000  plane waves:  16285
 k-point 65 :  -.4286-.28570.2000  plane waves:  16268
 k-point 66 :  -.2857-.28570.2000  plane waves:  16282
 k-point 67 :  -.1429-.28570.2000  plane waves:  16286
 k-point 68 :  -.0000-.14290.2000  plane waves:  16254
 k-point 69 :  0.1429-.14290.2000  plane waves:  16273
 k-point 70 :  0.2857-.14290.2000  plane waves:  16264
 k-point 71 :  0.4286-.14290.2000  plane waves:  16282
 k-point 72 :  -.4286-.14290.2000  plane waves:  16275
 k-point 73 :  -.2857-.14290.2000  plane waves:  16286
 k-point 74 :  -.1429-.14290.2000  plane waves:  16272
 k-point 75 :  0.00000.00000.4000  plane waves:  16234
 k-point 76 :  0.14290.00000.4000  plane waves:  16246
 k-point 77 :  0.28570.00000.4000  plane waves:  16262
 k-point 78 :  0.42860.00000.4000  plane waves:  16274
 k-point 79 :  -.4286-.00000.4000  plane waves:  16274
 k-point 80 :  -.2857-.00000.4000  plane waves:  16262
 k-point 81 :  -.1429-.00000.4000  plane waves:  16246
 k-point 82 :  0.00000.14290.4000  plane waves:  16246
 k-point 83 :  0.14290.14290.4000  plane waves:  16266
 k-point 84 :  0.28570.14290.4000  plane waves:  16288
 k-point 85 :  0.42860.14290.4000  plane waves:  16277
 k-point 86 :  -.42860.14290.4000  plane waves:  16289
 k-point 87 :  -.28570.14290.4000  plane waves:  16266
 k-point 88 :  -.14290.14290.4000  plane waves:  16257
 k-point 89 :  0.00000.28570.4000  plane waves:  16262
 k-point 90 :  0.14290.28570.4000  plane waves:  16288
 k-point 91 :  0.28570.28570.4000  plane waves:  16290
 k-point 92 :  0.42860.28570.4000  plane waves:  16287
 k-point 93 :  -.42860.28570.4000  plane waves:  16289
 k-point 94 :  -.28570.28570.4000  plane waves:  16287
 k-point 95 :  -.14290.28570.4000  plane waves:  16266
 k-point 96 :  0.00000.42860.4000  plane waves:  16274
 k-point 97 :  0.14290.42860.4000  plane waves:  16277
 k-point 98 :  0.28570.42860.4000  plane waves:  16287
 k-point 99 :  0.42860.42860.4000  plane waves:  16281
 k-point ** :  -.42860.42860.4000  plane waves:  16293
 k-point ** :  -.28570.42860.4000  plane waves:  16289
 k-point ** :  -.14290.42860.4000  plane waves:  16289
 k-point ** :  0.0000-.42860.4000  plane waves:  16274
 k-point ** :  0.1429-.42860.4000  plane waves:  16289
 k-point ** :  0.2857-.42860.4000  plane waves:  16289
 k-point ** :  0.4286-.42860.4000  plane waves:  16293
 k-point ** :  -.4286-.42860.4000  plane waves:  16281
 k-point ** :  -.2857-.42860.4000  plane waves:  16287
 k-point ** :  -.1429-.42860.4000  plane waves:  16277
 k-point ** :  -.0000-.28570.4000  plane waves:  16262
 k-point ** :  0.1429-.28570.4000  plane waves:  16266
 k-point ** :  0.2857-.28570.4000  plane waves:  16287
 k-point ** :  0.4286-.28570.4000  plane waves:  16289
 k-point ** :  -.4286-.28570.4000  plane waves:  16287
 k-point ** :  -.2857-.28570.4000  plane waves:  16290
 k-point ** :  -.1429-.28570.4000  plane waves:  16288
 k-point ** :  -.0000-.14290.4000  plane waves:  16246
 k-point ** :  0.1429-.14290.4000  plane waves:  16257
 k-point ** :  0.2857-.14290.4000  plane waves:  16266
 k-point ** :  0.4286-.14290.4000  plane waves:  16289
 k-point ** :  -.4286-.14290.4000  plane waves:  16277
 k-point ** :  -.2857-.14290.4000  plane waves:  16288
 k-point ** :  -.1429-.14290.4000  plane waves:  16266

 maximum and minimum number of plane-waves per node :  16302 16234

 maximum number of plane-waves:  16302
 maximal index in each direction: 
   IXMAX= 16   IYMAX= 16   IZMAX= 17
   IXMIN=-16   IYMIN=-16   IZMIN=-17

 WARNING: wrap around error must be expected set NGX to  66
 WARNING: wrap around error must be expected set NGY to  66
 NGZ is ok and might be reduce to  70

 parallel 3dFFT wavefunction:
    minimum data exchange during FFTs selected (reduces bandwidth)
 parallel 3dFFT charge:
    minimum data exchange during FFTs selected (reduces bandwidth)

 For storing wavefunctions 6918.57 MBYTES are necessary
 For predicting wavefunctions  122.91 MBYTES are necessary
Broyden mixing: mesh for mixing (old mesh)
   NGX = 33   NGY = 33   NGZ = 35
  (NGX  =128   NGY  =128   NGZ  =140)
 gives a total of  38115 points
 initial charge density was supplied:
 charge density of overlapping atoms calculated
 number of electron  360.0000000 magnetization 
 keeping initial charge density in first step


--------------------------------------------------------------------------------------------------------


 Maximum index for augmentation-charges         4228 (set IRDMAX)


--------------------------------------------------------------------------------------------------------


 First call to EWALD:  gamma=   0.206
 Maximum number of real-space cells 3x 3x 3
 Maximum number of reciprocal cells 3x 3x 3

    FEWALD:  VPU time    0.01: CPU time    0.01


----------------------------------------- Iteration    1(   1)  ---------------------------------------


    POTLOK:  VPU time    0.57: CPU time    0.58
    SETDIJ:  VPU time    0.04: CPU time    0.04
    EDDAV :  VPU time 1025.85: CPU time 1026.66
    DOS   :  VPU time   -0.00: CPU time   -0.00
    ------------------------------------------
      LOOP:  VPU time 1026.66: CPU time 1027.47

 eigenvalue-minimisations  : 53840
 total energy-change (2. order) : 0.4970297E+04  (-0.1721594E+05)
 number of electron  360.0000000 magnetization 
 augmentation part   360.0000000 magnetization 

 Free energy of the ion-electron system (eV)
  ---------------------------------------------------
  alpha Z        PSCENC =      2204.38059661
  Ewald energy   TEWEN  =    -28665.87711665
  -1/2 Hartree   DENC   =     -8100.18662601
  -V(xc)+E(xc)   XCENC  =      1290.25620398
  PAW double counting   =     25711.31321228   -25685.71707589
  entropy T*S    EENTRO =        -0.00069997
  eigenvalues    EBANDS =       690.60426986
  atomic energy  EATOM  =     37525.52423787
  ---------------------------------------------------
  free energy    TOTEN  =      4970.29700208 eV

  energy without entropy =     4970.29770205  energy(sigma->0) =     4970.29735207


--------------------------------------------------------------------------------------------------------




----------------------------------------- Iteration    1(   2)  ---------------------------------------


    EDDAV :  VPU time 1033.41: CPU time 1033.97
    DOS   :  VPU time    0.00: CPU time   -0.00
    ------------------------------------------
      LOOP:  VPU time 1033.60: CPU time 1034.16

 eigenvalue-minimisations  : 53136
 total energy-change (2. order) :-0.4882811E+04  (-0.4808188E+04)
 number of electron  360.0000000 magnetization 
 augmentation part   360.0000000 magnetization 

 Free energy of the ion-electron system (eV)
  ---------------------------------------------------
  alpha Z        PSCENC =      2204.38059661
  Ewald energy   TEWEN  =    -28665.87711665
  -1/2 Hartree   DENC   =     -8100.18662601
  -V(xc)+E(xc)   XCENC  =      1290.25620398
  PAW double counting   =     25711.31321228   -25685.71707589
  entropy T*S    EENTRO =        -0.00144100
  eigenvalues    EBANDS =     -4192.20581661
  atomic energy  EATOM  =     37525.52423787
  ---------------------------------------------------
  free energy    TOTEN  =        87.48617458 eV

  energy without entropy =       87.48761558  energy(sigma->0) =       87.48689508


--------------------------------------------------------------------------------------------------------




----------------------------------------- Iteration    1(   3)  ---------------------------------------


    EDDAV :  VPU time 1472.32: CPU time 1473.01
    DOS   :  VPU time    0.00: CPU time   -0.00
    ------------------------------------------
      LOOP:  VPU time 1472.52: CPU time 1473.20

 eigenvalue-minimisations  : 77768
 total energy-change (2. order) :-0.3808684E+03  (-0.3585187E+03)
 number of electron  360.0000000 magnetization 
 augmentation part   360.0000000 magnetization 

 Free energy of the ion-electron system (eV)
  ---------------------------------------------------
  alpha Z        PSCENC =      2204.38059661
  Ewald energy   TEWEN  =    -28665.87711665
  -1/2 Hartree   DENC   =     -8100.18662601
  -V(xc)+E(xc)   XCENC  =      1290.25620398
  PAW double counting   =     25711.31321228   -25685.71707589
  entropy T*S    EENTRO =        -0.00139162
  eigenvalues    EBANDS =     -4573.07429852
  atomic energy  EATOM  =     37525.52423787
  ---------------------------------------------------
  free energy    TOTEN  =      -293.38225794 eV

  energy without entropy =     -293.38086633  energy(sigma->0) =     -293.38156214


--------------------------------------------------------------------------------------------------------




----------------------------------------- Iteration    1(   4)  ---------------------------------------


    EDDAV :  VPU time 1337.22: CPU time 1337.60
    DOS   :  VPU time    0.00: CPU time   -0.00
    ------------------------------------------
      LOOP:  VPU time 1337.42: CPU time 1337.80

 eigenvalue-minimisations  : 72672
 total energy-change (2. order) :-0.3127770E+02  (-0.3036325E+02)
 number of electron  360.0000000 magnetization 
 augmentation part   360.0000000 magnetization 

 Free energy of the ion-electron system (eV)
  ---------------------------------------------------
  alpha Z        PSCENC =      2204.38059661
  Ewald energy   TEWEN  =    -28665.87711665
  -1/2 Hartree   DENC   =     -8100.18662601
  -V(xc)+E(xc)   XCENC  =      1290.25620398
  PAW double counting   =     25711.31321228   -25685.71707589
  entropy T*S    EENTRO =        -0.00097601
  eigenvalues    EBANDS =     -4604.35241903
  atomic energy  EATOM  =     37525.52423787
  ---------------------------------------------------
  free energy    TOTEN  =      -324.65996285 eV

  energy without entropy =     -324.65898684  energy(sigma->0) =     -324.65947484


--------------------------------------------------------------------------------------------------------




----------------------------------------- Iteration    1(   5)  ---------------------------------------


    EDDAV :  VPU time 1235.51: CPU time 1236.51
    DOS   :  VPU time    0.00: CPU time   -0.00
    CHARGE:  VPU time   76.59: CPU time   76.67
    MIXING:  VPU time    0.01: CPU time    0.01
    ------------------------------------------
      LOOP:  VPU time 1312.30: CPU time 1313.39

 eigenvalue-minimisations  : 69448
 total energy-change (2. order) :-0.9319328E+00  (-0.9090476E+00)
 number of electron  359.9999876 magnetization 
 augmentation part   156.9437748 magnetization 

 Broyden mixing:
  rms(total) = 0.36135E+01    rms(broyden)= 0.36134E+01
  rms(prec ) = 0.50927E+01
  weight for this iteration     100.00

 Free energy of the ion-electron system (eV)
  ---------------------------------------------------
  alpha Z        PSCENC =      2204.38059661
  Ewald energy   TEWEN  =    -28665.87711665
  -1/2 Hartree   DENC   =     -8100.18662601
  -V(xc)+E(xc)   XCENC  =      1290.25620398
  PAW double counting   =     25711.31321228   -25685.71707589
  entropy T*S    EENTRO =        -0.00092637
  eigenvalues    EBANDS =     -4605.28440144
  atomic energy  EATOM  =     37525.52423787
  ---------------------------------------------------
  free energy    TOTEN  =      -325.59189562 eV

  energy without entropy =     -325.59096925  energy(sigma->0) =     -325.59143243


--------------------------------------------------------------------------------------------------------




----------------------------------------- Iteration    1(   6)  ---------------------------------------


    POTLOK:  VPU time    0.69: CPU time    0.69
    SETDIJ:  VPU time    0.05: CPU time    0.05
    EDDAV :  VPU time 1187.45: CPU time 1188.35
    DOS   :  VPU time    0.00: CPU time   -0.00
    CHARGE:  VPU time   59.95: CPU time   60.02
    MIXING:  VPU time    0.02: CPU time    0.02
    ------------------------------------------
      LOOP:  VPU time 1248.35: CPU time 1249.32

 eigenvalue-minimisations  : 58152
 total energy-change (2. order) : 0.3967732E+02  (-0.1251196E+02)
 number of electron  359.9999867 magnetization 
 augmentation part   166.5342310 magnetization 

 Broyden mixing:
  rms(total) = 0.90550E+00    rms(broyden)= 0.90545E+00
  rms(prec ) = 0.12932E+01
  weight for this iteration     100.00

 eigenvalues of (default mixing * dielectric matrix)
  average eigenvalue GAMMA=   1.2563
  1.2563

 Free energy of the ion-electron system (eV)
  ---------------------------------------------------
  alpha Z        PSCENC =      2204.38059661
  Ewald energy   TEWEN  =    -28665.87711665
  -1/2 Hartree   DENC   =     -7375.87519797
  -V(xc)+E(xc)   XCENC  =      1251.98484086
  PAW double counting   =     24833.79768627   -24875.96655947
  entropy T*S    EENTRO =        -0.00176503
  eigenvalues    EBANDS =     -5183.88129711
  atomic energy  EATOM  =     37525.52423787
  ---------------------------------------------------
  free energy    TOTEN  =      -285.91457462 eV

  energy without entropy =     -285.91280959  energy(sigma->0) =     -285.91369210


--------------------------------------------------------------------------------------------------------




----------------------------------------- Iteration    1(   7)  ---------------------------------------


    POTLOK:  VPU time    0.55: CPU time    0.55
    SETDIJ:  VPU time    0.05: CPU time    0.05
    EDDAV :  VPU time 1358.33: CPU time 1359.68
    DOS   :  VPU time   -0.00: CPU time   -0.00
    CHARGE:  VPU time   77.70: CPU time   77.76
    MIXING:  VPU time    0.03: CPU time    0.03
    ------------------------------------------
      LOOP:  VPU time 1436.85: CPU time 1438.26

 eigenvalue-minimisations  : 69688
 total energy-change (2. order) : 0.1846155E+01  (-0.1569024E+01)
 number of electron  359.9999863 magnetization 
 augmentation part   169.9699503 magnetization 

 Broyden mixing:
  rms(total) = 0.36404E+00    rms(broyden)= 0.36402E+00
  rms(prec ) = 0.43293E+00
  weight for this iteration     100.00

 eigenvalues of (default mixing * dielectric matrix)
  average eigenvalue GAMMA=   1.8401
  1.4136  2.2666

 Free energy of the ion-electron system (eV)
  ---------------------------------------------------
  alpha Z        PSCENC =      2204.38059661
  Ewald energy   TEWEN  =    -28665.87711665
  -1/2 Hartree   DENC   =     -7165.86920173
  -V(xc)+E(xc)   XCENC  =      1241.65837778
  PAW double counting   =     24929.54722094   -25010.20180917
  entropy T*S    EENTRO =        -0.00239383
  eigenvalues    EBANDS =     -5343.22833128
  atomic energy  EATOM  =     37525.52423787
  ---------------------------------------------------
  free energy    TOTEN  =      -284.06841945 eV

  energy without entropy =     -284.06602563  energy(sigma->0) =     -284.06722254


--------------------------------------------------------------------------------------------------------




----------------------------------------- Iteration    1(   8)  ---------------------------------------


    POTLOK:  VPU time    0.61: CPU time    0.61
    SETDIJ:  VPU time    0.05: CPU time    0.05
    EDDAV :  VPU time 1359.63: CPU time 1359.90
    DOS   :  VPU time    0.00: CPU time   -0.00
    CHARGE:  VPU time   69.80: CPU time   69.81
    MIXING:  VPU time    0.02: CPU time    0.02
    ------------------------------------------
      LOOP:  VPU time 1430.31: CPU time 1430.59

 eigenvalue-minimisations  : 70304
 total energy-change (2. order) :-0.1170060E+00  (-0.3083824E+00)
 number of electron  359.9999863 magnetization 
 augmentation part   168.9278720 magnetization 

 Broyden mixing:
  rms(total) = 0.41025E+00    rms(broyden)= 0.41024E+00
  rms(prec ) = 0.90418E+00
  weight for this iteration     100.00

 eigenvalues of (default mixing * dielectric matrix)
  average eigenvalue GAMMA=   1.3647
  2.4916  1.3685  0.2341

 Free energy of the ion-electron system (eV)
  ---------------------------------------------------
  alpha Z        PSCENC =      2204.38059661
  Ewald energy   TEWEN  =    -28665.87711665
  -1/2 Hartree   DENC   =     -7209.22838492
  -V(xc)+E(xc)   XCENC  =      1244.99025378
  PAW double counting   =     25428.02208467   -25524.22492679
  entropy T*S    EENTRO =        -0.00233550
  eigenvalues    EBANDS =     -5287.76983454
  atomic energy  EATOM  =     37525.52423787
  ---------------------------------------------------
  free energy    TOTEN  =      -284.18542547 eV

  energy without entropy =     -284.18308997  energy(sigma->0) =     -284.18425772


--------------------------------------------------------------------------------------------------------




----------------------------------------- Iteration    1(   9)  ---------------------------------------


    POTLOK:  VPU time    0.72: CPU time    0.72
    SETDIJ:  VPU time    0.04: CPU time    0.04
    EDDAV :  VPU time 1507.11: CPU time 1508.14
    DOS   :  VPU time    0.00: CPU time   -0.00
    CHARGE:  VPU time   50.54: CPU time   50.58
    MIXING:  VPU time    0.01: CPU time    0.01
    ------------------------------------------
      LOOP:  VPU time 1558.63: CPU time 1559.69

 eigenvalue-minimisations  : 74504
 total energy-change (2. order) : 0.1970213E+00  (-0.1053581E+00)
 number of electron  359.9999864 magnetization 
 augmentation part   168.8355238 magnetization 

 Broyden mixing:
  rms(total) = 0.19314E+00    rms(broyden)= 0.19313E+00
  rms(prec ) = 0.27693E+00
  weight for this iteration     100.00

 eigenvalues of (default mixing * dielectric matrix)
  average eigenvalue GAMMA=   1.1452
  2.5438  1.2995  0.5195  0.2180

 Free energy of the ion-electron system (eV)
  ---------------------------------------------------
  alpha Z        PSCENC =      2204.38059661
  Ewald energy   TEWEN  =    -28665.87711665
  -1/2 Hartree   DENC   =     -7208.65312572
  -V(xc)+E(xc)   XCENC  =      1245.27804935
  PAW double counting   =     25551.21182610   -25652.63078596
  entropy T*S    EENTRO =        -0.00232055
  eigenvalues    EBANDS =     -5283.21976525
  atomic energy  EATOM  =     37525.52423787
  ---------------------------------------------------
  free energy    TOTEN  =      -283.98840421 eV

  energy without entropy =     -283.98608365  energy(sigma->0) =     -283.98724393


--------------------------------------------------------------------------------------------------------




----------------------------------------- Iteration    1(  10)  ---------------------------------------


    POTLOK:  VPU time    0.52: CPU time    0.52
    SETDIJ:  VPU time    0.04: CPU time    0.04
    EDDAV :  VPU time 1515.04: CPU time 1515.12
    DOS   :  VPU time    0.00: CPU time   -0.00
    CHARGE:  VPU time   75.50: CPU time   75.49
    MIXING:  VPU time    0.02: CPU time    0.02
    ------------------------------------------
      LOOP:  VPU time 1591.33: CPU time 1591.40

 eigenvalue-minimisations  : 71336
 total energy-change (2. order) : 0.7364563E-01  (-0.1675099E-01)
 number of electron  359.9999863 magnetization 
 augmentation part   169.0897670 magnetization 

 Broyden mixing:
  rms(total) = 0.11697E+00    rms(broyden)= 0.11697E+00
  rms(prec ) = 0.16549E+00
  weight for this iteration     100.00

 eigenvalues of (default mixing * dielectric matrix)
  average eigenvalue GAMMA=   1.0838
  2.5990  1.1811  1.1811  0.2333  0.2246

 Free energy of the ion-electron system (eV)
  ---------------------------------------------------
  alpha Z        PSCENC =      2204.38059661
  Ewald energy   TEWEN  =    -28665.87711665
  -1/2 Hartree   DENC   =     -7191.53607158
  -V(xc)+E(xc)   XCENC  =      1244.36948545
  PAW double counting   =     25523.06447810   -25625.18004554
  entropy T*S    EENTRO =        -0.00215166
  eigenvalues    EBANDS =     -5298.65817117
  atomic energy  EATOM  =     37525.52423787
  ---------------------------------------------------
  free energy    TOTEN  =      -283.91475858 eV

  energy without entropy =     -283.91260692  energy(sigma->0) =     -283.91368275


--------------------------------------------------------------------------------------------------------




----------------------------------------- Iteration    1(  11)  ---------------------------------------


    POTLOK:  VPU time    0.63: CPU time    0.63
    SETDIJ:  VPU time    0.05: CPU time    0.05
    EDDAV :  VPU time 1329.24: CPU time 1330.61
    DOS   :  VPU time    0.00: CPU time   -0.00
    CHARGE:  VPU time   81.87: CPU time   81.96
    MIXING:  VPU time    0.03: CPU time    0.03
    ------------------------------------------
      LOOP:  VPU time 1412.03: CPU time 1413.48

 eigenvalue-minimisations  : 62720
 total energy-change (2. order) : 0.4170932E-01  (-0.2837190E-01)
 number of electron  359.9999863 magnetization 
 augmentation part   169.5687520 magnetization 

 Broyden mixing:
  rms(total) = 0.24755E-01    rms(broyden)= 0.24751E-01
  rms(prec ) = 0.38258E-01
  weight for this iteration     100.00

 eigenvalues of (default mixing * dielectric matrix)
  average eigenvalue GAMMA=   0.9849
  2.5974  1.2476  1.2476  0.3473  0.2139  0.2556

 Free energy of the ion-electron system (eV)
  ---------------------------------------------------
  alpha Z        PSCENC =      2204.38059661
  Ewald energy   TEWEN  =    -28665.87711665
  -1/2 Hartree   DENC   =     -7164.55783562
  -V(xc)+E(xc)   XCENC  =      1242.91719838
  PAW double counting   =     25471.97203628   -25574.53886697
  entropy T*S    EENTRO =        -0.00236863
  eigenvalues    EBANDS =     -5323.69093051
  atomic energy  EATOM  =     37525.52423787
  ---------------------------------------------------
  free energy    TOTEN  =      -283.87304926 eV

  energy without entropy =     -283.87068062  energy(sigma->0) =     -283.87186494


--------------------------------------------------------------------------------------------------------




----------------------------------------- Iteration    1(  12)  ---------------------------------------


    POTLOK:  VPU time    0.76: CPU time    0.76
    SETDIJ:  VPU time    0.05: CPU time    0.05
    EDDAV :  VPU time 1520.01: CPU time 1521.63
    DOS   :  VPU time    0.00: CPU time   -0.00
    CHARGE:  VPU time   69.99: CPU time   70.07
    MIXING:  VPU time    0.02: CPU time    0.02
    ------------------------------------------
      LOOP:  VPU time 1591.04: CPU time 1592.74

 eigenvalue-minimisations  : 71536
 total energy-change (2. order) :-0.1092681E-02  (-0.1130416E-02)
 number of electron  359.9999863 magnetization 
 augmentation part   169.6048975 magnetization 

 Broyden mixing:
  rms(total) = 0.27444E-01    rms(broyden)= 0.27444E-01
  rms(prec ) = 0.37522E-01
  weight for this iteration     100.00

 eigenvalues of (default mixing * dielectric matrix)
  average eigenvalue GAMMA=   1.0514
  2.5511  1.9868  1.1870  0.9047  0.2129  0.2586  0.2586

 Free energy of the ion-electron system (eV)
  ---------------------------------------------------
  alpha Z        PSCENC =      2204.38059661
  Ewald energy   TEWEN  =    -28665.87711665
  -1/2 Hartree   DENC   =     -7163.48436241
  -V(xc)+E(xc)   XCENC  =      1242.85825168
  PAW double counting   =     25469.73695781   -25571.89609990
  entropy T*S    EENTRO =        -0.00238140
  eigenvalues    EBANDS =     -5325.11422555
  atomic energy  EATOM  =     37525.52423787
  ---------------------------------------------------
  free energy    TOTEN  =      -283.87414194 eV

  energy without entropy =     -283.87176054  energy(sigma->0) =     -283.87295124


--------------------------------------------------------------------------------------------------------




----------------------------------------- Iteration    1(  13)  ---------------------------------------


    POTLOK:  VPU time    0.63: CPU time    0.63
    SETDIJ:  VPU time    0.05: CPU time    0.05
    EDDAV :  VPU time 1395.70: CPU time 1395.64
    DOS   :  VPU time    0.00: CPU time   -0.00
    CHARGE:  VPU time   52.37: CPU time   52.37
    MIXING:  VPU time    0.01: CPU time    0.01
    ------------------------------------------
      LOOP:  VPU time 1448.96: CPU time 1448.89

 eigenvalue-minimisations  : 69432
 total energy-change (2. order) : 0.1259588E-02  (-0.3085245E-03)
 number of electron  359.9999863 magnetization 
 augmentation part   169.5643361 magnetization 

 Broyden mixing:
  rms(total) = 0.14130E-01    rms(broyden)= 0.14130E-01
  rms(prec ) = 0.21255E-01
  weight for this iteration     100.00

 eigenvalues of (default mixing * dielectric matrix)
  average eigenvalue GAMMA=   1.0072
  2.4526  2.4293  1.0513  1.0513  0.3553  0.2139  0.2517  0.2517

 Free energy of the ion-electron system (eV)
  ---------------------------------------------------
  alpha Z        PSCENC =      2204.38059661
  Ewald energy   TEWEN  =    -28665.87711665
  -1/2 Hartree   DENC   =     -7167.11399728
  -V(xc)+E(xc)   XCENC  =      1243.05282362
  PAW double counting   =     25476.34879740   -25577.11833209
  entropy T*S    EENTRO =        -0.00236971
  eigenvalues    EBANDS =     -5323.06752211
  atomic energy  EATOM  =     37525.52423787
  ---------------------------------------------------
  free energy    TOTEN  =      -283.87288235 eV

  energy without entropy =     -283.87051264  energy(sigma->0) =     -283.87169749


--------------------------------------------------------------------------------------------------------




----------------------------------------- Iteration    1(  14)  ---------------------------------------


    POTLOK:  VPU time    0.45: CPU time    0.46
    SETDIJ:  VPU time    0.04: CPU time    0.04
    EDDAV :  VPU time 1426.47: CPU time 1426.40
    DOS   :  VPU time   -0.00: CPU time   -0.00
    CHARGE:  VPU time   75.56: CPU time   75.55
    MIXING:  VPU time    0.02: CPU time    0.02
    ------------------------------------------
      LOOP:  VPU time 1502.74: CPU time 1502.66

 eigenvalue-minimisations  : 69808
 total energy-change (2. order) : 0.4197707E-03  (-0.1312468E-03)
 number of electron  359.9999863 magnetization 
 augmentation part   169.5385969 magnetization 

 Broyden mixing:
  rms(total) = 0.59050E-02    rms(broyden)= 0.59046E-02
  rms(prec ) = 0.99415E-02
  weight for this iteration     100.00

 eigenvalues of (default mixing * dielectric matrix)
  average eigenvalue GAMMA=   0.9647
  2.6064  2.0227  1.2347  0.9244  0.9244  0.2129  0.2575  0.2575  0.2415

 Free energy of the ion-electron system (eV)
  ---------------------------------------------------
  alpha Z        PSCENC =      2204.38059661
  Ewald energy   TEWEN  =    -28665.87711665
  -1/2 Hartree   DENC   =     -7169.22109937
  -V(xc)+E(xc)   XCENC  =      1243.16773965
  PAW double counting   =     25480.69178062   -25580.73106789
  entropy T*S    EENTRO =        -0.00236139
  eigenvalues    EBANDS =     -5321.80517203
  atomic energy  EATOM  =     37525.52423787
  ---------------------------------------------------
  free energy    TOTEN  =      -283.87246258 eV

  energy without entropy =     -283.87010119  energy(sigma->0) =     -283.87128188


--------------------------------------------------------------------------------------------------------




----------------------------------------- Iteration    1(  15)  ---------------------------------------


    POTLOK:  VPU time    0.69: CPU time    0.69
    SETDIJ:  VPU time    0.06: CPU time    0.06
    EDDAV :  VPU time 1590.22: CPU time 1590.11
    DOS   :  VPU time    0.00: CPU time   -0.00
    CHARGE:  VPU time   88.43: CPU time   88.41
    MIXING:  VPU time    0.03: CPU time    0.03
    ------------------------------------------
      LOOP:  VPU time 1679.62: CPU time 1679.50

 eigenvalue-minimisations  : 73208
 total energy-change (2. order) : 0.8435178E-05  (-0.1884096E-04)
 number of electron  359.9999863 magnetization 
 augmentation part   169.5363196 magnetization 

 Broyden mixing:
  rms(total) = 0.41946E-02    rms(broyden)= 0.41945E-02
  rms(prec ) = 0.69955E-02
  weight for this iteration     100.00

 eigenvalues of (default mixing * dielectric matrix)
  average eigenvalue GAMMA=   0.9031
  2.6158  1.9211  1.3127  0.9867  0.9867  0.2703  0.2703  0.2126  0.2273  0.2273

 Free energy of the ion-electron system (eV)
  ---------------------------------------------------
  alpha Z        PSCENC =      2204.38059661
  Ewald energy   TEWEN  =    -28665.87711665
  -1/2 Hartree   DENC   =     -7169.30760188
  -V(xc)+E(xc)   XCENC  =      1243.17547576
  PAW double counting   =     25481.60588903   -25581.68505677
  entropy T*S    EENTRO =        -0.00236000
  eigenvalues    EBANDS =     -5321.68651811
  atomic energy  EATOM  =     37525.52423787
  ---------------------------------------------------
  free energy    TOTEN  =      -283.87245414 eV

  energy without entropy =     -283.87009414  energy(sigma->0) =     -283.87127414


--------------------------------------------------------------------------------------------------------




----------------------------------------- Iteration    1(  16)  ---------------------------------------


    POTLOK:  VPU time    0.75: CPU time    0.75
    SETDIJ:  VPU time    0.05: CPU time    0.05
    EDDAV :  VPU time 1522.06: CPU time 1521.99
    DOS   :  VPU time    0.00: CPU time   -0.00
    CHARGE:  VPU time   76.83: CPU time   76.82
    MIXING:  VPU time    0.03: CPU time    0.03
    ------------------------------------------
      LOOP:  VPU time 1599.92: CPU time 1599.84

 eigenvalue-minimisations  : 73424
 total energy-change (2. order) : 0.4196365E-05  (-0.6251393E-05)
 number of electron  359.9999863 magnetization 
 augmentation part   169.5353492 magnetization 

 Broyden mixing:
  rms(total) = 0.30864E-02    rms(broyden)= 0.30863E-02
  rms(prec ) = 0.42248E-02
  weight for this iteration     100.00

 eigenvalues of (default mixing * dielectric matrix)
  average eigenvalue GAMMA=   0.9681
  2.6163  1.8780  1.8780  1.1239  1.1239  0.8421  0.2636  0.2526  0.2526  0.2122
  0.2055

 Free energy of the ion-electron system (eV)
  ---------------------------------------------------
  alpha Z        PSCENC =      2204.38059661
  Ewald energy   TEWEN  =    -28665.87711665
  -1/2 Hartree   DENC   =     -7169.31548489
  -V(xc)+E(xc)   XCENC  =      1243.17701761
  PAW double counting   =     25481.81999035   -25581.92033897
  entropy T*S    EENTRO =        -0.00235940
  eigenvalues    EBANDS =     -5321.65899247
  atomic energy  EATOM  =     37525.52423787
  ---------------------------------------------------
  free energy    TOTEN  =      -283.87244995 eV

  energy without entropy =     -283.87009054  energy(sigma->0) =     -283.87127024


--------------------------------------------------------------------------------------------------------




----------------------------------------- Iteration    1(  17)  ---------------------------------------


    POTLOK:  VPU time    0.66: CPU time    0.66
    SETDIJ:  VPU time    0.05: CPU time    0.05
    EDDAV :  VPU time 1472.72: CPU time 1473.48
    DOS   :  VPU time    0.00: CPU time   -0.00
    CHARGE:  VPU time   81.91: CPU time   81.93
    MIXING:  VPU time    0.03: CPU time    0.03
    ------------------------------------------
      LOOP:  VPU time 1555.56: CPU time 1556.35

 eigenvalue-minimisations  : 67408
 total energy-change (2. order) : 0.4342422E-04  (-0.4669413E-05)
 number of electron  359.9999863 magnetization 
 augmentation part   169.5296987 magnetization 

 Broyden mixing:
[...]
     97     -27.1300      2.00000
     98     -27.1294      2.00000
     99     -27.1293      2.00000
    100     -27.1205      2.00000
    101     -27.1118      2.00000
    102     -27.1116      2.00000
    103     -27.0987      2.00000
    104     -27.0985      2.00000
    105     -27.0853      2.00000
    106     -27.0771      2.00000
    107     -27.0676      2.00000
    108     -27.0578      2.00000
    109       0.1087      2.00000
    110       0.4841      2.00000
    111       1.5983      2.00000
    112       1.5987      2.00000
    113       1.8797      2.00000
    114       1.8801      2.00000
    115       2.4694      2.00000
    116       2.4696      2.00000
    117       2.6464      2.00000
    118       2.6466      2.00000
    119       2.6588      2.00000
    120       2.9260      2.00000
    121       2.9263      2.00000
    122       2.9658      2.00000
    123       2.9659      2.00000
    124       3.0110      2.00000
    125       3.6017      2.00000
    126       3.6024      2.00000
    127       3.6265      2.00000
    128       3.6272      2.00000
    129       3.7564      2.00000
    130       3.7571      2.00000
    131       3.7729      2.00000
    132       3.7736      2.00000
    133       3.8829      2.00000
    134       3.8856      2.00000
    135       3.9428      2.00000
    136       3.9433      2.00000
    137       3.9952      2.00000
    138       3.9960      2.00000
    139       4.0414      2.00000
    140       4.0650      2.00000
    141       4.1039      2.00000
    142       4.1062      2.00000
    143       4.2857      2.00000
    144       4.3240      2.00000
    145       4.3423      2.00000
    146       4.3428      2.00000
    147       4.4077      2.00000
    148       4.4080      2.00000
    149       4.5150      2.00000
    150       4.5237      2.00000
    151       4.5435      2.00000
    152       4.5437      2.00000
    153       4.5789      2.00000
    154       4.5794      2.00000
    155       4.5993      2.00000
    156       4.5998      2.00000
    157       4.6225      2.00000
    158       4.6386      2.00000
    159       4.6986      2.00000
    160       4.6992      2.00000
    161       4.7030      2.00000
    162       4.7432      2.00000
    163       4.8118      2.00000
    164       4.9544      2.00000
    165       4.9881      2.00000
    166       4.9890      2.00000
    167       5.0447      2.00000
    168       5.0459      2.00000
    169       5.1366      2.00000
    170       5.1381      2.00000
    171       5.2256      2.00000
    172       5.2270      2.00000
    173       5.3385      2.00000
    174       5.3393      2.00000
    175       5.4192      2.00000
    176       5.4200      2.00000
    177       5.4485      2.00000
    178       5.6037      2.00000
    179       5.6046      2.00000
    180       5.6268      2.00000
    181       5.7729      0.00000
    182       5.7900      0.00000
    183       5.8441      0.00000
    184       5.8462      0.00000
    185       5.8714      0.00000
    186       5.9328      0.00000
    187       5.9340      0.00000
    188       5.9724      0.00000
    189       5.9728      0.00000
    190       5.9809      0.00000
    191       6.0709      0.00000
    192       6.0715      0.00000
    193       6.0978      0.00000
    194       6.0983      0.00000
    195       6.1002      0.00000
    196       6.1182      0.00000
    197       6.1668      0.00000
    198       6.2859      0.00000
    199       6.2862      0.00000
    200       6.3209      0.00000
    201       6.3215      0.00000
    202       6.3730      0.00000
    203       6.4175      0.00000
    204       6.4182      0.00000
    205       6.4533      0.00000
    206       6.4541      0.00000
    207       6.4720      0.00000
    208       6.5227      0.00000
    209       6.5455      0.00000
    210       6.5461      0.00000
    211       6.5576      0.00000
    212       6.5578      0.00000
    213       6.5760      0.00000
    214       6.5770      0.00000
    215       6.6216      0.00000
    216       6.6350      0.00000


--------------------------------------------------------------------------------------------------------


 soft charge-density along one line, spin component           1
         0         1         2         3         4         5         6         7         8         9
 total charge-density along one line
 
 pseudopotential strength for first ion, spin component:           1
-29.177  -0.000  -0.001  13.084   0.000   0.001   0.000  -0.001
 -0.000 -29.226   0.000   0.000  13.121  -0.000  -0.000  -0.000
 -0.001   0.000 -29.176   0.001  -0.000  13.083   0.004  -0.000
 13.084   0.000   0.001  -0.921  -0.000  -0.000   0.000   0.001
  0.000  13.121  -0.000  -0.000  -0.945   0.000   0.000   0.000
  0.001  -0.000  13.083  -0.000   0.000  -0.921  -0.002   0.000
  0.000  -0.000   0.004   0.000   0.000  -0.002  -2.983   0.000
 -0.001  -0.000  -0.000   0.001   0.000   0.000   0.000  -3.006
  0.000  -0.001   0.000  -0.000   0.001  -0.000   0.000  -0.000
 -0.000   0.000  -0.001   0.000   0.000   0.001   0.000  -0.000
  0.005   0.000   0.000  -0.003  -0.000   0.000  -0.000   0.000
 -0.000  -0.000   0.001   0.000   0.000  -0.001   0.504   0.000
 -0.000  -0.000  -0.000   0.000   0.000   0.000   0.000   0.499
  0.000  -0.000   0.000  -0.000   0.000  -0.000   0.000  -0.000
 -0.000  -0.000  -0.000   0.000   0.000   0.000   0.000  -0.000
  0.001   0.000  -0.000  -0.001  -0.000   0.000  -0.000   0.000
  0.000   0.000   0.000  -0.000  -0.000  -0.000   0.000   0.000
 -0.000  -0.000   0.000   0.000   0.000  -0.000  -0.000  -0.000
 total augmentation occupancy for first ion, spin component:           1
  1.975   0.000  -0.000   0.001   0.000  -0.000   0.000   0.000  -0.000  -0.000  -0.016  -0.000  -0.000  -0.000  -0.000   0.006
  0.000   1.974   0.000  -0.000  -0.001  -0.000  -0.000   0.000   0.000   0.000   0.000  -0.000   0.000  -0.000  -0.000   0.000
 -0.000   0.000   1.975  -0.000  -0.000   0.001  -0.016  -0.000  -0.000   0.000   0.000   0.006  -0.000   0.000  -0.000  -0.000
  0.001  -0.000  -0.000   0.182   0.000   0.000   0.001   0.001  -0.000  -0.000  -0.068  -0.000  -0.001   0.000   0.000   0.018
  0.000  -0.001  -0.000   0.000   0.170  -0.000  -0.000  -0.000   0.001   0.001   0.000   0.000  -0.000  -0.001  -0.001  -0.000
 -0.000  -0.000   0.001   0.000  -0.000   0.181  -0.068  -0.000   0.000   0.001   0.001   0.018   0.000   0.000  -0.001  -0.000
  0.000  -0.000  -0.016   0.001  -0.000  -0.068   0.591   0.000   0.001   0.000  -0.000  -0.259  -0.000  -0.000  -0.000   0.001
  0.000   0.000  -0.000   0.001  -0.000  -0.000   0.000   0.467  -0.000  -0.002   0.000  -0.000  -0.230   0.000   0.001  -0.000
 -0.000   0.000  -0.000  -0.000   0.001   0.000   0.001  -0.000   0.637   0.000  -0.000  -0.000   0.000  -0.264   0.000  -0.000
 -0.000   0.000   0.000  -0.000   0.001   0.001   0.000  -0.002   0.000   0.468   0.000  -0.000   0.001   0.000  -0.231  -0.000
 -0.016   0.000   0.000  -0.068   0.000   0.001  -0.000   0.000  -0.000   0.000   0.591   0.001  -0.000  -0.000  -0.000  -0.258
 -0.000  -0.000   0.006  -0.000   0.000   0.018  -0.259  -0.000  -0.000  -0.000   0.001   0.133   0.000   0.000   0.000  -0.001
 -0.000   0.000  -0.000  -0.001  -0.000   0.000  -0.000  -0.230   0.000   0.001  -0.000   0.000   0.129  -0.000  -0.000   0.000
 -0.000  -0.000   0.000   0.000  -0.001   0.000  -0.000   0.000  -0.264   0.000  -0.000   0.000  -0.000   0.129  -0.000   0.000
 -0.000  -0.000  -0.000   0.000  -0.001  -0.001  -0.000   0.001   0.000  -0.231  -0.000   0.000  -0.000  -0.000   0.129   0.000
  0.006   0.000  -0.000   0.018  -0.000  -0.000   0.001  -0.000  -0.000  -0.000  -0.258  -0.001   0.000   0.000   0.000   0.132
 -0.000   0.001   0.001  -0.001   0.002   0.003  -0.003  -0.000   0.030  -0.000   0.001   0.001  -0.000  -0.014   0.000  -0.000
  0.000   0.001  -0.000  -0.000  -0.000  -0.000   0.000   0.000   0.011  -0.000  -0.000  -0.000  -0.000  -0.004   0.000   0.000


------------------------ aborting loop because EDIFF is reached ----------------------------------------




--------------------------------------------------------------------------------------------------------


    CHARGE:  VPU time   68.45: CPU time   68.62
    FORLOC:  VPU time    0.14: CPU time    0.15
    FORNL :  VPU time  374.63: CPU time  375.47
    STRESS:  VPU time  652.24: CPU time  653.63
    FORCOR:  VPU time    0.67: CPU time    0.67
    FORHAR:  VPU time    0.25: CPU time    0.25
    MIXING:  VPU time    0.02: CPU time    0.02


--------------------------------------------------------------------------------------------------------



  FREE ENERGIE OF THE ION-ELECTRON SYSTEM (eV)
  ---------------------------------------------------
  free  energy   TOTEN  =      -283.872381 eV

  energy  without entropy=     -283.870026  energy(sigma->0) =     -283.871204
 

  FORCE on cell =-STRESS in cart. coord.  units (eV/reduce length):
  Direction    X        Y        Z        XY       YZ       ZX
  --------------------------------------------------------------------------------------
  Alpha Z   2204.38   2204.38   2204.38
  Ewald    -9609.90  -9623.98  -9432.10    -12.62     -0.00     -0.01
  Hartree   2370.21   2363.66   2436.18     -5.88     -0.00     -0.00
  E(xc)    -1692.17  -1692.17  -1691.82     -0.00     -0.00     -0.00
  Local     2400.65   2421.17   2201.13     18.41      0.00      0.01
  n-local   -865.39   -865.12   -849.73      0.22     -0.00      0.00
  augment   1840.65   1840.32   1815.71     -0.29     -0.00      0.00
  Kinetic   3343.43   3342.67   3300.25     -0.66     -0.00      0.00
  -------------------------------------------------------------------------------------
  Total       -8.14     -9.06    -15.99     -0.82     -0.00      0.00
  in kB      -20.34    -22.65    -39.97     -2.04     -0.00      0.00
  external pressure =      -27.65 kB  Pullay stress =        0.00 kB


 VOLUME and BASIS-vectors are now :
 -----------------------------------------------------------------------------
  energy-cutoff  :      500.00
  volume of cell :      641.08
      direct lattice vectors                 reciprocal lattice vectors
     8.820667100  0.024765440  0.000000000     0.113187820  0.064925977  0.000000000
    -4.388885871  7.651304610  0.000000000    -0.000366362  0.130486516  0.000000000
     0.000000000  0.000000000  9.483698700     0.000000000  0.000000000  0.105444092

  length of vectors
     8.820701866  8.820701867  9.483698700     0.130487030  0.130487030  0.105444092


 FORCES acting on ions
    electron-ion (+dipol)            ewald-force                    non-local-force                 convergence-correction
 -----------------------------------------------------------------------------------------------
   0.233E+01 -.853E-01 0.244E+01   -.232E+01 0.623E-01 -.248E+01   -.446E-01 0.225E-01 -.233E-02   0.651E-04 -.923E-05 0.408E-04
   -.737E+00 -.941E-01 0.413E+00   0.781E+00 0.656E-01 -.411E+00   -.340E-01 0.240E-01 -.510E-03   -.546E-04 0.172E-04 0.274E-04
   -.736E+00 -.844E-01 0.408E+00   0.779E+00 0.656E-01 -.406E+00   -.335E-01 0.216E-01 -.675E-03   -.109E-04 0.684E-05 -.175E-06
   0.168E+00 0.431E+00 0.410E+00   -.127E+00 -.457E+00 -.407E+00   -.372E-01 0.180E-01 -.678E-03   0.108E-04 0.250E-04 0.114E-04
   0.164E+00 -.598E+00 0.406E+00   -.123E+00 0.577E+00 -.404E+00   -.365E-01 0.269E-01 -.630E-03   0.287E-04 -.327E-04 0.209E-04
   -.143E-01 -.870E-01 0.147E+00   0.569E-01 0.633E-01 -.149E+00   -.390E-01 0.228E-01 0.310E-02   -.402E-04 0.240E-04 0.881E-06
   0.175E+00 0.433E+00 0.412E+00   -.131E+00 -.455E+00 -.410E+00   -.404E-01 0.216E-01 -.494E-03   -.128E-04 0.214E-04 0.237E-04
   -.139E-01 -.858E-01 0.149E+00   0.569E-01 0.622E-01 -.149E+00   -.392E-01 0.231E-01 0.132E-02   -.292E-04 -.149E-04 0.544E-05
   0.163E+00 -.605E+00 0.403E+00   -.119E+00 0.579E+00 -.401E+00   -.396E-01 0.243E-01 -.614E-03   0.413E-04 -.354E-04 0.646E-05
   0.253E+00 -.863E-01 -.421E+00   -.214E+00 0.625E-01 0.433E+00   -.393E-01 0.226E-01 -.231E-03   0.306E-04 -.504E-05 -.411E-04
   0.994E-01 -.855E-01 -.197E+00   -.573E-01 0.632E-01 0.198E+00   -.393E-01 0.224E-01 -.111E-02   -.374E-04 0.209E-04 -.282E-04
   0.997E-01 -.882E-01 -.196E+00   -.575E-01 0.632E-01 0.197E+00   -.395E-01 0.231E-01 -.119E-02   0.603E-05 0.816E-05 -.479E-06
   0.170E+00 -.451E-01 -.196E+00   -.129E+00 0.223E-01 0.197E+00   -.396E-01 0.219E-01 -.120E-02   0.646E-05 0.116E-04 -.118E-04
   0.169E+00 -.128E+00 -.195E+00   -.127E+00 0.104E+00 0.196E+00   -.395E-01 0.232E-01 -.133E-02   0.194E-04 -.160E-04 -.213E-04
   0.110E+00 -.869E-01 -.127E+00   -.703E-01 0.632E-01 0.123E+00   -.386E-01 0.227E-01 0.265E-02   -.270E-04 0.246E-04 -.114E-05
   0.170E+00 -.474E-01 -.197E+00   -.129E+00 0.220E-01 0.198E+00   -.398E-01 0.231E-01 -.111E-02   -.210E-04 0.384E-05 -.246E-04
   0.110E+00 -.865E-01 -.124E+00   -.703E-01 0.630E-01 0.123E+00   -.386E-01 0.229E-01 -.399E-03   -.111E-04 -.204E-04 -.571E-05
   0.169E+00 -.125E+00 -.195E+00   -.127E+00 0.103E+00 0.196E+00   -.394E-01 0.225E-01 -.133E-02   0.316E-04 -.255E-04 -.633E-05
   -.614E+00 0.549E+00 -.953E+00   0.579E+00 -.529E+00 0.951E+00   0.436E-01 -.251E-01 0.110E-01   -.369E-05 0.104E-04 -.219E-04
   -.357E+00 0.105E+00 -.198E-01   0.317E+00 -.822E-01 0.202E-01   0.385E-01 -.221E-01 -.666E-03   -.576E-04 0.371E-05 -.787E-05
   0.380E+00 0.203E+00 -.233E-01   -.421E+00 -.179E+00 0.249E-01   0.375E-01 -.242E-01 -.305E-02   0.637E-04 -.164E-04 0.446E-05
   0.181E+00 -.492E+00 -.496E+00   -.222E+00 0.518E+00 0.496E+00   0.400E-01 -.192E-01 0.377E-02   0.552E-04 -.171E-04 -.370E-05
   -.421E+00 -.101E+00 -.170E+00   0.382E+00 0.126E+00 0.175E+00   0.347E-01 -.246E-01 -.636E-02   -.415E-04 -.405E-05 -.162E-04
   -.147E+00 0.118E+00 0.765E-01   0.107E+00 -.951E-01 -.778E-01   0.372E-01 -.219E-01 0.170E-02   -.121E-04 0.326E-04 0.583E-05
   -.192E+00 0.181E+00 -.352E-01   0.151E+00 -.157E+00 0.365E-01   0.389E-01 -.226E-01 -.145E-02   -.266E-04 0.195E-04 -.661E-05
   -.161E+00 -.265E-01 -.504E-02   0.120E+00 0.507E-01 0.464E-02   0.403E-01 -.237E-01 0.392E-03   0.203E-04 -.461E-04 -.362E-05
   -.944E-01 0.242E+00 -.463E-01   0.535E-01 -.218E+00 0.479E-01   0.381E-01 -.213E-01 -.240E-02   0.687E-05 0.161E-04 -.689E-05
   0.377E+00 -.255E-01 -.256E-01   -.417E+00 0.486E-01 0.266E-01   0.373E-01 -.213E-01 -.265E-02   0.678E-05 -.101E-04 0.224E-04
   -.356E+00 0.661E-01 -.207E-01   0.316E+00 -.418E-01 0.212E-01   0.384E-01 -.233E-01 -.678E-03   -.286E-04 0.740E-05 0.850E-05
   -.607E+00 -.376E+00 -.951E+00   0.571E+00 0.403E+00 0.949E+00   0.437E-01 -.205E-01 0.110E-01   0.218E-04 -.245E-04 -.426E-05
   0.187E+00 0.656E+00 -.486E+00   -.228E+00 -.635E+00 0.485E+00   0.400E-01 -.263E-01 0.410E-02   0.285E-04 0.102E-04 0.441E-05
   -.152E+00 0.554E-01 0.737E-01   0.113E+00 -.309E-01 -.750E-01   0.372E-01 -.232E-01 0.166E-02   -.246E-05 0.184E-04 0.176E-04
   -.423E+00 0.277E+00 -.176E+00   0.384E+00 -.254E+00 0.180E+00   0.351E-01 -.208E-01 -.585E-02   -.265E-04 0.345E-04 -.556E-05
   -.158E+00 0.200E+00 -.536E-02   0.116E+00 -.177E+00 0.497E-02   0.399E-01 -.219E-01 0.851E-04   -.265E-04 0.470E-05 0.768E-05
   -.193E+00 -.738E-02 -.348E-01   0.153E+00 0.310E-01 0.358E-01   0.389E-01 -.229E-01 -.124E-02   0.255E-04 -.296E-04 0.337E-05
   -.958E-01 -.679E-01 -.491E-01   0.551E-01 0.919E-01 0.508E-01   0.382E-01 -.242E-01 -.229E-02   0.143E-05 -.119E-04 0.744E-05
 -----------------------------------------------------------------------------------------------
   -.761E-05 -.152E-03 0.965E-05   -.201E-12 -.355E-12 0.113E-12   -.683E-04 0.157E-03 0.265E-03   0.144E-06 0.204E-05 0.127E-05
 
 
 POSITION                                       TOTAL-FORCE (eV/Angst)
 -----------------------------------------------------------------------------------
      0.00672      1.70587      1.19278        -0.040083     -0.000590     -0.040203
      2.94013      1.71410      1.18546         0.010032     -0.004480      0.001803
      5.88035      1.72236      1.18546         0.009834      0.002759      0.001811
     -1.46305      4.25628      1.18546         0.003952     -0.008078      0.001805
      1.47717      4.26454      1.18546         0.004702      0.005692      0.001726
      4.41739      4.27279      1.18546         0.003577     -0.000865      0.001131
     -2.92602      6.80672      1.18546         0.003966     -0.000450      0.001800
      0.01421      6.81497      1.18546         0.003724     -0.000563      0.001135
      2.95443      6.82323      1.18546         0.004594     -0.001641      0.001726
     -0.00009      1.70585      5.92731        -0.000590     -0.001199      0.012352
      2.94013      1.71410      5.92731         0.002765      0.000063      0.000043
      5.88035      1.72236      5.92731         0.002753     -0.001843      0.000053
     -1.46305      4.25628      5.92731         0.001558     -0.000804      0.000045
      1.47717      4.26454      5.92731         0.002084     -0.001324     -0.000065
      4.41739      4.27279      5.92731         0.000880     -0.000951     -0.001239
     -2.92602      6.80672      5.92731         0.001607     -0.002330      0.000042
      0.01421      6.81497      5.92731         0.001016     -0.000622     -0.001241
      2.95443      6.82323      5.92731         0.001962      0.000640     -0.000060
      1.47735      0.85284      3.55639         0.008476     -0.004931      0.009082
      4.41757      0.86110      3.55639        -0.002073      0.000675     -0.000289
      7.35780      0.86935      3.55639        -0.002663     -0.000173     -0.001492
      0.01439      3.40328      3.55639        -0.001117      0.007469      0.003865
      2.95461      3.41153      3.55639        -0.004018      0.000325     -0.001660
      5.89483      3.41979      3.55639        -0.002162      0.000905      0.000445
     -1.44857      5.95371      3.55639        -0.001545      0.001387     -0.000167
      1.49165      5.96197      3.55639        -0.001139      0.000545     -0.000019
      4.43187      5.97022      3.55639        -0.002701      0.002035     -0.000769
      1.47735      0.85284      8.29824        -0.002954      0.001692     -0.001575
      4.41757      0.86110      8.29824        -0.001943      0.000950     -0.000166
      7.35780      0.86935      8.29824         0.008407      0.006147      0.008787
      0.01439      3.40328      8.29824        -0.001038     -0.005445      0.003699
      2.95461      3.41153      8.29824        -0.001931      0.001290      0.000291
      5.89483      3.41979      8.29824        -0.004338      0.002160     -0.001578
     -1.44857      5.95371      8.29824        -0.001711      0.001131     -0.000301
      1.49165      5.96197      8.29824        -0.001387      0.000678     -0.000232
      4.43187      5.97022      8.29824        -0.002497     -0.000254     -0.000584
 -----------------------------------------------------------------------------------
    total drift:                               -0.000076      0.000007      0.000276


--------------------------------------------------------------------------------------------------------



 mean value of Nose-termostat <S>:     1.000 mean value of <T> :     0.000
 mean temperature <T/S>/<1/S>  :     0.000

     LOOP+:  VPU time35148.33: CPU time35176.06
  
  
 General timing and accounting informations for this job:
 ========================================================
  
                  Total CPU time used (sec):    35309.851
                            User time (sec):    30132.060
                          System time (sec):     5177.791
                         Elapsed time (sec):    35338.138
  
                   Maximum memory used (kb):    11702116.
                   Average memory used (kb):           0.
  
                          Minor page faults:      2442708
                          Major page faults:           42
                 Voluntary context switches:         2969
