 running on    4 nodes
 distr:  one band on    1 nodes,    4 groups
 vasp.4.6.28 25Jul05 complex 
 POSCAR found :  1 types and   32 ions

 ----------------------------------------------------------------------------- 
|                                                                             |
|  ADVICE TO THIS USER RUNNING 'VASP/VAMP'   (HEAR YOUR MASTER'S VOICE ...):  |
|                                                                             |
|      You have a (more or less) 'large supercell' and for larger cells       |
|      it might be more efficient to use real space projection operators      |
|      So try LREAL= Auto  in the INCAR   file.                               |
|      Mind: If you want to do an extremely accurate calculations keep the    |
|      reciprocal projection scheme          (i.e. LREAL=.FALSE.)             |
|                                                                             |
 ----------------------------------------------------------------------------- 

 LDA part: xc-table for Pade appr. of Perdew
 POSCAR, INCAR and KPOINTS ok, starting setup
 FFT: planning ...           1
 reading WAVECAR
 WARNING: random wavefunctions but no delay for mixing, default for NELMDL
 entering main loop
       N       E                     dE             d eps       ncg     rms          rms(c)
DAV:   1     0.211186982306E+03    0.21119E+03   -0.44034E+04 26656   0.156E+03
DAV:   2    -0.980299699198E+02   -0.30922E+03   -0.28931E+03 30948   0.181E+02
DAV:   3    -0.116730857510E+03   -0.18701E+02   -0.17612E+02 32932   0.341E+01
DAV:   4    -0.117172984398E+03   -0.44213E+00   -0.43691E+00 31348   0.513E+00
DAV:   5    -0.117178448366E+03   -0.54640E-02   -0.54541E-02 31440   0.666E-01    0.570E+00
DAV:   6    -0.116679625009E+03    0.49882E+00   -0.30709E-02 30684   0.595E-01    0.355E+00
DAV:   7    -0.116321045656E+03    0.35858E+00   -0.96457E-02 29200   0.973E-01    0.135E-01
DAV:   8    -0.116321253800E+03   -0.20814E-03   -0.10469E-03 32156   0.140E-01    0.554E-02
DAV:   9    -0.116321287287E+03   -0.33487E-04   -0.72896E-05 30960   0.246E-02    0.551E-03
DAV:  10    -0.116321291076E+03   -0.37890E-05   -0.48320E-06 31624   0.724E-03    0.212E-03
DAV:  11    -0.116321290211E+03    0.86420E-06   -0.30757E-07 31292   0.180E-03    0.843E-04
DAV:  12    -0.116321289904E+03    0.30746E-06   -0.19183E-08 20596   0.506E-04    0.149E-04
DAV:  13    -0.116321289799E+03    0.10469E-06   -0.27930E-09 17720   0.208E-04    0.311E-05
DAV:  14    -0.116321289786E+03    0.12843E-07   -0.45350E-10 17156   0.769E-05    0.104E-05
DAV:  15    -0.116321289783E+03    0.38519E-08   -0.74633E-11 16960   0.383E-05
   1 F= -.11632129E+03 E0= -.11632108E+03  d E =-.416156E-03
