  32  32   0   0
  0.1410542E+02  0.7670882E-09  0.7670882E-09  0.7670882E-09  0.5000000E-15
  1.000000000000000E-004
  CAR 
 unknown system                          
     14.61834709     -3.34200803  301      9.74763586      1.00000000
     -3.342  0.0000E+00  0.0000E+00
     -3.282  0.0000E+00  0.0000E+00
     -3.222  0.0000E+00  0.0000E+00
     -3.162  0.0000E+00  0.0000E+00
     -3.103  0.0000E+00  0.0000E+00
     -3.043  0.0000E+00  0.0000E+00
     -2.983  0.0000E+00  0.0000E+00
     -2.923  0.0000E+00  0.0000E+00
     -2.863  0.0000E+00  0.0000E+00
     -2.803  0.0000E+00  0.0000E+00
     -2.743  0.0000E+00  0.0000E+00
     -2.683  0.0000E+00  0.0000E+00
     -2.624  0.0000E+00  0.0000E+00
     -2.564  0.6893E-09  0.4127E-10
     -2.504  0.1113E+00  0.6665E-02
     -2.444  0.6208E+00  0.4383E-01
     -2.384  0.9831E+00  0.1027E+00
     -2.324  0.1570E+01  0.1967E+00
     -2.264  0.1561E+01  0.2901E+00
     -2.205  0.1678E+01  0.3906E+00
     -2.145  0.2079E+01  0.5150E+00
     -2.085  0.1281E+01  0.5917E+00
     -2.025  0.2454E+01  0.7386E+00
     -1.965  0.2129E+01  0.8661E+00
     -1.905  0.2890E+01  0.1039E+01
     -1.845  0.2383E+01  0.1182E+01
     -1.785  0.3219E+01  0.1374E+01
     -1.726  0.2790E+01  0.1541E+01
     -1.666  0.1676E+01  0.1642E+01
     -1.606  0.3582E+01  0.1856E+01
     -1.546  0.3490E+01  0.2065E+01
     -1.486  0.2882E+01  0.2238E+01
     -1.426  0.3280E+01  0.2434E+01
     -1.366  0.3878E+01  0.2666E+01
     -1.307  0.3827E+01  0.2896E+01
     -1.247  0.2346E+01  0.3036E+01
     -1.187  0.4614E+01  0.3312E+01
     -1.127  0.2369E+01  0.3454E+01
     -1.067  0.4527E+01  0.3725E+01
     -1.007  0.3708E+01  0.3947E+01
     -0.947  0.5968E+01  0.4305E+01
     -0.887  0.3031E+01  0.4486E+01
     -0.828  0.2601E+01  0.4642E+01
     -0.768  0.5960E+01  0.4999E+01
     -0.708  0.3479E+01  0.5207E+01
     -0.648  0.4464E+01  0.5474E+01
     -0.588  0.4171E+01  0.5724E+01
     -0.528  0.4575E+01  0.5998E+01
     -0.468  0.5141E+01  0.6306E+01
     -0.408  0.4407E+01  0.6569E+01
     -0.349  0.5068E+01  0.6873E+01
     -0.289  0.4326E+01  0.7132E+01
     -0.229  0.4988E+01  0.7430E+01
     -0.169  0.4700E+01  0.7712E+01
     -0.109  0.5495E+01  0.8041E+01
     -0.049  0.3434E+01  0.8246E+01
      0.011  0.6435E+01  0.8632E+01
      0.070  0.6340E+01  0.9011E+01
      0.130  0.5277E+01  0.9327E+01
      0.190  0.4327E+01  0.9586E+01
      0.250  0.3907E+01  0.9820E+01
      0.310  0.6475E+01  0.1021E+02
      0.370  0.4753E+01  0.1049E+02
      0.430  0.6831E+01  0.1090E+02
      0.490  0.6779E+01  0.1131E+02
      0.549  0.3274E+01  0.1150E+02
      0.609  0.7382E+01  0.1195E+02
      0.669  0.6015E+01  0.1231E+02
      0.729  0.5776E+01  0.1265E+02
      0.789  0.2923E+01  0.1283E+02
      0.849  0.7936E+01  0.1330E+02
      0.909  0.5347E+01  0.1362E+02
      0.968  0.6717E+01  0.1402E+02
      1.028  0.7822E+01  0.1449E+02
      1.088  0.6685E+01  0.1489E+02
      1.148  0.5499E+01  0.1522E+02
      1.208  0.4421E+01  0.1549E+02
      1.268  0.5874E+01  0.1584E+02
      1.328  0.6112E+01  0.1620E+02
      1.388  0.7419E+01  0.1665E+02
      1.447  0.7539E+01  0.1710E+02
      1.507  0.7893E+01  0.1757E+02
      1.567  0.6293E+01  0.1795E+02
      1.627  0.4616E+01  0.1823E+02
      1.687  0.8035E+01  0.1871E+02
      1.747  0.6275E+01  0.1908E+02
      1.807  0.6968E+01  0.1950E+02
      1.866  0.4721E+01  0.1978E+02
      1.926  0.8029E+01  0.2026E+02
      1.986  0.6806E+01  0.2067E+02
      2.046  0.8606E+01  0.2119E+02
      2.106  0.9462E+01  0.2175E+02
      2.166  0.5082E+01  0.2206E+02
      2.226  0.7297E+01  0.2249E+02
      2.286  0.7163E+01  0.2292E+02
      2.345  0.5710E+01  0.2326E+02
      2.405  0.5600E+01  0.2360E+02
      2.465  0.8918E+01  0.2413E+02
      2.525  0.8312E+01  0.2463E+02
      2.585  0.9771E+01  0.2522E+02
      2.645  0.6401E+01  0.2560E+02
      2.705  0.8564E+01  0.2611E+02
      2.765  0.7415E+01  0.2656E+02
      2.824  0.5099E+01  0.2686E+02
      2.884  0.9160E+01  0.2741E+02
      2.944  0.5692E+01  0.2775E+02
      3.004  0.8686E+01  0.2827E+02
      3.064  0.8826E+01  0.2880E+02
      3.124  0.9345E+01  0.2936E+02
      3.184  0.6101E+01  0.2972E+02
      3.243  0.7638E+01  0.3018E+02
      3.303  0.1266E+02  0.3094E+02
      3.363  0.6247E+01  0.3131E+02
      3.423  0.8120E+01  0.3180E+02
      3.483  0.7046E+01  0.3222E+02
      3.543  0.9232E+01  0.3277E+02
      3.603  0.5345E+01  0.3309E+02
      3.663  0.9448E+01  0.3366E+02
      3.722  0.6920E+01  0.3407E+02
      3.782  0.1184E+02  0.3478E+02
      3.842  0.9904E+01  0.3538E+02
      3.902  0.9766E+01  0.3596E+02
      3.962  0.7081E+01  0.3638E+02
      4.022  0.7041E+01  0.3681E+02
      4.082  0.1079E+02  0.3745E+02
      4.141  0.7110E+01  0.3788E+02
      4.201  0.8764E+01  0.3840E+02
      4.261  0.8029E+01  0.3888E+02
      4.321  0.1160E+02  0.3958E+02
      4.381  0.7706E+01  0.4004E+02
      4.441  0.9972E+01  0.4064E+02
      4.501  0.1003E+02  0.4124E+02
      4.561  0.1053E+02  0.4187E+02
      4.620  0.6195E+01  0.4224E+02
      4.680  0.1459E+02  0.4311E+02
      4.740  0.8507E+01  0.4362E+02
      4.800  0.7767E+01  0.4409E+02
      4.860  0.1004E+02  0.4469E+02
      4.920  0.8762E+01  0.4521E+02
      4.980  0.7989E+01  0.4569E+02
      5.039  0.9031E+01  0.4623E+02
      5.099  0.1015E+02  0.4684E+02
      5.159  0.7641E+01  0.4730E+02
      5.219  0.1075E+02  0.4794E+02
      5.279  0.6855E+01  0.4835E+02
      5.339  0.1105E+02  0.4901E+02
      5.399  0.9438E+01  0.4958E+02
      5.459  0.8489E+01  0.5008E+02
      5.518  0.8067E+01  0.5057E+02
      5.578  0.9380E+01  0.5113E+02
      5.638  0.1146E+02  0.5182E+02
      5.698  0.1255E+02  0.5257E+02
      5.758  0.1020E+02  0.5318E+02
      5.818  0.9856E+01  0.5377E+02
      5.878  0.9876E+01  0.5436E+02
      5.938  0.9067E+01  0.5490E+02
      5.997  0.8712E+01  0.5542E+02
      6.057  0.8332E+01  0.5592E+02
      6.117  0.1016E+02  0.5653E+02
      6.177  0.1254E+02  0.5728E+02
      6.237  0.1313E+02  0.5807E+02
      6.297  0.7164E+01  0.5850E+02
      6.357  0.1302E+02  0.5928E+02
      6.416  0.1175E+02  0.5998E+02
      6.476  0.6431E+01  0.6036E+02
      6.536  0.1343E+02  0.6117E+02
      6.596  0.1291E+02  0.6194E+02
      6.656  0.1003E+02  0.6254E+02
      6.716  0.1321E+02  0.6333E+02
      6.776  0.1089E+02  0.6398E+02
      6.836  0.1073E+02  0.6463E+02
      6.895  0.8392E+01  0.6513E+02
      6.955  0.1216E+02  0.6586E+02
      7.015  0.1016E+02  0.6647E+02
      7.075  0.9333E+01  0.6702E+02
      7.135  0.1236E+02  0.6776E+02
      7.195  0.1266E+02  0.6852E+02
      7.255  0.1018E+02  0.6913E+02
      7.314  0.8291E+01  0.6963E+02
      7.374  0.9538E+01  0.7020E+02
      7.434  0.8952E+01  0.7074E+02
      7.494  0.1490E+02  0.7163E+02
      7.554  0.1040E+02  0.7225E+02
      7.614  0.8511E+01  0.7276E+02
      7.674  0.9741E+01  0.7334E+02
      7.734  0.9797E+01  0.7393E+02
      7.793  0.1089E+02  0.7458E+02
      7.853  0.9217E+01  0.7513E+02
      7.913  0.1064E+02  0.7577E+02
      7.973  0.1056E+02  0.7640E+02
      8.033  0.1102E+02  0.7706E+02
      8.093  0.1269E+02  0.7782E+02
      8.153  0.7012E+01  0.7824E+02
      8.212  0.1121E+02  0.7891E+02
      8.272  0.1121E+02  0.7958E+02
      8.332  0.9906E+01  0.8018E+02
      8.392  0.1285E+02  0.8095E+02
      8.452  0.8796E+01  0.8147E+02
      8.512  0.1411E+02  0.8232E+02
      8.572  0.1395E+02  0.8315E+02
      8.632  0.1088E+02  0.8380E+02
      8.691  0.1347E+02  0.8461E+02
      8.751  0.9583E+01  0.8518E+02
      8.811  0.1120E+02  0.8586E+02
      8.871  0.1487E+02  0.8675E+02
      8.931  0.1023E+02  0.8736E+02
      8.991  0.1419E+02  0.8821E+02
      9.051  0.7604E+01  0.8866E+02
      9.111  0.1018E+02  0.8927E+02
      9.170  0.1446E+02  0.9014E+02
      9.230  0.9367E+01  0.9070E+02
      9.290  0.1114E+02  0.9137E+02
      9.350  0.8871E+01  0.9190E+02
      9.410  0.1128E+02  0.9257E+02
      9.470  0.1057E+02  0.9321E+02
      9.530  0.1177E+02  0.9391E+02
      9.589  0.7290E+01  0.9435E+02
      9.649  0.9892E+01  0.9494E+02
      9.709  0.1039E+02  0.9556E+02
      9.769  0.1049E+02  0.9619E+02
      9.829  0.9092E+01  0.9673E+02
      9.889  0.1258E+02  0.9749E+02
      9.949  0.1304E+02  0.9827E+02
     10.009  0.1515E+02  0.9917E+02
     10.068  0.1579E+02  0.1001E+03
     10.128  0.1066E+02  0.1008E+03
     10.188  0.8517E+01  0.1013E+03
     10.248  0.1208E+02  0.1020E+03
     10.308  0.1311E+02  0.1028E+03
     10.368  0.1475E+02  0.1037E+03
     10.428  0.1372E+02  0.1045E+03
     10.487  0.1214E+02  0.1052E+03
     10.547  0.1565E+02  0.1061E+03
     10.607  0.7996E+01  0.1066E+03
     10.667  0.8134E+01  0.1071E+03
     10.727  0.1112E+02  0.1078E+03
     10.787  0.1147E+02  0.1085E+03
     10.847  0.9873E+01  0.1091E+03
     10.907  0.1861E+02  0.1102E+03
     10.966  0.1670E+02  0.1112E+03
     11.026  0.1611E+02  0.1121E+03
     11.086  0.1047E+02  0.1128E+03
     11.146  0.1145E+02  0.1134E+03
     11.206  0.8951E+01  0.1140E+03
     11.266  0.1108E+02  0.1146E+03
     11.326  0.1172E+02  0.1153E+03
     11.385  0.8329E+01  0.1158E+03
     11.445  0.1218E+02  0.1166E+03
     11.505  0.1417E+02  0.1174E+03
     11.565  0.1234E+02  0.1182E+03
     11.625  0.1531E+02  0.1191E+03
     11.685  0.9679E+01  0.1197E+03
     11.745  0.1295E+02  0.1204E+03
     11.805  0.1287E+02  0.1212E+03
     11.864  0.1324E+02  0.1220E+03
     11.924  0.1301E+02  0.1228E+03
     11.984  0.1014E+02  0.1234E+03
     12.044  0.1312E+02  0.1242E+03
     12.104  0.1310E+02  0.1250E+03
     12.164  0.8738E+01  0.1255E+03
     12.224  0.1130E+02  0.1262E+03
     12.284  0.9645E+01  0.1267E+03
     12.343  0.2159E+02  0.1280E+03
     12.403  0.7423E+01  0.1285E+03
     12.463  0.1003E+02  0.1291E+03
     12.523  0.1066E+02  0.1297E+03
     12.583  0.1449E+02  0.1306E+03
     12.643  0.1447E+02  0.1314E+03
     12.703  0.1074E+02  0.1321E+03
     12.762  0.1214E+02  0.1328E+03
     12.822  0.8450E+01  0.1333E+03
     12.882  0.5197E+01  0.1336E+03
     12.942  0.9924E+01  0.1342E+03
     13.002  0.6761E+01  0.1346E+03
     13.062  0.5557E+01  0.1350E+03
     13.122  0.5141E+01  0.1353E+03
     13.182  0.2967E+01  0.1354E+03
     13.241  0.2353E+01  0.1356E+03
     13.301  0.2070E+01  0.1357E+03
     13.361  0.1763E+01  0.1358E+03
     13.421  0.8198E+00  0.1359E+03
     13.481  0.1440E+01  0.1359E+03
     13.541  0.2210E+00  0.1360E+03
     13.601  0.4605E-02  0.1360E+03
     13.660  0.4594E+00  0.1360E+03
     13.720  0.0000E+00  0.1360E+03
     13.780  0.1542E-01  0.1360E+03
     13.840  0.1779E+00  0.1360E+03
     13.900  0.0000E+00  0.1360E+03
     13.960  0.0000E+00  0.1360E+03
     14.020  0.0000E+00  0.1360E+03
     14.080  0.0000E+00  0.1360E+03
     14.139  0.0000E+00  0.1360E+03
     14.199  0.0000E+00  0.1360E+03
     14.259  0.0000E+00  0.1360E+03
     14.319  0.0000E+00  0.1360E+03
     14.379  0.0000E+00  0.1360E+03
     14.439  0.0000E+00  0.1360E+03
     14.499  0.0000E+00  0.1360E+03
     14.558  0.0000E+00  0.1360E+03
     14.618  0.0000E+00  0.1360E+03
