   32   32    1    1
  0.1410542E+02  0.7670882E-09  0.7670882E-09  0.7670882E-09  0.5000000E-15
  1.000000000000000E-004
  CAR 
 unknown system                          
   96  196   68
 
  0.0000000E+00  0.0000000E+00  0.0000000E+00  0.5787037E-03
   1       -2.5256
   2       -0.0424
   3       -0.0383
   4       -0.0383
   5       -0.0383
   6       -0.0383
   7       -0.0342
   8        2.3901
   9        2.3946
  10        2.3946
  11        2.3966
  12        2.3967
  13        2.3967
  14        2.3967
  15        2.3967
  16        2.3969
  17        2.3988
  18        2.3988
  19        2.4033
  20        4.5014
  21        4.5014
  22        4.5014
  23        4.5014
  24        5.1326
  25        5.1326
  26        5.1326
  27        5.1326
  28        6.4351
  29        6.4351
  30        6.4352
  31        8.0619
  32        8.0620
  33        8.0620
  34        8.6882
  35        8.6882
  36        8.6930
  37        8.6930
  38        8.6932
  39        8.6932
  40        8.6932
  41        8.6933
  42        8.6934
  43        8.6934
  44        8.6982
  45        8.6982
  46        9.6047
  47        9.6094
  48        9.6094
  49        9.6094
  50        9.6094
  51        9.6140
  52       10.9631
  53       10.9631
  54       10.9643
  55       10.9673
  56       10.9674
  57       10.9674
  58       10.9674
  59       10.9675
  60       10.9676
  61       10.9705
  62       10.9718
  63       10.9718
  64       11.7779
  65       11.7790
  66       11.7790
  67       11.7790
  68       11.7804
 
  0.8333333E-01  0.0000000E+00  0.0000000E+00  0.1157407E-02
   1       -2.5082
   2       -0.4320
   3       -0.0212
   4       -0.0212
   5       -0.0212
   6       -0.0212
   7        0.3881
   8        2.0114
   9        2.0114
  10        2.0114
  11        2.0114
  12        2.4134
  13        2.4134
  14        2.4134
  15        2.4134
  16        2.8138
  17        2.8138
  18        2.8138
  19        2.8139
  20        4.3255
  21        4.3255
  22        4.3255
  23        4.3255
  24        5.3402
  25        5.3402
  26        5.3403
  27        5.3403
  28        6.1311
  29        6.4508
  30        6.4508
  31        8.0778
  32        8.0778
  33        8.3317
  34        8.3317
  35        8.3749
  36        8.3750
  37        8.3750
  38        8.3750
  39        8.3952
  40        8.7090
  41        8.7090
  42        8.7090
  43        8.7090
  44        9.0864
  45        9.0864
  46        9.5526
  47        9.5526
  48        9.8552
  49        9.8552
  50        9.8552
  51        9.8552
  52       10.6036
  53       10.6036
  54       10.6036
  55       10.6036
  56       10.7202
  57       10.7202
  58       10.7202
  59       10.7202
  60       11.3630
  61       11.3630
  62       11.3630
  63       11.3630
  64       11.8648
  65       11.8662
  66       11.8971
  67       11.8971
  68       11.8971
 
  0.1666667E+00  0.0000000E+00  0.0000000E+00  0.1157407E-02
   1       -2.4558
   2       -0.7927
   3        0.0300
   4        0.0301
   5        0.0301
   6        0.0301
   7        0.8468
   8        1.6584
   9        1.6584
  10        1.6584
  11        1.6584
  12        2.4635
  13        2.4635
  14        2.4635
  15        2.4635
  16        3.2622
  17        3.2622
  18        3.2622
  19        3.2622
  20        4.0260
  21        4.0260
  22        4.0260
  23        4.0260
  24        5.5348
  25        5.7350
  26        5.7350
  27        5.7351
  28        5.7351
  29        6.4977
  30        6.4977
  31        7.7977
  32        7.7977
  33        7.7977
  34        7.7977
  35        8.0020
  36        8.0020
  37        8.1252
  38        8.1252
  39        8.7562
  40        8.7562
  41        8.7562
  42        8.7563
  43        9.0785
  44        9.4054
  45        9.4055
  46        9.5112
  47        9.5112
  48       10.1894
  49       10.1896
  50       10.1896
  51       10.1897
  52       10.2137
  53       10.2137
  54       10.2137
  55       10.2141
  56       10.2716
  57       10.2716
  58       10.2717
  59       10.2717
  60       11.7905
  61       11.7905
  62       11.7905
  63       11.7905
  64       12.0986
  65       12.0986
  66       12.2534
  67       12.2559
  68       12.2603
 
  0.2500000E+00  0.0000000E+00  0.0000000E+00  0.1157407E-02
   1       -2.3686
   2       -1.1200
   3        0.1154
   4        0.1154
   5        0.1154
   6        0.1154
   7        1.3349
   8        1.3380
   9        1.3380
  10        1.3380
  11        1.3402
  12        2.5469
  13        2.5469
  14        2.5469
  15        2.5469
  16        3.7277
  17        3.7282
  18        3.7282
  19        3.7284
  20        3.7412
  21        3.7414
  22        3.7414
  23        3.7419
  24        4.8828
  25        6.1911
  26        6.1911
  27        6.1911
  28        6.1911
  29        6.5759
  30        6.5759
  31        7.1750
  32        7.1750
  33        7.1750
  34        7.1750
  35        7.7038
  36        7.7038
  37        8.2036
  38        8.2036
  39        8.8350
  40        8.8350
  41        8.8351
  42        8.8351
  43        9.2110
  44        9.2110
  45        9.5816
  46        9.5816
  47        9.5816
  48        9.5816
  49        9.8757
  50        9.9665
  51        9.9665
  52        9.9714
  53        9.9714
  54        9.9727
  55        9.9727
  56       10.4989
  57       10.4989
  58       10.4989
  59       10.4989
  60       11.9510
  61       11.9510
  62       11.9510
  63       11.9510
  64       12.2497
  65       12.2497
  66       12.2497
  67       12.2498
  68       12.4364
 
  0.3333333E+00  0.0000000E+00  0.0000000E+00  0.1157407E-02
   1       -2.2467
   2       -1.4136
   3        0.2348
   4        0.2349
   5        0.2349
   6        0.2349
   7        1.0505
   8        1.0505
   9        1.0505
  10        1.0505
  11        1.8586
  12        2.6634
  13        2.6634
  14        2.6634
  15        2.6634
  16        3.4542
  17        3.4543
  18        3.4543
  19        3.4543
  20        4.2322
  21        4.2499
  22        4.2499
  23        4.2499
  24        4.2500
  25        6.5511
  26        6.5511
  27        6.5511
  28        6.5511
  29        6.6841
  30        6.6841
  31        6.6865
  32        6.6865
  33        6.6878
  34        6.6878
  35        7.4372
  36        7.4372
  37        8.3122
  38        8.3122
  39        8.9451
  40        8.9451
  41        8.9453
  42        8.9454
  43        8.9632
  44        8.9634
  45        8.9636
  46        8.9636
  47        9.0025
  48        9.0026
  49        9.7029
  50        9.7029
  51        9.7029
  52        9.7029
  53       10.4560
  54       10.4560
  55       10.7292
  56       10.7294
  57       10.7294
  58       10.7294
  59       10.7297
  60       11.6633
  61       11.6633
  62       11.6633
  63       11.6633
  64       12.7185
  65       12.7237
  66       12.7409
  67       12.7411
  68       12.7439
 
  0.4166667E+00  0.0000000E+00  0.0000000E+00  0.1157407E-02
   1       -2.0900
   2       -1.6733
   3        0.3882
   4        0.3882
   5        0.3882
   6        0.3882
   7        0.7962
   8        0.7962
   9        0.7962
  10        0.7963
  11        2.4104
  12        2.8128
  13        2.8129
  14        2.8129
  15        2.8129
  16        3.2091
  17        3.2091
  18        3.2091
  19        3.2091
  20        3.5996
  21        4.7874
  22        4.7874
  23        4.7874
  24        4.7874
  25        5.9410
  26        5.9410
  27        5.9410
  28        5.9411
  29        6.8262
  30        6.8262
  31        7.2018
  32        7.2018
  33        7.2148
  34        7.2148
  35        7.2151
  36        7.2151
  37        8.3573
  38        8.3573
  39        8.3573
  40        8.3573
  41        8.4495
  42        8.4495
  43        8.7997
  44        8.7997
  45        9.0873
  46        9.0873
  47        9.0874
  48        9.0874
  49        9.4660
  50        9.4661
  51        9.4661
  52        9.4661
  53       10.9433
  54       10.9433
  55       10.9433
  56       10.9433
  57       10.9757
  58       10.9757
  59       11.4017
  60       11.4017
  61       11.4017
  62       11.4017
  63       11.6233
  64       12.1079
  65       12.1079
  66       13.2636
  67       13.2641
  68       13.2814
 
  0.5000000E+00  0.0000000E+00  0.0000000E+00  0.5787037E-03
   1       -1.9004
   2       -1.8973
   3        0.5711
   4        0.5744
   5        0.5744
   6        0.5753
   7        0.5755
   8        0.5764
   9        0.5764
  10        0.5797
  11        2.9881
  12        2.9913
  13        2.9936
  14        2.9936
  15        2.9938
  16        2.9944
  17        2.9955
  18        2.9963
  19        2.9963
  20        2.9993
  21        5.3509
  22        5.3509
  23        5.3516
  24        5.3518
  25        5.3519
  26        5.3521
  27        5.3528
  28        5.3528
  29        6.9967
  30        6.9967
  31        7.0001
  32        7.0001
  33        7.7719
  34        7.7719
  35        7.7721
  36        7.7728
  37        7.7730
  38        7.7736
  39        7.7738
  40        7.7738
  41        8.6110
  42        8.6124
  43        8.6141
  44        8.6155
  45        9.2583
  46        9.2583
  47        9.2591
  48        9.2608
  49        9.2610
  50        9.2626
  51        9.2635
  52        9.2635
  53       11.1611
  54       11.1621
  55       11.1621
  56       11.1622
  57       11.1649
  58       11.1650
  59       11.1650
  60       11.1660
  61       11.5254
  62       11.5254
  63       11.5277
  64       11.5277
  65       12.5501
  66       12.5508
  67       13.7863
  68       13.7928
 
  0.0000000E+00  0.8333333E-01  0.0000000E+00  0.2314815E-02
   1       -2.5082
   2       -0.4320
   3       -0.0243
   4       -0.0212
   5       -0.0212
   6       -0.0181
   7        0.3881
   8        2.0083
   9        2.0114
  10        2.0114
  11        2.0146
  12        2.4113
  13        2.4121
  14        2.4147
  15        2.4156
  16        2.8107
  17        2.8138
  18        2.8138
  19        2.8170
  20        4.3238
  21        4.3245
  22        4.3266
  23        4.3273
  24        5.3385
  25        5.3392
  26        5.3413
  27        5.3420
  28        6.1311
  29        6.4508
  30        6.4508
  31        8.0778
  32        8.0778
  33        8.3316
  34        8.3317
  35        8.3715
  36        8.3750
  37        8.3750
  38        8.3787
  39        8.3951
  40        8.7060
  41        8.7090
  42        8.7090
  43        8.7120
  44        9.0864
  45        9.0864
  46        9.5526
  47        9.5526
  48        9.8520
  49        9.8552
  50        9.8552
  51        9.8585
  52       10.6005
  53       10.6036
  54       10.6036
  55       10.6067
  56       10.7173
  57       10.7188
  58       10.7215
  59       10.7231
  60       11.3599
  61       11.3630
  62       11.3631
  63       11.3661
  64       11.8647
  65       11.8649
  66       11.8961
  67       11.8971
  68       11.8980
 
  0.8333333E-01  0.8333333E-01  0.0000000E+00  0.4629630E-02
   1       -2.4907
   2       -0.4162
   3       -0.4136
   4       -0.0041
   5       -0.0041
   6        0.4038
   7        0.4065
   8        1.6248
   9        2.0264
  10        2.0274
  11        2.0290
  12        2.0300
  13        2.4297
  14        2.4305
  15        2.8286
  16        2.8296
  17        2.8313
  18        2.8323
  19        3.2292
  20        3.9933
  21        3.9933
  22        4.5333
  23        4.5333
  24        5.1662
  25        5.1662
  26        5.7024
  27        5.7024
  28        6.1466
  29        6.1472
  30        6.4664
  31        8.0251
  32        8.0275
  33        8.0936
  34        8.2834
  35        8.2834
  36        8.3460
  37        8.3490
  38        8.4103
  39        8.4110
  40        8.5288
  41        8.5288
  42        8.7344
  43        8.7367
  44        9.1006
  45        9.1037
  46        9.7855
  47        9.7881
  48        9.8262
  49        9.8293
  50       10.0844
  51       10.0844
  52       10.2401
  53       10.3533
  54       10.3543
  55       10.3559
  56       10.3568
  57       10.9980
  58       10.9998
  59       11.1155
  60       11.1164
  61       11.1173
  62       11.1182
  63       11.7590
  64       11.9404
  65       11.9416
  66       12.0011
  67       12.0021
  68       12.0264
 
  0.1666667E+00  0.8333333E-01  0.0000000E+00  0.4629630E-02
   1       -2.4384
   2       -0.7755
   3       -0.3634
   4        0.0471
   5        0.0471
   6        0.4562
   7        0.8637
   8        1.2705
   9        1.6752
  10        1.6752
  11        2.0778
  12        2.0785
  13        2.0792
  14        2.8795
  15        2.8802
  16        2.8809
  17        3.2787
  18        3.2787
  19        3.6626
  20        3.6626
  21        3.6756
  22        4.3901
  23        4.3901
  24        5.4064
  25        5.4064
  26        5.5508
  27        6.1264
  28        6.1264
  29        6.1943
  30        6.5133
  31        7.4473
  32        7.7020
  33        7.7906
  34        7.7906
  35        8.0177
  36        8.1407
  37        8.1652
  38        8.3947
  39        8.4574
  40        8.5099
  41        8.5099
  42        9.0498
  43        9.0937
  44        9.1495
  45        9.5270
  46        9.7027
  47        9.7172
  48        9.8228
  49        9.8228
  50        9.9085
  51       10.0216
  52       10.0216
  53       10.0490
  54       10.2967
  55       10.4559
  56       10.4559
  57       10.5881
  58       10.5881
  59       10.6666
  60       11.4260
  61       11.5450
  62       11.5450
  63       11.8987
  64       12.1469
  65       12.1868
  66       12.1878
  67       12.2997
  68       12.3255
 
  0.2500000E+00  0.8333333E-01  0.0000000E+00  0.4629630E-02
   1       -2.3512
   2       -1.1028
   3       -0.2778
   4        0.1325
   5        0.1325
   6        0.5413
   7        0.9489
   8        1.3525
   9        1.3549
  10        1.3564
  11        1.7593
  12        2.1623
  13        2.1623
  14        2.9631
  15        2.9631
  16        3.3546
  17        3.3551
  18        3.3617
  19        3.7575
  20        3.7575
  21        4.1238
  22        4.1239
  23        4.1524
  24        4.8990
  25        5.8329
  26        5.8329
  27        6.2733
  28        6.5896
  29        6.5905
  30        6.5923
  31        6.8179
  32        7.1823
  33        7.1823
  34        7.4059
  35        7.5548
  36        7.7195
  37        8.2186
  38        8.4734
  39        8.5347
  40        8.5807
  41        8.5807
  42        9.1238
  43        9.2132
  44        9.2133
  45        9.2284
  46        9.5209
  47        9.6085
  48        9.7199
  49        9.7199
  50        9.8845
  51        9.8904
  52        9.9812
  53        9.9814
  54        9.9839
  55       10.2501
  56       10.3661
  57       10.7058
  58       10.7616
  59       10.7616
  60       11.5862
  61       11.8850
  62       12.0044
  63       12.0044
  64       12.2309
  65       12.2309
  66       12.3422
  67       12.4703
  68       12.6418
 
  0.3333333E+00  0.8333333E-01  0.0000000E+00  0.4629630E-02
   1       -2.2293
   2       -1.3964
   3       -0.1579
   4        0.2519
   5        0.2519
   6        0.6597
   7        0.6610
   8        1.0674
   9        1.0674
  10        1.4729
  11        1.8754
  12        2.2794
  13        2.2794
  14        3.0761
  15        3.0764
  16        3.0789
  17        3.0792
  18        3.8598
  19        3.8598
  20        3.8722
  21        4.2486
  22        4.2660
  23        4.2661
  24        4.6583
  25        6.1879
  26        6.3200
  27        6.3201
  28        6.3840
  29        6.5632
  30        6.5632
  31        6.7010
  32        6.9403
  33        7.0885
  34        7.0885
  35        7.1397
  36        7.4529
  37        8.3262
  38        8.5834
  39        8.5939
  40        8.5942
  41        8.6417
  42        8.6894
  43        8.6894
  44        8.9843
  45        9.3195
  46        9.3384
  47        9.3406
  48        9.3643
  49        9.3645
  50        9.4499
  51        9.4499
  52       10.0972
  53       10.2909
  54       10.4299
  55       10.4719
  56       10.7436
  57       11.0040
  58       11.0040
  59       11.0207
  60       11.3024
  61       11.9443
  62       11.9443
  63       12.0495
  64       12.3757
  65       12.4911
  66       12.4950
  67       12.4953
  68       12.7346
 
  0.4166667E+00  0.8333333E-01  0.0000000E+00  0.4629630E-02
   1       -2.0726
   2       -1.6560
   3       -0.0041
   4        0.4038
   5        0.4053
   6        0.4068
   7        0.8116
   8        0.8132
   9        0.8146
  10        1.2196
  11        2.4264
  12        2.4297
  13        2.4303
  14        2.8287
  15        2.8287
  16        3.2272
  17        3.2272
  18        3.6155
  19        3.6192
  20        3.6198
  21        4.4123
  22        4.8031
  23        4.8031
  24        5.1925
  25        5.5730
  26        5.9552
  27        5.9552
  28        6.3372
  29        6.5259
  30        6.8415
  31        6.8456
  32        6.8460
  33        6.9041
  34        7.2177
  35        7.6176
  36        7.6176
  37        7.9873
  38        7.9873
  39        8.4617
  40        8.7254
  41        8.7591
  42        8.7593
  43        8.7770
  44        8.8011
  45        8.8312
  46        8.8313
  47        9.1037
  48        9.1213
  49        9.2118
  50        9.2118
  51        9.4810
  52        9.8602
  53       10.6151
  54       10.7825
  55       10.9916
  56       11.0470
  57       11.2231
  58       11.2231
  59       11.2815
  60       11.6364
  61       11.6834
  62       11.6835
  63       11.7796
  64       11.8907
  65       12.1238
  66       12.8982
  67       13.0162
  68       13.0162
 
  0.5000000E+00  0.8333333E-01  0.0000000E+00  0.2314815E-02
   1       -1.8831
   2       -1.8799
   3        0.1822
   4        0.1853
   5        0.5902
   6        0.5915
   7        0.5934
   8        0.5946
   9        0.9980
  10        1.0011
  11        2.6106
  12        2.6120
  13        2.6139
  14        2.6151
  15        3.0073
  16        3.0084
  17        3.4054
  18        3.4067
  19        3.4086
  20        3.4100
  21        4.9794
  22        4.9805
  23        5.3661
  24        5.3669
  25        5.3672
  26        5.3680
  27        5.7525
  28        5.7536
  29        6.6977
  30        6.7011
  31        7.0124
  32        7.0158
  33        7.4020
  34        7.4024
  35        7.4033
  36        7.4036
  37        8.1747
  38        8.1751
  39        8.1759
  40        8.1764
  41        8.6205
  42        8.6236
  43        8.8970
  44        8.9005
  45        8.9365
  46        8.9397
  47        9.0030
  48        9.0045
  49        9.0065
  50        9.0080
  51        9.6530
  52        9.6565
  53       10.8172
  54       10.8205
  55       11.3182
  56       11.3202
  57       11.4431
  58       11.4437
  59       11.4466
  60       11.4472
  61       11.5254
  62       11.5289
  63       11.5413
  64       11.5436
  65       12.5620
  66       12.5627
  67       13.4513
  68       13.4682
 
  0.0000000E+00  0.1666667E+00  0.0000000E+00  0.2314815E-02
   1       -2.4558
   2       -0.7927
   3        0.0269
   4        0.0301
   5        0.0301
   6        0.0332
   7        0.8468
   8        1.6552
   9        1.6584
  10        1.6584
  11        1.6615
  12        2.4614
  13        2.4622
  14        2.4648
  15        2.4657
  16        3.2590
  17        3.2622
  18        3.2622
  19        3.2654
  20        4.0239
  21        4.0247
  22        4.0272
  23        4.0280
  24        5.5348
  25        5.7330
  26        5.7338
  27        5.7363
  28        5.7371
  29        6.4977
  30        6.4977
  31        7.7942
  32        7.7977
  33        7.7977
  34        7.8012
  35        8.0019
  36        8.0020
  37        8.1252
  38        8.1252
  39        8.7533
  40        8.7562
  41        8.7563
  42        8.7592
  43        9.0785
  44        9.4054
  45        9.4055
  46        9.5112
  47        9.5113
  48       10.1870
  49       10.1883
  50       10.1911
  51       10.1924
  52       10.2106
  53       10.2137
  54       10.2137
  55       10.2168
  56       10.2686
  57       10.2716
  58       10.2717
  59       10.2747
  60       11.7873
  61       11.7905
  62       11.7905
  63       11.7936
  64       12.0986
  65       12.0986
  66       12.2527
  67       12.2572
  68       12.2651
 
  0.8333333E-01  0.1666667E+00  0.0000000E+00  0.4629630E-02
   1       -2.4384
   2       -0.7755
   3       -0.3634
   4        0.0471
   5        0.0471
   6        0.4562
   7        0.8637
   8        1.2705
   9        1.6752
  10        1.6752
  11        2.0771
  12        2.0785
  13        2.0799
  14        2.8788
  15        2.8802
  16        2.8816
  17        3.2787
  18        3.2787
  19        3.6626
  20        3.6626
  21        3.6756
  22        4.3901
  23        4.3901
  24        5.4064
  25        5.4064
  26        5.5508
  27        6.1264
  28        6.1264
  29        6.1944
  30        6.5133
  31        7.4473
  32        7.7020
  33        7.7906
  34        7.7906
  35        8.0177
  36        8.1407
  37        8.1652
  38        8.3947
  39        8.4573
  40        8.5100
  41        8.5100
  42        9.0498
  43        9.0938
  44        9.1495
  45        9.5270
  46        9.7027
  47        9.7172
  48        9.8228
  49        9.8228
  50        9.9084
  51       10.0216
  52       10.0216
  53       10.0490
  54       10.2967
  55       10.4559
  56       10.4559
  57       10.5881
  58       10.5881
  59       10.6666
  60       11.4260
  61       11.5450
  62       11.5450
  63       11.8987
  64       12.1469
  65       12.1868
  66       12.1878
  67       12.2943
  68       12.3255
 
  0.1666667E+00  0.1666667E+00  0.0000000E+00  0.4629630E-02
   1       -2.3861
   2       -0.7252
   3       -0.7226
   4        0.0984
   5        0.0984
   6        0.9127
   7        0.9148
   8        0.9167
   9        1.7239
  10        1.7249
  11        1.7265
  12        1.7275
  13        2.5297
  14        2.5305
  15        3.3215
  16        3.3219
  17        3.3266
  18        3.3274
  19        3.3290
  20        3.3302
  21        4.1196
  22        4.6289
  23        4.6289
  24        5.2666
  25        5.2666
  26        5.5986
  27        5.5993
  28        6.5578
  29        6.5584
  30        6.5609
  31        7.1202
  32        7.1228
  33        7.6649
  34        7.6649
  35        8.0633
  36        8.0663
  37        8.1357
  38        8.1358
  39        8.1869
  40        8.5270
  41        8.5294
  42        9.1387
  43        9.1397
  44        9.4856
  45        9.4867
  46        9.4883
  47        9.4894
  48        9.5724
  49        9.5752
  50        9.5783
  51        9.8736
  52        9.8754
  53       10.2596
  54       10.2626
  55       10.8984
  56       10.8985
  57       11.0163
  58       11.0172
  59       11.0179
  60       11.0189
  61       11.0925
  62       11.0943
  63       11.5596
  64       12.3055
  65       12.3062
  66       12.5668
  67       12.5669
  68       12.6149
 
  0.2500000E+00  0.1666667E+00  0.0000000E+00  0.4629630E-02
   1       -2.2989
   2       -1.0510
   3       -0.6380
   4        0.1837
   5        0.1837
   6        0.5925
   7        0.9993
   8        1.4032
   9        1.4055
  10        1.4070
  11        1.8098
  12        1.8098
  13        2.2123
  14        3.0091
  15        3.0101
  16        3.0137
  17        3.4103
  18        3.4103
  19        3.8064
  20        3.8064
  21        4.5192
  22        4.5192
  23        4.5937
  24        4.9477
  25        5.5384
  26        5.5384
  27        5.6791
  28        6.4875
  29        6.6384
  30        6.8237
  31        7.0251
  32        7.0251
  33        7.1888
  34        7.1888
  35        7.7666
  36        7.9480
  37        8.0779
  38        8.0779
  39        8.1435
  40        8.2630
  41        8.8159
  42        8.8768
  43        8.8768
  44        9.1841
  45        9.1841
  46        9.2144
  47        9.2774
  48        9.6535
  49        9.7958
  50        9.9344
  51       10.0064
  52       10.0311
  53       10.1323
  54       10.4123
  55       10.4123
  56       10.7925
  57       10.8125
  58       11.2496
  59       11.2885
  60       11.2885
  61       11.4779
  62       11.4779
  63       11.5520
  64       12.5774
  65       12.6004
  66       12.6165
  67       12.7574
  68       12.8518
 
  0.3333333E+00  0.1666667E+00  0.0000000E+00  0.4629630E-02
   1       -2.1770
   2       -1.3445
   3       -0.5178
   4        0.3016
   5        0.3030
   6        0.3046
   7        1.1165
   8        1.1182
   9        1.1195
  10        1.9243
  11        1.9271
  12        1.9274
  13        1.9289
  14        2.7288
  15        2.7288
  16        3.5246
  17        3.5251
  18        3.5262
  19        4.2866
  20        4.2869
  21        4.2979
  22        4.3143
  23        4.3144
  24        5.0965
  25        5.7911
  26        5.8532
  27        5.9955
  28        5.9955
  29        6.5553
  30        6.5959
  31        6.5959
  32        6.7480
  33        7.3511
  34        7.4999
  35        7.5238
  36        7.5239
  37        8.1616
  38        8.1616
  39        8.2528
  40        8.2569
  41        8.2576
  42        8.3673
  43        8.8930
  44        8.9128
  45        8.9128
  46        9.0094
  47        9.3183
  48        9.7640
  49        9.7965
  50        9.7966
  51        9.9595
  52        9.9666
  53       10.1469
  54       10.5187
  55       10.5241
  56       10.7855
  57       10.9694
  58       11.2621
  59       11.5835
  60       11.5835
  61       11.9685
  62       11.9686
  63       11.9950
  64       12.0424
  65       12.4575
  66       12.5655
  67       12.5655
  68       12.7826
 
  0.4166667E+00  0.1666667E+00  0.0000000E+00  0.4629630E-02
   1       -2.0205
   2       -1.6040
   3       -0.3634
   4        0.0472
   5        0.4563
   6        0.4563
   7        0.8641
   8        0.8641
   9        1.2700
  10        1.6748
  11        2.0783
  12        2.0783
  13        2.4765
  14        2.4794
  15        2.4801
  16        3.6653
  17        3.6718
  18        3.6721
  19        4.0566
  20        4.0566
  21        4.0681
  22        4.8502
  23        4.8502
  24        5.2345
  25        5.6267
  26        5.9350
  27        5.9965
  28        5.9965
  29        6.3174
  30        6.5125
  31        6.5125
  32        6.7587
  33        6.8888
  34        7.2648
  35        7.6502
  36        7.6502
  37        8.0527
  38        8.0527
  39        8.2961
  40        8.2961
  41        8.3952
  42        8.4967
  43        8.6738
  44        8.6738
  45        8.7731
  46        8.7935
  47        9.1927
  48        9.1927
  49        9.4491
  50        9.7771
  51        9.9064
  52       10.2861
  53       10.3096
  54       10.3623
  55       10.7195
  56       11.0392
  57       11.4105
  58       11.6079
  59       11.6756
  60       11.8274
  61       11.8274
  62       12.1717
  63       12.1747
  64       12.3033
  65       12.3033
  66       12.4890
  67       12.4890
  68       12.5645
 
  0.5000000E+00  0.1666667E+00  0.0000000E+00  0.2314815E-02
   1       -1.8310
   2       -1.8279
   3       -0.1766
   4       -0.1735
   5        0.6412
   6        0.6424
   7        0.6444
   8        0.6456
   9        1.4541
  10        1.4573
  11        2.2602
  12        2.2614
  13        2.2634
  14        2.2646
  15        3.0572
  16        3.0583
  17        3.8474
  18        3.8488
  19        3.8506
  20        3.8520
  21        4.6378
  22        4.6389
  23        5.4112
  24        5.4120
  25        5.4122
  26        5.4131
  27        6.1089
  28        6.1122
  29        6.1814
  30        6.1825
  31        7.0589
  32        7.0622
  33        7.0663
  34        7.0664
  35        7.0671
  36        7.0682
  37        8.4655
  38        8.4668
  39        8.4689
  40        8.4702
  41        8.5666
  42        8.5701
  43        8.6091
  44        8.6095
  45        8.6103
  46        8.6108
  47        8.6429
  48        8.6459
  49        9.6022
  50        9.6054
  51       10.0786
  52       10.0822
  53       10.4982
  54       10.5014
  55       10.8593
  56       10.8610
  57       11.5890
  58       11.5913
  59       11.8968
  60       11.9004
  61       12.0583
  62       12.0591
  63       12.0618
  64       12.0627
  65       12.5969
  66       12.5975
  67       13.0379
  68       13.0395
 
  0.0000000E+00  0.2500000E+00  0.0000000E+00  0.2314815E-02
   1       -2.3686
   2       -1.1200
   3        0.1123
   4        0.1154
   5        0.1154
   6        0.1186
   7        1.3347
   8        1.3372
   9        1.3380
  10        1.3380
  11        1.3412
  12        2.5447
  13        2.5456
  14        2.5482
  15        2.5490
  16        3.7262
  17        3.7271
  18        3.7297
  19        3.7304
  20        3.7381
  21        3.7412
  22        3.7412
  23        3.7445
  24        4.8828
  25        6.1889
  26        6.1898
  27        6.1924
  28        6.1933
  29        6.5759
  30        6.5759
  31        7.1716
  32        7.1750
  33        7.1750
  34        7.1784
  35        7.7038
  36        7.7038
  37        8.2036
  38        8.2036
  39        8.8321
  40        8.8351
  41        8.8351
  42        8.8381
  43        9.2110
  44        9.2110
  45        9.5790
  46        9.5802
  47        9.5830
  48        9.5841
  49        9.8757
  50        9.9668
  51        9.9678
  52        9.9691
  53        9.9714
  54        9.9714
  55        9.9746
  56       10.4959
  57       10.4989
  58       10.4989
  59       10.5018
  60       11.9482
  61       11.9510
  62       11.9510
  63       11.9537
  64       12.2466
  65       12.2497
  66       12.2498
  67       12.2529
  68       12.4364
 