 vasp.4.6.28 25Jul05 complex 
 executed on             LinuxIFC date 2016.11.12  11:27:26
 running on    4 nodes
 distr:  one band on    1 nodes,    4 groups


--------------------------------------------------------------------------------------------------------


 INCAR:
 POTCAR:   PAW_PBE Al 04Jan2001                   
 POTCAR:   PAW_PBE Al 04Jan2001                   
   VRHFIN =Al: s2p1                                                             
   LEXCH  = PE                                                                  
   EATOM  =    53.5387 eV,    3.9350 Ry                                         
                                                                                
   TITEL  = PAW_PBE Al 04Jan2001                                                
   LULTRA =        F    use ultrasoft PP ?                                      
   IUNSCR =        1    unscreen: 0-lin 1-nonlin 2-no                           
   RPACOR =    1.500    partial core radius                                     
   POMASS =   26.982; ZVAL   =    3.000    mass and valenz                      
   RCORE  =    1.900    outmost cutoff radius                                   
   RWIGS  =    2.650; RWIGS  =    1.402    wigner-seitz radius (au A)           
   ENMAX  =  240.300; ENMIN  =  180.225 eV                                      
   ICORE  =        2    local potential                                         
   LCOR   =        T    correct aug charges                                     
   LPAW   =        T    paw PP                                                  
   EAUG   =  291.052                                                            
   DEXC   =    -.041                                                            
   RMAX   =    2.974    core radius for proj-oper                               
   RAUG   =    1.300    factor for augmentation sphere                          
   RDEP   =    1.966    radius for radial grids                                 
   QCUT   =   -4.203; QGAM   =    8.405    optimization parameters              
                                                                                
   Description                                                                  
     l     E      TYP  RCUT    TYP  RCUT                                        
     0   .000     23  1.900                                                     
     0   .000     23  1.900                                                     
     1   .000     23  1.900                                                     
     1  1.000     23  1.900                                                     
     2   .000      7  1.900                                                     
  local pseudopotential read in
  partial core-charges read in
  atomic valenz-charges read in
  non local Contribution for L=           0  read in
    real space projection operators read in
  non local Contribution for L=           0  read in
    real space projection operators read in
  non local Contribution for L=           1  read in
    real space projection operators read in
  non local Contribution for L=           1  read in
    real space projection operators read in
    PAW grid and wavefunctions read in
 
   number of l-projection  operators is LMAX  =           4
   number of lm-projection operators is LMMAX =           8
 

 ----------------------------------------------------------------------------- 
|                                                                             |
|  ADVICE TO THIS USER RUNNING 'VASP/VAMP'   (HEAR YOUR MASTER'S VOICE ...):  |
|                                                                             |
|      You have a (more or less) 'large supercell' and for larger cells       |
|      it might be more efficient to use real space projection operators      |
|      So try LREAL= Auto  in the INCAR   file.                               |
|      Mind: If you want to do an extremely accurate calculations keep the    |
|      reciprocal projection scheme          (i.e. LREAL=.FALSE.)             |
|                                                                             |
 ----------------------------------------------------------------------------- 

 PAW_PBE Al 04Jan2001                   :
 energy of atom  1       EATOM=  -53.5387
 kinetic energy error for atom=    0.0001 (will be added to EATOM!!)
 
 EXHCAR: internal setup
 exchange correlation table for  LEXCH =        8
   RHO(1)=    0.500       N(1)  =     2000
   RHO(2)=  100.500       N(2)  =     4000
 
 POSCAR: Al                                      
  positions in direct lattice
  No initial velocities read in
 


--------------------------------------------------------------------------------------------------------


 ion  position               nearest neighbor table
   1  0.251  0.250  0.000-  18 2.71  22 2.71  26 2.71  28 2.71   9 2.71  11 2.71  13 2.71  15 2.71
                            25 2.72  21 2.72  27 2.72  17 2.72
   2  0.750  0.250  0.000-  10 2.71  12 2.71  14 2.71  16 2.71  17 2.71  18 2.71  21 2.71  22 2.71
                            25 2.71  26 2.71  27 2.71  28 2.71
   3  0.250  0.750  0.000-   9 2.71  11 2.71  13 2.71  15 2.71  19 2.71  20 2.71  23 2.71  24 2.71
                            25 2.71  26 2.71  27 2.71  28 2.71
   4  0.750  0.750  0.000-  10 2.71  12 2.71  14 2.71  16 2.71  19 2.71  20 2.71  23 2.71  24 2.71
                            25 2.71  26 2.71  27 2.71  28 2.71
   5  0.250  0.250  0.500-   9 2.71  11 2.71  13 2.71  15 2.71  17 2.71  18 2.71  21 2.71  22 2.71
                            29 2.71  30 2.71  31 2.71  32 2.71
   6  0.750  0.250  0.500-  10 2.71  12 2.71  14 2.71  16 2.71  17 2.71  18 2.71  21 2.71  22 2.71
                            29 2.71  30 2.71  31 2.71  32 2.71
   7  0.250  0.750  0.500-   9 2.71  11 2.71  13 2.71  15 2.71  19 2.71  20 2.71  23 2.71  24 2.71
                            29 2.71  30 2.71  31 2.71  32 2.71
   8  0.750  0.750  0.500-  10 2.71  12 2.71  14 2.71  16 2.71  19 2.71  20 2.71  23 2.71  24 2.71
                            29 2.71  30 2.71  31 2.71  32 2.71
   9  0.250  0.000  0.250-   3 2.71   5 2.71   7 2.71  17 2.71  18 2.71  19 2.71  20 2.71  25 2.71
                            26 2.71  29 2.71  30 2.71   1 2.71
  10  0.750  0.000  0.250-   2 2.71   4 2.71   6 2.71   8 2.71  17 2.71  18 2.71  19 2.71  20 2.71
                            25 2.71  26 2.71  29 2.71  30 2.71
  11  0.250  0.500  0.250-   3 2.71   5 2.71   7 2.71  17 2.71  18 2.71  19 2.71  20 2.71  27 2.71
                            28 2.71  31 2.71  32 2.71   1 2.71
  12  0.750  0.500  0.250-   2 2.71   4 2.71   6 2.71   8 2.71  17 2.71  18 2.71  19 2.71  20 2.71
                            27 2.71  28 2.71  31 2.71  32 2.71
  13  0.250  0.000  0.750-   3 2.71   5 2.71   7 2.71  21 2.71  22 2.71  23 2.71  24 2.71  25 2.71
                            26 2.71  29 2.71  30 2.71   1 2.71
  14  0.750  0.000  0.750-   2 2.71   4 2.71   6 2.71   8 2.71  21 2.71  22 2.71  23 2.71  24 2.71
                            25 2.71  26 2.71  29 2.71  30 2.71
  15  0.250  0.500  0.750-   3 2.71   5 2.71   7 2.71  21 2.71  22 2.71  23 2.71  24 2.71  27 2.71
                            28 2.71  31 2.71  32 2.71   1 2.71
  16  0.750  0.500  0.750-   2 2.71   4 2.71   6 2.71   8 2.71  21 2.71  22 2.71  23 2.71  24 2.71
                            27 2.71  28 2.71  31 2.71  32 2.71
  17  0.000  0.250  0.250-   2 2.71   5 2.71   6 2.71   9 2.71  10 2.71  11 2.71  12 2.71  25 2.71
                            27 2.71  29 2.71  31 2.71   1 2.72
  18  0.500  0.250  0.250-   1 2.71   2 2.71   5 2.71   6 2.71   9 2.71  10 2.71  11 2.71  12 2.71
                            26 2.71  28 2.71  30 2.71  32 2.71
  19  0.000  0.750  0.250-   3 2.71   4 2.71   7 2.71   8 2.71   9 2.71  10 2.71  11 2.71  12 2.71
                            25 2.71  27 2.71  29 2.71  31 2.71
  20  0.500  0.750  0.250-   3 2.71   4 2.71   7 2.71   8 2.71   9 2.71  10 2.71  11 2.71  12 2.71
                            26 2.71  28 2.71  30 2.71  32 2.71
  21  0.000  0.250  0.750-   2 2.71   5 2.71   6 2.71  13 2.71  14 2.71  15 2.71  16 2.71  25 2.71
                            27 2.71  29 2.71  31 2.71   1 2.72
  22  0.500  0.250  0.750-   1 2.71   2 2.71   5 2.71   6 2.71  13 2.71  14 2.71  15 2.71  16 2.71
                            26 2.71  28 2.71  30 2.71  32 2.71
  23  0.000  0.750  0.750-   3 2.71   4 2.71   7 2.71   8 2.71  13 2.71  14 2.71  15 2.71  16 2.71
                            25 2.71  27 2.71  29 2.71  31 2.71
  24  0.500  0.750  0.750-   3 2.71   4 2.71   7 2.71   8 2.71  13 2.71  14 2.71  15 2.71  16 2.71
                            26 2.71  28 2.71  30 2.71  32 2.71
  25  0.000  0.000  0.000-   2 2.71   3 2.71   4 2.71   9 2.71  10 2.71  13 2.71  14 2.71  17 2.71
                            19 2.71  21 2.71  23 2.71   1 2.72
  26  0.500  0.000  0.000-   1 2.71   2 2.71   3 2.71   4 2.71   9 2.71  10 2.71  13 2.71  14 2.71
                            18 2.71  20 2.71  22 2.71  24 2.71
  27  0.000  0.500  0.000-   2 2.71   3 2.71   4 2.71  11 2.71  12 2.71  15 2.71  16 2.71  17 2.71
                            19 2.71  21 2.71  23 2.71   1 2.72
  28  0.500  0.500  0.000-   1 2.71   2 2.71   3 2.71   4 2.71  11 2.71  12 2.71  15 2.71  16 2.71
                            18 2.71  20 2.71  22 2.71  24 2.71
  29  0.000  0.000  0.500-   5 2.71   6 2.71   7 2.71   8 2.71   9 2.71  10 2.71  13 2.71  14 2.71
                            17 2.71  19 2.71  21 2.71  23 2.71
  30  0.500  0.000  0.500-   5 2.71   6 2.71   7 2.71   8 2.71   9 2.71  10 2.71  13 2.71  14 2.71
                            18 2.71  20 2.71  22 2.71  24 2.71
  31  0.000  0.500  0.500-   5 2.71   6 2.71   7 2.71   8 2.71  11 2.71  12 2.71  15 2.71  16 2.71
                            17 2.71  19 2.71  21 2.71  23 2.71
  32  0.500  0.500  0.500-   5 2.71   6 2.71   7 2.71   8 2.71  11 2.71  12 2.71  15 2.71  16 2.71
                            18 2.71  20 2.71  22 2.71  24 2.71
 
  LATTYP: Found a simple cubic cell.
 ALAT       =     7.6708821024
  
  Lattice vectors:
  
 A1 = (   7.6708821024,   0.0000000000,   0.0000000000)
 A2 = (   0.0000000000,   7.6708821024,   0.0000000000)
 A3 = (   0.0000000000,   0.0000000000,   7.6708821024)
 Subroutine PRICEL returns:
 Original cell was already a primitive cell.
 

Analysis of symmetry for initial positions (statically):

 Routine SETGRP: Setting up the symmetry group for a 
 simple cubic supercell.


 Subroutine GETGRP returns: Found  8 space group operations
 (whereof  2 operations were pure point group operations)
 out of a pool of 48 trial point group operations.


The static configuration has the point symmetry C_1h.
 The point group associated with its full space group is C_4v.

Analysis of symmetry for dynamics (positions and initial velocities):

 Subroutine DYNSYM returns: Found  8 space group operations
 (whereof  2 operations were pure point group operations)
 out of a pool of  8 trial space group operations
 (whereof  2 operations were pure point group operations)
 and found also     1 'primitive' translations


The dynamic configuration has the point symmetry C_1h.
 The point group associated with its full space group is C_4v.
 
 
 KPOINTS: Automatic mesh                          

Automatic generation of k-mesh.
 
 Subroutine IBZKPT returns following result:
 ===========================================
 
 Found    196 irreducible k-points:
 
 Following reciprocal coordinates:
            Coordinates               Weight
  0.000000  0.000000  0.000000      1.000000
  0.083333  0.000000  0.000000      2.000000
  0.166667  0.000000  0.000000      2.000000
  0.250000  0.000000  0.000000      2.000000
  0.333333  0.000000  0.000000      2.000000
  0.416667  0.000000  0.000000      2.000000
  0.500000  0.000000  0.000000      1.000000
  0.000000  0.083333  0.000000      4.000000
  0.083333  0.083333  0.000000      8.000000
  0.166667  0.083333  0.000000      8.000000
  0.250000  0.083333  0.000000      8.000000
  0.333333  0.083333  0.000000      8.000000
  0.416667  0.083333  0.000000      8.000000
  0.500000  0.083333  0.000000      4.000000
  0.000000  0.166667  0.000000      4.000000
  0.083333  0.166667  0.000000      8.000000
  0.166667  0.166667  0.000000      8.000000
  0.250000  0.166667  0.000000      8.000000
  0.333333  0.166667  0.000000      8.000000
  0.416667  0.166667  0.000000      8.000000
  0.500000  0.166667  0.000000      4.000000
  0.000000  0.250000  0.000000      4.000000
  0.083333  0.250000  0.000000      8.000000
  0.166667  0.250000  0.000000      8.000000
  0.250000  0.250000  0.000000      8.000000
  0.333333  0.250000  0.000000      8.000000
  0.416667  0.250000  0.000000      8.000000
  0.500000  0.250000  0.000000      4.000000
  0.000000  0.333333  0.000000      4.000000
  0.083333  0.333333  0.000000      8.000000
  0.166667  0.333333  0.000000      8.000000
  0.250000  0.333333  0.000000      8.000000
  0.333333  0.333333  0.000000      8.000000
  0.416667  0.333333  0.000000      8.000000
  0.500000  0.333333  0.000000      4.000000
  0.000000  0.416667  0.000000      4.000000
  0.083333  0.416667  0.000000      8.000000
  0.166667  0.416667  0.000000      8.000000
  0.250000  0.416667  0.000000      8.000000
  0.333333  0.416667  0.000000      8.000000
  0.416667  0.416667  0.000000      8.000000
  0.500000  0.416667  0.000000      4.000000
  0.000000  0.500000  0.000000      2.000000
  0.083333  0.500000  0.000000      4.000000
  0.166667  0.500000  0.000000      4.000000
  0.250000  0.500000  0.000000      4.000000
  0.333333  0.500000  0.000000      4.000000
  0.416667  0.500000  0.000000      4.000000
  0.500000  0.500000  0.000000      2.000000
  0.000000  0.083333  0.083333      4.000000
  0.083333  0.083333  0.083333      8.000000
  0.166667  0.083333  0.083333      8.000000
  0.250000  0.083333  0.083333      8.000000
  0.333333  0.083333  0.083333      8.000000
  0.416667  0.083333  0.083333      8.000000
  0.500000  0.083333  0.083333      4.000000
  0.000000  0.166667  0.083333      8.000000
  0.083333  0.166667  0.083333     16.000000
  0.166667  0.166667  0.083333     16.000000
  0.250000  0.166667  0.083333     16.000000
  0.333333  0.166667  0.083333     16.000000
  0.416667  0.166667  0.083333     16.000000
  0.500000  0.166667  0.083333      8.000000
  0.000000  0.250000  0.083333      8.000000
  0.083333  0.250000  0.083333     16.000000
  0.166667  0.250000  0.083333     16.000000
  0.250000  0.250000  0.083333     16.000000
  0.333333  0.250000  0.083333     16.000000
  0.416667  0.250000  0.083333     16.000000
  0.500000  0.250000  0.083333      8.000000
  0.000000  0.333333  0.083333      8.000000
  0.083333  0.333333  0.083333     16.000000
  0.166667  0.333333  0.083333     16.000000
  0.250000  0.333333  0.083333     16.000000
  0.333333  0.333333  0.083333     16.000000
  0.416667  0.333333  0.083333     16.000000
  0.500000  0.333333  0.083333      8.000000
  0.000000  0.416667  0.083333      8.000000
  0.083333  0.416667  0.083333     16.000000
  0.166667  0.416667  0.083333     16.000000
  0.250000  0.416667  0.083333     16.000000
  0.333333  0.416667  0.083333     16.000000
  0.416667  0.416667  0.083333     16.000000
  0.500000  0.416667  0.083333      8.000000
  0.000000  0.500000  0.083333      4.000000
  0.083333  0.500000  0.083333      8.000000
  0.166667  0.500000  0.083333      8.000000
  0.250000  0.500000  0.083333      8.000000
  0.333333  0.500000  0.083333      8.000000
  0.416667  0.500000  0.083333      8.000000
  0.500000  0.500000  0.083333      4.000000
  0.000000  0.166667  0.166667      4.000000
  0.083333  0.166667  0.166667      8.000000
  0.166667  0.166667  0.166667      8.000000
  0.250000  0.166667  0.166667      8.000000
  0.333333  0.166667  0.166667      8.000000
  0.416667  0.166667  0.166667      8.000000
  0.500000  0.166667  0.166667      4.000000
  0.000000  0.250000  0.166667      8.000000
  0.083333  0.250000  0.166667     16.000000
  0.166667  0.250000  0.166667     16.000000
  0.250000  0.250000  0.166667     16.000000
  0.333333  0.250000  0.166667     16.000000
  0.416667  0.250000  0.166667     16.000000
  0.500000  0.250000  0.166667      8.000000
  0.000000  0.333333  0.166667      8.000000
  0.083333  0.333333  0.166667     16.000000
  0.166667  0.333333  0.166667     16.000000
  0.250000  0.333333  0.166667     16.000000
  0.333333  0.333333  0.166667     16.000000
  0.416667  0.333333  0.166667     16.000000
  0.500000  0.333333  0.166667      8.000000
  0.000000  0.416667  0.166667      8.000000
  0.083333  0.416667  0.166667     16.000000
  0.166667  0.416667  0.166667     16.000000
  0.250000  0.416667  0.166667     16.000000
  0.333333  0.416667  0.166667     16.000000
  0.416667  0.416667  0.166667     16.000000
  0.500000  0.416667  0.166667      8.000000
  0.000000  0.500000  0.166667      4.000000
  0.083333  0.500000  0.166667      8.000000
  0.166667  0.500000  0.166667      8.000000
  0.250000  0.500000  0.166667      8.000000
  0.333333  0.500000  0.166667      8.000000
  0.416667  0.500000  0.166667      8.000000
  0.500000  0.500000  0.166667      4.000000
  0.000000  0.250000  0.250000      4.000000
  0.083333  0.250000  0.250000      8.000000
  0.166667  0.250000  0.250000      8.000000
  0.250000  0.250000  0.250000      8.000000
  0.333333  0.250000  0.250000      8.000000
  0.416667  0.250000  0.250000      8.000000
  0.500000  0.250000  0.250000      4.000000
  0.000000  0.333333  0.250000      8.000000
  0.083333  0.333333  0.250000     16.000000
  0.166667  0.333333  0.250000     16.000000
  0.250000  0.333333  0.250000     16.000000
  0.333333  0.333333  0.250000     16.000000
  0.416667  0.333333  0.250000     16.000000
  0.500000  0.333333  0.250000      8.000000
  0.000000  0.416667  0.250000      8.000000
  0.083333  0.416667  0.250000     16.000000
  0.166667  0.416667  0.250000     16.000000
  0.250000  0.416667  0.250000     16.000000
  0.333333  0.416667  0.250000     16.000000
  0.416667  0.416667  0.250000     16.000000
  0.500000  0.416667  0.250000      8.000000
  0.000000  0.500000  0.250000      4.000000
  0.083333  0.500000  0.250000      8.000000
  0.166667  0.500000  0.250000      8.000000
  0.250000  0.500000  0.250000      8.000000
  0.333333  0.500000  0.250000      8.000000
  0.416667  0.500000  0.250000      8.000000
  0.500000  0.500000  0.250000      4.000000
  0.000000  0.333333  0.333333      4.000000
  0.083333  0.333333  0.333333      8.000000
  0.166667  0.333333  0.333333      8.000000
  0.250000  0.333333  0.333333      8.000000
  0.333333  0.333333  0.333333      8.000000
  0.416667  0.333333  0.333333      8.000000
  0.500000  0.333333  0.333333      4.000000
  0.000000  0.416667  0.333333      8.000000
  0.083333  0.416667  0.333333     16.000000
  0.166667  0.416667  0.333333     16.000000
  0.250000  0.416667  0.333333     16.000000
  0.333333  0.416667  0.333333     16.000000
  0.416667  0.416667  0.333333     16.000000
  0.500000  0.416667  0.333333      8.000000
  0.000000  0.500000  0.333333      4.000000
  0.083333  0.500000  0.333333      8.000000
  0.166667  0.500000  0.333333      8.000000
  0.250000  0.500000  0.333333      8.000000
  0.333333  0.500000  0.333333      8.000000
  0.416667  0.500000  0.333333      8.000000
  0.500000  0.500000  0.333333      4.000000
  0.000000  0.416667  0.416667      4.000000
  0.083333  0.416667  0.416667      8.000000
  0.166667  0.416667  0.416667      8.000000
  0.250000  0.416667  0.416667      8.000000
  0.333333  0.416667  0.416667      8.000000
  0.416667  0.416667  0.416667      8.000000
  0.500000  0.416667  0.416667      4.000000
  0.000000  0.500000  0.416667      4.000000
  0.083333  0.500000  0.416667      8.000000
  0.166667  0.500000  0.416667      8.000000
  0.250000  0.500000  0.416667      8.000000
  0.333333  0.500000  0.416667      8.000000
  0.416667  0.500000  0.416667      8.000000
  0.500000  0.500000  0.416667      4.000000
  0.000000  0.500000  0.500000      1.000000
  0.083333  0.500000  0.500000      2.000000
  0.166667  0.500000  0.500000      2.000000
  0.250000  0.500000  0.500000      2.000000
  0.333333  0.500000  0.500000      2.000000
  0.416667  0.500000  0.500000      2.000000
  0.500000  0.500000  0.500000      1.000000
 
 Following cartesian coordinates:
            Coordinates               Weight
  0.000000  0.000000  0.000000      1.000000
  0.010864  0.000000  0.000000      2.000000
  0.021727  0.000000  0.000000      2.000000
  0.032591  0.000000  0.000000      2.000000
  0.043454  0.000000  0.000000      2.000000
  0.054318  0.000000  0.000000      2.000000
  0.065182  0.000000  0.000000      1.000000
  0.000000  0.010864  0.000000      4.000000
  0.010864  0.010864  0.000000      8.000000
  0.021727  0.010864  0.000000      8.000000
  0.032591  0.010864  0.000000      8.000000
  0.043454  0.010864  0.000000      8.000000
  0.054318  0.010864  0.000000      8.000000
  0.065182  0.010864  0.000000      4.000000
  0.000000  0.021727  0.000000      4.000000
  0.010864  0.021727  0.000000      8.000000
  0.021727  0.021727  0.000000      8.000000
  0.032591  0.021727  0.000000      8.000000
  0.043454  0.021727  0.000000      8.000000
  0.054318  0.021727  0.000000      8.000000
  0.065182  0.021727  0.000000      4.000000
  0.000000  0.032591  0.000000      4.000000
  0.010864  0.032591  0.000000      8.000000
  0.021727  0.032591  0.000000      8.000000
  0.032591  0.032591  0.000000      8.000000
  0.043454  0.032591  0.000000      8.000000
  0.054318  0.032591  0.000000      8.000000
  0.065182  0.032591  0.000000      4.000000
  0.000000  0.043454  0.000000      4.000000
  0.010864  0.043454  0.000000      8.000000
  0.021727  0.043454  0.000000      8.000000
  0.032591  0.043454  0.000000      8.000000
  0.043454  0.043454  0.000000      8.000000
  0.054318  0.043454  0.000000      8.000000
  0.065182  0.043454  0.000000      4.000000
  0.000000  0.054318  0.000000      4.000000
  0.010864  0.054318  0.000000      8.000000
  0.021727  0.054318  0.000000      8.000000
  0.032591  0.054318  0.000000      8.000000
  0.043454  0.054318  0.000000      8.000000
  0.054318  0.054318  0.000000      8.000000
  0.065182  0.054318  0.000000      4.000000
  0.000000  0.065182  0.000000      2.000000
  0.010864  0.065182  0.000000      4.000000
  0.021727  0.065182  0.000000      4.000000
  0.032591  0.065182  0.000000      4.000000
  0.043454  0.065182  0.000000      4.000000
  0.054318  0.065182  0.000000      4.000000
  0.065182  0.065182  0.000000      2.000000
  0.000000  0.010864  0.010864      4.000000
  0.010864  0.010864  0.010864      8.000000
  0.021727  0.010864  0.010864      8.000000
  0.032591  0.010864  0.010864      8.000000
  0.043454  0.010864  0.010864      8.000000
  0.054318  0.010864  0.010864      8.000000
  0.065182  0.010864  0.010864      4.000000
  0.000000  0.021727  0.010864      8.000000
  0.010864  0.021727  0.010864     16.000000
  0.021727  0.021727  0.010864     16.000000
  0.032591  0.021727  0.010864     16.000000
  0.043454  0.021727  0.010864     16.000000
  0.054318  0.021727  0.010864     16.000000
  0.065182  0.021727  0.010864      8.000000
  0.000000  0.032591  0.010864      8.000000
  0.010864  0.032591  0.010864     16.000000
  0.021727  0.032591  0.010864     16.000000
  0.032591  0.032591  0.010864     16.000000
  0.043454  0.032591  0.010864     16.000000
  0.054318  0.032591  0.010864     16.000000
  0.065182  0.032591  0.010864      8.000000
  0.000000  0.043454  0.010864      8.000000
  0.010864  0.043454  0.010864     16.000000
  0.021727  0.043454  0.010864     16.000000
  0.032591  0.043454  0.010864     16.000000
  0.043454  0.043454  0.010864     16.000000
  0.054318  0.043454  0.010864     16.000000
  0.065182  0.043454  0.010864      8.000000
  0.000000  0.054318  0.010864      8.000000
  0.010864  0.054318  0.010864     16.000000
  0.021727  0.054318  0.010864     16.000000
  0.032591  0.054318  0.010864     16.000000
  0.043454  0.054318  0.010864     16.000000
  0.054318  0.054318  0.010864     16.000000
  0.065182  0.054318  0.010864      8.000000
  0.000000  0.065182  0.010864      4.000000
  0.010864  0.065182  0.010864      8.000000
  0.021727  0.065182  0.010864      8.000000
  0.032591  0.065182  0.010864      8.000000
  0.043454  0.065182  0.010864      8.000000
  0.054318  0.065182  0.010864      8.000000
  0.065182  0.065182  0.010864      4.000000
  0.000000  0.021727  0.021727      4.000000
  0.010864  0.021727  0.021727      8.000000
  0.021727  0.021727  0.021727      8.000000
  0.032591  0.021727  0.021727      8.000000
  0.043454  0.021727  0.021727      8.000000
  0.054318  0.021727  0.021727      8.000000
  0.065182  0.021727  0.021727      4.000000
  0.000000  0.032591  0.021727      8.000000
  0.010864  0.032591  0.021727     16.000000
  0.021727  0.032591  0.021727     16.000000
  0.032591  0.032591  0.021727     16.000000
  0.043454  0.032591  0.021727     16.000000
  0.054318  0.032591  0.021727     16.000000
  0.065182  0.032591  0.021727      8.000000
  0.000000  0.043454  0.021727      8.000000
  0.010864  0.043454  0.021727     16.000000
  0.021727  0.043454  0.021727     16.000000
  0.032591  0.043454  0.021727     16.000000
  0.043454  0.043454  0.021727     16.000000
  0.054318  0.043454  0.021727     16.000000
  0.065182  0.043454  0.021727      8.000000
  0.000000  0.054318  0.021727      8.000000
  0.010864  0.054318  0.021727     16.000000
  0.021727  0.054318  0.021727     16.000000
  0.032591  0.054318  0.021727     16.000000
  0.043454  0.054318  0.021727     16.000000
  0.054318  0.054318  0.021727     16.000000
  0.065182  0.054318  0.021727      8.000000
  0.000000  0.065182  0.021727      4.000000
  0.010864  0.065182  0.021727      8.000000
  0.021727  0.065182  0.021727      8.000000
  0.032591  0.065182  0.021727      8.000000
  0.043454  0.065182  0.021727      8.000000
  0.054318  0.065182  0.021727      8.000000
  0.065182  0.065182  0.021727      4.000000
  0.000000  0.032591  0.032591      4.000000
  0.010864  0.032591  0.032591      8.000000
  0.021727  0.032591  0.032591      8.000000
  0.032591  0.032591  0.032591      8.000000
  0.043454  0.032591  0.032591      8.000000
  0.054318  0.032591  0.032591      8.000000
  0.065182  0.032591  0.032591      4.000000
  0.000000  0.043454  0.032591      8.000000
  0.010864  0.043454  0.032591     16.000000
  0.021727  0.043454  0.032591     16.000000
  0.032591  0.043454  0.032591     16.000000
  0.043454  0.043454  0.032591     16.000000
  0.054318  0.043454  0.032591     16.000000
  0.065182  0.043454  0.032591      8.000000
  0.000000  0.054318  0.032591      8.000000
  0.010864  0.054318  0.032591     16.000000
  0.021727  0.054318  0.032591     16.000000
  0.032591  0.054318  0.032591     16.000000
  0.043454  0.054318  0.032591     16.000000
  0.054318  0.054318  0.032591     16.000000
  0.065182  0.054318  0.032591      8.000000
  0.000000  0.065182  0.032591      4.000000
  0.010864  0.065182  0.032591      8.000000
  0.021727  0.065182  0.032591      8.000000
  0.032591  0.065182  0.032591      8.000000
  0.043454  0.065182  0.032591      8.000000
  0.054318  0.065182  0.032591      8.000000
  0.065182  0.065182  0.032591      4.000000
  0.000000  0.043454  0.043454      4.000000
  0.010864  0.043454  0.043454      8.000000
  0.021727  0.043454  0.043454      8.000000
  0.032591  0.043454  0.043454      8.000000
  0.043454  0.043454  0.043454      8.000000
  0.054318  0.043454  0.043454      8.000000
  0.065182  0.043454  0.043454      4.000000
  0.000000  0.054318  0.043454      8.000000
  0.010864  0.054318  0.043454     16.000000
  0.021727  0.054318  0.043454     16.000000
  0.032591  0.054318  0.043454     16.000000
  0.043454  0.054318  0.043454     16.000000
  0.054318  0.054318  0.043454     16.000000
  0.065182  0.054318  0.043454      8.000000
  0.000000  0.065182  0.043454      4.000000
  0.010864  0.065182  0.043454      8.000000
  0.021727  0.065182  0.043454      8.000000
  0.032591  0.065182  0.043454      8.000000
  0.043454  0.065182  0.043454      8.000000
  0.054318  0.065182  0.043454      8.000000
  0.065182  0.065182  0.043454      4.000000
  0.000000  0.054318  0.054318      4.000000
  0.010864  0.054318  0.054318      8.000000
  0.021727  0.054318  0.054318      8.000000
  0.032591  0.054318  0.054318      8.000000
  0.043454  0.054318  0.054318      8.000000
  0.054318  0.054318  0.054318      8.000000
  0.065182  0.054318  0.054318      4.000000
  0.000000  0.065182  0.054318      4.000000
  0.010864  0.065182  0.054318      8.000000
  0.021727  0.065182  0.054318      8.000000
  0.032591  0.065182  0.054318      8.000000
  0.043454  0.065182  0.054318      8.000000
  0.054318  0.065182  0.054318      8.000000
  0.065182  0.065182  0.054318      4.000000
  0.000000  0.065182  0.065182      1.000000
  0.010864  0.065182  0.065182      2.000000
  0.021727  0.065182  0.065182      2.000000
  0.032591  0.065182  0.065182      2.000000
  0.043454  0.065182  0.065182      2.000000
  0.054318  0.065182  0.065182      2.000000
  0.065182  0.065182  0.065182      1.000000
 


--------------------------------------------------------------------------------------------------------




 Dimension of arrays:
   k-Points           NKPTS =    196   number of bands    NBANDS=     68
   number of dos      NEDOS =    301   number of ions     NIONS =     32
   non local maximal  LDIM  =      4   non local SUM 2l+1 LMDIM =      8
   total plane-waves  NPLWV = 343000
   max r-space proj   IRMAX =      1   max aug-charges    IRDMAX= 236773
   dimension x,y,z NGX =    70 NGY =   70 NGZ =   70
   dimension x,y,z NGXF=   140 NGYF=  140 NGZF=  140
   support grid    NGXF=   280 NGYF=  280 NGZF=  280
   ions per type =              32
 NGX,Y,Z   is equivalent  to a cutoff of  15.17, 15.17, 15.17 a.u.
 NGXF,Y,Z  is equivalent  to a cutoff of  30.34, 30.34, 30.34 a.u.


 I would recommend the setting:
   dimension x,y,z NGX =    69 NGY =   69 NGZ =   69
 SYSTEM =  unknown system                          
 POSCAR =  Al                                      

 Startparameter for this run:
   NWRITE =      2    write-flag & timer
   PREC   = accura    medium, high low
   ISTART =      0    job   : 0-new  1-cont  2-samecut
   ICHARG =      2    charge: 1-file 2-atom 10-const
   ISPIN  =      1    spin polarized calculation?
   LNONCOLLINEAR =      F non collinear calculations
   LSORBIT =      F    spin-orbit coupling
   INIWAV =      1    electr: 0-lowe 1-rand  2-diag
   LASPH  =      F    aspherical Exc in radial PAW
   METAGGA=      F    non-selfconsistent MetaGGA calc.

 Electronic Relaxation 1
   ENCUT  =  750.0 eV  55.12 Ry    7.42 a.u.  17.13 17.13 17.13*2*pi/ulx,y,z
   ENINI  =  750.0     initial cutoff
   ENAUG  =  291.1 eV  augmentation charge cutoff
   NELM   =     60;   NELMIN=  2; NELMDL=  0     # of ELM steps 
   EDIFF  = 0.1E-07   stopping-criterion for ELM
   LREAL  =      F    real-space projection
   LCOMPAT=      F    compatible to vasp.4.4
   LREAL_COMPAT= F    compatible to vasp.4.5.1-3
   GGA_COMPAT  = T    GGA compatible to vasp.4.4-vasp.4.6
   LMAXPAW     = -100 max onsite density
   LMAXMIX     =    2 max onsite mixed and CHGCAR
   VOSKOWN=      0    Vosko Wilk Nusair interpolation
   ROPT   =    0.00000
 Ionic relaxation
   EDIFFG = 0.1E-06   stopping-criterion for IOM
   NSW    =      0    number of steps for IOM
   NBLOCK =      1;   KBLOCK =      1    inner block; outer block 
   IBRION =     -1    ionic relax: 0-MD 1-quasi-New 2-CG
   NFREE  =      0    steps in history (QN), initial steepest desc. (CG)
   ISIF   =      2    stress and relaxation
   IWAVPR =     10    prediction:  0-non 1-charg 2-wave 3-comb
   ISYM   =      2    0-nonsym 1-usesym 2-fastsym
   LCORR  =      T    Harris-Foulkes like correction to forces

   POTIM  =   0.50    time-step for ionic-motion
   TEIN   =    0.0    initial temperature
   TEBEG  =    0.0;   TEEND  =   0.0 temperature during run
   SMASS  =  -3.00    Nose mass-parameter (am)
   estimated Nose-frequenzy (Omega)   =  0.10E-29 period in steps =****** mass=  -0.134E-26a.u.
   NPACO  =    256;   APACO  = 16.0  distance and # of slots for P.C.
   PSTRESS=    0.0 pullay stress

  Mass of Ions in am
   POMASS =  26.98
  Ionic Valenz
   ZVAL   =   3.00
  Atomic Wigner-Seitz radii
   RWIGS  =  -1.00
   NELECT =      96.0000    total number of electrons
   NUPDOWN=      -1.0000    fix difference up-down

 DOS related values:
   EMIN   =  10.00;   EMAX   =-10.00  energy-range for DOS
   ISMEAR =     0;   SIGMA  =   0.01  broadening in eV -4-tet -1-fermi 0-gaus

 Electronic relaxation 2 (details)
   IALGO  =     38    algorithm
   LDIAG  =      T    sub-space diagonalisation
   IMIX   =      4    mixing-type and parameters
     AMIX     =   0.40;   BMIX     =  1.00
     AMIX_MAG =   1.60;   BMIX_MAG =  1.00
     AMIN     =   0.10
     WC   =   100.;   INIMIX=   1;  MIXPRE=   1

 Intra band minimization:
   WEIMIN = 0.0000     energy-eigenvalue tresh-hold
   EBREAK =  0.38E-10  absolut break condition
   DEPER  =   0.30     relativ break condition  

   TIME   =   0.10     timestep for ELM

  volume/ion in A,a.u.               =      14.11        95.19
  Fermi-wavevector in a.u.,eV,Ry     =   0.977207 12.992661  0.954934

 Second variation
   LSECVAR=     F    do a second variation
 
 Write flags
   LWAVE  =      F    write WAVECAR
   LCHARG =      F    write CHGCAR
   LVTOT  =      F    write LOCPOT, local potential
   LELF   =      F    write electronic localiz. function (ELF)
   LORBIT =      0    0 simple, 1 ext, 2 COOP (PROOUT)


 Dipole corrections
   IDIPOL =      0    1-x, 2-y, 3-z
   LDIPOL =      F    correct potential



--------------------------------------------------------------------------------------------------------


 Static calculation
 charge density will be updated during run
 non-spin polarized calculation
 Variant of blocked Davidson
 Davidson routine will perform the subspace rotation
 performe sub-space diagonalisation
    after iterative eigenvector-optimisation
 modified Broyden-mixing scheme, WC =      100.0
 initial mixing is a Kerker type mixing with AMIX =  0.4000 and BMIX =      1.0000
 Hartree-type preconditioning will be used
 using additional bands           20
 reciprocal scheme for non local part
 use partial core corrections
 calculate Harris-corrections to forces 
   (improved forces if not selfconsistent)
 use gradient corrections 
 use of overlap-Matrix (Vanderbilt PP)
 Gauss-broadening in eV      SIGMA  =   0.01


--------------------------------------------------------------------------------------------------------


  energy-cutoff  :      750.00
  volume of cell :      451.37
      direct lattice vectors                 reciprocal lattice vectors
     7.670882102  0.000000000  0.000000000     0.130363104  0.000000000  0.000000000
     0.000000000  7.670882102  0.000000000     0.000000000  0.130363104  0.000000000
     0.000000000  0.000000000  7.670882102     0.000000000  0.000000000  0.130363104

  length of vectors
     7.670882102  7.670882102  7.670882102     0.130363104  0.130363104  0.130363104


 
 k-points in units of 2pi/SCALE and weight: Automatic mesh                          
   0.00000000  0.00000000  0.00000000       0.001
   0.01086359  0.00000000  0.00000000       0.001
   0.02172718  0.00000000  0.00000000       0.001
   0.03259078  0.00000000  0.00000000       0.001
   0.04345437  0.00000000  0.00000000       0.001
   0.05431796  0.00000000  0.00000000       0.001
   0.06518155  0.00000000  0.00000000       0.001
   0.00000000  0.01086359  0.00000000       0.002
   0.01086359  0.01086359  0.00000000       0.005
   0.02172718  0.01086359  0.00000000       0.005
   0.03259078  0.01086359  0.00000000       0.005
   0.04345437  0.01086359  0.00000000       0.005
   0.05431796  0.01086359  0.00000000       0.005
   0.06518155  0.01086359  0.00000000       0.002
   0.00000000  0.02172718  0.00000000       0.002
   0.01086359  0.02172718  0.00000000       0.005
   0.02172718  0.02172718  0.00000000       0.005
   0.03259078  0.02172718  0.00000000       0.005
   0.04345437  0.02172718  0.00000000       0.005
   0.05431796  0.02172718  0.00000000       0.005
   0.06518155  0.02172718  0.00000000       0.002
   0.00000000  0.03259078  0.00000000       0.002
   0.01086359  0.03259078  0.00000000       0.005
   0.02172718  0.03259078  0.00000000       0.005
   0.03259078  0.03259078  0.00000000       0.005
   0.04345437  0.03259078  0.00000000       0.005
   0.05431796  0.03259078  0.00000000       0.005
   0.06518155  0.03259078  0.00000000       0.002
   0.00000000  0.04345437  0.00000000       0.002
   0.01086359  0.04345437  0.00000000       0.005
   0.02172718  0.04345437  0.00000000       0.005
   0.03259078  0.04345437  0.00000000       0.005
   0.04345437  0.04345437  0.00000000       0.005
   0.05431796  0.04345437  0.00000000       0.005
   0.06518155  0.04345437  0.00000000       0.002
   0.00000000  0.05431796  0.00000000       0.002
   0.01086359  0.05431796  0.00000000       0.005
   0.02172718  0.05431796  0.00000000       0.005
   0.03259078  0.05431796  0.00000000       0.005
   0.04345437  0.05431796  0.00000000       0.005
   0.05431796  0.05431796  0.00000000       0.005
   0.06518155  0.05431796  0.00000000       0.002
   0.00000000  0.06518155  0.00000000       0.001
   0.01086359  0.06518155  0.00000000       0.002
   0.02172718  0.06518155  0.00000000       0.002
   0.03259078  0.06518155  0.00000000       0.002
   0.04345437  0.06518155  0.00000000       0.002
   0.05431796  0.06518155  0.00000000       0.002
   0.06518155  0.06518155  0.00000000       0.001
   0.00000000  0.01086359  0.01086359       0.002
   0.01086359  0.01086359  0.01086359       0.005
   0.02172718  0.01086359  0.01086359       0.005
   0.03259078  0.01086359  0.01086359       0.005
   0.04345437  0.01086359  0.01086359       0.005
   0.05431796  0.01086359  0.01086359       0.005
   0.06518155  0.01086359  0.01086359       0.002
   0.00000000  0.02172718  0.01086359       0.005
   0.01086359  0.02172718  0.01086359       0.009
   0.02172718  0.02172718  0.01086359       0.009
   0.03259078  0.02172718  0.01086359       0.009
   0.04345437  0.02172718  0.01086359       0.009
   0.05431796  0.02172718  0.01086359       0.009
   0.06518155  0.02172718  0.01086359       0.005
   0.00000000  0.03259078  0.01086359       0.005
   0.01086359  0.03259078  0.01086359       0.009
   0.02172718  0.03259078  0.01086359       0.009
   0.03259078  0.03259078  0.01086359       0.009
   0.04345437  0.03259078  0.01086359       0.009
   0.05431796  0.03259078  0.01086359       0.009
   0.06518155  0.03259078  0.01086359       0.005
   0.00000000  0.04345437  0.01086359       0.005
   0.01086359  0.04345437  0.01086359       0.009
   0.02172718  0.04345437  0.01086359       0.009
   0.03259078  0.04345437  0.01086359       0.009
   0.04345437  0.04345437  0.01086359       0.009
   0.05431796  0.04345437  0.01086359       0.009
   0.06518155  0.04345437  0.01086359       0.005
   0.00000000  0.05431796  0.01086359       0.005
   0.01086359  0.05431796  0.01086359       0.009
   0.02172718  0.05431796  0.01086359       0.009
   0.03259078  0.05431796  0.01086359       0.009
   0.04345437  0.05431796  0.01086359       0.009
   0.05431796  0.05431796  0.01086359       0.009
   0.06518155  0.05431796  0.01086359       0.005
   0.00000000  0.06518155  0.01086359       0.002
   0.01086359  0.06518155  0.01086359       0.005
   0.02172718  0.06518155  0.01086359       0.005
   0.03259078  0.06518155  0.01086359       0.005
   0.04345437  0.06518155  0.01086359       0.005
   0.05431796  0.06518155  0.01086359       0.005
   0.06518155  0.06518155  0.01086359       0.002
   0.00000000  0.02172718  0.02172718       0.002
   0.01086359  0.02172718  0.02172718       0.005
   0.02172718  0.02172718  0.02172718       0.005
   0.03259078  0.02172718  0.02172718       0.005
   0.04345437  0.02172718  0.02172718       0.005
   0.05431796  0.02172718  0.02172718       0.005
   0.06518155  0.02172718  0.02172718       0.002
   0.00000000  0.03259078  0.02172718       0.005
   0.01086359  0.03259078  0.02172718       0.009
   0.02172718  0.03259078  0.02172718       0.009
   0.03259078  0.03259078  0.02172718       0.009
   0.04345437  0.03259078  0.02172718       0.009
   0.05431796  0.03259078  0.02172718       0.009
   0.06518155  0.03259078  0.02172718       0.005
   0.00000000  0.04345437  0.02172718       0.005
   0.01086359  0.04345437  0.02172718       0.009
   0.02172718  0.04345437  0.02172718       0.009
   0.03259078  0.04345437  0.02172718       0.009
   0.04345437  0.04345437  0.02172718       0.009
   0.05431796  0.04345437  0.02172718       0.009
   0.06518155  0.04345437  0.02172718       0.005
   0.00000000  0.05431796  0.02172718       0.005
   0.01086359  0.05431796  0.02172718       0.009
   0.02172718  0.05431796  0.02172718       0.009
   0.03259078  0.05431796  0.02172718       0.009
   0.04345437  0.05431796  0.02172718       0.009
   0.05431796  0.05431796  0.02172718       0.009
   0.06518155  0.05431796  0.02172718       0.005
   0.00000000  0.06518155  0.02172718       0.002
   0.01086359  0.06518155  0.02172718       0.005
   0.02172718  0.06518155  0.02172718       0.005
   0.03259078  0.06518155  0.02172718       0.005
   0.04345437  0.06518155  0.02172718       0.005
   0.05431796  0.06518155  0.02172718       0.005
   0.06518155  0.06518155  0.02172718       0.002
   0.00000000  0.03259078  0.03259078       0.002
   0.01086359  0.03259078  0.03259078       0.005
   0.02172718  0.03259078  0.03259078       0.005
   0.03259078  0.03259078  0.03259078       0.005
   0.04345437  0.03259078  0.03259078       0.005
   0.05431796  0.03259078  0.03259078       0.005
   0.06518155  0.03259078  0.03259078       0.002
   0.00000000  0.04345437  0.03259078       0.005
   0.01086359  0.04345437  0.03259078       0.009
   0.02172718  0.04345437  0.03259078       0.009
   0.03259078  0.04345437  0.03259078       0.009
   0.04345437  0.04345437  0.03259078       0.009
   0.05431796  0.04345437  0.03259078       0.009
   0.06518155  0.04345437  0.03259078       0.005
   0.00000000  0.05431796  0.03259078       0.005
   0.01086359  0.05431796  0.03259078       0.009
   0.02172718  0.05431796  0.03259078       0.009
   0.03259078  0.05431796  0.03259078       0.009
   0.04345437  0.05431796  0.03259078       0.009
   0.05431796  0.05431796  0.03259078       0.009
   0.06518155  0.05431796  0.03259078       0.005
   0.00000000  0.06518155  0.03259078       0.002
   0.01086359  0.06518155  0.03259078       0.005
   0.02172718  0.06518155  0.03259078       0.005
   0.03259078  0.06518155  0.03259078       0.005
   0.04345437  0.06518155  0.03259078       0.005
   0.05431796  0.06518155  0.03259078       0.005
   0.06518155  0.06518155  0.03259078       0.002
   0.00000000  0.04345437  0.04345437       0.002
   0.01086359  0.04345437  0.04345437       0.005
   0.02172718  0.04345437  0.04345437       0.005
   0.03259078  0.04345437  0.04345437       0.005
   0.04345437  0.04345437  0.04345437       0.005
   0.05431796  0.04345437  0.04345437       0.005
   0.06518155  0.04345437  0.04345437       0.002
   0.00000000  0.05431796  0.04345437       0.005
   0.01086359  0.05431796  0.04345437       0.009
   0.02172718  0.05431796  0.04345437       0.009
   0.03259078  0.05431796  0.04345437       0.009
   0.04345437  0.05431796  0.04345437       0.009
   0.05431796  0.05431796  0.04345437       0.009
   0.06518155  0.05431796  0.04345437       0.005
   0.00000000  0.06518155  0.04345437       0.002
   0.01086359  0.06518155  0.04345437       0.005
   0.02172718  0.06518155  0.04345437       0.005
   0.03259078  0.06518155  0.04345437       0.005
   0.04345437  0.06518155  0.04345437       0.005
   0.05431796  0.06518155  0.04345437       0.005
   0.06518155  0.06518155  0.04345437       0.002
   0.00000000  0.05431796  0.05431796       0.002
   0.01086359  0.05431796  0.05431796       0.005
   0.02172718  0.05431796  0.05431796       0.005
   0.03259078  0.05431796  0.05431796       0.005
   0.04345437  0.05431796  0.05431796       0.005
   0.05431796  0.05431796  0.05431796       0.005
   0.06518155  0.05431796  0.05431796       0.002
   0.00000000  0.06518155  0.05431796       0.002
   0.01086359  0.06518155  0.05431796       0.005
   0.02172718  0.06518155  0.05431796       0.005
   0.03259078  0.06518155  0.05431796       0.005
   0.04345437  0.06518155  0.05431796       0.005
   0.05431796  0.06518155  0.05431796       0.005
   0.06518155  0.06518155  0.05431796       0.002
   0.00000000  0.06518155  0.06518155       0.001
   0.01086359  0.06518155  0.06518155       0.001
   0.02172718  0.06518155  0.06518155       0.001
   0.03259078  0.06518155  0.06518155       0.001
   0.04345437  0.06518155  0.06518155       0.001
   0.05431796  0.06518155  0.06518155       0.001
   0.06518155  0.06518155  0.06518155       0.001
 
 k-points in reciprocal lattice and weights: Automatic mesh                          
   0.00000000  0.00000000  0.00000000       0.001
   0.08333333  0.00000000  0.00000000       0.001
   0.16666667  0.00000000  0.00000000       0.001
   0.25000000  0.00000000  0.00000000       0.001
   0.33333333  0.00000000  0.00000000       0.001
   0.41666667  0.00000000  0.00000000       0.001
   0.50000000  0.00000000  0.00000000       0.001
   0.00000000  0.08333333  0.00000000       0.002
   0.08333333  0.08333333  0.00000000       0.005
   0.16666667  0.08333333  0.00000000       0.005
   0.25000000  0.08333333  0.00000000       0.005
   0.33333333  0.08333333  0.00000000       0.005
   0.41666667  0.08333333  0.00000000       0.005
   0.50000000  0.08333333  0.00000000       0.002
   0.00000000  0.16666667  0.00000000       0.002
   0.08333333  0.16666667  0.00000000       0.005
   0.16666667  0.16666667  0.00000000       0.005
   0.25000000  0.16666667  0.00000000       0.005
   0.33333333  0.16666667  0.00000000       0.005
   0.41666667  0.16666667  0.00000000       0.005
   0.50000000  0.16666667  0.00000000       0.002
   0.00000000  0.25000000  0.00000000       0.002
   0.08333333  0.25000000  0.00000000       0.005
   0.16666667  0.25000000  0.00000000       0.005
   0.25000000  0.25000000  0.00000000       0.005
   0.33333333  0.25000000  0.00000000       0.005
   0.41666667  0.25000000  0.00000000       0.005
   0.50000000  0.25000000  0.00000000       0.002
   0.00000000  0.33333333  0.00000000       0.002
   0.08333333  0.33333333  0.00000000       0.005
   0.16666667  0.33333333  0.00000000       0.005
   0.25000000  0.33333333  0.00000000       0.005
   0.33333333  0.33333333  0.00000000       0.005
   0.41666667  0.33333333  0.00000000       0.005
   0.50000000  0.33333333  0.00000000       0.002
   0.00000000  0.41666667  0.00000000       0.002
   0.08333333  0.41666667  0.00000000       0.005
   0.16666667  0.41666667  0.00000000       0.005
   0.25000000  0.41666667  0.00000000       0.005
   0.33333333  0.41666667  0.00000000       0.005
   0.41666667  0.41666667  0.00000000       0.005
   0.50000000  0.41666667  0.00000000       0.002
   0.00000000  0.50000000  0.00000000       0.001
   0.08333333  0.50000000  0.00000000       0.002
   0.16666667  0.50000000  0.00000000       0.002
   0.25000000  0.50000000  0.00000000       0.002
   0.33333333  0.50000000  0.00000000       0.002
   0.41666667  0.50000000  0.00000000       0.002
   0.50000000  0.50000000  0.00000000       0.001
   0.00000000  0.08333333  0.08333333       0.002
   0.08333333  0.08333333  0.08333333       0.005
   0.16666667  0.08333333  0.08333333       0.005
   0.25000000  0.08333333  0.08333333       0.005
   0.33333333  0.08333333  0.08333333       0.005
   0.41666667  0.08333333  0.08333333       0.005
   0.50000000  0.08333333  0.08333333       0.002
   0.00000000  0.16666667  0.08333333       0.005
   0.08333333  0.16666667  0.08333333       0.009
   0.16666667  0.16666667  0.08333333       0.009
   0.25000000  0.16666667  0.08333333       0.009
   0.33333333  0.16666667  0.08333333       0.009
   0.41666667  0.16666667  0.08333333       0.009
   0.50000000  0.16666667  0.08333333       0.005
   0.00000000  0.25000000  0.08333333       0.005
   0.08333333  0.25000000  0.08333333       0.009
   0.16666667  0.25000000  0.08333333       0.009
   0.25000000  0.25000000  0.08333333       0.009
   0.33333333  0.25000000  0.08333333       0.009
   0.41666667  0.25000000  0.08333333       0.009
   0.50000000  0.25000000  0.08333333       0.005
   0.00000000  0.33333333  0.08333333       0.005
   0.08333333  0.33333333  0.08333333       0.009
   0.16666667  0.33333333  0.08333333       0.009
   0.25000000  0.33333333  0.08333333       0.009
   0.33333333  0.33333333  0.08333333       0.009
   0.41666667  0.33333333  0.08333333       0.009
   0.50000000  0.33333333  0.08333333       0.005
   0.00000000  0.41666667  0.08333333       0.005
   0.08333333  0.41666667  0.08333333       0.009
   0.16666667  0.41666667  0.08333333       0.009
   0.25000000  0.41666667  0.08333333       0.009
   0.33333333  0.41666667  0.08333333       0.009
   0.41666667  0.41666667  0.08333333       0.009
   0.50000000  0.41666667  0.08333333       0.005
   0.00000000  0.50000000  0.08333333       0.002
   0.08333333  0.50000000  0.08333333       0.005
   0.16666667  0.50000000  0.08333333       0.005
   0.25000000  0.50000000  0.08333333       0.005
   0.33333333  0.50000000  0.08333333       0.005
   0.41666667  0.50000000  0.08333333       0.005
   0.50000000  0.50000000  0.08333333       0.002
   0.00000000  0.16666667  0.16666667       0.002
   0.08333333  0.16666667  0.16666667       0.005
   0.16666667  0.16666667  0.16666667       0.005
   0.25000000  0.16666667  0.16666667       0.005
   0.33333333  0.16666667  0.16666667       0.005
   0.41666667  0.16666667  0.16666667       0.005
   0.50000000  0.16666667  0.16666667       0.002
   0.00000000  0.25000000  0.16666667       0.005
   0.08333333  0.25000000  0.16666667       0.009
   0.16666667  0.25000000  0.16666667       0.009
   0.25000000  0.25000000  0.16666667       0.009
   0.33333333  0.25000000  0.16666667       0.009
   0.41666667  0.25000000  0.16666667       0.009
   0.50000000  0.25000000  0.16666667       0.005
   0.00000000  0.33333333  0.16666667       0.005
   0.08333333  0.33333333  0.16666667       0.009
   0.16666667  0.33333333  0.16666667       0.009
   0.25000000  0.33333333  0.16666667       0.009
   0.33333333  0.33333333  0.16666667       0.009
   0.41666667  0.33333333  0.16666667       0.009
   0.50000000  0.33333333  0.16666667       0.005
   0.00000000  0.41666667  0.16666667       0.005
   0.08333333  0.41666667  0.16666667       0.009
   0.16666667  0.41666667  0.16666667       0.009
   0.25000000  0.41666667  0.16666667       0.009
   0.33333333  0.41666667  0.16666667       0.009
   0.41666667  0.41666667  0.16666667       0.009
   0.50000000  0.41666667  0.16666667       0.005
   0.00000000  0.50000000  0.16666667       0.002
   0.08333333  0.50000000  0.16666667       0.005
   0.16666667  0.50000000  0.16666667       0.005
   0.25000000  0.50000000  0.16666667       0.005
   0.33333333  0.50000000  0.16666667       0.005
   0.41666667  0.50000000  0.16666667       0.005
   0.50000000  0.50000000  0.16666667       0.002
   0.00000000  0.25000000  0.25000000       0.002
   0.08333333  0.25000000  0.25000000       0.005
   0.16666667  0.25000000  0.25000000       0.005
   0.25000000  0.25000000  0.25000000       0.005
   0.33333333  0.25000000  0.25000000       0.005
   0.41666667  0.25000000  0.25000000       0.005
   0.50000000  0.25000000  0.25000000       0.002
   0.00000000  0.33333333  0.25000000       0.005
   0.08333333  0.33333333  0.25000000       0.009
   0.16666667  0.33333333  0.25000000       0.009
   0.25000000  0.33333333  0.25000000       0.009
   0.33333333  0.33333333  0.25000000       0.009
   0.41666667  0.33333333  0.25000000       0.009
   0.50000000  0.33333333  0.25000000       0.005
   0.00000000  0.41666667  0.25000000       0.005
   0.08333333  0.41666667  0.25000000       0.009
   0.16666667  0.41666667  0.25000000       0.009
   0.25000000  0.41666667  0.25000000       0.009
   0.33333333  0.41666667  0.25000000       0.009
   0.41666667  0.41666667  0.25000000       0.009
   0.50000000  0.41666667  0.25000000       0.005
   0.00000000  0.50000000  0.25000000       0.002
   0.08333333  0.50000000  0.25000000       0.005
   0.16666667  0.50000000  0.25000000       0.005
   0.25000000  0.50000000  0.25000000       0.005
   0.33333333  0.50000000  0.25000000       0.005
   0.41666667  0.50000000  0.25000000       0.005
   0.50000000  0.50000000  0.25000000       0.002
   0.00000000  0.33333333  0.33333333       0.002
   0.08333333  0.33333333  0.33333333       0.005
   0.16666667  0.33333333  0.33333333       0.005
   0.25000000  0.33333333  0.33333333       0.005
   0.33333333  0.33333333  0.33333333       0.005
   0.41666667  0.33333333  0.33333333       0.005
   0.50000000  0.33333333  0.33333333       0.002
   0.00000000  0.41666667  0.33333333       0.005
   0.08333333  0.41666667  0.33333333       0.009
   0.16666667  0.41666667  0.33333333       0.009
   0.25000000  0.41666667  0.33333333       0.009
   0.33333333  0.41666667  0.33333333       0.009
   0.41666667  0.41666667  0.33333333       0.009
   0.50000000  0.41666667  0.33333333       0.005
   0.00000000  0.50000000  0.33333333       0.002
   0.08333333  0.50000000  0.33333333       0.005
   0.16666667  0.50000000  0.33333333       0.005
   0.25000000  0.50000000  0.33333333       0.005
   0.33333333  0.50000000  0.33333333       0.005
   0.41666667  0.50000000  0.33333333       0.005
   0.50000000  0.50000000  0.33333333       0.002
   0.00000000  0.41666667  0.41666667       0.002
   0.08333333  0.41666667  0.41666667       0.005
   0.16666667  0.41666667  0.41666667       0.005
   0.25000000  0.41666667  0.41666667       0.005
   0.33333333  0.41666667  0.41666667       0.005
   0.41666667  0.41666667  0.41666667       0.005
   0.50000000  0.41666667  0.41666667       0.002
   0.00000000  0.50000000  0.41666667       0.002
   0.08333333  0.50000000  0.41666667       0.005
   0.16666667  0.50000000  0.41666667       0.005
   0.25000000  0.50000000  0.41666667       0.005
   0.33333333  0.50000000  0.41666667       0.005
   0.41666667  0.50000000  0.41666667       0.005
   0.50000000  0.50000000  0.41666667       0.002
   0.00000000  0.50000000  0.50000000       0.001
   0.08333333  0.50000000  0.50000000       0.001
   0.16666667  0.50000000  0.50000000       0.001
   0.25000000  0.50000000  0.50000000       0.001
   0.33333333  0.50000000  0.50000000       0.001
   0.41666667  0.50000000  0.50000000       0.001
   0.50000000  0.50000000  0.50000000       0.001
 
 position of ions in fractional coordinates (direct lattice) 
   0.25130363  0.25000000  0.00000000
   0.75000000  0.25000000  0.00000000
   0.25000000  0.75000000  0.00000000
   0.75000000  0.75000000  0.00000000
   0.25000000  0.25000000  0.50000000
   0.75000000  0.25000000  0.50000000
   0.25000000  0.75000000  0.50000000
   0.75000000  0.75000000  0.50000000
   0.25000000  0.00000000  0.25000000
   0.75000000  0.00000000  0.25000000
   0.25000000  0.50000000  0.25000000
   0.75000000  0.50000000  0.25000000
   0.25000000  0.00000000  0.75000000
   0.75000000  0.00000000  0.75000000
   0.25000000  0.50000000  0.75000000
   0.75000000  0.50000000  0.75000000
   0.00000000  0.25000000  0.25000000
   0.50000000  0.25000000  0.25000000
   0.00000000  0.75000000  0.25000000
   0.50000000  0.75000000  0.25000000
   0.00000000  0.25000000  0.75000000
   0.50000000  0.25000000  0.75000000
   0.00000000  0.75000000  0.75000000
   0.50000000  0.75000000  0.75000000
   0.00000000  0.00000000  0.00000000
   0.50000000  0.00000000  0.00000000
   0.00000000  0.50000000  0.00000000
   0.50000000  0.50000000  0.00000000
   0.00000000  0.00000000  0.50000000
   0.50000000  0.00000000  0.50000000
   0.00000000  0.50000000  0.50000000
   0.50000000  0.50000000  0.50000000
 
 position of ions in cartesian coordinates  (Angst):
   1.92772053  1.91772053  0.00000000
   5.75316158  1.91772053  0.00000000
   1.91772053  5.75316158  0.00000000
   5.75316158  5.75316158  0.00000000
   1.91772053  1.91772053  3.83544105
   5.75316158  1.91772053  3.83544105
   1.91772053  5.75316158  3.83544105
   5.75316158  5.75316158  3.83544105
   1.91772053  0.00000000  1.91772053
   5.75316158  0.00000000  1.91772053
   1.91772053  3.83544105  1.91772053
   5.75316158  3.83544105  1.91772053
   1.91772053  0.00000000  5.75316158
   5.75316158  0.00000000  5.75316158
   1.91772053  3.83544105  5.75316158
   5.75316158  3.83544105  5.75316158
   0.00000000  1.91772053  1.91772053
   3.83544105  1.91772053  1.91772053
   0.00000000  5.75316158  1.91772053
   3.83544105  5.75316158  1.91772053
   0.00000000  1.91772053  5.75316158
   3.83544105  1.91772053  5.75316158
   0.00000000  5.75316158  5.75316158
   3.83544105  5.75316158  5.75316158
   0.00000000  0.00000000  0.00000000
   3.83544105  0.00000000  0.00000000
   0.00000000  3.83544105  0.00000000
   3.83544105  3.83544105  0.00000000
   0.00000000  0.00000000  3.83544105
   3.83544105  0.00000000  3.83544105
   0.00000000  3.83544105  3.83544105
   3.83544105  3.83544105  3.83544105
 


--------------------------------------------------------------------------------------------------------


 k-point  1 :  0.00000.00000.0000  plane waves:  21079
 k-point  2 :  0.08330.00000.0000  plane waves:  21047
 k-point  3 :  0.16670.00000.0000  plane waves:  21046
 k-point  4 :  0.25000.00000.0000  plane waves:  21050
 k-point  5 :  0.33330.00000.0000  plane waves:  21034
 k-point  6 :  0.41670.00000.0000  plane waves:  21058
 k-point  7 :  0.50000.00000.0000  plane waves:  21130
 k-point  8 :  0.00000.08330.0000  plane waves:  21047
 k-point  9 :  0.08330.08330.0000  plane waves:  21015
 k-point 10 :  0.16670.08330.0000  plane waves:  21027
 k-point 11 :  0.25000.08330.0000  plane waves:  21056
 k-point 12 :  0.33330.08330.0000  plane waves:  21039
 k-point 13 :  0.41670.08330.0000  plane waves:  21044
 k-point 14 :  0.50000.08330.0000  plane waves:  21074
 k-point 15 :  0.00000.16670.0000  plane waves:  21046
 k-point 16 :  0.08330.16670.0000  plane waves:  21027
 k-point 17 :  0.16670.16670.0000  plane waves:  21046
 k-point 18 :  0.25000.16670.0000  plane waves:  21033
 k-point 19 :  0.33330.16670.0000  plane waves:  21032
 k-point 20 :  0.41670.16670.0000  plane waves:  21049
 k-point 21 :  0.50000.16670.0000  plane waves:  21054
 k-point 22 :  0.00000.25000.0000  plane waves:  21050
 k-point 23 :  0.08330.25000.0000  plane waves:  21056
 k-point 24 :  0.16670.25000.0000  plane waves:  21033
 k-point 25 :  0.25000.25000.0000  plane waves:  21048
 k-point 26 :  0.33330.25000.0000  plane waves:  21054
 k-point 27 :  0.41670.25000.0000  plane waves:  21059
 k-point 28 :  0.50000.25000.0000  plane waves:  21046
 k-point 29 :  0.00000.33330.0000  plane waves:  21034
 k-point 30 :  0.08330.33330.0000  plane waves:  21039
 k-point 31 :  0.16670.33330.0000  plane waves:  21032
 k-point 32 :  0.25000.33330.0000  plane waves:  21054
 k-point 33 :  0.33330.33330.0000  plane waves:  21018
 k-point 34 :  0.41670.33330.0000  plane waves:  21049
 k-point 35 :  0.50000.33330.0000  plane waves:  21074
 k-point 36 :  0.00000.41670.0000  plane waves:  21058
 k-point 37 :  0.08330.41670.0000  plane waves:  21044
 k-point 38 :  0.16670.41670.0000  plane waves:  21049
 k-point 39 :  0.25000.41670.0000  plane waves:  21059
 k-point 40 :  0.33330.41670.0000  plane waves:  21049
 k-point 41 :  0.41670.41670.0000  plane waves:  21074
 k-point 42 :  0.50000.41670.0000  plane waves:  21058
 k-point 43 :  0.00000.50000.0000  plane waves:  21130
 k-point 44 :  0.08330.50000.0000  plane waves:  21074
 k-point 45 :  0.16670.50000.0000  plane waves:  21054
 k-point 46 :  0.25000.50000.0000  plane waves:  21046
 k-point 47 :  0.33330.50000.0000  plane waves:  21074
 k-point 48 :  0.41670.50000.0000  plane waves:  21058
 k-point 49 :  0.50000.50000.0000  plane waves:  21032
 k-point 50 :  0.00000.08330.0833  plane waves:  21015
 k-point 51 :  0.08330.08330.0833  plane waves:  21013
 k-point 52 :  0.16670.08330.0833  plane waves:  21048
 k-point 53 :  0.25000.08330.0833  plane waves:  21028
 k-point 54 :  0.33330.08330.0833  plane waves:  21035
 k-point 55 :  0.41670.08330.0833  plane waves:  21050
 k-point 56 :  0.50000.08330.0833  plane waves:  21066
 k-point 57 :  0.00000.16670.0833  plane waves:  21027
 k-point 58 :  0.08330.16670.0833  plane waves:  21048
 k-point 59 :  0.16670.16670.0833  plane waves:  21053
 k-point 60 :  0.25000.16670.0833  plane waves:  21038
 k-point 61 :  0.33330.16670.0833  plane waves:  21041
 k-point 62 :  0.41670.16670.0833  plane waves:  21041
 k-point 63 :  0.50000.16670.0833  plane waves:  21044
 k-point 64 :  0.00000.25000.0833  plane waves:  21056
 k-point 65 :  0.08330.25000.0833  plane waves:  21028
 k-point 66 :  0.16670.25000.0833  plane waves:  21038
 k-point 67 :  0.25000.25000.0833  plane waves:  21037
 k-point 68 :  0.33330.25000.0833  plane waves:  21046
 k-point 69 :  0.41670.25000.0833  plane waves:  21037
 k-point 70 :  0.50000.25000.0833  plane waves:  21034
 k-point 71 :  0.00000.33330.0833  plane waves:  21039
 k-point 72 :  0.08330.33330.0833  plane waves:  21035
 k-point 73 :  0.16670.33330.0833  plane waves:  21041
 k-point 74 :  0.25000.33330.0833  plane waves:  21046
 k-point 75 :  0.33330.33330.0833  plane waves:  21067
 k-point 76 :  0.41670.33330.0833  plane waves:  21053
 k-point 77 :  0.50000.33330.0833  plane waves:  21054
 k-point 78 :  0.00000.41670.0833  plane waves:  21044
 k-point 79 :  0.08330.41670.0833  plane waves:  21050
 k-point 80 :  0.16670.41670.0833  plane waves:  21041
 k-point 81 :  0.25000.41670.0833  plane waves:  21037
 k-point 82 :  0.33330.41670.0833  plane waves:  21053
 k-point 83 :  0.41670.41670.0833  plane waves:  21084
 k-point 84 :  0.50000.41670.0833  plane waves:  21056
 k-point 85 :  0.00000.50000.0833  plane waves:  21074
 k-point 86 :  0.08330.50000.0833  plane waves:  21066
 k-point 87 :  0.16670.50000.0833  plane waves:  21044
 k-point 88 :  0.25000.50000.0833  plane waves:  21034
 k-point 89 :  0.33330.50000.0833  plane waves:  21054
 k-point 90 :  0.41670.50000.0833  plane waves:  21056
 k-point 91 :  0.50000.50000.0833  plane waves:  21084
 k-point 92 :  0.00000.16670.1667  plane waves:  21046
 k-point 93 :  0.08330.16670.1667  plane waves:  21053
 k-point 94 :  0.16670.16670.1667  plane waves:  21032
 k-point 95 :  0.25000.16670.1667  plane waves:  21037
 k-point 96 :  0.33330.16670.1667  plane waves:  21021
 k-point 97 :  0.41670.16670.1667  plane waves:  21058
 k-point 98 :  0.50000.16670.1667  plane waves:  21030
 k-point 99 :  0.00000.25000.1667  plane waves:  21033
 k-point ** :  0.08330.25000.1667  plane waves:  21038
 k-point ** :  0.16670.25000.1667  plane waves:  21037
 k-point ** :  0.25000.25000.1667  plane waves:  21047
 k-point ** :  0.33330.25000.1667  plane waves:  21060
 k-point ** :  0.41670.25000.1667  plane waves:  21056
 k-point ** :  0.50000.25000.1667  plane waves:  21050
 k-point ** :  0.00000.33330.1667  plane waves:  21032
 k-point ** :  0.08330.33330.1667  plane waves:  21041
 k-point ** :  0.16670.33330.1667  plane waves:  21021
 k-point ** :  0.25000.33330.1667  plane waves:  21060
 k-point ** :  0.33330.33330.1667  plane waves:  21059
 k-point ** :  0.41670.33330.1667  plane waves:  21062
 k-point ** :  0.50000.33330.1667  plane waves:  21070
 k-point ** :  0.00000.41670.1667  plane waves:  21049
 k-point ** :  0.08330.41670.1667  plane waves:  21041
 k-point ** :  0.16670.41670.1667  plane waves:  21058
 k-point ** :  0.25000.41670.1667  plane waves:  21056
 k-point ** :  0.33330.41670.1667  plane waves:  21062
 k-point ** :  0.41670.41670.1667  plane waves:  21074
 k-point ** :  0.50000.41670.1667  plane waves:  21072
 k-point ** :  0.00000.50000.1667  plane waves:  21054
 k-point ** :  0.08330.50000.1667  plane waves:  21044
 k-point ** :  0.16670.50000.1667  plane waves:  21030
 k-point ** :  0.25000.50000.1667  plane waves:  21050
 k-point ** :  0.33330.50000.1667  plane waves:  21070
 k-point ** :  0.41670.50000.1667  plane waves:  21072
 k-point ** :  0.50000.50000.1667  plane waves:  21124
 k-point ** :  0.00000.25000.2500  plane waves:  21048
 k-point ** :  0.08330.25000.2500  plane waves:  21037
 k-point ** :  0.16670.25000.2500  plane waves:  21047
 k-point ** :  0.25000.25000.2500  plane waves:  21056
 k-point ** :  0.33330.25000.2500  plane waves:  21080
 k-point ** :  0.41670.25000.2500  plane waves:  21055
 k-point ** :  0.50000.25000.2500  plane waves:  21096
 k-point ** :  0.00000.33330.2500  plane waves:  21054
 k-point ** :  0.08330.33330.2500  plane waves:  21046
 k-point ** :  0.16670.33330.2500  plane waves:  21060
 k-point ** :  0.25000.33330.2500  plane waves:  21080
 k-point ** :  0.33330.33330.2500  plane waves:  21065
 k-point ** :  0.41670.33330.2500  plane waves:  21050
 k-point ** :  0.50000.33330.2500  plane waves:  21064
 k-point ** :  0.00000.41670.2500  plane waves:  21059
 k-point ** :  0.08330.41670.2500  plane waves:  21037
 k-point ** :  0.16670.41670.2500  plane waves:  21056
 k-point ** :  0.25000.41670.2500  plane waves:  21055
 k-point ** :  0.33330.41670.2500  plane waves:  21050
 k-point ** :  0.41670.41670.2500  plane waves:  21051
 k-point ** :  0.50000.41670.2500  plane waves:  21070
 k-point ** :  0.00000.50000.2500  plane waves:  21046
 k-point ** :  0.08330.50000.2500  plane waves:  21034
 k-point ** :  0.16670.50000.2500  plane waves:  21050
 k-point ** :  0.25000.50000.2500  plane waves:  21096
 k-point ** :  0.33330.50000.2500  plane waves:  21064
 k-point ** :  0.41670.50000.2500  plane waves:  21070
 k-point ** :  0.50000.50000.2500  plane waves:  21084
 k-point ** :  0.00000.33330.3333  plane waves:  21018
 k-point ** :  0.08330.33330.3333  plane waves:  21067
 k-point ** :  0.16670.33330.3333  plane waves:  21059
 k-point ** :  0.25000.33330.3333  plane waves:  21065
 k-point ** :  0.33330.33330.3333  plane waves:  21068
 k-point ** :  0.41670.33330.3333  plane waves:  21078
 k-point ** :  0.50000.33330.3333  plane waves:  21062
 k-point ** :  0.00000.41670.3333  plane waves:  21049
 k-point ** :  0.08330.41670.3333  plane waves:  21053
 k-point ** :  0.16670.41670.3333  plane waves:  21062
 k-point ** :  0.25000.41670.3333  plane waves:  21050
 k-point ** :  0.33330.41670.3333  plane waves:  21078
 k-point ** :  0.41670.41670.3333  plane waves:  21057
 k-point ** :  0.50000.41670.3333  plane waves:  21072
 k-point ** :  0.00000.50000.3333  plane waves:  21074
 k-point ** :  0.08330.50000.3333  plane waves:  21054
 k-point ** :  0.16670.50000.3333  plane waves:  21070
 k-point ** :  0.25000.50000.3333  plane waves:  21064
 k-point ** :  0.33330.50000.3333  plane waves:  21062
 k-point ** :  0.41670.50000.3333  plane waves:  21072
 k-point ** :  0.50000.50000.3333  plane waves:  21072
 k-point ** :  0.00000.41670.4167  plane waves:  21074
 k-point ** :  0.08330.41670.4167  plane waves:  21084
 k-point ** :  0.16670.41670.4167  plane waves:  21074
 k-point ** :  0.25000.41670.4167  plane waves:  21051
 k-point ** :  0.33330.41670.4167  plane waves:  21057
 k-point ** :  0.41670.41670.4167  plane waves:  21056
 k-point ** :  0.50000.41670.4167  plane waves:  21046
 k-point ** :  0.00000.50000.4167  plane waves:  21058
 k-point ** :  0.08330.50000.4167  plane waves:  21056
 k-point ** :  0.16670.50000.4167  plane waves:  21072
 k-point ** :  0.25000.50000.4167  plane waves:  21070
 k-point ** :  0.33330.50000.4167  plane waves:  21072
 k-point ** :  0.41670.50000.4167  plane waves:  21046
 k-point ** :  0.50000.50000.4167  plane waves:  21036
 k-point ** :  0.00000.50000.5000  plane waves:  21032
 k-point ** :  0.08330.50000.5000  plane waves:  21084
 k-point ** :  0.16670.50000.5000  plane waves:  21124
 k-point ** :  0.25000.50000.5000  plane waves:  21084
 k-point ** :  0.33330.50000.5000  plane waves:  21072
 k-point ** :  0.41670.50000.5000  plane waves:  21036
 k-point ** :  0.50000.50000.5000  plane waves:  21008

 maximum and minimum number of plane-waves per node :  21130 21008

 maximum number of plane-waves:  21130
 maximal index in each direction: 
   IXMAX= 17   IYMAX= 17   IZMAX= 17
   IXMIN=-17   IYMIN=-17   IZMIN=-17

 NGX is ok and might be reduce to  70
 NGY is ok and might be reduce to  70
 NGZ is ok and might be reduce to  70

 parallel 3dFFT wavefunction:
    minimum data exchange during FFTs selected (reduces bandwidth)
 parallel 3dFFT charge:
    minimum data exchange during FFTs selected (reduces bandwidth)

 For storing wavefunctions 4489.66 MBYTES are necessary
 For predicting wavefunctions   53.47 MBYTES are necessary
Broyden mixing: mesh for mixing (old mesh)
   NGX = 35   NGY = 35   NGZ = 35
  (NGX  =140   NGY  =140   NGZ  =140)
 gives a total of  42875 points
 initial charge density was supplied:
 charge density of overlapping atoms calculated
 number of electron   96.0000000 magnetization 
 keeping initial charge density in first step


--------------------------------------------------------------------------------------------------------


 Maximum index for augmentation-charges        57495 (set IRDMAX)


--------------------------------------------------------------------------------------------------------


 First call to EWALD:  gamma=   0.231
 Maximum number of real-space cells 3x 3x 3
 Maximum number of reciprocal cells 3x 3x 3

    FEWALD:  VPU time    0.01: CPU time    0.01


----------------------------------------- Iteration    1(   1)  ---------------------------------------


    POTLOK:  VPU time    2.25: CPU time    2.28
    SETDIJ:  VPU time    2.20: CPU time    2.22
    EDDAV :  VPU time 1631.89: CPU time 1649.25
    DOS   :  VPU time    0.00: CPU time   -0.00
    ------------------------------------------
      LOOP:  VPU time 1636.40: CPU time 1653.81

 eigenvalue-minimisations  : 26656
 total energy-change (2. order) : 0.2111870E+03  (-0.4403381E+04)
 number of electron   96.0000000 magnetization 
 augmentation part    96.0000000 magnetization 

 Free energy of the ion-electron system (eV)
  ---------------------------------------------------
  alpha Z        PSCENC =        -7.61990802
  Ewald energy   TEWEN  =     -2478.73017096
  -1/2 Hartree   DENC   =        -2.10401837
  -V(xc)+E(xc)   XCENC  =      -830.39433941
  PAW double counting   =      1137.73615723     -115.16745734
  entropy T*S    EENTRO =        -0.00038140
  eigenvalues    EBANDS =       794.23200792
  atomic energy  EATOM  =      1713.23509266
  ---------------------------------------------------
  free energy    TOTEN  =       211.18698231 eV

  energy without entropy =      211.18736371  energy(sigma->0) =      211.18717301


--------------------------------------------------------------------------------------------------------




----------------------------------------- Iteration    1(   2)  ---------------------------------------


    EDDAV :  VPU time 1830.39: CPU time 1837.90
    DOS   :  VPU time   -0.00: CPU time   -0.00
    ------------------------------------------
      LOOP:  VPU time 1830.45: CPU time 1837.96

 eigenvalue-minimisations  : 30948
 total energy-change (2. order) :-0.3092170E+03  (-0.2893100E+03)
 number of electron   96.0000000 magnetization 
 augmentation part    96.0000000 magnetization 

 Free energy of the ion-electron system (eV)
  ---------------------------------------------------
  alpha Z        PSCENC =        -7.61990802
  Ewald energy   TEWEN  =     -2478.73017096
  -1/2 Hartree   DENC   =        -2.10401837
  -V(xc)+E(xc)   XCENC  =      -830.39433941
  PAW double counting   =      1137.73615723     -115.16745734
  entropy T*S    EENTRO =        -0.00046814
  eigenvalues    EBANDS =       485.01514244
  atomic energy  EATOM  =      1713.23509266
  ---------------------------------------------------
  free energy    TOTEN  =       -98.02996992 eV

  energy without entropy =      -98.02950178  energy(sigma->0) =      -98.02973585


--------------------------------------------------------------------------------------------------------




----------------------------------------- Iteration    1(   3)  ---------------------------------------


    EDDAV :  VPU time 1831.84: CPU time 1838.09
    DOS   :  VPU time    0.00: CPU time   -0.00
    ------------------------------------------
      LOOP:  VPU time 1831.89: CPU time 1838.15

 eigenvalue-minimisations  : 32932
 total energy-change (2. order) :-0.1870089E+02  (-0.1761238E+02)
 number of electron   96.0000000 magnetization 
 augmentation part    96.0000000 magnetization 

 Free energy of the ion-electron system (eV)
  ---------------------------------------------------
  alpha Z        PSCENC =        -7.61990802
  Ewald energy   TEWEN  =     -2478.73017096
  -1/2 Hartree   DENC   =        -2.10401837
  -V(xc)+E(xc)   XCENC  =      -830.39433941
  PAW double counting   =      1137.73615723     -115.16745734
  entropy T*S    EENTRO =        -0.00053164
  eigenvalues    EBANDS =       466.31431834
  atomic energy  EATOM  =      1713.23509266
  ---------------------------------------------------
  free energy    TOTEN  =      -116.73085751 eV

  energy without entropy =     -116.73032587  energy(sigma->0) =     -116.73059169


--------------------------------------------------------------------------------------------------------




----------------------------------------- Iteration    1(   4)  ---------------------------------------


    EDDAV :  VPU time 1218.50: CPU time 1221.40
    DOS   :  VPU time    0.00: CPU time   -0.00
    ------------------------------------------
      LOOP:  VPU time 1218.55: CPU time 1221.45

 eigenvalue-minimisations  : 31348
 total energy-change (2. order) :-0.4421269E+00  (-0.4369064E+00)
 number of electron   96.0000000 magnetization 
 augmentation part    96.0000000 magnetization 

 Free energy of the ion-electron system (eV)
  ---------------------------------------------------
  alpha Z        PSCENC =        -7.61990802
  Ewald energy   TEWEN  =     -2478.73017096
  -1/2 Hartree   DENC   =        -2.10401837
  -V(xc)+E(xc)   XCENC  =      -830.39433941
  PAW double counting   =      1137.73615723     -115.16745734
  entropy T*S    EENTRO =        -0.00058596
  eigenvalues    EBANDS =       465.87224577
  atomic energy  EATOM  =      1713.23509266
  ---------------------------------------------------
  free energy    TOTEN  =      -117.17298440 eV

  energy without entropy =     -117.17239844  energy(sigma->0) =     -117.17269142


--------------------------------------------------------------------------------------------------------




----------------------------------------- Iteration    1(   5)  ---------------------------------------


    EDDAV :  VPU time  805.97: CPU time  806.15
    DOS   :  VPU time    0.00: CPU time   -0.00
    CHARGE:  VPU time   38.52: CPU time   38.53
    MIXING:  VPU time    0.03: CPU time    0.03
    ------------------------------------------
      LOOP:  VPU time  844.57: CPU time  844.77

 eigenvalue-minimisations  : 31440
 total energy-change (2. order) :-0.5463968E-02  (-0.5454058E-02)
 number of electron   96.0000000 magnetization 
 augmentation part    -1.0991657 magnetization 

 Broyden mixing:
  rms(total) = 0.56964E+00    rms(broyden)= 0.56964E+00
  rms(prec ) = 0.81446E+00
  weight for this iteration     100.00

 Free energy of the ion-electron system (eV)
  ---------------------------------------------------
  alpha Z        PSCENC =        -7.61990802
  Ewald energy   TEWEN  =     -2478.73017096
  -1/2 Hartree   DENC   =        -2.10401837
  -V(xc)+E(xc)   XCENC  =      -830.39433941
  PAW double counting   =      1137.73615723     -115.16745734
  entropy T*S    EENTRO =        -0.00058446
  eigenvalues    EBANDS =       465.86678030
  atomic energy  EATOM  =      1713.23509266
  ---------------------------------------------------
  free energy    TOTEN  =      -117.17844837 eV

  energy without entropy =     -117.17786391  energy(sigma->0) =     -117.17815614


--------------------------------------------------------------------------------------------------------




----------------------------------------- Iteration    1(   6)  ---------------------------------------


    POTLOK:  VPU time    1.15: CPU time    1.15
    SETDIJ:  VPU time    1.13: CPU time    1.13
    EDDAV :  VPU time  793.24: CPU time  793.44
    DOS   :  VPU time    0.00: CPU time   -0.00
    CHARGE:  VPU time   38.68: CPU time   38.69
    MIXING:  VPU time    0.03: CPU time    0.03
    ------------------------------------------
      LOOP:  VPU time  834.28: CPU time  834.49

 eigenvalue-minimisations  : 30684
 total energy-change (2. order) : 0.4988234E+00  (-0.3070887E-02)
 number of electron   96.0000000 magnetization 
 augmentation part    -1.1120548 magnetization 

 Broyden mixing:
  rms(total) = 0.35450E+00    rms(broyden)= 0.35450E+00
  rms(prec ) = 0.50906E+00
  weight for this iteration     100.00

 eigenvalues of (default mixing * dielectric matrix)
  average eigenvalue GAMMA=   2.6393
  2.6393

 Free energy of the ion-electron system (eV)
  ---------------------------------------------------
  alpha Z        PSCENC =        -7.61990802
  Ewald energy   TEWEN  =     -2478.73017096
  -1/2 Hartree   DENC   =        -2.48582722
  -V(xc)+E(xc)   XCENC  =      -828.84517991
  PAW double counting   =      1147.04803250     -124.98441155
  entropy T*S    EENTRO =        -0.00048059
  eigenvalues    EBANDS =       465.70322807
  atomic energy  EATOM  =      1713.23509266
  ---------------------------------------------------
  free energy    TOTEN  =      -116.67962501 eV

  energy without entropy =     -116.67914442  energy(sigma->0) =     -116.67938472


--------------------------------------------------------------------------------------------------------




----------------------------------------- Iteration    1(   7)  ---------------------------------------


    POTLOK:  VPU time    1.16: CPU time    1.16
    SETDIJ:  VPU time    1.14: CPU time    1.14
    EDDAV :  VPU time  769.81: CPU time  769.99
    DOS   :  VPU time    0.00: CPU time   -0.00
    CHARGE:  VPU time   38.65: CPU time   38.66
    MIXING:  VPU time    0.03: CPU time    0.03
    ------------------------------------------
      LOOP:  VPU time  810.84: CPU time  811.03

 eigenvalue-minimisations  : 29200
 total energy-change (2. order) : 0.3585794E+00  (-0.9645657E-02)
 number of electron   96.0000000 magnetization 
 augmentation part    -1.1406387 magnetization 

 Broyden mixing:
  rms(total) = 0.13525E-01    rms(broyden)= 0.13525E-01
  rms(prec ) = 0.15755E-01
  weight for this iteration     100.00

 eigenvalues of (default mixing * dielectric matrix)
  average eigenvalue GAMMA=   2.4389
  2.3957  2.4821

 Free energy of the ion-electron system (eV)
  ---------------------------------------------------
  alpha Z        PSCENC =        -7.61990802
  Ewald energy   TEWEN  =     -2478.73017096
  -1/2 Hartree   DENC   =        -4.56845809
  -V(xc)+E(xc)   XCENC  =      -825.83288471
  PAW double counting   =      1161.41049169     -140.26744077
  entropy T*S    EENTRO =        -0.00040805
  eigenvalues    EBANDS =       466.05264060
  atomic energy  EATOM  =      1713.23509266
  ---------------------------------------------------
  free energy    TOTEN  =      -116.32104566 eV

  energy without entropy =     -116.32063761  energy(sigma->0) =     -116.32084163


[...]
     64      11.9421      0.00000
     65      13.3120      0.00000
     66      13.3128      0.00000
     67      13.3131      0.00000
     68      13.3139      0.00000

 k-point 194 :       0.3333    0.5000    0.5000
  band No.  band energies     occupation 
      1      -0.9994      2.00000
      2      -0.9993      2.00000
      3      -0.9993      2.00000
      4      -0.9993      2.00000
      5      -0.1750      2.00000
      6      -0.1750      2.00000
      7      -0.1750      2.00000
      8      -0.1750      2.00000
      9       3.0610      2.00000
     10       3.0610      2.00000
     11       3.0610      2.00000
     12       3.0610      2.00000
     13       3.8507      2.00000
     14       3.8507      2.00000
     15       3.8508      2.00000
     16       3.8508      2.00000
     17       3.8508      2.00000
     18       3.8508      2.00000
     19       3.8508      2.00000
     20       3.8508      2.00000
     21       4.6302      2.00000
     22       4.6302      2.00000
     23       4.6304      2.00000
     24       4.6304      2.00000
     25       4.6304      2.00000
     26       4.6304      2.00000
     27       4.6306      2.00000
     28       4.6306      2.00000
     29       5.3956      2.00000
     30       5.3956      2.00000
     31       5.3956      2.00000
     32       5.3957      2.00000
     33       7.8287      2.00000
     34       7.8287      2.00000
     35       7.8294      2.00000
     36       7.8294      2.00000
     37       7.8294      2.00000
     38       7.8294      2.00000
     39       7.8301      2.00000
     40       7.8301      2.00000
     41       8.5603      2.00000
     42       8.5603      2.00000
     43       8.5604      2.00000
     44       8.5604      2.00000
     45       9.3557      2.00000
     46       9.3557      2.00000
     47       9.3557      2.00000
     48       9.3557      2.00000
     49      10.0644      0.00000
     50      10.0644      0.00000
     51      10.0651      0.00000
     52      10.0651      0.00000
     53      10.0651      0.00000
     54      10.0652      0.00000
     55      10.0659      0.00000
     56      10.0659      0.00000
     57      12.0185      0.00000
     58      12.0186      0.00000
     59      12.0186      0.00000
     60      12.0186      0.00000
     61      12.4334      0.00000
     62      12.4334      0.00000
     63      12.4334      0.00000
     64      12.4334      0.00000
     65      13.4585      0.00000
     66      13.4591      0.00000
     67      13.4596      0.00000
     68      13.4597      0.00000

 k-point 195 :       0.4167    0.5000    0.5000
  band No.  band energies     occupation 
      1      -0.8444      2.00000
      2      -0.8444      2.00000
      3      -0.8444      2.00000
      4      -0.8444      2.00000
      5      -0.4320      2.00000
      6      -0.4320      2.00000
      7      -0.4320      2.00000
      8      -0.4320      2.00000
      9       3.6054      2.00000
     10       3.6054      2.00000
     11       3.6054      2.00000
     12       3.6054      2.00000
     13       3.9982      2.00000
     14       3.9982      2.00000
     15       3.9982      2.00000
     16       3.9983      2.00000
     17       3.9983      2.00000
     18       3.9983      2.00000
     19       3.9983      2.00000
     20       3.9983      2.00000
     21       4.3888      2.00000
     22       4.3888      2.00000
     23       4.3889      2.00000
     24       4.3889      2.00000
     25       4.3889      2.00000
     26       4.3889      2.00000
     27       4.3891      2.00000
     28       4.3891      2.00000
     29       4.7759      2.00000
     30       4.7759      2.00000
     31       4.7759      2.00000
     32       4.7760      2.00000
     33       8.3484      2.00000
     34       8.3484      2.00000
     35       8.3491      2.00000
     36       8.3491      2.00000
     37       8.3491      2.00000
     38       8.3491      2.00000
     39       8.3497      2.00000
     40       8.3497      2.00000
     41       8.7145      2.00000
     42       8.7145      2.00000
     43       8.7145      2.00000
     44       8.7145      2.00000
     45       9.1111      2.00000
     46       9.1111      2.00000
     47       9.1111      2.00000
     48       9.1111      2.00000
     49       9.4706      2.00000
     50       9.4706      2.00000
     51       9.4712      2.00000
     52       9.4712      2.00000
     53       9.4713      2.00000
     54       9.4713      2.00000
     55       9.4719      2.00000
     56       9.4719      2.00000
     57      12.8881      0.00000
     58      12.8882      0.00000
     59      12.8882      0.00000
     60      12.8882      0.00000
     61      12.9535      0.00000
     62      12.9535      0.00000
     63      12.9535      0.00000
     64      12.9536      0.00000
     65      13.6167      0.00000
     66      13.6174      0.00000
     67      13.6175      0.00000
     68      13.6181      0.00000

 k-point 196 :       0.5000    0.5000    0.5000
  band No.  band energies     occupation 
      1      -0.6604      2.00000
      2      -0.6557      2.00000
      3      -0.6557      2.00000
      4      -0.6552      2.00000
      5      -0.6552      2.00000
      6      -0.6547      2.00000
      7      -0.6547      2.00000
      8      -0.6500      2.00000
      9       4.1672      2.00000
     10       4.1732      2.00000
     11       4.1732      2.00000
     12       4.1768      2.00000
     13       4.1771      2.00000
     14       4.1773      2.00000
     15       4.1777      2.00000
     16       4.1777      2.00000
     17       4.1778      2.00000
     18       4.1778      2.00000
     19       4.1778      2.00000
     20       4.1778      2.00000
     21       4.1778      2.00000
     22       4.1778      2.00000
     23       4.1779      2.00000
     24       4.1779      2.00000
     25       4.1779      2.00000
     26       4.1779      2.00000
     27       4.1784      2.00000
     28       4.1785      2.00000
     29       4.1789      2.00000
     30       4.1824      2.00000
     31       4.1824      2.00000
     32       4.1884      2.00000
     33       8.8909      2.00000
     34       8.8909      2.00000
     35       8.8935      2.00000
     36       8.8948      2.00000
     37       8.8967      2.00000
     38       8.8971      2.00000
     39       8.8973      2.00000
     40       8.8973      2.00000
     41       8.8975      2.00000
     42       8.8975      2.00000
     43       8.8975      2.00000
     44       8.8976      2.00000
     45       8.8976      2.00000
     46       8.8977      2.00000
     47       8.8977      2.00000
     48       8.8977      2.00000
     49       8.8979      2.00000
     50       8.8979      2.00000
     51       8.8980      2.00000
     52       8.8985      2.00000
     53       8.9004      2.00000
     54       8.9017      2.00000
     55       8.9043      2.00000
     56       8.9043      2.00000
     57      13.4989      0.00000
     58      13.4997      0.00000
     59      13.4997      0.00000
     60      13.4998      0.00000
     61      13.5018      0.00000
     62      13.5020      0.00000
     63      13.5020      0.00000
     64      13.5029      0.00000
     65      13.7937      0.00000
     66      13.7947      0.00000
     67      13.7953      0.00000
     68      13.7958      0.00000


--------------------------------------------------------------------------------------------------------


 soft charge-density along one line, spin component           1
         0         1         2         3         4         5         6         7         8         9
 total charge-density along one line
 
 pseudopotential strength for first ion, spin component:           1
  8.391  -0.009  -0.000  -0.000   0.000  -0.000  -0.000  -0.000
 -0.009   0.000  -0.000  -0.000  -0.000   0.000   0.000   0.000
 -0.000  -0.000   1.997  -0.000  -0.000  -0.032   0.000   0.000
 -0.000  -0.000  -0.000   1.997  -0.000   0.000  -0.032   0.000
  0.000  -0.000  -0.000  -0.000   1.997   0.000   0.000  -0.032
 -0.000   0.000  -0.032   0.000   0.000  -0.011   0.000   0.000
 -0.000   0.000   0.000  -0.032   0.000   0.000  -0.011   0.000
 -0.000   0.000   0.000   0.000  -0.032   0.000   0.000  -0.011
 total augmentation occupancy for first ion, spin component:           1
  1.291  -0.663  -0.000   0.000   0.004   0.000  -0.000  -0.002
 -0.663   0.680   0.000   0.000  -0.004   0.000  -0.000   0.002
 -0.000   0.000   0.865   0.002   0.006  -0.192  -0.001  -0.001
  0.000   0.000   0.002   0.869  -0.002  -0.001  -0.188  -0.001
  0.004  -0.004   0.006  -0.002   0.867  -0.001  -0.001  -0.190
  0.000   0.000  -0.192  -0.001  -0.001   0.049   0.000   0.000
 -0.000  -0.000  -0.001  -0.188  -0.001   0.000   0.047   0.000
 -0.002   0.002  -0.001  -0.001  -0.190   0.000   0.000   0.048


------------------------ aborting loop because EDIFF is reached ----------------------------------------




--------------------------------------------------------------------------------------------------------


    CHARGE:  VPU time   40.43: CPU time   40.44
    FORLOC:  VPU time    0.19: CPU time    0.19
    FORNL :  VPU time  150.25: CPU time  150.28
    STRESS:  VPU time  373.56: CPU time  373.63
    FORCOR:  VPU time    1.24: CPU time    1.24
    FORHAR:  VPU time    0.45: CPU time    0.45
    MIXING:  VPU time    0.04: CPU time    0.04


--------------------------------------------------------------------------------------------------------



  FREE ENERGIE OF THE ION-ELECTRON SYSTEM (eV)
  ---------------------------------------------------
  free  energy   TOTEN  =      -116.321290 eV

  energy  without entropy=     -116.320874  energy(sigma->0) =     -116.321082
 

  FORCE on cell =-STRESS in cart. coord.  units (eV/reduce length):
  Direction    X        Y        Z        XY       YZ       ZX
  --------------------------------------------------------------------------------------
  Alpha Z     -7.62     -7.62     -7.62
  Ewald     -826.25   -826.25   -826.25     -0.00      0.00      0.00
  Hartree      1.54      1.55      1.55     -0.00     -0.00     -0.00
  E(xc)     -288.87   -288.87   -288.87     -0.00      0.00      0.00
  Local       30.95     30.95     30.95     -0.00     -0.00      0.00
  n-local    635.88    634.73    637.04     -2.03     -0.59      0.85
  augment    -30.40    -30.40    -30.40      0.00      0.00      0.00
  Kinetic    533.21    525.90    540.52      6.65     -0.19     -7.03
  -------------------------------------------------------------------------------------
  Total       48.45     48.45     48.45      0.00      0.00      0.00
  in kB      171.99    171.99    171.99      0.00      0.00      0.00
  external pressure =      171.99 kB  Pullay stress =        0.00 kB


 VOLUME and BASIS-vectors are now :
 -----------------------------------------------------------------------------
  energy-cutoff  :      750.00
  volume of cell :      451.37
      direct lattice vectors                 reciprocal lattice vectors
     7.670882102  0.000000000  0.000000000     0.130363104  0.000000000  0.000000000
     0.000000000  7.670882102  0.000000000     0.000000000  0.130363104  0.000000000
     0.000000000  0.000000000  7.670882102     0.000000000  0.000000000  0.130363104

  length of vectors
     7.670882102  7.670882102  7.670882102     0.130363104  0.130363104  0.130363104


 FORCES acting on ions
    electron-ion (+dipol)            ewald-force                    non-local-force                 convergence-correction
 -----------------------------------------------------------------------------------------------
   0.454E+00 -.884E-13 -.144E-08   -.373E+00 -.333E-14 0.106E-14   -.164E+00 0.000E+00 -.271E-19   -.856E-06 0.309E-14 0.728E-14
   -.977E-01 0.525E-12 0.119E-08   0.984E-01 -.827E-14 -.842E-14   0.199E-02 0.271E-19 -.102E-19   -.997E-06 0.436E-14 0.773E-14
   0.317E-01 0.672E-13 0.827E-12   -.312E-01 -.102E-13 -.587E-14   -.824E-03 0.407E-19 0.000E+00   -.128E-05 -.299E-14 0.844E-14
   -.245E-01 -.235E-12 0.113E-11   0.245E-01 -.994E-14 -.942E-14   0.730E-03 0.271E-19 0.000E+00   0.376E-06 -.418E-14 0.976E-14
   0.317E-01 0.767E-13 -.470E-11   -.312E-01 -.505E-14 -.972E-14   -.824E-03 0.000E+00 0.000E+00   -.127E-05 0.175E-14 -.420E-14
   -.245E-01 -.190E-12 -.460E-11   0.245E-01 -.860E-14 -.283E-14   0.730E-03 0.678E-20 0.000E+00   0.371E-06 0.221E-14 -.464E-14
   0.137E-01 -.108E-12 -.288E-13   -.129E-01 -.916E-14 -.850E-14   -.302E-03 0.136E-19 -.847E-21   -.275E-05 -.166E-14 -.535E-14
   -.131E-01 -.374E-12 0.140E-12   0.120E-01 -.916E-14 0.216E-14   0.473E-03 -.474E-19 0.000E+00   0.257E-05 -.204E-14 -.664E-14
   0.565E-01 -.276E-03 0.276E-03   -.588E-01 0.241E-03 -.241E-03   0.781E-03 0.746E-04 -.746E-04   -.136E-05 0.177E-06 -.177E-06
   -.355E-01 0.861E-04 -.861E-04   0.331E-01 -.722E-04 0.722E-04   0.214E-02 -.171E-04 0.171E-04   0.332E-06 0.113E-06 -.113E-06
   0.565E-01 0.276E-03 0.276E-03   -.588E-01 -.241E-03 -.241E-03   0.781E-03 -.746E-04 -.746E-04   -.136E-05 -.177E-06 -.177E-06
   -.355E-01 -.861E-04 -.861E-04   0.331E-01 0.722E-04 0.722E-04   0.214E-02 0.171E-04 0.171E-04   0.332E-06 -.113E-06 -.113E-06
   0.565E-01 -.276E-03 -.276E-03   -.588E-01 0.241E-03 0.241E-03   0.781E-03 0.746E-04 0.746E-04   -.136E-05 0.177E-06 0.177E-06
   -.355E-01 0.861E-04 0.861E-04   0.331E-01 -.722E-04 -.722E-04   0.214E-02 -.171E-04 -.171E-04   0.332E-06 0.113E-06 0.113E-06
   0.565E-01 0.276E-03 -.276E-03   -.588E-01 -.241E-03 0.241E-03   0.781E-03 -.746E-04 0.746E-04   -.136E-05 -.177E-06 0.177E-06
   -.355E-01 -.861E-04 0.861E-04   0.331E-01 0.722E-04 -.722E-04   0.214E-02 0.171E-04 -.171E-04   0.332E-06 -.113E-06 0.113E-06
   -.557E-01 0.378E-14 0.987E-01   0.476E-01 0.883E-14 -.901E-01   0.188E-01 0.000E+00 -.201E-01   0.693E-06 0.243E-14 0.235E-06
   -.555E-01 -.678E-13 -.997E-01   0.473E-01 0.916E-14 0.909E-01   0.191E-01 0.000E+00 0.206E-01   0.740E-06 0.224E-14 -.655E-06
   -.143E-02 -.655E-14 0.782E-02   0.159E-02 0.339E-14 -.746E-02   -.120E-03 -.678E-20 -.396E-03   0.197E-06 -.237E-14 0.840E-06
   -.128E-02 -.518E-13 -.783E-02   0.143E-02 0.505E-14 0.747E-02   -.112E-03 0.000E+00 0.391E-03   0.371E-06 -.208E-14 -.983E-06
   -.557E-01 0.233E-14 -.987E-01   0.476E-01 0.883E-14 0.901E-01   0.188E-01 0.000E+00 0.201E-01   0.693E-06 0.323E-14 -.235E-06
   -.555E-01 -.235E-13 0.997E-01   0.473E-01 0.916E-14 -.909E-01   0.191E-01 0.000E+00 -.206E-01   0.740E-06 0.341E-14 0.655E-06
   -.143E-02 -.979E-14 -.782E-02   0.159E-02 0.339E-14 0.746E-02   -.120E-03 -.169E-20 0.396E-03   0.197E-06 -.318E-14 -.840E-06
   -.128E-02 0.972E-13 0.783E-02   0.143E-02 0.505E-14 -.747E-02   -.112E-03 0.000E+00 -.391E-03   0.371E-06 -.326E-14 0.983E-06
   -.557E-01 -.987E-01 0.700E-11   0.476E-01 0.901E-01 0.625E-14   0.188E-01 0.201E-01 0.678E-20   0.694E-06 -.239E-06 0.834E-14
   -.555E-01 0.997E-01 0.731E-11   0.473E-01 -.909E-01 0.303E-14   0.191E-01 -.206E-01 0.000E+00   0.741E-06 0.659E-06 0.926E-14
   -.557E-01 0.987E-01 0.699E-11   0.476E-01 -.901E-01 0.558E-14   0.188E-01 -.201E-01 0.000E+00   0.694E-06 0.239E-06 0.754E-14
   -.555E-01 -.997E-01 0.694E-11   0.473E-01 0.909E-01 0.480E-14   0.191E-01 0.206E-01 0.000E+00   0.741E-06 -.659E-06 0.808E-14
   -.143E-02 -.782E-02 -.206E-12   0.159E-02 0.746E-02 0.260E-14   -.120E-03 0.396E-03 0.000E+00   0.196E-06 -.844E-06 -.525E-14
   -.128E-02 0.783E-02 -.310E-12   0.143E-02 -.747E-02 0.582E-14   -.112E-03 -.391E-03 0.000E+00   0.370E-06 0.987E-06 -.614E-14
   -.143E-02 0.782E-02 -.203E-12   0.159E-02 -.746E-02 0.326E-14   -.120E-03 -.396E-03 0.000E+00   0.196E-06 0.844E-06 -.445E-14
   -.128E-02 -.783E-02 -.246E-12   0.143E-02 0.747E-02 0.111E-13   -.112E-03 0.391E-03 0.678E-20   0.370E-06 -.987E-06 -.498E-14
 -----------------------------------------------------------------------------------------------
   0.106E-05 0.523E-12 -.209E-09   -.557E-14 -.278E-14 -.704E-14   -.100E-05 0.358E-17 -.156E-17   0.396E-07 -.170E-14 -.202E-14
 
 
 POSITION                                       TOTAL-FORCE (eV/Angst)
 -----------------------------------------------------------------------------------
      1.92772      1.91772      0.00000        -0.083098      0.000000     -0.000000
      5.75316      1.91772      0.00000         0.002667     -0.000000      0.000000
      1.91772      5.75316      0.00000        -0.000271      0.000000     -0.000000
      5.75316      5.75316      0.00000         0.000748     -0.000000     -0.000000
      1.91772      1.91772      3.83544        -0.000271      0.000000      0.000000
      5.75316      1.91772      3.83544         0.000748      0.000000      0.000000
      1.91772      5.75316      3.83544         0.000584      0.000000     -0.000000
      5.75316      5.75316      3.83544        -0.000633     -0.000000     -0.000000
      1.91772      0.00000      1.91772        -0.001456      0.000039     -0.000039
      5.75316      0.00000      1.91772        -0.000283     -0.000003      0.000003
      1.91772      3.83544      1.91772        -0.001456     -0.000039     -0.000039
      5.75316      3.83544      1.91772        -0.000283      0.000003      0.000003
      1.91772      0.00000      5.75316        -0.001456      0.000039      0.000039
      5.75316      0.00000      5.75316        -0.000283     -0.000003     -0.000003
      1.91772      3.83544      5.75316        -0.001456     -0.000039      0.000039
      5.75316      3.83544      5.75316        -0.000283      0.000003     -0.000003
      0.00000      1.91772      1.91772         0.010652     -0.000000     -0.011481
      3.83544      1.91772      1.91772         0.010882      0.000000      0.011821
      0.00000      5.75316      1.91772         0.000041      0.000000     -0.000028
      3.83544      5.75316      1.91772         0.000046     -0.000000      0.000031
      0.00000      1.91772      5.75316         0.010652     -0.000000      0.011481
      3.83544      1.91772      5.75316         0.010882      0.000000     -0.011821
      0.00000      5.75316      5.75316         0.000041      0.000000      0.000028
      3.83544      5.75316      5.75316         0.000046     -0.000000     -0.000031
      0.00000      0.00000      0.00000         0.010652      0.011481      0.000000
      3.83544      0.00000      0.00000         0.010882     -0.011821     -0.000000
      0.00000      3.83544      0.00000         0.010652     -0.011481     -0.000000
      3.83544      3.83544      0.00000         0.010882      0.011821     -0.000000
      0.00000      0.00000      3.83544         0.000041      0.000028     -0.000000
      3.83544      0.00000      3.83544         0.000046     -0.000031      0.000000
      0.00000      3.83544      3.83544         0.000041     -0.000028      0.000000
      3.83544      3.83544      3.83544         0.000046      0.000031      0.000000
 -----------------------------------------------------------------------------------
    total drift:                                0.000000      0.000000     -0.000000


--------------------------------------------------------------------------------------------------------



 mean value of Nose-termostat <S>:     1.000 mean value of <T> :     0.000
 mean temperature <T/S>/<1/S>  :     0.000

     LOOP+:  VPU time15347.95: CPU time15393.42
  
  
 General timing and accounting informations for this job:
 ========================================================
  
                  Total CPU time used (sec):    15542.860
                            User time (sec):    14974.183
                          System time (sec):      568.678
                         Elapsed time (sec):    15589.381
  
                   Maximum memory used (kb):     6617748.
                   Average memory used (kb):           0.
  
                          Minor page faults:      1208570
                          Major page faults:            0
                 Voluntary context switches:          953
