32   
1    

1    
  0.0100000000000000   0.0000000000000000   0.0000000000000000
  -0.0660659600    0.0000000000    0.0000000000
   0.0029018800    0.0000000000   -0.0000000000
   0.0003209500    0.0000000000    0.0000000000
   0.0013601100    0.0000000000    0.0000000000
   0.0003209500    0.0000000000    0.0000000000
   0.0013601100    0.0000000000    0.0000000000
   0.0008816700    0.0000000000   -0.0000000000
   0.0002871400   -0.0000000000   -0.0000000000
  -0.0009415400    0.0000202400   -0.0000202400
   0.0001788200    0.0000059200   -0.0000059200
  -0.0009415400   -0.0000202400   -0.0000202400
   0.0001788200   -0.0000059200   -0.0000059200
  -0.0009415400    0.0000202400    0.0000202400
   0.0001788200    0.0000059200    0.0000059200
  -0.0009415400   -0.0000202400    0.0000202400
   0.0001788200   -0.0000059200    0.0000059200
   0.0081636500    0.0000000000   -0.0091565600
   0.0083775400   -0.0000000000    0.0094477900
  -0.0005542800   -0.0000000000    0.0001654100
  -0.0005659100   -0.0000000000   -0.0001670400
   0.0081636500    0.0000000000    0.0091565600
   0.0083775400    0.0000000000   -0.0094477900
  -0.0005542800   -0.0000000000   -0.0001654100
  -0.0005659100   -0.0000000000    0.0001670400
   0.0081636500    0.0091565600    0.0000000000
   0.0083775400   -0.0094477900    0.0000000000
   0.0081636500   -0.0091565600    0.0000000000
   0.0083775400    0.0094477900   -0.0000000000
  -0.0005542800   -0.0001654100    0.0000000000
  -0.0005659100    0.0001670400   -0.0000000000
  -0.0005542800    0.0001654100    0.0000000000
  -0.0005659100   -0.0001670400    0.0000000000
