mesh: [    48,    48,    48 ]
nqpoint: 2600   
reciprocal_lattice:
- [   0.25535041,   0.00000000,   0.00000000 ] # a*
- [   0.00000000,   0.25535041,   0.00000000 ] # b*
- [   0.00000000,   0.00000000,   0.25535041 ] # c*
natom:   4      
lattice:
- [     3.916187178582630,     0.000000000000000,     0.000000000000000 ] # a
- [     0.000000000000000,     3.916187178582630,     0.000000000000000 ] # b
- [     0.000000000000000,     0.000000000000000,     3.916187178582630 ] # c
points:
- symbol: Al # 1
  coordinates: [  0.500000000000000,  0.500000000000000,  0.000000000000000 ]
  mass: 26.981539
- symbol: Al # 2
  coordinates: [  0.500000000000000,  0.000000000000000,  0.500000000000000 ]
  mass: 26.981539
- symbol: Al # 3
  coordinates: [  0.000000000000000,  0.500000000000000,  0.500000000000000 ]
  mass: 26.981539
- symbol: Al # 4
  coordinates: [  0.000000000000000,  0.000000000000000,  0.000000000000000 ]
  mass: 26.981539
phonon:
- q-position: [    0.0104167,    0.0104167,    0.0104167 ]
  weight: 8    
  band:
  - # 1
    frequency:     0.1914333914
  - # 2
    frequency:     0.1914333914
  - # 3
    frequency:     0.3781009815
  - # 4
    frequency:     7.0947397365
  - # 5
    frequency:     7.0947397365
  - # 6
    frequency:     7.0947397365
  - # 7
    frequency:     7.0997300443
  - # 8
    frequency:     7.0997300443
  - # 9
    frequency:     7.0997300443
  - # 10
    frequency:    10.5696364760
  - # 11
    frequency:    10.5696364760
  - # 12
    frequency:    10.5696364760

- q-position: [    0.0312500,    0.0104167,    0.0104167 ]
  weight: 24   
  band:
  - # 1
    frequency:     0.3763816583
  - # 2
    frequency:     0.3920445747
  - # 3
    frequency:     0.7045486206
  - # 4
    frequency:     7.0878062503
  - # 5
    frequency:     7.0927799433
  - # 6
    frequency:     7.0986870057
  - # 7
    frequency:     7.0986870057
  - # 8
    frequency:     7.1161890534
  - # 9
    frequency:     7.1161890534
  - # 10
    frequency:    10.5631828216
  - # 11
    frequency:    10.5671483476
  - # 12
    frequency:    10.5671483476

- q-position: [    0.0520833,    0.0104167,    0.0104167 ]
  weight: 24   
  band:
  - # 1
    frequency:     0.6097915444
  - # 2
    frequency:     0.6222395574
  - # 3
    frequency:     1.0861397908
  - # 4
    frequency:     7.0739401676
  - # 5
    frequency:     7.0788808143
  - # 6
    frequency:     7.1092584815
  - # 7
    frequency:     7.1092584815
  - # 8
    frequency:     7.1460953579
  - # 9
    frequency:     7.1460953579
  - # 10
    frequency:    10.5502289951
  - # 11
    frequency:    10.5621332684
  - # 12
    frequency:    10.5621332684

- q-position: [    0.0729167,    0.0104167,    0.0104167 ]
  weight: 24   
  band:
  - # 1
    frequency:     0.8483108259
  - # 2
    frequency:     0.8578217930
  - # 3
    frequency:     1.4811154389
  - # 4
    frequency:     7.0531433352
  - # 5
    frequency:     7.0580348637
  - # 6
    frequency:     7.1255207609
  - # 7
    frequency:     7.1255207609
  - # 8
    frequency:     7.1897243619
  - # 9
    frequency:     7.1897243619
  - # 10
    frequency:    10.5306827527
  - # 11
    frequency:    10.5545144303
  - # 12
    frequency:    10.5545144303

- q-position: [    0.0937500,    0.0104167,    0.0104167 ]
  weight: 24   
  band:
  - # 1
    frequency:     1.0870154186
  - # 2
    frequency:     1.0944781225
  - # 3
    frequency:     1.8793038677
  - # 4
    frequency:     7.0254186907
  - # 5
    frequency:     7.0302455532
  - # 6
    frequency:     7.1469266969
  - # 7
    frequency:     7.1469266969
  - # 8
    frequency:     7.2466642064
  - # 9
    frequency:     7.2466642064
  - # 10
    frequency:    10.5044076885
  - # 11
    frequency:    10.5441786976
  - # 12
    frequency:    10.5441786976

- q-position: [    0.1145833,    0.0104167,    0.0104167 ]
  weight: 24   
  band:
  - # 1
    frequency:     1.3247228395
  - # 2
    frequency:     1.3307201473
  - # 3
    frequency:     2.2767545420
  - # 4
    frequency:     6.9907704613
  - # 5
    frequency:     6.9955177801
  - # 6
    frequency:     7.1729877226
  - # 7
    frequency:     7.1729877226
  - # 8
    frequency:     7.3161746657
  - # 9
    frequency:     7.3161746657
  - # 10
    frequency:    10.4712255404
  - # 11
    frequency:    10.5309790493
  - # 12
    frequency:    10.5309790493

- q-position: [    0.1354167,    0.0104167,    0.0104167 ]
  weight: 24   
  band:
  - # 1
    frequency:     1.5608756521
  - # 2
    frequency:     1.5657733410
  - # 3
    frequency:     2.6713551708
  - # 4
    frequency:     6.9492044244
  - # 5
    frequency:     6.9538581156
  - # 6
    frequency:     7.2031796852
  - # 7
    frequency:     7.2031796852
  - # 8
    frequency:     7.3973193567
  - # 9
    frequency:     7.3973193567
  - # 10
    frequency:    10.4309191857
  - # 11
    frequency:    10.5147377589
  - # 12
    frequency:    10.5147377589

- q-position: [    0.1562500,    0.0104167,    0.0104167 ]
  weight: 24   
  band:
  - # 1
    frequency:     1.7950768472
  - # 2
    frequency:     1.7991127499
  - # 3
    frequency:     3.0616907954
  - # 4
    frequency:     6.9007282271
  - # 5
    frequency:     6.9052750991
  - # 6
    frequency:     7.2369243114
  - # 7
    frequency:     7.2369243114
  - # 8
    frequency:     7.4890267120
  - # 9
    frequency:     7.4890267120
  - # 10
    frequency:    10.3832362657
  - # 11
    frequency:    10.4952502479
  - # 12
    frequency:    10.4952502479

- q-position: [    0.1770833,    0.0104167,    0.0104167 ]
  weight: 24   
  band:
  - # 1
    frequency:     2.0269861222
  - # 2
    frequency:     2.0303216025
  - # 3
    frequency:     3.4466666690
  - # 4
    frequency:     6.8453517606
  - # 5
    frequency:     6.8497795848
  - # 6
    frequency:     7.2735923925
  - # 7
    frequency:     7.2735923925
  - # 8
    frequency:     7.5901312295
  - # 9
    frequency:     7.5901312295
  - # 10
    frequency:    10.3278933656
  - # 11
    frequency:    10.4722895400
  - # 12
    frequency:    10.4722895400

- q-position: [    0.1979167,    0.0104167,    0.0104167 ]
  weight: 24   
  band:
  - # 1
    frequency:     2.2562898277
  - # 2
    frequency:     2.2590386334
  - # 3
    frequency:     3.8253616827
  - # 4
    frequency:     6.7830875839
  - # 5
    frequency:     6.7873851373
  - # 6
    frequency:     7.3125139084
  - # 7
    frequency:     7.3125139084
  - # 8
    frequency:     7.6994076393
  - # 9
    frequency:     7.6994076393
  - # 10
    frequency:    10.2645806679
  - # 11
    frequency:    10.4456112354
  - # 12
    frequency:    10.4456112354

- q-position: [    0.2187500,    0.0104167,    0.0104167 ]
  weight: 24   
  band:
  - # 1
    frequency:     2.4826906830
  - # 2
    frequency:     2.4849356370
  - # 3
    frequency:     4.1969646876
  - # 4
    frequency:     6.7139513927
  - # 5
    frequency:     6.7181084729
  - # 6
    frequency:     7.3529905108
  - # 7
    frequency:     7.3529905108
  - # 8
    frequency:     7.8156008202
  - # 9
    frequency:     7.8156008202
  - # 10
    frequency:    10.1929669911
  - # 11
    frequency:    10.4149589194
  - # 12
    frequency:    10.4149589194

- q-position: [    0.2395833,    0.0104167,    0.0104167 ]
  weight: 24   
  band:
  - # 1
    frequency:     2.7059039220
  - # 2
    frequency:     2.7077069840
  - # 3
    frequency:     4.5607447296
  - # 4
    frequency:     6.6379625262
  - # 5
    frequency:     6.6419699404
  - # 6
    frequency:     7.3943086337
  - # 7
    frequency:     7.3943086337
  - # 8
    frequency:     7.9374519236
  - # 9
    frequency:     7.9374519236
  - # 10
    frequency:    10.1127051234
  - # 11
    frequency:    10.3800699175
  - # 12
    frequency:    10.3800699175

- q-position: [    0.2604167,    0.0104167,    0.0104167 ]
  weight: 24   
  band:
  - # 1
    frequency:     2.9256558426
  - # 2
    frequency:     2.9270644211
  - # 3
    frequency:     4.9160365671
  - # 4
    frequency:     6.5551445061
  - # 5
    frequency:     6.5589940359
  - # 6
    frequency:     7.4357524154
  - # 7
    frequency:     7.4357524154
  - # 8
    frequency:     8.0637206968
  - # 9
    frequency:     8.0637206968
  - # 10
    frequency:    10.0234373604
  - # 11
    frequency:    10.3406813108
  - # 12
    frequency:    10.3406813108

- q-position: [    0.2812500,    0.0104167,    0.0104167 ]
  weight: 24   
  band:
  - # 1
    frequency:     3.1416833431
  - # 2
    frequency:     3.1427343997
  - # 3
    frequency:     5.2622335864
  - # 4
    frequency:     6.4655256013
  - # 5
    frequency:     6.4692099465
  - # 6
    frequency:     7.4766159886
  - # 7
    frequency:     7.4766159886
  - # 8
    frequency:     8.1932040355
  - # 9
    frequency:     8.1932040355
  - # 10
    frequency:     9.9248011575
  - # 11
    frequency:    10.2965361263
  - # 12
    frequency:    10.2965361263

- q-position: [    0.3020833,    0.0104167,    0.0104167 ]
  weight: 24   
  band:
  - # 1
    frequency:     3.3537338843
  - # 2
    frequency:     3.3544566896
  - # 3
    frequency:     5.5987844776
  - # 4
    frequency:     6.3691394105
  - # 5
    frequency:     6.3726521151
  - # 6
    frequency:     7.5162148756
  - # 7
    frequency:     7.5162148756
  - # 8
    frequency:     8.3247509375
  - # 9
    frequency:     8.3247509375
  - # 10
    frequency:     9.8164348107
  - # 11
    frequency:    10.2473896270
  - # 12
    frequency:    10.2473896270

- q-position: [    0.3229167,    0.0104167,    0.0104167 ]
  weight: 24   
  band:
  - # 1
    frequency:     3.5615656336
  - # 2
    frequency:     3.5619836710
  - # 3
    frequency:     5.9251918642
  - # 4
    frequency:     6.2660254566
  - # 5
    frequency:     6.2693608193
  - # 6
    frequency:     7.5538963408
  - # 7
    frequency:     7.5538963408
  - # 8
    frequency:     8.4572741490
  - # 9
    frequency:     8.4572741490
  - # 10
    frequency:     9.6979830880
  - # 11
    frequency:    10.1930156280
  - # 12
    frequency:    10.1930156280

- q-position: [    0.3437500,    0.0104167,    0.0104167 ]
  weight: 24   
  band:
  - # 1
    frequency:     3.7649476738
  - # 2
    frequency:     3.7650799888
  - # 3
    frequency:     6.1562297843
  - # 4
    frequency:     6.1593827581
  - # 5
    frequency:     6.2410119349
  - # 6
    frequency:     7.5890486287
  - # 7
    frequency:     7.5890486287
  - # 8
    frequency:     8.5897588739
  - # 9
    frequency:     8.5897588739
  - # 10
    frequency:     9.5691027359
  - # 11
    frequency:    10.1332127771
  - # 12
    frequency:    10.1332127771

- q-position: [    0.3645833,    0.0104167,    0.0104167 ]
  weight: 24   
  band:
  - # 1
    frequency:     3.9635223980
  - # 2
    frequency:     3.9636602189
  - # 3
    frequency:     6.0398055552
  - # 4
    frequency:     6.0427716369
  - # 5
    frequency:     6.5458545442
  - # 6
    frequency:     7.6211090715
  - # 7
    frequency:     7.6211090715
  - # 8
    frequency:     8.7212689432
  - # 9
    frequency:     8.7212689432
  - # 10
    frequency:     9.4294677975
  - # 11
    frequency:    10.0678107498
  - # 12
    frequency:    10.0678107498

- q-position: [    0.3854167,    0.0104167,    0.0104167 ]
  weight: 24   
  band:
  - # 1
    frequency:     4.1570997007
  - # 2
    frequency:     4.1574948029
  - # 3
    frequency:     5.9168136320
  - # 4
    frequency:     5.9195887457
  - # 5
    frequency:     6.8393834714
  - # 6
    frequency:     7.6495710863
  - # 7
    frequency:     7.6495710863
  - # 8
    frequency:     8.8509508279
  - # 9
    frequency:     8.8509508279
  - # 10
    frequency:     9.2787746844
  - # 11
    frequency:     9.9966763191
  - # 12
    frequency:     9.9966763191

- q-position: [    0.4062500,    0.0104167,    0.0104167 ]
  weight: 24   
  band:
  - # 1
    frequency:     4.3456127176
  - # 2
    frequency:     4.3462544272
  - # 3
    frequency:     5.7873231463
  - # 4
    frequency:     5.7899035210
  - # 5
    frequency:     7.1213166427
  - # 6
    frequency:     7.6739901080
  - # 7
    frequency:     7.6739901080
  - # 8
    frequency:     8.9780358294
  - # 9
    frequency:     8.9780358294
  - # 10
    frequency:     9.1167469538
  - # 11
    frequency:     9.9197192937
  - # 12
    frequency:     9.9197192937

- q-position: [    0.4270833,    0.0104167,    0.0104167 ]
  weight: 24   
  band:
  - # 1
    frequency:     4.5288742566
  - # 2
    frequency:     4.5297536528
  - # 3
    frequency:     5.6514120416
  - # 4
    frequency:     5.6537940852
  - # 5
    frequency:     7.3914261940
  - # 6
    frequency:     7.6939885167
  - # 7
    frequency:     7.6939885167
  - # 8
    frequency:     8.9431397494
  - # 9
    frequency:     9.1018406639
  - # 10
    frequency:     9.1018406639
  - # 11
    frequency:     9.8368983930
  - # 12
    frequency:     9.8368983930

- q-position: [    0.4479167,    0.0104167,    0.0104167 ]
  weight: 24   
  band:
  - # 1
    frequency:     4.7067090584
  - # 2
    frequency:     4.7078186333
  - # 3
    frequency:     5.5091675877
  - # 4
    frequency:     5.5113477568
  - # 5
    frequency:     7.6495382902
  - # 6
    frequency:     7.7092596228
  - # 7
    frequency:     7.7092596228
  - # 8
    frequency:     8.7577438765
  - # 9
    frequency:     9.2217662757
  - # 10
    frequency:     9.2217662757
  - # 11
    frequency:     9.7482274675
  - # 12
    frequency:     9.7482274675

- q-position: [    0.4687500,    0.0104167,    0.0104167 ]
  weight: 24   
  band:
  - # 1
    frequency:     4.8789537038
  - # 2
    frequency:     4.8802870863
  - # 3
    frequency:     5.3606868587
  - # 4
    frequency:     5.3626615245
  - # 5
    frequency:     7.7195707708
  - # 6
    frequency:     7.7195707708
  - # 7
    frequency:     7.8955326418
  - # 8
    frequency:     8.5603894840
  - # 9
    frequency:     9.3372923365
  - # 10
    frequency:     9.3372923365
  - # 11
    frequency:     9.6537848029
  - # 12
    frequency:     9.6537848029

- q-position: [    0.4895833,    0.0104167,    0.0104167 ]
  weight: 24   
  band:
  - # 1
    frequency:     5.0454564758
  - # 2
    frequency:     5.0470082006
  - # 3
    frequency:     5.2060771710
  - # 4
    frequency:     5.2078424796
  - # 5
    frequency:     7.7247656157
  - # 6
    frequency:     7.7247656157
  - # 7
    frequency:     8.1293416767
  - # 8
    frequency:     8.3509493381
  - # 9
    frequency:     9.4479207359
  - # 10
    frequency:     9.4479207359
  - # 11
    frequency:     9.5537723554
  - # 12
    frequency:     9.5537723554

- q-position: [    0.0312500,    0.0312500,    0.0104167 ]
  weight: 24   
  band:
  - # 1
    frequency:     0.4600453662
  - # 2
    frequency:     0.5170915741
  - # 3
    frequency:     0.9415782680
  - # 4
    frequency:     7.0917126274
  - # 5
    frequency:     7.0917126274
  - # 6
    frequency:     7.0951998201
  - # 7
    frequency:     7.1092015915
  - # 8
    frequency:     7.1092015915
  - # 9
    frequency:     7.1398564728
  - # 10
    frequency:    10.5607494965
  - # 11
    frequency:    10.5607494965
  - # 12
    frequency:    10.5646335514

- q-position: [    0.0520833,    0.0312500,    0.0104167 ]
  weight: 48   
  band:
  - # 1
    frequency:     0.6403978551
  - # 2
    frequency:     0.7075942419
  - # 3
    frequency:     1.2643124602
  - # 4
    frequency:     7.0777649673
  - # 5
    frequency:     7.0952287404
  - # 6
    frequency:     7.0994429340
  - # 7
    frequency:     7.1021654526
  - # 8
    frequency:     7.1390713336
  - # 9
    frequency:     7.1756447255
  - # 10
    frequency:    10.5479049499
  - # 11
    frequency:    10.5558441975
  - # 12
    frequency:    10.5595654822

- q-position: [    0.0729167,    0.0312500,    0.0104167 ]
  weight: 48   
  band:
  - # 1
    frequency:     0.8593732996
  - # 2
    frequency:     0.9216095594
  - # 3
    frequency:     1.6207962923
  - # 4
    frequency:     7.0568462954
  - # 5
    frequency:     7.0742746674
  - # 6
    frequency:     7.1110578413
  - # 7
    frequency:     7.1182369153
  - # 8
    frequency:     7.1826615181
  - # 9
    frequency:     7.2232653118
  - # 10
    frequency:    10.5285218309
  - # 11
    frequency:    10.5483904617
  - # 12
    frequency:    10.5518680177

- q-position: [    0.0937500,    0.0312500,    0.0104167 ]
  weight: 48   
  band:
  - # 1
    frequency:     1.0901320147
  - # 2
    frequency:     1.1451893322
  - # 3
    frequency:     1.9926548429
  - # 4
    frequency:     7.0289602056
  - # 5
    frequency:     7.0463456800
  - # 6
    frequency:     7.1291763154
  - # 7
    frequency:     7.1393861998
  - # 8
    frequency:     7.2395576396
  - # 9
    frequency:     7.2826430905
  - # 10
    frequency:    10.5024628353
  - # 11
    frequency:    10.5382756642
  - # 12
    frequency:    10.5414290346

- q-position: [    0.1145833,    0.0312500,    0.0104167 ]
  weight: 48   
  band:
  - # 1
    frequency:     1.3241611491
  - # 2
    frequency:     1.3727826443
  - # 3
    frequency:     2.3712327442
  - # 4
    frequency:     6.9941118395
  - # 5
    frequency:     7.0114502983
  - # 6
    frequency:     7.1529471857
  - # 7
    frequency:     7.1651297510
  - # 8
    frequency:     7.3090191586
  - # 9
    frequency:     7.3534198188
  - # 10
    frequency:    10.4695485930
  - # 11
    frequency:    10.5253534537
  - # 12
    frequency:    10.5281028343

- q-position: [    0.1354167,    0.0312500,    0.0104167 ]
  weight: 48   
  band:
  - # 1
    frequency:     1.5583964109
  - # 2
    frequency:     1.6017451123
  - # 3
    frequency:     2.7517311756
  - # 4
    frequency:     6.9523081766
  - # 5
    frequency:     6.9695993592
  - # 6
    frequency:     7.1815625484
  - # 7
    frequency:     7.1949480062
  - # 8
    frequency:     7.3901106520
  - # 9
    frequency:     7.4349649481
  - # 10
    frequency:    10.4295607347
  - # 11
    frequency:    10.5094469217
  - # 12
    frequency:    10.5117132993

- q-position: [    0.1562500,    0.0312500,    0.0104167 ]
  weight: 48   
  band:
  - # 1
    frequency:     1.7914845197
  - # 2
    frequency:     1.8305956919
  - # 3
    frequency:     3.1311520543
  - # 4
    frequency:     6.9035583853
  - # 5
    frequency:     6.9208061587
  - # 6
    frequency:     7.2142415834
  - # 7
    frequency:     7.2282673222
  - # 8
    frequency:     7.4817621421
  - # 9
    frequency:     7.5264331797
  - # 10
    frequency:    10.3822455969
  - # 11
    frequency:    10.4903524443
  - # 12
    frequency:    10.4920577198

- q-position: [    0.1770833,    0.0312500,    0.0104167 ]
  weight: 48   
  band:
  - # 1
    frequency:     2.0226817743
  - # 2
    frequency:     2.0583840770
  - # 3
    frequency:     3.5074290089
  - # 4
    frequency:     6.8478742280
  - # 5
    frequency:     6.8650866380
  - # 6
    frequency:     7.2502146118
  - # 7
    frequency:     7.2644632851
  - # 8
    frequency:     7.5828100365
  - # 9
    frequency:     7.6268238400
  - # 10
    frequency:    10.3273184869
  - # 11
    frequency:    10.4678441225
  - # 12
    frequency:    10.4689112180

- q-position: [    0.1979167,    0.0312500,    0.0104167 ]
  weight: 48   
  band:
  - # 1
    frequency:     2.2514899877
  - # 2
    frequency:     2.2844297638
  - # 3
    frequency:     3.8790199638
  - # 4
    frequency:     6.7852705100
  - # 5
    frequency:     6.8024596194
  - # 6
    frequency:     7.2887145992
  - # 7
    frequency:     7.3028708172
  - # 8
    frequency:     7.6920311251
  - # 9
    frequency:     7.7350327881
  - # 10
    frequency:    10.2644684235
  - # 11
    frequency:    10.4416787410
  - # 12
    frequency:    10.4420316906

- q-position: [    0.2187500,    0.0312500,    0.0104167 ]
  weight: 48   
  band:
  - # 1
    frequency:     2.4775220704
  - # 2
    frequency:     2.5082025326
  - # 3
    frequency:     4.2447018973
  - # 4
    frequency:     6.7157655622
  - # 5
    frequency:     6.7329470996
  - # 6
    frequency:     7.3289756865
  - # 7
    frequency:     7.3427965959
  - # 8
    frequency:     7.8081723881
  - # 9
    frequency:     7.8498955756
  - # 10
    frequency:    10.1933632603
  - # 11
    frequency:    10.4111651848
  - # 12
    frequency:    10.4116011603

- q-position: [    0.2395833,    0.0312500,    0.0104167 ]
  weight: 48   
  band:
  - # 1
    frequency:     2.7004475781
  - # 2
    frequency:     2.7292629430
  - # 3
    frequency:     4.6034615028
  - # 4
    frequency:     6.6393817486
  - # 5
    frequency:     6.6565746013
  - # 6
    frequency:     7.3702366907
  - # 7
    frequency:     7.3835320845
  - # 8
    frequency:     7.9299770383
  - # 9
    frequency:     7.9702226452
  - # 10
    frequency:    10.1136550999
  - # 11
    frequency:    10.3760516221
  - # 12
    frequency:    10.3773500553

- q-position: [    0.2604167,    0.0312500,    0.0104167 ]
  weight: 48   
  band:
  - # 1
    frequency:     2.9199689449
  - # 2
    frequency:     2.9472306778
  - # 3
    frequency:     4.9544342730
  - # 4
    frequency:     6.5561459881
  - # 5
    frequency:     6.5733715881
  - # 6
    frequency:     7.4117476178
  - # 7
    frequency:     7.4243663795
  - # 8
    frequency:     8.0562067772
  - # 9
    frequency:     8.0948277010
  - # 10
    frequency:    10.0249859054
  - # 11
    frequency:    10.3364307851
  - # 12
    frequency:    10.3386639137

- q-position: [    0.2812500,    0.0312500,    0.0104167 ]
  weight: 48   
  band:
  - # 1
    frequency:     3.1358104967
  - # 2
    frequency:     3.1617667818
  - # 3
    frequency:     5.2968693307
  - # 4
    frequency:     6.4660902819
  - # 5
    frequency:     6.4833719379
  - # 6
    frequency:     7.4527777097
  - # 7
    frequency:     7.4645984354
  - # 8
    frequency:     8.1856602884
  - # 9
    frequency:     8.2225502866
  - # 10
    frequency:     9.9269932185
  - # 11
    frequency:    10.2920484868
  - # 12
    frequency:    10.2952872144

- q-position: [    0.3020833,    0.0312500,    0.0104167 ]
  weight: 48   
  band:
  - # 1
    frequency:     3.3477131570
  - # 2
    frequency:     3.3725632619
  - # 3
    frequency:     5.6301085427
  - # 4
    frequency:     6.3692522397
  - # 5
    frequency:     6.3866144734
  - # 6
    frequency:     7.4926240239
  - # 7
    frequency:     7.5035484074
  - # 8
    frequency:     8.3171881306
  - # 9
    frequency:     8.3522734518
  - # 10
    frequency:     9.8193158997
  - # 11
    frequency:    10.2426628498
  - # 12
    frequency:    10.2469767098

- q-position: [    0.3229167,    0.0312500,    0.0104167 ]
  weight: 48   
  band:
  - # 1
    frequency:     3.5554318293
  - # 2
    frequency:     3.5793367774
  - # 3
    frequency:     5.9535738348
  - # 4
    frequency:     6.2656756002
  - # 5
    frequency:     6.2831435393
  - # 6
    frequency:     7.5306198945
  - # 7
    frequency:     7.5405679663
  - # 8
    frequency:     8.4497043158
  - # 9
    frequency:     8.4829372626
  - # 10
    frequency:     9.7015998118
  - # 11
    frequency:    10.1880506325
  - # 12
    frequency:    10.1935077487

- q-position: [    0.3437500,    0.0312500,    0.0104167 ]
  weight: 48   
  band:
  - # 1
    frequency:     3.7587340905
  - # 2
    frequency:     3.7818246941
  - # 3
    frequency:     6.1554107417
  - # 4
    frequency:     6.1730096170
  - # 5
    frequency:     6.2667593329
  - # 6
    frequency:     7.5661428826
  - # 7
    frequency:     7.5750495119
  - # 8
    frequency:     8.5821949236
  - # 9
    frequency:     8.6135488007
  - # 10
    frequency:     9.5735033751
  - # 11
    frequency:    10.1280135592
  - # 12
    frequency:    10.1346805933

- q-position: [    0.3645833,    0.0312500,    0.0104167 ]
  weight: 48   
  band:
  - # 1
    frequency:     3.9573995393
  - # 2
    frequency:     3.9797825456
  - # 3
    frequency:     6.0385151808
  - # 4
    frequency:     6.0562699651
  - # 5
    frequency:     6.5692263840
  - # 6
    frequency:     7.5986219903
  - # 7
    frequency:     7.6064342697
  - # 8
    frequency:     8.7137241149
  - # 9
    frequency:     8.7431891923
  - # 10
    frequency:     9.4347029324
  - # 11
    frequency:    10.0623846416
  - # 12
    frequency:    10.0703267095

- q-position: [    0.3854167,    0.0312500,    0.0104167 ]
  weight: 48   
  band:
  - # 1
    frequency:     4.1512194737
  - # 2
    frequency:     4.1729823501
  - # 3
    frequency:     5.9150540581
  - # 4
    frequency:     5.9329892705
  - # 5
    frequency:     6.8606002958
  - # 6
    frequency:     7.6275440261
  - # 7
    frequency:     7.6342192882
  - # 8
    frequency:     8.8434378451
  - # 9
    frequency:     8.8710180668
  - # 10
    frequency:     9.2848978690
  - # 11
    frequency:     9.9910345550
  - # 12
    frequency:    10.0003150787

- q-position: [    0.4062500,    0.0312500,    0.0104167 ]
  weight: 48   
  band:
  - # 1
    frequency:     4.3399967248
  - # 2
    frequency:     4.3612114528
  - # 3
    frequency:     5.7851006090
  - # 4
    frequency:     5.8032403002
  - # 5
    frequency:     7.1405680728
  - # 6
    frequency:     7.6524590816
  - # 7
    frequency:     7.6579633835
  - # 8
    frequency:     8.9705653842
  - # 9
    frequency:     8.9962755715
  - # 10
    frequency:     9.1238154447
  - # 11
    frequency:     9.9138783384
  - # 12
    frequency:     9.9245587436

- q-position: [    0.4270833,    0.0312500,    0.0104167 ]
  weight: 48   
  band:
  - # 1
    frequency:     4.5235455544
  - # 2
    frequency:     4.5442716918
  - # 3
    frequency:     5.6487366165
  - # 4
    frequency:     5.6671045404
  - # 5
    frequency:     7.4088766948
  - # 6
    frequency:     7.6729851219
  - # 7
    frequency:     7.6772920873
  - # 8
    frequency:     8.9512153003
  - # 9
    frequency:     9.0944181315
  - # 10
    frequency:     9.1182812740
  - # 11
    frequency:     9.8308834173
  - # 12
    frequency:     9.8430223863

- q-position: [    0.4479167,    0.0312500,    0.0104167 ]
  weight: 48   
  band:
  - # 1
    frequency:     4.7016915649
  - # 2
    frequency:     4.7219787586
  - # 3
    frequency:     5.5060528441
  - # 4
    frequency:     5.5246728151
  - # 5
    frequency:     7.6653316344
  - # 6
    frequency:     7.6888117159
  - # 7
    frequency:     7.6919016624
  - # 8
    frequency:     8.7668936143
  - # 9
    frequency:     9.2143825973
  - # 10
    frequency:     9.2364258004
  - # 11
    frequency:     9.7420833769
  - # 12
    frequency:     9.7557343077

- q-position: [    0.4687500,    0.0312500,    0.0104167 ]
  weight: 48   
  band:
  - # 1
    frequency:     4.8742715928
  - # 2
    frequency:     4.8941616718
  - # 3
    frequency:     5.3571494448
  - # 4
    frequency:     5.3760458756
  - # 5
    frequency:     7.6997029449
  - # 6
    frequency:     7.7015622454
  - # 7
    frequency:     7.9097954137
  - # 8
    frequency:     8.5706868906
  - # 9
    frequency:     9.3298872794
  - # 10
    frequency:     9.3501259633
  - # 11
    frequency:     9.6476269464
  - # 12
    frequency:     9.6628232724

- q-position: [    0.4895833,    0.0312500,    0.0104167 ]
  weight: 48   
  band:
  - # 1
    frequency:     5.0411335692
  - # 2
    frequency:     5.0606623085
  - # 3
    frequency:     5.2021363406
  - # 4
    frequency:     5.2213349583
  - # 5
    frequency:     7.7054995240
  - # 6
    frequency:     7.7061201713
  - # 7
    frequency:     8.1421860608
  - # 8
    frequency:     8.3624753692
  - # 9
    frequency:     9.4400482326
  - # 10
    frequency:     9.4581655445
  - # 11
    frequency:     9.5484401963
  - # 12
    frequency:     9.5648755714

- q-position: [    0.0520833,    0.0520833,    0.0104167 ]
  weight: 24   
  band:
  - # 1
    frequency:     0.7470260578
  - # 2
    frequency:     0.8568088005
  - # 3
    frequency:     1.5343631012
  - # 4
    frequency:     7.0879815769
  - # 5
    frequency:     7.0879815769
  - # 6
    frequency:     7.0957911529
  - # 7
    frequency:     7.1250267011
  - # 8
    frequency:     7.1250267011
  - # 9
    frequency:     7.2184460900
  - # 10
    frequency:    10.5432185198
  - # 11
    frequency:    10.5432185198
  - # 12
    frequency:    10.5543921195

- q-position: [    0.0729167,    0.0520833,    0.0104167 ]
  weight: 48   
  band:
  - # 1
    frequency:     0.9169297484
  - # 2
    frequency:     1.0406904952
  - # 3
    frequency:     1.8489226473
  - # 4
    frequency:     7.0667113336
  - # 5
    frequency:     7.0998829440
  - # 6
    frequency:     7.1036738683
  - # 7
    frequency:     7.1039682145
  - # 8
    frequency:     7.1685404679
  - # 9
    frequency:     7.2722940451
  - # 10
    frequency:    10.5241620184
  - # 11
    frequency:    10.5360938547
  - # 12
    frequency:    10.5465384181

- q-position: [    0.0937500,    0.0520833,    0.0104167 ]
  weight: 48   
  band:
  - # 1
    frequency:     1.1200803436
  - # 2
    frequency:     1.2431729908
  - # 3
    frequency:     2.1874944492
  - # 4
    frequency:     7.0383617174
  - # 5
    frequency:     7.0759058246
  - # 6
    frequency:     7.1113168088
  - # 7
    frequency:     7.1243137015
  - # 8
    frequency:     7.2253502817
  - # 9
    frequency:     7.3366772045
  - # 10
    frequency:    10.4985354846
  - # 11
    frequency:    10.5264192345
  - # 12
    frequency:    10.5358942647

- q-position: [    0.1145833,    0.0520833,    0.0104167 ]
  weight: 48   
  band:
  - # 1
    frequency:     1.3385902925
  - # 2
    frequency:     1.4556849533
  - # 3
    frequency:     2.5394520303
  - # 4
    frequency:     7.0029425401
  - # 5
    frequency:     7.0408525019
  - # 6
    frequency:     7.1293725521
  - # 7
    frequency:     7.1494275414
  - # 8
    frequency:     7.2947150585
  - # 9
    frequency:     7.4111441799
  - # 10
    frequency:    10.4661571985
  - # 11
    frequency:    10.5140494867
  - # 12
    frequency:    10.5223165856

- q-position: [    0.1354167,    0.0520833,    0.0104167 ]
  weight: 48   
  band:
  - # 1
    frequency:     1.5637325340
  - # 2