# Thermal properties / unit cell (natom)

unit:
  temperature:   K
  free_energy:   kJ/mol
  entropy:       J/K/mol
  heat_capacity: J/K/mol

natom:     4
num_modes: 1327104
num_integrated_modes: 1327104

zero_point_energy:      17.7832694
high_T_entropy:        352.4388022

thermal_properties:
- temperature:         0.0000000
  free_energy:        17.7832694
  entropy:             0.0000000
  heat_capacity:       0.0000000
  energy:             17.7832694

- temperature:        10.0000000
  free_energy:        17.7832357
  entropy:             0.0136613
  heat_capacity:       0.0417357
  energy:             17.7833724

- temperature:        20.0000000
  free_energy:        17.7826986
  entropy:             0.1183497
  heat_capacity:       0.3819619
  energy:             17.7850656

- temperature:        30.0000000
  free_energy:        17.7800869
  entropy:             0.4612724
  heat_capacity:       1.6062955
  energy:             17.7939251

- temperature:        40.0000000
  free_energy:        17.7719220
  entropy:             1.2676546
  heat_capacity:       4.4356807
  energy:             17.8226282

- temperature:        50.0000000
  free_energy:        17.7525716
  entropy:             2.7176549
  heat_capacity:       8.9897476
  energy:             17.8884544

- temperature:        60.0000000
  free_energy:        17.7152589
  entropy:             4.8570376
  heat_capacity:      14.8174583
  energy:             18.0066812

- temperature:        70.0000000
  free_energy:        17.6533319
  entropy:             7.6244874
  heat_capacity:      21.3216908
  energy:             18.1870461

- temperature:        80.0000000
  free_energy:        17.5610488
  entropy:            10.9077481
  heat_capacity:      27.9974389
  energy:             18.4336687

- temperature:        90.0000000
  free_energy:        17.4338700
  entropy:            14.5834616
  heat_capacity:      34.4939532
  energy:             18.7463816

- temperature:       100.0000000
  free_energy:        17.2684527
  entropy:            18.5378455
  heat_capacity:      40.6008186
  energy:             19.1222373

- temperature:       110.0000000
  free_energy:        17.0625066
  entropy:            22.6748459
  heat_capacity:      46.2124856
  energy:             19.5567396

- temperature:       120.0000000
  free_energy:        16.8146054
  entropy:            26.9175656
  heat_capacity:      51.2934182
  energy:             20.0447133

- temperature:       130.0000000
  free_energy:        16.5240025
  entropy:            31.2065986
  heat_capacity:      55.8508193
  energy:             20.5808603

- temperature:       140.0000000
  free_energy:        16.1904693
  entropy:            35.4972643
  heat_capacity:      59.9155698
  energy:             21.1600863

- temperature:       150.0000000
  free_energy:        15.8141623
  entropy:            39.7567169
  heat_capacity:      63.5298631
  energy:             21.7776698

- temperature:       160.0000000
  free_energy:        15.3955184
  entropy:            43.9613553
  heat_capacity:      66.7396556
  energy:             22.4293353

- temperature:       170.0000000
  free_energy:        14.9351735
  entropy:            48.0946629
  heat_capacity:      69.5903349
  energy:             23.1112662

- temperature:       180.0000000
  free_energy:        14.4339006
  entropy:            52.1454810
  heat_capacity:      72.1244329
  energy:             23.8200872

- temperature:       190.0000000
  free_energy:        13.8925630
  entropy:            56.1066623
  heat_capacity:      74.3805838
  energy:             24.5528289

- temperature:       200.0000000
  free_energy:        13.3120803
  entropy:            59.9740363
  heat_capacity:      76.3932078
  energy:             25.3068875

- temperature:       210.0000000
  free_energy:        12.6934018
  entropy:            63.7456233
  heat_capacity:      78.1925972
  energy:             26.0799827

- temperature:       220.0000000
  free_energy:        12.0374885
  entropy:            67.4210399
  heat_capacity:      79.8052070
  energy:             26.8701173

- temperature:       230.0000000
  free_energy:        11.3452991
  entropy:            71.0010527
  heat_capacity:      81.2540334
  energy:             27.6755412

- temperature:       240.0000000
  free_energy:        10.6177802
  entropy:            74.4872438
  heat_capacity:      82.5590151
  energy:             28.4947188

- temperature:       250.0000000
  free_energy:         9.8558598
  entropy:            77.8817601
  heat_capacity:      83.7374213
  energy:             29.3262999

- temperature:       260.0000000
  free_energy:         9.0604422
  entropy:            81.1871273
  heat_capacity:      84.8042080
  energy:             30.1690953

- temperature:       270.0000000
  free_energy:         8.2324052
  entropy:            84.4061115
  heat_capacity:      85.7723374
  energy:             31.0220553

- temperature:       280.0000000
  free_energy:         7.3725983
  entropy:            87.5416164
  heat_capacity:      86.6530574
  energy:             31.8842509

- temperature:       290.0000000
  free_energy:         6.4818413
  entropy:            90.5966088
  heat_capacity:      87.4561448
  energy:             32.7548579

- temperature:       300.0000000
  free_energy:         5.5609246
  entropy:            93.5740631
  heat_capacity:      88.1901132
  energy:             33.6331435

- temperature:       310.0000000
  free_energy:         4.6106087
  entropy:            96.4769223
  heat_capacity:      88.8623921
  energy:             34.5184546

- temperature:       320.0000000
  free_energy:         3.6316251
  entropy:            99.3080697
  heat_capacity:      89.4794791
  energy:             35.4102075

- temperature:       330.0000000
  free_energy:         2.6246770
  entropy:           102.0703100
  heat_capacity:      90.0470701
  energy:             36.3078793

- temperature:       340.0000000
  free_energy:         1.5904396
  entropy:           104.7663560
  heat_capacity:      90.5701697
  energy:             37.2110006

- temperature:       350.0000000
  free_energy:         0.5295618
  entropy:           107.3988210
  heat_capacity:      91.0531854
  energy:             38.1191491

- temperature:       360.0000000
  free_energy:        -0.5573333
  entropy:           109.9702139
  heat_capacity:      91.5000080
  energy:             39.0319437

- temperature:       370.0000000
  free_energy:        -1.6696470
  entropy:           112.4829381
  heat_capacity:      91.9140805
  energy:             39.9490401

- temperature:       380.0000000
  free_energy:        -2.8068042
  entropy:           114.9392909
  heat_capacity:      92.2984562
  energy:             40.8701264

- temperature:       390.0000000
  free_energy:        -3.9682522
  entropy:           117.3414655
  heat_capacity:      92.6558491
  energy:             41.7949194

- temperature:       400.0000000
  free_energy:        -5.1534599
  entropy:           119.6915534
  heat_capacity:      92.9886771
  energy:             42.7231615

- temperature:       410.0000000
  free_energy:        -6.3619163
  entropy:           121.9915476
  heat_capacity:      93.2990989
  energy:             43.6546182

- temperature:       420.0000000
  free_energy:        -7.5931302
  entropy:           124.2433463
  heat_capacity:      93.5890457
  energy:             44.5890753

- temperature:       430.0000000
  free_energy:        -8.8466286
  entropy:           126.4487565
  heat_capacity:      93.8602492
  energy:             45.5263367

- temperature:       440.0000000
  free_energy:       -10.1219564
  entropy:           128.6094986
  heat_capacity:      94.1142648
  energy:             46.4662230

- temperature:       450.0000000
  free_energy:       -11.4186751
  entropy:           130.7272101
  heat_capacity:      94.3524926
  energy:             47.4085694

- temperature:       460.0000000
  free_energy:       -12.7363624
  entropy:           132.8034496
  heat_capacity:      94.5761953
  energy:             48.3532244

- temperature:       470.0000000
  free_energy:       -14.0746109
  entropy:           134.8397011
  heat_capacity:      94.7865138
  energy:             49.3000487

- temperature:       480.0000000
  free_energy:       -15.4330278
  entropy:           136.8373778
  heat_capacity:      94.9844806
  energy:             50.2489135

- temperature:       490.0000000
  free_energy:       -16.8112343
  entropy:           138.7978257
  heat_capacity:      95.1710321
  energy:             51.1997003

- temperature:       500.0000000
  free_energy:       -18.2088645
  entropy:           140.7223270
  heat_capacity:      95.3470186
  energy:             52.1522990

- temperature:       510.0000000
  free_energy:       -19.6255651
  entropy:           142.6121041
  heat_capacity:      95.5132137
  energy:             53.1066080

- temperature:       520.0000000
  free_energy:       -21.0609947
  entropy:           144.4683225
  heat_capacity:      95.6703224
  energy:             54.0625330

- temperature:       530.0000000
  free_energy:       -22.5148234
  entropy:           146.2920938
  heat_capacity:      95.8189881
  energy:             55.0199863

- temperature:       540.0000000
  free_energy:       -23.9867320
  entropy:           148.0844788
  heat_capacity:      95.9597987
  energy:             55.9788866

- temperature:       550.0000000
  free_energy:       -25.4764118
  entropy:           149.8464903
  heat_capacity:      96.0932926
  energy:             56.9391579

- temperature:       560.0000000
  free_energy:       -26.9835638
  entropy:           151.5790955
  heat_capacity:      96.2199631
  energy:             57.9007297

- temperature:       570.0000000
  free_energy:       -28.5078987
  entropy:           153.2832187
  heat_capacity:      96.3402632
  energy:             58.8635359

- temperature:       580.0000000
  free_energy:       -30.0491362
  entropy:           154.9597436
  heat_capacity:      96.4546092
  energy:             59.8275151

- temperature:       590.0000000
  free_energy:       -31.6070044
  entropy:           156.6095152
  heat_capacity:      96.5633841
  energy:             60.7926095

- temperature:       600.0000000
  free_energy:       -33.1812400
  entropy:           158.2333423
  heat_capacity:      96.6669412
  energy:             61.7587654

- temperature:       610.0000000
  free_energy:       -34.7715874
  entropy:           159.8319991
  heat_capacity:      96.7656061
  energy:             62.7259321

- temperature:       620.0000000
  free_energy:       -36.3777986
  entropy:           161.4062270
  heat_capacity:      96.8596799
  energy:             63.6940622

- temperature:       630.0000000
  free_energy:       -37.9996329
  entropy:           162.9567367
  heat_capacity:      96.9494409
  energy:             64.6631113

- temperature:       640.0000000
  free_energy:       -39.6368565
  entropy:           164.4842094
  heat_capacity:      97.0351468
  energy:             65.6330375

- temperature:       650.0000000
  free_energy:       -41.2892424
  entropy:           165.9892984
  heat_capacity:      97.1170365
  energy:             66.6038015

- temperature:       660.0000000
  free_energy:       -42.9565700
  entropy:           167.4726306
  heat_capacity:      97.1953318
  energy:             67.5753663

- temperature:       670.0000000
  free_energy:       -44.6386245
  entropy:           168.9348080
  heat_capacity:      97.2702385
  energy:             68.5476968

- temperature:       680.0000000
  free_energy:       -46.3351975
  entropy:           170.3764087
  heat_capacity:      97.3419482
  energy:             69.5207604

- temperature:       690.0000000
  free_energy:       -48.0460860
  entropy:           171.7979880
  heat_capacity:      97.4106390
  energy:             70.4945257

- temperature:       700.0000000
  free_energy:       -49.7710923
  entropy:           173.2000800
  heat_capacity:      97.4764772
  energy:             71.4689636

- temperature:       710.0000000
  free_energy:       -51.5100243
  entropy:           174.5831981
  heat_capacity:      97.5396174
  energy:             72.4440463

- temperature:       720.0000000
  free_energy:       -53.2626947
  entropy:           175.9478364
  heat_capacity:      97.6002044
  energy:             73.4197475

- temperature:       730.0000000
  free_energy:       -55.0289210
  entropy:           177.2944704
  heat_capacity:      97.6583732
  energy:             74.3960423

- temperature:       740.0000000
  free_energy:       -56.8085256
  entropy:           178.6235580
  heat_capacity:      97.7142500
  energy:             75.3729073

- temperature:       750.0000000
  free_energy:       -58.6013352
  entropy:           179.9355404
  heat_capacity:      97.7679531
  energy:             76.3503201

- temperature:       760.0000000
  free_energy:       -60.4071808
  entropy:           181.2308425
  heat_capacity:      97.8195933
  energy:             77.3282595

- temperature:       770.0000000
  free_energy:       -62.2258978
  entropy:           182.5098743
  heat_capacity:      97.8692742
  energy:             78.3067054

- temperature:       780.0000000
  free_energy:       -64.0573254
  entropy:           183.7730310
  heat_capacity:      97.9170933
  energy:             79.2856388

- temperature:       790.0000000
  free_energy:       -65.9013068
  entropy:           185.0206939
  heat_capacity:      97.9631421
  energy:             80.2650414

- temperature:       800.0000000
  free_energy:       -67.7576889
  entropy:           186.2532311
  heat_capacity:      98.0075065
  energy:             81.2448960

- temperature:       810.0000000
  free_energy:       -69.6263222
  entropy:           187.4709980
  heat_capacity:      98.0502671
  energy:             82.2251862

- temperature:       820.0000000
  free_energy:       -71.5070607
  entropy:           188.6743378
  heat_capacity:      98.0915002
  energy:             83.2058962

- temperature:       830.0000000
  free_energy:       -73.3997619
  entropy:           189.8635822
  heat_capacity:      98.1312772
  energy:             84.1870113

- temperature:       840.0000000
  free_energy:       -75.3042865
  entropy:           191.0390519
  heat_capacity:      98.1696657
  energy:             85.1685172

- temperature:       850.0000000
  free_energy:       -77.2204981
  entropy:           192.2010568
  heat_capacity:      98.2067293
  energy:             86.1504002

- temperature:       860.0000000
  free_energy:       -79.1482637
  entropy:           193.3498968
  heat_capacity:      98.2425279
  energy:             87.1326475

- temperature:       870.0000000
  free_energy:       -81.0874531
  entropy:           194.4858619
  heat_capacity:      98.2771184
  energy:             88.1152467

- temperature:       880.0000000
  free_energy:       -83.0379390
  entropy:           195.6092330
  heat_capacity:      98.3105541
  energy:             89.0981861

- temperature:       890.0000000
  free_energy:       -84.9995967
  entropy:           196.7202819
  heat_capacity:      98.3428859
  energy:             90.0814542

- temperature:       900.0000000
  free_energy:       -86.9723044
  entropy:           197.8192719
  heat_capacity:      98.3741615
  energy:             91.0650402

- temperature:       910.0000000
  free_energy:       -88.9559428
  entropy:           198.9064580
  heat_capacity:      98.4044264
  energy:             92.0489340

- temperature:       920.0000000
  free_energy:       -90.9503951
  entropy:           199.9820876
  heat_capacity:      98.4337233
  energy:             93.0331256

- temperature:       930.0000000
  free_energy:       -92.9555468
  entropy:           201.0464002
  heat_capacity:      98.4620932
  energy:             94.0176054

- temperature:       940.0000000
  free_energy:       -94.9712861
  entropy:           202.0996283
  heat_capacity:      98.4895744
  energy:             95.0023645

- temperature:       950.0000000
  free_energy:       -96.9975032
  entropy:           203.1419971
  heat_capacity:      98.5162037
  energy:             95.9873940

- temperature:       960.0000000
  free_energy:       -99.0340906
  entropy:           204.1737254
  heat_capacity:      98.5420158
  energy:             96.9726858

- temperature:       970.0000000
  free_energy:      -101.0809429
  entropy:           205.1950255
  heat_capacity:      98.5670436
  energy:             97.9582317

- temperature:       980.0000000
  free_energy:      -103.1379570
  entropy:           206.2061033
  heat_capacity:      98.5913186
  energy:             98.9440242

- temperature:       990.0000000
  free_energy:      -105.2050316
  entropy:           207.2071589
  heat_capacity:      98.6148705
  energy:             99.9300557

- temperature:      1000.0000000
  free_energy:      -107.2820674
  entropy:           208.1983867
  heat_capacity:      98.6377277
  energy:            100.9163193

- temperature:      1010.0000000
  free_energy:      -109.3689672
  entropy:           209.1799755
  heat_capacity:      98.6599171
  energy:            101.9028080

- temperature:      1020.0000000
  free_energy:      -111.4656354
  entropy:           210.1521087
  heat_capacity:      98.6814645
  energy:            102.8895155

- temperature:      1030.0000000
  free_energy:      -113.5719785
  entropy:           211.1149648
  heat_capacity:      98.7023942
  energy:            103.8764353

- temperature:      1040.0000000
  free_energy:      -115.6879044
  entropy:           212.0687171
  heat_capacity:      98.7227297
  energy:            104.8635614

- temperature:      1050.0000000
  free_energy:      -117.8133230
  entropy:           213.0135343
  heat_capacity:      98.7424932
  energy:            105.8508879

- temperature:      1060.0000000
  free_energy:      -119.9481458
  entropy:           213.9495804
  heat_capacity:      98.7617058
  energy:            106.8384094

- temperature:      1070.0000000
  free_energy:      -122.0922859
  entropy:           214.8770152
  heat_capacity:      98.7803878
  energy:            107.8261203

- temperature:      1080.0000000
  free_energy:      -124.2456580
  entropy:           215.7959939
  heat_capacity:      98.7985584
  energy:            108.8140154

- temperature:      1090.0000000
  free_energy:      -126.4081781
  entropy:           216.7066678
  heat_capacity:      98.8162362
  energy:            109.8020898

- temperature:      1100.0000000
  free_energy:      -128.5797641
  entropy:           217.6091843
  heat_capacity:      98.8334388
  energy:            110.7903386

- temperature:      1110.0000000
  free_energy:      -130.7603351
  entropy:           218.5036866
  heat_capacity:      98.8501830
  energy:            111.7787571

- temperature:      1120.0000000
  free_energy:      -132.9498116
  entropy:           219.3903146
  heat_capacity:      98.8664848
  energy:            112.7673408

- temperature:      1130.0000000
  free_energy:      -135.1481156
  entropy:           220.2692044
  heat_capacity:      98.8823598
  energy:            113.7560853

- temperature:      1140.0000000
  free_energy:      -137.3551703
  entropy:           221.1404885
  heat_capacity:      98.8978226
  energy:            114.7449866

- temperature:      1150.0000000
  free_energy:      -139.5709004
  entropy:           222.0042964
  heat_capacity:      98.9128874
  energy:            115.7340405

- temperature:      1160.0000000
  free_energy:      -141.7952318
  entropy:           222.8607542
  heat_capacity:      98.9275677
  energy:            116.7232431

- temperature:      1170.0000000
  free_energy:      -144.0280914
  entropy:           223.7099846
  heat_capacity:      98.9418764
  energy:            117.7125906

- temperature:      1180.0000000
  free_energy:      -146.2694078
  entropy:           224.5521078
  heat_capacity:      98.9558260
  energy:            118.7020794

- temperature:      1190.0000000
  free_energy:      -148.5191103
  entropy:           225.3872405
  heat_capacity:      98.9694282
  energy:            119.6917059

- temperature:      1200.0000000
  free_energy:      -150.7771297
  entropy:           226.2154971
  heat_capacity:      98.9826946
  energy:            120.6814668

- temperature:      1210.0000000
  free_energy:      -153.0433977
  entropy:           227.0369888
  heat_capacity:      98.9956361
  energy:            121.6713588

- temperature:      1220.0000000
  free_energy:      -155.3178472
  entropy:           227.8518244
  heat_capacity:      99.0082632
  energy:            122.6613785

- temperature:      1230.0000000
  free_energy:      -157.6004123
  entropy:           228.6601100
  heat_capacity:      99.0205860
  energy:            123.6515230

- temperature:      1240.0000000
  free_energy:      -159.8910280
  entropy:           229.4619494
  heat_capacity:      99.0326141
  energy:            124.6417892

- temperature:      1250.0000000
  free_energy:      -162.1896302
  entropy:           230.2574436
  heat_capacity:      99.0443569
  energy:            125.6321743

- temperature:      1260.0000000
  free_energy:      -164.4961560
  entropy:           231.0466917
  heat_capacity:      99.0558233
  energy:            126.6226755

- temperature:      1270.0000000
  free_energy:      -166.8105435
  entropy:           231.8297901
  heat_capacity:      99.0670218
  energy:            127.6132899

- temperature:      1280.0000000
  free_energy:      -169.1327316
  entropy:           232.6068333
  heat_capacity:      99.0779608
  energy:            128.6040150

- temperature:      1290.0000000
  free_energy:      -171.4626603
  entropy:           233.3779136
  heat_capacity:      99.0886482
  energy:            129.5948483

- temperature:      1300.0000000
  free_energy:      -173.8002703
  entropy:           234.1431212
  heat_capacity:      99.0990916
  energy:            130.5857872

- temperature:      1310.0000000
  free_energy:      -176.1455034
  entropy:           234.9025441
  heat_capacity:      99.1092984
  energy:            131.5768293

- temperature:      1320.0000000
  free_energy:      -178.4983022
  entropy:           235.6562686
  heat_capacity:      99.1192757
  energy:            132.5679724

- temperature:      1330.0000000
  free_energy:      -180.8586101
  entropy:           236.4043791
  heat_capacity:      99.1290303
  energy:            133.5592141

- temperature:      1340.0000000
  free_energy:      -183.2263714
  entropy:           237.1469579
  heat_capacity:      99.1385688
  energy:            134.5505523

- temperature:      1350.0000000
  free_energy:      -185.6015311
  entropy:           237.8840858
  heat_capacity:      99.1478974
  energy:            135.5419848

- temperature:      1360.0000000
  free_energy:      -187.9840352
  entropy:           238.6158417
  heat_capacity:      99.1570223
  energy:            136.5335095

- temperature:      1370.0000000
  free_energy:      -190.3738303
  entropy:           239.3423028
  heat_capacity:      99.1659494
  energy:            137.5251246

- temperature:      1380.0000000
  free_energy:      -192.7708638
  entropy:           240.0635447
  heat_capacity:      99.1746844
  energy:            138.5168279

- temperature:      1390.0000000
  free_energy:      -195.1750840
  entropy:           240.7796415
  heat_capacity:      99.1832326
  energy:            139.5086176

- temperature:      1400.0000000
  free_energy:      -197.5864398
  entropy:           241.4906655
  heat_capacity:      99.1915994
  energy:            140.5004919

- temperature:      1410.0000000
  free_energy:      -200.0048807
  entropy:           242.1966877
  heat_capacity:      99.1997899
  energy:            141.4924490

- temperature:      1420.0000000
  free_energy:      -202.4303571
  entropy:           242.8977776
  heat_capacity:      99.2078090
  energy:            142.4844872

- temperature:      1430.0000000
  free_energy:      -204.8628200
  entropy:           243.5940033
  heat_capacity:      99.2156614
  energy:            143.4766047

- temperature:      1440.0000000
  free_energy:      -207.3022211
  entropy:           244.2854312
  heat_capacity:      99.2233517
  energy:            144.4687999

- temperature:      1450.0000000
  free_energy:      -209.7485128
  entropy:           244.9721269
  heat_capacity:      99.2308843
  energy:            145.4610712

- temperature:      1460.0000000
  free_energy:      -212.2016481
  entropy:           245.6541542
  heat_capacity:      99.2382636
  energy:            146.4534170

- temperature:      1470.0000000
  free_energy:      -214.6615806
  entropy:           246.3315759
  heat_capacity:      99.2454935
  energy:            147.4458359

- temperature:      1480.0000000
  free_energy:      -217.1282645
  entropy:           247.0044533
  heat_capacity:      99.2525783
  energy:            148.4383264

- temperature:      1490.0000000
  free_energy:      -219.6016547
  entropy:           247.6728468
  heat_capacity:      99.2595216
  energy:            149.4308870

- temperature:      1500.0000000
  free_energy:      -222.0817067
  entropy:           248.3368154
  heat_capacity:      99.2663272
  energy:            150.4235164

- temperature:      1510.0000000
  free_energy:      -224.5683764
  entropy:           248.9964169
  heat_capacity:      99.2729987
  energy:            151.4162131

- temperature:      1520.0000000
  free_energy:      -227.0616206
  entropy:           249.6517083
  heat_capacity:      99.2795397
  energy:            152.4089759

- temperature:      1530.0000000
  free_energy:      -229.5613964
  entropy:           250.3027451
  heat_capacity:      99.2859535
  energy:            153.4018035

- temperature:      1540.0000000
  free_energy:      -232.0676615
  entropy:           250.9495819
  heat_capacity:      99.2922434
  energy:            154.3946946

- temperature:      1550.0000000
  free_energy:      -234.5803742
  entropy:           251.5922724
  heat_capacity:      99.2984125
  energy:            155.3876480

- temperature:      1560.0000000
  free_energy:      -237.0994933
  entropy:           252.2308691
  heat_capacity:      99.3044640
  energy:            156.3806624

- temperature:      1570.0000000
  free_energy:      -239.6249782
  entropy:           252.8654236
  heat_capacity:      99.3104007
  energy:            157.3737369

- temperature:      1580.0000000
  free_energy:      -242.1567885
  entropy:           253.4959865
  heat_capacity:      99.3162256
  energy:            158.3668701

- temperature:      1590.0000000
  free_energy:      -244.6948847
  entropy:           254.1226074
  heat_capacity:      99.3219415
  energy:            159.3600610

- temperature:      1600.0000000
  free_energy:      -247.2392277
  entropy:           254.7453352
  heat_capacity:      99.3275510
  energy:            160.3533086

- temperature:      1610.0000000
  free_energy:      -249.7897786
  entropy:           255.3642176
  heat_capacity:      99.3330568
  energy:            161.3466117

- temperature:      1620.0000000
  free_energy:      -252.3464994
  entropy:           255.9793017
  heat_capacity:      99.3384614
  energy:            162.3399694

- temperature:      1630.0000000
  free_energy:      -254.9093522
  entropy:           256.5906336
  heat_capacity:      99.3437673
  energy:            163.3333806

- temperature:      1640.0000000
  free_energy:      -257.4782997
  entropy:           257.1982586
  heat_capacity:      99.3489769
  energy:            164.3268444

- temperature:      1650.0000000
  free_energy:      -260.0533051
  entropy:           257.8022212
  heat_capacity:      99.3540924
  energy:            165.3203598

- temperature:      1660.0000000
  free_energy:      -262.6343320
  entropy:           258.4025650
  heat_capacity:      99.3591161
  energy:            166.3139259

- temperature:      1670.0000000
  free_energy:      -265.2213445
  entropy:           258.9993331
  heat_capacity:      99.3640503
  energy:            167.3075418

- temperature:      1680.0000000
  free_energy:      -267.8143069
  entropy:           259.5925676
  heat_capacity:      99.3688970
  energy:            168.3012066

- temperature:      1690.0000000
  free_energy:      -270.4131842
  entropy:           260.1823099
  heat_capacity:      99.3736582
  energy:            169.2949195

- temperature:      1700.0000000
  free_energy:      -273.0179416
  entropy:           260.7686007
  heat_capacity:      99.3783360
  energy:            170.2886795

- temperature:      1710.0000000
  free_energy:      -275.6285449
  entropy:           261.3514800
  heat_capacity:      99.3829324
  energy:            171.2824859

- temperature:      1720.0000000
  free_energy:      -278.2449600
  entropy:           261.9309872
  heat_capacity:      99.3874491
  energy:            172.2763379

- temperature:      1730.0000000
  free_energy:      -280.8671535
  entropy:           262.5071608
  heat_capacity:      99.3918880
  energy:            173.2702347

- temperature:      1740.0000000
  free_energy:      -283.4950922
  entropy:           263.0800389
  heat_capacity:      99.3962509
  energy:            174.2641754

- temperature:      1750.0000000
  free_energy:      -286.1287434
  entropy:           263.6496588
  heat_capacity:      99.4005395
  energy:            175.2581594

- temperature:      1760.0000000
  free_energy:      -288.7680747
  entropy:           264.2160572
  heat_capacity:      99.4047555
  energy:            176.2521860

- temperature:      1770.0000000
  free_energy:      -291.4130539
  entropy:           264.7792702
  heat_capacity:      99.4089005
  energy:            177.2462543

- temperature:      1780.0000000
  free_energy:      -294.0636496
  entropy:           265.3393333
  heat_capacity:      99.4129761