 running on    8 nodes
 distr:  one band on    1 nodes,    8 groups
 vasp.4.6.28 25Jul05 complex 
 POSCAR found :  1 types and   32 ions

 ----------------------------------------------------------------------------- 
|                                                                             |
|  ADVICE TO THIS USER RUNNING 'VASP/VAMP'   (HEAR YOUR MASTER'S VOICE ...):  |
|                                                                             |
|      You have a (more or less) 'large supercell' and for larger cells       |
|      it might be more efficient to use real space projection operators      |
|      So try LREAL= Auto  in the INCAR   file.                               |
|      Mind: If you want to do an extremely accurate calculations keep the    |
|      reciprocal projection scheme          (i.e. LREAL=.FALSE.)             |
|                                                                             |
 ----------------------------------------------------------------------------- 

 LDA part: xc-table for Pade appr. of Perdew
 POSCAR, INCAR and KPOINTS ok, starting setup
 FFT: planning ...           1
 reading WAVECAR
 WARNING: random wavefunctions but no delay for mixing, default for NELMDL
 entering main loop
       N       E                     dE             d eps       ncg     rms          rms(c)
DAV:   1     0.116377362805E+03    0.11638E+03   -0.32503E+04 28224   0.104E+03
DAV:   2    -0.107424519963E+03   -0.22380E+03   -0.20791E+03 33160   0.137E+02
DAV:   3    -0.120217540833E+03   -0.12793E+02   -0.12185E+02 35128   0.261E+01
DAV:   4    -0.120459660870E+03   -0.24212E+00   -0.24001E+00 33224   0.383E+00
DAV:   5    -0.120462567599E+03   -0.29067E-02   -0.29047E-02 33064   0.493E-01    0.523E+00
DAV:   6    -0.120051926801E+03    0.41064E+00   -0.53920E-02 32392   0.721E-01    0.325E+00
DAV:   7    -0.119752574772E+03    0.29935E+00   -0.16040E-01 31576   0.116E+00    0.135E-01
DAV:   8    -0.119752635793E+03   -0.61020E-04   -0.12793E-03 33328   0.131E-01    0.438E-02
DAV:   9    -0.119752663560E+03   -0.27768E-04   -0.47663E-05 32968   0.194E-02    0.355E-03
DAV:  10    -0.119752663794E+03   -0.23366E-06   -0.23778E-06 33688   0.478E-03    0.194E-03
DAV:  11    -0.119752660689E+03    0.31053E-05   -0.17740E-07 33080   0.121E-03    0.718E-04
DAV:  12    -0.119752659572E+03    0.11169E-05   -0.20992E-08 21848   0.436E-04    0.107E-04
DAV:  13    -0.119752659452E+03    0.11923E-06   -0.29662E-09 18440   0.190E-04    0.324E-05
DAV:  14    -0.119752659449E+03    0.38940E-08   -0.48946E-10 18320   0.727E-05
   1 F= -.11975266E+03 E0= -.11975239E+03  d E =-.531670E-03
