  32  32   0   0
  0.1695037E+02  0.8155359E-09  0.8155359E-09  0.8155359E-09  0.5000000E-15
  1.000000000000000E-004
  CAR 
 unknown system                          
     12.30219057     -3.96705317  301      7.72935429      1.00000000
     -3.967  0.0000E+00  0.0000E+00
     -3.913  0.0000E+00  0.0000E+00
     -3.859  0.0000E+00  0.0000E+00
     -3.804  0.0000E+00  0.0000E+00
     -3.750  0.0000E+00  0.0000E+00
     -3.696  0.0000E+00  0.0000E+00
     -3.642  0.0000E+00  0.0000E+00
     -3.587  0.0000E+00  0.0000E+00
     -3.533  0.0000E+00  0.0000E+00
     -3.479  0.0000E+00  0.0000E+00
     -3.425  0.0000E+00  0.0000E+00
     -3.371  0.0000E+00  0.0000E+00
     -3.316  0.0000E+00  0.0000E+00
     -3.262  0.1129E-07  0.6123E-09
     -3.208  0.1290E+00  0.6996E-02
     -3.154  0.7359E+00  0.4690E-01
     -3.099  0.1093E+01  0.1062E+00
     -3.045  0.1731E+01  0.2001E+00
     -2.991  0.1674E+01  0.2909E+00
     -2.937  0.2075E+01  0.4034E+00
     -2.882  0.2285E+01  0.5273E+00
     -2.828  0.1849E+01  0.6276E+00
     -2.774  0.2961E+01  0.7882E+00
     -2.720  0.1926E+01  0.8927E+00
     -2.666  0.3223E+01  0.1067E+01
     -2.611  0.2364E+01  0.1196E+01
     -2.557  0.3829E+01  0.1403E+01
     -2.503  0.3072E+01  0.1570E+01
     -2.449  0.3056E+01  0.1736E+01
     -2.394  0.4246E+01  0.1966E+01
     -2.340  0.2987E+01  0.2128E+01
     -2.286  0.3031E+01  0.2292E+01
     -2.232  0.3186E+01  0.2465E+01
     -2.177  0.4903E+01  0.2731E+01
     -2.123  0.3569E+01  0.2924E+01
     -2.069  0.5004E+01  0.3196E+01
     -2.015  0.3878E+01  0.3406E+01
     -1.961  0.3612E+01  0.3602E+01
     -1.906  0.4672E+01  0.3855E+01
     -1.852  0.4858E+01  0.4119E+01
     -1.798  0.4418E+01  0.4358E+01
     -1.744  0.3164E+01  0.4530E+01
     -1.689  0.5184E+01  0.4811E+01
     -1.635  0.5150E+01  0.5090E+01
     -1.581  0.5782E+01  0.5404E+01
     -1.527  0.5659E+01  0.5711E+01
     -1.472  0.3720E+01  0.5913E+01
     -1.418  0.6088E+01  0.6243E+01
     -1.364  0.3652E+01  0.6441E+01
     -1.310  0.5051E+01  0.6715E+01
     -1.256  0.5456E+01  0.7011E+01
     -1.201  0.6834E+01  0.7381E+01
     -1.147  0.5330E+01  0.7670E+01
     -1.093  0.5871E+01  0.7989E+01
     -1.039  0.4635E+01  0.8240E+01
     -0.984  0.5646E+01  0.8546E+01
     -0.930  0.7198E+01  0.8937E+01
     -0.876  0.5975E+01  0.9261E+01
     -0.822  0.5306E+01  0.9548E+01
     -0.767  0.3896E+01  0.9760E+01
     -0.713  0.7587E+01  0.1017E+02
     -0.659  0.5711E+01  0.1048E+02
     -0.605  0.7259E+01  0.1087E+02
     -0.551  0.7867E+01  0.1130E+02
     -0.496  0.3484E+01  0.1149E+02
     -0.442  0.8191E+01  0.1193E+02
     -0.388  0.6779E+01  0.1230E+02
     -0.334  0.6585E+01  0.1266E+02
     -0.279  0.3177E+01  0.1283E+02
     -0.225  0.8886E+01  0.1331E+02
     -0.171  0.6001E+01  0.1364E+02
     -0.117  0.7518E+01  0.1405E+02
     -0.062  0.8390E+01  0.1450E+02
     -0.008  0.7813E+01  0.1493E+02
      0.046  0.6060E+01  0.1525E+02
      0.100  0.5299E+01  0.1554E+02
      0.154  0.7382E+01  0.1594E+02
      0.209  0.6209E+01  0.1628E+02
      0.263  0.7689E+01  0.1670E+02
      0.317  0.7816E+01  0.1712E+02
      0.371  0.9195E+01  0.1762E+02
      0.426  0.6255E+01  0.1796E+02
      0.480  0.6805E+01  0.1833E+02
      0.534  0.9081E+01  0.1882E+02
      0.588  0.7517E+01  0.1923E+02
      0.643  0.6817E+01  0.1960E+02
      0.697  0.6399E+01  0.1994E+02
      0.751  0.9091E+01  0.2044E+02
      0.805  0.6220E+01  0.2077E+02
      0.859  0.8571E+01  0.2124E+02
      0.914  0.1007E+02  0.2178E+02
      0.968  0.8056E+01  0.2222E+02
      1.022  0.7413E+01  0.2262E+02
      1.076  0.8367E+01  0.2308E+02
      1.131  0.7557E+01  0.2349E+02
      1.185  0.5921E+01  0.2381E+02
      1.239  0.1065E+02  0.2439E+02
      1.293  0.8799E+01  0.2486E+02
      1.348  0.8957E+01  0.2535E+02
      1.402  0.5362E+01  0.2564E+02
      1.456  0.1153E+02  0.2626E+02
      1.510  0.6369E+01  0.2661E+02
      1.564  0.1163E+02  0.2724E+02
      1.619  0.6517E+01  0.2759E+02
      1.673  0.7756E+01  0.2801E+02
      1.727  0.1115E+02  0.2862E+02
      1.781  0.9921E+01  0.2916E+02
      1.836  0.7190E+01  0.2955E+02
      1.890  0.5505E+01  0.2985E+02
      1.944  0.1055E+02  0.3042E+02
      1.998  0.1194E+02  0.3107E+02
      2.053  0.7729E+01  0.3148E+02
      2.107  0.8741E+01  0.3196E+02
      2.161  0.1010E+02  0.3251E+02
      2.215  0.7244E+01  0.3290E+02
      2.269  0.9813E+01  0.3343E+02
      2.324  0.1043E+02  0.3400E+02
      2.378  0.8264E+01  0.3445E+02
      2.432  0.1093E+02  0.3504E+02
      2.486  0.1093E+02  0.3563E+02
      2.541  0.8698E+01  0.3610E+02
      2.595  0.6079E+01  0.3643E+02
      2.649  0.1032E+02  0.3699E+02
      2.703  0.1079E+02  0.3758E+02
      2.758  0.1060E+02  0.3815E+02
      2.812  0.8767E+01  0.3863E+02
      2.866  0.1007E+02  0.3917E+02
      2.920  0.1259E+02  0.3986E+02
      2.974  0.8715E+01  0.4033E+02
      3.029  0.1117E+02  0.4093E+02
      3.083  0.7918E+01  0.4136E+02
      3.137  0.1044E+02  0.4193E+02
      3.191  0.8846E+01  0.4241E+02
      3.246  0.1329E+02  0.4313E+02
      3.300  0.7112E+01  0.4352E+02
      3.354  0.1203E+02  0.4417E+02
      3.408  0.8557E+01  0.4463E+02
      3.463  0.1232E+02  0.4530E+02
      3.517  0.9635E+01  0.4582E+02
      3.571  0.1125E+02  0.4643E+02
      3.625  0.1186E+02  0.4708E+02
      3.679  0.8018E+01  0.4751E+02
      3.734  0.1373E+02  0.4825E+02
      3.788  0.1076E+02  0.4884E+02
      3.842  0.1124E+02  0.4945E+02
      3.896  0.8994E+01  0.4994E+02
      3.951  0.8292E+01  0.5039E+02
      4.005  0.9572E+01  0.5090E+02
      4.059  0.1326E+02  0.5162E+02
      4.113  0.1107E+02  0.5222E+02
      4.168  0.1465E+02  0.5302E+02
      4.222  0.9424E+01  0.5353E+02
      4.276  0.1155E+02  0.5416E+02
      4.330  0.1093E+02  0.5475E+02
      4.384  0.1198E+02  0.5540E+02
      4.439  0.9059E+01  0.5589E+02
      4.493  0.1106E+02  0.5649E+02
      4.547  0.1153E+02  0.5711E+02
      4.601  0.1257E+02  0.5780E+02
      4.656  0.1692E+02  0.5871E+02
      4.710  0.8871E+01  0.5919E+02
      4.764  0.1188E+02  0.5984E+02
      4.818  0.1123E+02  0.6045E+02
      4.873  0.1075E+02  0.6103E+02
      4.927  0.1173E+02  0.6167E+02
      4.981  0.1711E+02  0.6260E+02
      5.035  0.1228E+02  0.6326E+02
      5.089  0.1240E+02  0.6393E+02
      5.144  0.1053E+02  0.6450E+02
      5.198  0.1021E+02  0.6506E+02
      5.252  0.1346E+02  0.6579E+02
      5.306  0.1435E+02  0.6657E+02
      5.361  0.1318E+02  0.6728E+02
      5.415  0.9158E+01  0.6778E+02
      5.469  0.1039E+02  0.6834E+02
      5.523  0.1345E+02  0.6907E+02
      5.578  0.1463E+02  0.6987E+02
      5.632  0.1018E+02  0.7042E+02
      5.686  0.1080E+02  0.7100E+02
      5.740  0.1183E+02  0.7164E+02
      5.794  0.1066E+02  0.7222E+02
      5.849  0.1498E+02  0.7303E+02
      5.903  0.9250E+01  0.7354E+02
      5.957  0.7443E+01  0.7394E+02
      6.011  0.1256E+02  0.7462E+02
      6.066  0.1279E+02  0.7531E+02
      6.120  0.1354E+02  0.7605E+02
      6.174  0.1052E+02  0.7662E+02
      6.228  0.1017E+02  0.7717E+02
      6.283  0.1216E+02  0.7783E+02
      6.337  0.1188E+02  0.7847E+02
      6.391  0.1011E+02  0.7902E+02
      6.445  0.1150E+02  0.7965E+02
      6.499  0.1458E+02  0.8044E+02
      6.554  0.1254E+02  0.8112E+02
      6.608  0.1001E+02  0.8166E+02
      6.662  0.1555E+02  0.8250E+02
      6.716  0.1664E+02  0.8341E+02
      6.771  0.8550E+01  0.8387E+02
      6.825  0.1234E+02  0.8454E+02
      6.879  0.1044E+02  0.8510E+02
      6.933  0.1391E+02  0.8586E+02
      6.988  0.1417E+02  0.8663E+02
      7.042  0.1170E+02  0.8726E+02
      7.096  0.1281E+02  0.8796E+02
      7.150  0.1014E+02  0.8851E+02
      7.204  0.1407E+02  0.8927E+02
      7.259  0.1467E+02  0.9007E+02
      7.313  0.1099E+02  0.9066E+02
      7.367  0.1115E+02  0.9127E+02
      7.421  0.1512E+02  0.9209E+02
      7.476  0.1140E+02  0.9270E+02
      7.530  0.1390E+02  0.9346E+02
      7.584  0.9768E+01  0.9399E+02
      7.638  0.1632E+02  0.9487E+02
      7.693  0.1127E+02  0.9548E+02
      7.747  0.1379E+02  0.9623E+02
      7.801  0.1266E+02  0.9692E+02
      7.855  0.1428E+02  0.9769E+02
      7.909  0.1346E+02  0.9842E+02
      7.964  0.1300E+02  0.9913E+02
      8.018  0.1329E+02  0.9985E+02
      8.072  0.1356E+02  0.1006E+03
      8.126  0.1250E+02  0.1013E+03
      8.181  0.1345E+02  0.1020E+03
      8.235  0.1878E+02  0.1030E+03
      8.289  0.1179E+02  0.1036E+03
      8.343  0.1751E+02  0.1046E+03
      8.398  0.1101E+02  0.1052E+03
      8.452  0.1372E+02  0.1059E+03
      8.506  0.8848E+01  0.1064E+03
      8.560  0.1270E+02  0.1071E+03
      8.614  0.1170E+02  0.1077E+03
      8.669  0.1161E+02  0.1084E+03
      8.723  0.2078E+02  0.1095E+03
      8.777  0.1489E+02  0.1103E+03
      8.831  0.1626E+02  0.1112E+03
      8.886  0.1468E+02  0.1120E+03
      8.940  0.1207E+02  0.1126E+03
      8.994  0.1710E+02  0.1136E+03
      9.048  0.1099E+02  0.1142E+03
      9.103  0.9078E+01  0.1147E+03
      9.157  0.1709E+02  0.1156E+03
      9.211  0.1020E+02  0.1161E+03
      9.265  0.1627E+02  0.1170E+03
      9.319  0.1667E+02  0.1179E+03
      9.374  0.1228E+02  0.1186E+03
      9.428  0.1416E+02  0.1194E+03
      9.482  0.1601E+02  0.1202E+03
      9.536  0.1735E+02  0.1212E+03
      9.591  0.1323E+02  0.1219E+03
      9.645  0.9755E+01  0.1224E+03
      9.699  0.1723E+02  0.1233E+03
      9.753  0.1473E+02  0.1241E+03
      9.808  0.1730E+02  0.1251E+03
      9.862  0.1468E+02  0.1259E+03
      9.916  0.1546E+02  0.1267E+03
      9.970  0.1263E+02  0.1274E+03
     10.024  0.1162E+02  0.1280E+03
     10.079  0.1591E+02  0.1289E+03
     10.133  0.1588E+02  0.1298E+03
     10.187  0.1412E+02  0.1305E+03
     10.241  0.1314E+02  0.1312E+03
     10.296  0.1538E+02  0.1321E+03
     10.350  0.1345E+02  0.1328E+03
     10.404  0.1603E+02  0.1337E+03
     10.458  0.1855E+02  0.1347E+03
     10.513  0.1448E+02  0.1355E+03
     10.567  0.1111E+02  0.1361E+03
     10.621  0.1170E+02  0.1367E+03
     10.675  0.1632E+02  0.1376E+03
     10.729  0.1489E+02  0.1384E+03
     10.784  0.1423E+02  0.1392E+03
     10.838  0.9378E+01  0.1397E+03
     10.892  0.1347E+02  0.1404E+03
     10.946  0.1378E+02  0.1411E+03
     11.001  0.1181E+02  0.1418E+03
     11.055  0.5921E+01  0.1421E+03
     11.109  0.8355E+01  0.1426E+03
     11.163  0.6283E+01  0.1429E+03
     11.218  0.6965E+01  0.1433E+03
     11.272  0.3513E+01  0.1435E+03
     11.326  0.4799E+01  0.1437E+03
     11.380  0.2577E+01  0.1439E+03
     11.434  0.9191E+00  0.1439E+03
     11.489  0.3821E+00  0.1439E+03
     11.543  0.2501E+00  0.1440E+03
     11.597  0.9032E+00  0.1440E+03
     11.651  0.0000E+00  0.1440E+03
     11.706  0.0000E+00  0.1440E+03
     11.760  0.0000E+00  0.1440E+03
     11.814  0.0000E+00  0.1440E+03
     11.868  0.0000E+00  0.1440E+03
     11.923  0.0000E+00  0.1440E+03
     11.977  0.0000E+00  0.1440E+03
     12.031  0.0000E+00  0.1440E+03
     12.085  0.0000E+00  0.1440E+03
     12.139  0.0000E+00  0.1440E+03
     12.194  0.0000E+00  0.1440E+03
     12.248  0.0000E+00  0.1440E+03
     12.302  0.0000E+00  0.1440E+03
