 vasp.4.6.28 25Jul05 complex 
 executed on             LinuxIFC date 2016.10.21  07:16:45
 running on    8 nodes
 distr:  one band on    1 nodes,    8 groups


--------------------------------------------------------------------------------------------------------


 INCAR:
 POTCAR:   PAW_PBE Al 04Jan2001                   
 POTCAR:   PAW_PBE Al 04Jan2001                   
   VRHFIN =Al: s2p1                                                             
   LEXCH  = PE                                                                  
   EATOM  =    53.5387 eV,    3.9350 Ry                                         
                                                                                
   TITEL  = PAW_PBE Al 04Jan2001                                                
   LULTRA =        F    use ultrasoft PP ?                                      
   IUNSCR =        1    unscreen: 0-lin 1-nonlin 2-no                           
   RPACOR =    1.500    partial core radius                                     
   POMASS =   26.982; ZVAL   =    3.000    mass and valenz                      
   RCORE  =    1.900    outmost cutoff radius                                   
   RWIGS  =    2.650; RWIGS  =    1.402    wigner-seitz radius (au A)           
   ENMAX  =  240.300; ENMIN  =  180.225 eV                                      
   ICORE  =        2    local potential                                         
   LCOR   =        T    correct aug charges                                     
   LPAW   =        T    paw PP                                                  
   EAUG   =  291.052                                                            
   DEXC   =    -.041                                                            
   RMAX   =    2.974    core radius for proj-oper                               
   RAUG   =    1.300    factor for augmentation sphere                          
   RDEP   =    1.966    radius for radial grids                                 
   QCUT   =   -4.203; QGAM   =    8.405    optimization parameters              
                                                                                
   Description                                                                  
     l     E      TYP  RCUT    TYP  RCUT                                        
     0   .000     23  1.900                                                     
     0   .000     23  1.900                                                     
     1   .000     23  1.900                                                     
     1  1.000     23  1.900                                                     
     2   .000      7  1.900                                                     
  local pseudopotential read in
  partial core-charges read in
  atomic valenz-charges read in
  non local Contribution for L=           0  read in
    real space projection operators read in
  non local Contribution for L=           0  read in
    real space projection operators read in
  non local Contribution for L=           1  read in
    real space projection operators read in
  non local Contribution for L=           1  read in
    real space projection operators read in
    PAW grid and wavefunctions read in
 
   number of l-projection  operators is LMAX  =           4
   number of lm-projection operators is LMMAX =           8
 

 ----------------------------------------------------------------------------- 
|                                                                             |
|  ADVICE TO THIS USER RUNNING 'VASP/VAMP'   (HEAR YOUR MASTER'S VOICE ...):  |
|                                                                             |
|      You have a (more or less) 'large supercell' and for larger cells       |
|      it might be more efficient to use real space projection operators      |
|      So try LREAL= Auto  in the INCAR   file.                               |
|      Mind: If you want to do an extremely accurate calculations keep the    |
|      reciprocal projection scheme          (i.e. LREAL=.FALSE.)             |
|                                                                             |
 ----------------------------------------------------------------------------- 

 PAW_PBE Al 04Jan2001                   :
 energy of atom  1       EATOM=  -53.5387
 kinetic energy error for atom=    0.0003 (will be added to EATOM!!)
 
 EXHCAR: internal setup
 exchange correlation table for  LEXCH =        8
   RHO(1)=    0.500       N(1)  =     2000
   RHO(2)=  100.500       N(2)  =     4000
 
 POSCAR: Al                                      
  positions in direct lattice
  No initial velocities read in
 


--------------------------------------------------------------------------------------------------------


 ion  position               nearest neighbor table
   1  0.251  0.250  0.000-  18 2.88  22 2.88  26 2.88  28 2.88   9 2.88  11 2.88  13 2.88  15 2.88
                            25 2.89  21 2.89  27 2.89  17 2.89
   2  0.750  0.250  0.000-  10 2.88  12 2.88  14 2.88  16 2.88  17 2.88  18 2.88  21 2.88  22 2.88
                            25 2.88  26 2.88  27 2.88  28 2.88
   3  0.250  0.750  0.000-   9 2.88  11 2.88  13 2.88  15 2.88  19 2.88  20 2.88  23 2.88  24 2.88
                            25 2.88  26 2.88  27 2.88  28 2.88
   4  0.750  0.750  0.000-  10 2.88  12 2.88  14 2.88  16 2.88  19 2.88  20 2.88  23 2.88  24 2.88
                            25 2.88  26 2.88  27 2.88  28 2.88
   5  0.250  0.250  0.500-   9 2.88  11 2.88  13 2.88  15 2.88  17 2.88  18 2.88  21 2.88  22 2.88
                            29 2.88  30 2.88  31 2.88  32 2.88
   6  0.750  0.250  0.500-  10 2.88  12 2.88  14 2.88  16 2.88  17 2.88  18 2.88  21 2.88  22 2.88
                            29 2.88  30 2.88  31 2.88  32 2.88
   7  0.250  0.750  0.500-   9 2.88  11 2.88  13 2.88  15 2.88  19 2.88  20 2.88  23 2.88  24 2.88
                            29 2.88  30 2.88  31 2.88  32 2.88
   8  0.750  0.750  0.500-  10 2.88  12 2.88  14 2.88  16 2.88  19 2.88  20 2.88  23 2.88  24 2.88
                            29 2.88  30 2.88  31 2.88  32 2.88
   9  0.250  0.000  0.250-   3 2.88   5 2.88   7 2.88  17 2.88  18 2.88  19 2.88  20 2.88  25 2.88
                            26 2.88  29 2.88  30 2.88   1 2.88
  10  0.750  0.000  0.250-   2 2.88   4 2.88   6 2.88   8 2.88  17 2.88  18 2.88  19 2.88  20 2.88
                            25 2.88  26 2.88  29 2.88  30 2.88
  11  0.250  0.500  0.250-   3 2.88   5 2.88   7 2.88  17 2.88  18 2.88  19 2.88  20 2.88  27 2.88
                            28 2.88  31 2.88  32 2.88   1 2.88
  12  0.750  0.500  0.250-   2 2.88   4 2.88   6 2.88   8 2.88  17 2.88  18 2.88  19 2.88  20 2.88
                            27 2.88  28 2.88  31 2.88  32 2.88
  13  0.250  0.000  0.750-   3 2.88   5 2.88   7 2.88  21 2.88  22 2.88  23 2.88  24 2.88  25 2.88
                            26 2.88  29 2.88  30 2.88   1 2.88
  14  0.750  0.000  0.750-   2 2.88   4 2.88   6 2.88   8 2.88  21 2.88  22 2.88  23 2.88  24 2.88
                            25 2.88  26 2.88  29 2.88  30 2.88
  15  0.250  0.500  0.750-   3 2.88   5 2.88   7 2.88  21 2.88  22 2.88  23 2.88  24 2.88  27 2.88
                            28 2.88  31 2.88  32 2.88   1 2.88
  16  0.750  0.500  0.750-   2 2.88   4 2.88   6 2.88   8 2.88  21 2.88  22 2.88  23 2.88  24 2.88
                            27 2.88  28 2.88  31 2.88  32 2.88
  17  0.000  0.250  0.250-   2 2.88   5 2.88   6 2.88   9 2.88  10 2.88  11 2.88  12 2.88  25 2.88
                            27 2.88  29 2.88  31 2.88   1 2.89
  18  0.500  0.250  0.250-   1 2.88   2 2.88   5 2.88   6 2.88   9 2.88  10 2.88  11 2.88  12 2.88
                            26 2.88  28 2.88  30 2.88  32 2.88
  19  0.000  0.750  0.250-   3 2.88   4 2.88   7 2.88   8 2.88   9 2.88  10 2.88  11 2.88  12 2.88
                            25 2.88  27 2.88  29 2.88  31 2.88
  20  0.500  0.750  0.250-   3 2.88   4 2.88   7 2.88   8 2.88   9 2.88  10 2.88  11 2.88  12 2.88
                            26 2.88  28 2.88  30 2.88  32 2.88
  21  0.000  0.250  0.750-   2 2.88   5 2.88   6 2.88  13 2.88  14 2.88  15 2.88  16 2.88  25 2.88
                            27 2.88  29 2.88  31 2.88   1 2.89
  22  0.500  0.250  0.750-   1 2.88   2 2.88   5 2.88   6 2.88  13 2.88  14 2.88  15 2.88  16 2.88
                            26 2.88  28 2.88  30 2.88  32 2.88
  23  0.000  0.750  0.750-   3 2.88   4 2.88   7 2.88   8 2.88  13 2.88  14 2.88  15 2.88  16 2.88
                            25 2.88  27 2.88  29 2.88  31 2.88
  24  0.500  0.750  0.750-   3 2.88   4 2.88   7 2.88   8 2.88  13 2.88  14 2.88  15 2.88  16 2.88
                            26 2.88  28 2.88  30 2.88  32 2.88
  25  0.000  0.000  0.000-   2 2.88   3 2.88   4 2.88   9 2.88  10 2.88  13 2.88  14 2.88  17 2.88
                            19 2.88  21 2.88  23 2.88   1 2.89
  26  0.500  0.000  0.000-   1 2.88   2 2.88   3 2.88   4 2.88   9 2.88  10 2.88  13 2.88  14 2.88
                            18 2.88  20 2.88  22 2.88  24 2.88
  27  0.000  0.500  0.000-   2 2.88   3 2.88   4 2.88  11 2.88  12 2.88  15 2.88  16 2.88  17 2.88
                            19 2.88  21 2.88  23 2.88   1 2.89
  28  0.500  0.500  0.000-   1 2.88   2 2.88   3 2.88   4 2.88  11 2.88  12 2.88  15 2.88  16 2.88
                            18 2.88  20 2.88  22 2.88  24 2.88
  29  0.000  0.000  0.500-   5 2.88   6 2.88   7 2.88   8 2.88   9 2.88  10 2.88  13 2.88  14 2.88
                            17 2.88  19 2.88  21 2.88  23 2.88
  30  0.500  0.000  0.500-   5 2.88   6 2.88   7 2.88   8 2.88   9 2.88  10 2.88  13 2.88  14 2.88
                            18 2.88  20 2.88  22 2.88  24 2.88
  31  0.000  0.500  0.500-   5 2.88   6 2.88   7 2.88   8 2.88  11 2.88  12 2.88  15 2.88  16 2.88
                            17 2.88  19 2.88  21 2.88  23 2.88
  32  0.500  0.500  0.500-   5 2.88   6 2.88   7 2.88   8 2.88  11 2.88  12 2.88  15 2.88  16 2.88
                            18 2.88  20 2.88  22 2.88  24 2.88
 
  LATTYP: Found a simple cubic cell.
 ALAT       =     8.1553588667
  
  Lattice vectors:
  
 A1 = (   8.1553588667,   0.0000000000,   0.0000000000)
 A2 = (   0.0000000000,   8.1553588667,   0.0000000000)
 A3 = (   0.0000000000,   0.0000000000,   8.1553588667)
 Subroutine PRICEL returns:
 Original cell was already a primitive cell.
 

Analysis of symmetry for initial positions (statically):

 Routine SETGRP: Setting up the symmetry group for a 
 simple cubic supercell.


 Subroutine GETGRP returns: Found  8 space group operations
 (whereof  2 operations were pure point group operations)
 out of a pool of 48 trial point group operations.


The static configuration has the point symmetry C_1h.
 The point group associated with its full space group is C_4v.

Analysis of symmetry for dynamics (positions and initial velocities):

 Subroutine DYNSYM returns: Found  8 space group operations
 (whereof  2 operations were pure point group operations)
 out of a pool of  8 trial space group operations
 (whereof  2 operations were pure point group operations)
 and found also     1 'primitive' translations


The dynamic configuration has the point symmetry C_1h.
 The point group associated with its full space group is C_4v.
 
 
 KPOINTS: Automatic mesh                          

Automatic generation of k-mesh.
 
 Subroutine IBZKPT returns following result:
 ===========================================
 
 Found    196 irreducible k-points:
 
 Following reciprocal coordinates:
            Coordinates               Weight
  0.000000  0.000000  0.000000      1.000000
  0.083333  0.000000  0.000000      2.000000
  0.166667  0.000000  0.000000      2.000000
  0.250000  0.000000  0.000000      2.000000
  0.333333  0.000000  0.000000      2.000000
  0.416667  0.000000  0.000000      2.000000
  0.500000  0.000000  0.000000      1.000000
  0.000000  0.083333  0.000000      4.000000
  0.083333  0.083333  0.000000      8.000000
  0.166667  0.083333  0.000000      8.000000
  0.250000  0.083333  0.000000      8.000000
  0.333333  0.083333  0.000000      8.000000
  0.416667  0.083333  0.000000      8.000000
  0.500000  0.083333  0.000000      4.000000
  0.000000  0.166667  0.000000      4.000000
  0.083333  0.166667  0.000000      8.000000
  0.166667  0.166667  0.000000      8.000000
  0.250000  0.166667  0.000000      8.000000
  0.333333  0.166667  0.000000      8.000000
  0.416667  0.166667  0.000000      8.000000
  0.500000  0.166667  0.000000      4.000000
  0.000000  0.250000  0.000000      4.000000
  0.083333  0.250000  0.000000      8.000000
  0.166667  0.250000  0.000000      8.000000
  0.250000  0.250000  0.000000      8.000000
  0.333333  0.250000  0.000000      8.000000
  0.416667  0.250000  0.000000      8.000000
  0.500000  0.250000  0.000000      4.000000
  0.000000  0.333333  0.000000      4.000000
  0.083333  0.333333  0.000000      8.000000
  0.166667  0.333333  0.000000      8.000000
  0.250000  0.333333  0.000000      8.000000
  0.333333  0.333333  0.000000      8.000000
  0.416667  0.333333  0.000000      8.000000
  0.500000  0.333333  0.000000      4.000000
  0.000000  0.416667  0.000000      4.000000
  0.083333  0.416667  0.000000      8.000000
  0.166667  0.416667  0.000000      8.000000
  0.250000  0.416667  0.000000      8.000000
  0.333333  0.416667  0.000000      8.000000
  0.416667  0.416667  0.000000      8.000000
  0.500000  0.416667  0.000000      4.000000
  0.000000  0.500000  0.000000      2.000000
  0.083333  0.500000  0.000000      4.000000
  0.166667  0.500000  0.000000      4.000000
  0.250000  0.500000  0.000000      4.000000
  0.333333  0.500000  0.000000      4.000000
  0.416667  0.500000  0.000000      4.000000
  0.500000  0.500000  0.000000      2.000000
  0.000000  0.083333  0.083333      4.000000
  0.083333  0.083333  0.083333      8.000000
  0.166667  0.083333  0.083333      8.000000
  0.250000  0.083333  0.083333      8.000000
  0.333333  0.083333  0.083333      8.000000
  0.416667  0.083333  0.083333      8.000000
  0.500000  0.083333  0.083333      4.000000
  0.000000  0.166667  0.083333      8.000000
  0.083333  0.166667  0.083333     16.000000
  0.166667  0.166667  0.083333     16.000000
  0.250000  0.166667  0.083333     16.000000
  0.333333  0.166667  0.083333     16.000000
  0.416667  0.166667  0.083333     16.000000
  0.500000  0.166667  0.083333      8.000000
  0.000000  0.250000  0.083333      8.000000
  0.083333  0.250000  0.083333     16.000000
  0.166667  0.250000  0.083333     16.000000
  0.250000  0.250000  0.083333     16.000000
  0.333333  0.250000  0.083333     16.000000
  0.416667  0.250000  0.083333     16.000000
  0.500000  0.250000  0.083333      8.000000
  0.000000  0.333333  0.083333      8.000000
  0.083333  0.333333  0.083333     16.000000
  0.166667  0.333333  0.083333     16.000000
  0.250000  0.333333  0.083333     16.000000
  0.333333  0.333333  0.083333     16.000000
  0.416667  0.333333  0.083333     16.000000
  0.500000  0.333333  0.083333      8.000000
  0.000000  0.416667  0.083333      8.000000
  0.083333  0.416667  0.083333     16.000000
  0.166667  0.416667  0.083333     16.000000
  0.250000  0.416667  0.083333     16.000000
  0.333333  0.416667  0.083333     16.000000
  0.416667  0.416667  0.083333     16.000000
  0.500000  0.416667  0.083333      8.000000
  0.000000  0.500000  0.083333      4.000000
  0.083333  0.500000  0.083333      8.000000
  0.166667  0.500000  0.083333      8.000000
  0.250000  0.500000  0.083333      8.000000
  0.333333  0.500000  0.083333      8.000000
  0.416667  0.500000  0.083333      8.000000
  0.500000  0.500000  0.083333      4.000000
  0.000000  0.166667  0.166667      4.000000
  0.083333  0.166667  0.166667      8.000000
  0.166667  0.166667  0.166667      8.000000
  0.250000  0.166667  0.166667      8.000000
  0.333333  0.166667  0.166667      8.000000
  0.416667  0.166667  0.166667      8.000000
  0.500000  0.166667  0.166667      4.000000
  0.000000  0.250000  0.166667      8.000000
  0.083333  0.250000  0.166667     16.000000
  0.166667  0.250000  0.166667     16.000000
  0.250000  0.250000  0.166667     16.000000
  0.333333  0.250000  0.166667     16.000000
  0.416667  0.250000  0.166667     16.000000
  0.500000  0.250000  0.166667      8.000000
  0.000000  0.333333  0.166667      8.000000
  0.083333  0.333333  0.166667     16.000000
  0.166667  0.333333  0.166667     16.000000
  0.250000  0.333333  0.166667     16.000000
  0.333333  0.333333  0.166667     16.000000
  0.416667  0.333333  0.166667     16.000000
  0.500000  0.333333  0.166667      8.000000
  0.000000  0.416667  0.166667      8.000000
  0.083333  0.416667  0.166667     16.000000
  0.166667  0.416667  0.166667     16.000000
  0.250000  0.416667  0.166667     16.000000
  0.333333  0.416667  0.166667     16.000000
  0.416667  0.416667  0.166667     16.000000
  0.500000  0.416667  0.166667      8.000000
  0.000000  0.500000  0.166667      4.000000
  0.083333  0.500000  0.166667      8.000000
  0.166667  0.500000  0.166667      8.000000
  0.250000  0.500000  0.166667      8.000000
  0.333333  0.500000  0.166667      8.000000
  0.416667  0.500000  0.166667      8.000000
  0.500000  0.500000  0.166667      4.000000
  0.000000  0.250000  0.250000      4.000000
  0.083333  0.250000  0.250000      8.000000
  0.166667  0.250000  0.250000      8.000000
  0.250000  0.250000  0.250000      8.000000
  0.333333  0.250000  0.250000      8.000000
  0.416667  0.250000  0.250000      8.000000
  0.500000  0.250000  0.250000      4.000000
  0.000000  0.333333  0.250000      8.000000
  0.083333  0.333333  0.250000     16.000000
  0.166667  0.333333  0.250000     16.000000
  0.250000  0.333333  0.250000     16.000000
  0.333333  0.333333  0.250000     16.000000
  0.416667  0.333333  0.250000     16.000000
  0.500000  0.333333  0.250000      8.000000
  0.000000  0.416667  0.250000      8.000000
  0.083333  0.416667  0.250000     16.000000
  0.166667  0.416667  0.250000     16.000000
  0.250000  0.416667  0.250000     16.000000
  0.333333  0.416667  0.250000     16.000000
  0.416667  0.416667  0.250000     16.000000
  0.500000  0.416667  0.250000      8.000000
  0.000000  0.500000  0.250000      4.000000
  0.083333  0.500000  0.250000      8.000000
  0.166667  0.500000  0.250000      8.000000
  0.250000  0.500000  0.250000      8.000000
  0.333333  0.500000  0.250000      8.000000
  0.416667  0.500000  0.250000      8.000000
  0.500000  0.500000  0.250000      4.000000
  0.000000  0.333333  0.333333      4.000000
  0.083333  0.333333  0.333333      8.000000
  0.166667  0.333333  0.333333      8.000000
  0.250000  0.333333  0.333333      8.000000
  0.333333  0.333333  0.333333      8.000000
  0.416667  0.333333  0.333333      8.000000
  0.500000  0.333333  0.333333      4.000000
  0.000000  0.416667  0.333333      8.000000
  0.083333  0.416667  0.333333     16.000000
  0.166667  0.416667  0.333333     16.000000
  0.250000  0.416667  0.333333     16.000000
  0.333333  0.416667  0.333333     16.000000
  0.416667  0.416667  0.333333     16.000000
  0.500000  0.416667  0.333333      8.000000
  0.000000  0.500000  0.333333      4.000000
  0.083333  0.500000  0.333333      8.000000
  0.166667  0.500000  0.333333      8.000000
  0.250000  0.500000  0.333333      8.000000
  0.333333  0.500000  0.333333      8.000000
  0.416667  0.500000  0.333333      8.000000
  0.500000  0.500000  0.333333      4.000000
  0.000000  0.416667  0.416667      4.000000
  0.083333  0.416667  0.416667      8.000000
  0.166667  0.416667  0.416667      8.000000
  0.250000  0.416667  0.416667      8.000000
  0.333333  0.416667  0.416667      8.000000
  0.416667  0.416667  0.416667      8.000000
  0.500000  0.416667  0.416667      4.000000
  0.000000  0.500000  0.416667      4.000000
  0.083333  0.500000  0.416667      8.000000
  0.166667  0.500000  0.416667      8.000000
  0.250000  0.500000  0.416667      8.000000
  0.333333  0.500000  0.416667      8.000000
  0.416667  0.500000  0.416667      8.000000
  0.500000  0.500000  0.416667      4.000000
  0.000000  0.500000  0.500000      1.000000
  0.083333  0.500000  0.500000      2.000000
  0.166667  0.500000  0.500000      2.000000
  0.250000  0.500000  0.500000      2.000000
  0.333333  0.500000  0.500000      2.000000
  0.416667  0.500000  0.500000      2.000000
  0.500000  0.500000  0.500000      1.000000
 
 Following cartesian coordinates:
            Coordinates               Weight
  0.000000  0.000000  0.000000      1.000000
  0.010218  0.000000  0.000000      2.000000
  0.020436  0.000000  0.000000      2.000000
  0.030655  0.000000  0.000000      2.000000
  0.040873  0.000000  0.000000      2.000000
  0.051091  0.000000  0.000000      2.000000
  0.061309  0.000000  0.000000      1.000000
  0.000000  0.010218  0.000000      4.000000
  0.010218  0.010218  0.000000      8.000000
  0.020436  0.010218  0.000000      8.000000
  0.030655  0.010218  0.000000      8.000000
  0.040873  0.010218  0.000000      8.000000
  0.051091  0.010218  0.000000      8.000000
  0.061309  0.010218  0.000000      4.000000
  0.000000  0.020436  0.000000      4.000000
  0.010218  0.020436  0.000000      8.000000
  0.020436  0.020436  0.000000      8.000000
  0.030655  0.020436  0.000000      8.000000
  0.040873  0.020436  0.000000      8.000000
  0.051091  0.020436  0.000000      8.000000
  0.061309  0.020436  0.000000      4.000000
  0.000000  0.030655  0.000000      4.000000
  0.010218  0.030655  0.000000      8.000000
  0.020436  0.030655  0.000000      8.000000
  0.030655  0.030655  0.000000      8.000000
  0.040873  0.030655  0.000000      8.000000
  0.051091  0.030655  0.000000      8.000000
  0.061309  0.030655  0.000000      4.000000
  0.000000  0.040873  0.000000      4.000000
  0.010218  0.040873  0.000000      8.000000
  0.020436  0.040873  0.000000      8.000000
  0.030655  0.040873  0.000000      8.000000
  0.040873  0.040873  0.000000      8.000000
  0.051091  0.040873  0.000000      8.000000
  0.061309  0.040873  0.000000      4.000000
  0.000000  0.051091  0.000000      4.000000
  0.010218  0.051091  0.000000      8.000000
  0.020436  0.051091  0.000000      8.000000
  0.030655  0.051091  0.000000      8.000000
  0.040873  0.051091  0.000000      8.000000
  0.051091  0.051091  0.000000      8.000000
  0.061309  0.051091  0.000000      4.000000
  0.000000  0.061309  0.000000      2.000000
  0.010218  0.061309  0.000000      4.000000
  0.020436  0.061309  0.000000      4.000000
  0.030655  0.061309  0.000000      4.000000
  0.040873  0.061309  0.000000      4.000000
  0.051091  0.061309  0.000000      4.000000
  0.061309  0.061309  0.000000      2.000000
  0.000000  0.010218  0.010218      4.000000
  0.010218  0.010218  0.010218      8.000000
  0.020436  0.010218  0.010218      8.000000
  0.030655  0.010218  0.010218      8.000000
  0.040873  0.010218  0.010218      8.000000
  0.051091  0.010218  0.010218      8.000000
  0.061309  0.010218  0.010218      4.000000
  0.000000  0.020436  0.010218      8.000000
  0.010218  0.020436  0.010218     16.000000
  0.020436  0.020436  0.010218     16.000000
  0.030655  0.020436  0.010218     16.000000
  0.040873  0.020436  0.010218     16.000000
  0.051091  0.020436  0.010218     16.000000
  0.061309  0.020436  0.010218      8.000000
  0.000000  0.030655  0.010218      8.000000
  0.010218  0.030655  0.010218     16.000000
  0.020436  0.030655  0.010218     16.000000
  0.030655  0.030655  0.010218     16.000000
  0.040873  0.030655  0.010218     16.000000
  0.051091  0.030655  0.010218     16.000000
  0.061309  0.030655  0.010218      8.000000
  0.000000  0.040873  0.010218      8.000000
  0.010218  0.040873  0.010218     16.000000
  0.020436  0.040873  0.010218     16.000000
  0.030655  0.040873  0.010218     16.000000
  0.040873  0.040873  0.010218     16.000000
  0.051091  0.040873  0.010218     16.000000
  0.061309  0.040873  0.010218      8.000000
  0.000000  0.051091  0.010218      8.000000
  0.010218  0.051091  0.010218     16.000000
  0.020436  0.051091  0.010218     16.000000
  0.030655  0.051091  0.010218     16.000000
  0.040873  0.051091  0.010218     16.000000
  0.051091  0.051091  0.010218     16.000000
  0.061309  0.051091  0.010218      8.000000
  0.000000  0.061309  0.010218      4.000000
  0.010218  0.061309  0.010218      8.000000
  0.020436  0.061309  0.010218      8.000000
  0.030655  0.061309  0.010218      8.000000
  0.040873  0.061309  0.010218      8.000000
  0.051091  0.061309  0.010218      8.000000
  0.061309  0.061309  0.010218      4.000000
  0.000000  0.020436  0.020436      4.000000
  0.010218  0.020436  0.020436      8.000000
  0.020436  0.020436  0.020436      8.000000
  0.030655  0.020436  0.020436      8.000000
  0.040873  0.020436  0.020436      8.000000
  0.051091  0.020436  0.020436      8.000000
  0.061309  0.020436  0.020436      4.000000
  0.000000  0.030655  0.020436      8.000000
  0.010218  0.030655  0.020436     16.000000
  0.020436  0.030655  0.020436     16.000000
  0.030655  0.030655  0.020436     16.000000
  0.040873  0.030655  0.020436     16.000000
  0.051091  0.030655  0.020436     16.000000
  0.061309  0.030655  0.020436      8.000000
  0.000000  0.040873  0.020436      8.000000
  0.010218  0.040873  0.020436     16.000000
  0.020436  0.040873  0.020436     16.000000
  0.030655  0.040873  0.020436     16.000000
  0.040873  0.040873  0.020436     16.000000
  0.051091  0.040873  0.020436     16.000000
  0.061309  0.040873  0.020436      8.000000
  0.000000  0.051091  0.020436      8.000000
  0.010218  0.051091  0.020436     16.000000
  0.020436  0.051091  0.020436     16.000000
  0.030655  0.051091  0.020436     16.000000
  0.040873  0.051091  0.020436     16.000000
  0.051091  0.051091  0.020436     16.000000
  0.061309  0.051091  0.020436      8.000000
  0.000000  0.061309  0.020436      4.000000
  0.010218  0.061309  0.020436      8.000000
  0.020436  0.061309  0.020436      8.000000
  0.030655  0.061309  0.020436      8.000000
  0.040873  0.061309  0.020436      8.000000
  0.051091  0.061309  0.020436      8.000000
  0.061309  0.061309  0.020436      4.000000
  0.000000  0.030655  0.030655      4.000000
  0.010218  0.030655  0.030655      8.000000
  0.020436  0.030655  0.030655      8.000000
  0.030655  0.030655  0.030655      8.000000
  0.040873  0.030655  0.030655      8.000000
  0.051091  0.030655  0.030655      8.000000
  0.061309  0.030655  0.030655      4.000000
  0.000000  0.040873  0.030655      8.000000
  0.010218  0.040873  0.030655     16.000000
  0.020436  0.040873  0.030655     16.000000
  0.030655  0.040873  0.030655     16.000000
  0.040873  0.040873  0.030655     16.000000
  0.051091  0.040873  0.030655     16.000000
  0.061309  0.040873  0.030655      8.000000
  0.000000  0.051091  0.030655      8.000000
  0.010218  0.051091  0.030655     16.000000
  0.020436  0.051091  0.030655     16.000000
  0.030655  0.051091  0.030655     16.000000
  0.040873  0.051091  0.030655     16.000000
  0.051091  0.051091  0.030655     16.000000
  0.061309  0.051091  0.030655      8.000000
  0.000000  0.061309  0.030655      4.000000
  0.010218  0.061309  0.030655      8.000000
  0.020436  0.061309  0.030655      8.000000
  0.030655  0.061309  0.030655      8.000000
  0.040873  0.061309  0.030655      8.000000
  0.051091  0.061309  0.030655      8.000000
  0.061309  0.061309  0.030655      4.000000
  0.000000  0.040873  0.040873      4.000000
  0.010218  0.040873  0.040873      8.000000
  0.020436  0.040873  0.040873      8.000000
  0.030655  0.040873  0.040873      8.000000
  0.040873  0.040873  0.040873      8.000000
  0.051091  0.040873  0.040873      8.000000
  0.061309  0.040873  0.040873      4.000000
  0.000000  0.051091  0.040873      8.000000
  0.010218  0.051091  0.040873     16.000000
  0.020436  0.051091  0.040873     16.000000
  0.030655  0.051091  0.040873     16.000000
  0.040873  0.051091  0.040873     16.000000
  0.051091  0.051091  0.040873     16.000000
  0.061309  0.051091  0.040873      8.000000
  0.000000  0.061309  0.040873      4.000000
  0.010218  0.061309  0.040873      8.000000
  0.020436  0.061309  0.040873      8.000000
  0.030655  0.061309  0.040873      8.000000
  0.040873  0.061309  0.040873      8.000000
  0.051091  0.061309  0.040873      8.000000
  0.061309  0.061309  0.040873      4.000000
  0.000000  0.051091  0.051091      4.000000
  0.010218  0.051091  0.051091      8.000000
  0.020436  0.051091  0.051091      8.000000
  0.030655  0.051091  0.051091      8.000000
  0.040873  0.051091  0.051091      8.000000
  0.051091  0.051091  0.051091      8.000000
  0.061309  0.051091  0.051091      4.000000
  0.000000  0.061309  0.051091      4.000000
  0.010218  0.061309  0.051091      8.000000
  0.020436  0.061309  0.051091      8.000000
  0.030655  0.061309  0.051091      8.000000
  0.040873  0.061309  0.051091      8.000000
  0.051091  0.061309  0.051091      8.000000
  0.061309  0.061309  0.051091      4.000000
  0.000000  0.061309  0.061309      1.000000
  0.010218  0.061309  0.061309      2.000000
  0.020436  0.061309  0.061309      2.000000
  0.030655  0.061309  0.061309      2.000000
  0.040873  0.061309  0.061309      2.000000
  0.051091  0.061309  0.061309      2.000000
  0.061309  0.061309  0.061309      1.000000
 


--------------------------------------------------------------------------------------------------------




 Dimension of arrays:
   k-Points           NKPTS =    196   number of bands    NBANDS=     72
   number of dos      NEDOS =    301   number of ions     NIONS =     32
   non local maximal  LDIM  =      4   non local SUM 2l+1 LMDIM =      8
   total plane-waves  NPLWV = 216000
   max r-space proj   IRMAX =      1   max aug-charges    IRDMAX=  15696
   dimension x,y,z NGX =    60 NGY =   60 NGZ =   60
   dimension x,y,z NGXF=   120 NGYF=  120 NGZF=  120
   support grid    NGXF=   120 NGYF=  120 NGZF=  120
   ions per type =              32
 NGX,Y,Z   is equivalent  to a cutoff of  12.23, 12.23, 12.23 a.u.
 NGXF,Y,Z  is equivalent  to a cutoff of  24.46, 24.46, 24.46 a.u.


 I would recommend the setting:
   dimension x,y,z NGX =    59 NGY =   59 NGZ =   59
 SYSTEM =  unknown system                          
 POSCAR =  Al                                      

 Startparameter for this run:
   NWRITE =      2    write-flag & timer
   PREC   = accura    medium, high low
   ISTART =      0    job   : 0-new  1-cont  2-samecut
   ICHARG =      2    charge: 1-file 2-atom 10-const
   ISPIN  =      1    spin polarized calculation?
   LNONCOLLINEAR =      F non collinear calculations
   LSORBIT =      F    spin-orbit coupling
   INIWAV =      1    electr: 0-lowe 1-rand  2-diag
   LASPH  =      F    aspherical Exc in radial PAW
   METAGGA=      F    non-selfconsistent MetaGGA calc.

 Electronic Relaxation 1
   ENCUT  =  500.0 eV  36.75 Ry    6.06 a.u.  14.87 14.87 14.87*2*pi/ulx,y,z
   ENINI  =  500.0     initial cutoff
   ENAUG  =  291.1 eV  augmentation charge cutoff
   NELM   =     60;   NELMIN=  2; NELMDL=  0     # of ELM steps 
   EDIFF  = 0.1E-07   stopping-criterion for ELM
   LREAL  =      F    real-space projection
   LCOMPAT=      F    compatible to vasp.4.4
   LREAL_COMPAT= F    compatible to vasp.4.5.1-3
   GGA_COMPAT  = T    GGA compatible to vasp.4.4-vasp.4.6
   LMAXPAW     = -100 max onsite density
   LMAXMIX     =    2 max onsite mixed and CHGCAR
   VOSKOWN=      0    Vosko Wilk Nusair interpolation
   ROPT   =    0.00000
 Ionic relaxation
   EDIFFG = 0.1E-06   stopping-criterion for IOM
   NSW    =      0    number of steps for IOM
   NBLOCK =      1;   KBLOCK =      1    inner block; outer block 
   IBRION =     -1    ionic relax: 0-MD 1-quasi-New 2-CG
   NFREE  =      0    steps in history (QN), initial steepest desc. (CG)
   ISIF   =      2    stress and relaxation
   IWAVPR =     10    prediction:  0-non 1-charg 2-wave 3-comb
   ISYM   =      2    0-nonsym 1-usesym 2-fastsym
   LCORR  =      T    Harris-Foulkes like correction to forces

   POTIM  =   0.50    time-step for ionic-motion
   TEIN   =    0.0    initial temperature
   TEBEG  =    0.0;   TEEND  =   0.0 temperature during run
   SMASS  =  -3.00    Nose mass-parameter (am)
   estimated Nose-frequenzy (Omega)   =  0.10E-29 period in steps =****** mass=  -0.152E-26a.u.
   NPACO  =    256;   APACO  = 16.0  distance and # of slots for P.C.
   PSTRESS=    0.0 pullay stress

  Mass of Ions in am
   POMASS =  26.98
  Ionic Valenz
   ZVAL   =   3.00
  Atomic Wigner-Seitz radii
   RWIGS  =  -1.00
   NELECT =      96.0000    total number of electrons
   NUPDOWN=      -1.0000    fix difference up-down

 DOS related values:
   EMIN   =  10.00;   EMAX   =-10.00  energy-range for DOS
   ISMEAR =     0;   SIGMA  =   0.01  broadening in eV -4-tet -1-fermi 0-gaus

 Electronic relaxation 2 (details)
   IALGO  =     38    algorithm
   LDIAG  =      T    sub-space diagonalisation
   IMIX   =      4    mixing-type and parameters
     AMIX     =   0.40;   BMIX     =  1.00
     AMIX_MAG =   1.60;   BMIX_MAG =  1.00
     AMIN     =   0.10
     WC   =   100.;   INIMIX=   1;  MIXPRE=   1

 Intra band minimization:
   WEIMIN = 0.0000     energy-eigenvalue tresh-hold
   EBREAK =  0.38E-10  absolut break condition
   DEPER  =   0.30     relativ break condition  

   TIME   =   0.10     timestep for ELM

  volume/ion in A,a.u.               =      16.95       114.39
  Fermi-wavevector in a.u.,eV,Ry     =   0.919155 11.494831  0.844846

 Second variation
   LSECVAR=     F    do a second variation
 
 Write flags
   LWAVE  =      F    write WAVECAR
   LCHARG =      F    write CHGCAR
   LVTOT  =      F    write LOCPOT, local potential
   LELF   =      F    write electronic localiz. function (ELF)
   LORBIT =      0    0 simple, 1 ext, 2 COOP (PROOUT)


 Dipole corrections
   IDIPOL =      0    1-x, 2-y, 3-z
   LDIPOL =      F    correct potential



--------------------------------------------------------------------------------------------------------


 Static calculation
 charge density will be updated during run
 non-spin polarized calculation
 Variant of blocked Davidson
 Davidson routine will perform the subspace rotation
 performe sub-space diagonalisation
    after iterative eigenvector-optimisation
 modified Broyden-mixing scheme, WC =      100.0
 initial mixing is a Kerker type mixing with AMIX =  0.4000 and BMIX =      1.0000
 Hartree-type preconditioning will be used
 using additional bands           24
 reciprocal scheme for non local part
 use partial core corrections
 calculate Harris-corrections to forces 
   (improved forces if not selfconsistent)
 use gradient corrections 
 use of overlap-Matrix (Vanderbilt PP)
 Gauss-broadening in eV      SIGMA  =   0.01


--------------------------------------------------------------------------------------------------------


  energy-cutoff  :      500.00
  volume of cell :      542.41
      direct lattice vectors                 reciprocal lattice vectors
     8.155358867  0.000000000  0.000000000     0.122618761  0.000000000  0.000000000
     0.000000000  8.155358867  0.000000000     0.000000000  0.122618761  0.000000000
     0.000000000  0.000000000  8.155358867     0.000000000  0.000000000  0.122618761

  length of vectors
     8.155358867  8.155358867  8.155358867     0.122618761  0.122618761  0.122618761


 
 k-points in units of 2pi/SCALE and weight: Automatic mesh                          
   0.00000000  0.00000000  0.00000000       0.001
   0.01021823  0.00000000  0.00000000       0.001
   0.02043646  0.00000000  0.00000000       0.001
   0.03065469  0.00000000  0.00000000       0.001
   0.04087292  0.00000000  0.00000000       0.001
   0.05109115  0.00000000  0.00000000       0.001
   0.06130938  0.00000000  0.00000000       0.001
   0.00000000  0.01021823  0.00000000       0.002
   0.01021823  0.01021823  0.00000000       0.005
   0.02043646  0.01021823  0.00000000       0.005
   0.03065469  0.01021823  0.00000000       0.005
   0.04087292  0.01021823  0.00000000       0.005
   0.05109115  0.01021823  0.00000000       0.005
   0.06130938  0.01021823  0.00000000       0.002
   0.00000000  0.02043646  0.00000000       0.002
   0.01021823  0.02043646  0.00000000       0.005
   0.02043646  0.02043646  0.00000000       0.005
   0.03065469  0.02043646  0.00000000       0.005
   0.04087292  0.02043646  0.00000000       0.005
   0.05109115  0.02043646  0.00000000       0.005
   0.06130938  0.02043646  0.00000000       0.002
   0.00000000  0.03065469  0.00000000       0.002
   0.01021823  0.03065469  0.00000000       0.005
   0.02043646  0.03065469  0.00000000       0.005
   0.03065469  0.03065469  0.00000000       0.005
   0.04087292  0.03065469  0.00000000       0.005
   0.05109115  0.03065469  0.00000000       0.005
   0.06130938  0.03065469  0.00000000       0.002
   0.00000000  0.04087292  0.00000000       0.002
   0.01021823  0.04087292  0.00000000       0.005
   0.02043646  0.04087292  0.00000000       0.005
   0.03065469  0.04087292  0.00000000       0.005
   0.04087292  0.04087292  0.00000000       0.005
   0.05109115  0.04087292  0.00000000       0.005
   0.06130938  0.04087292  0.00000000       0.002
   0.00000000  0.05109115  0.00000000       0.002
   0.01021823  0.05109115  0.00000000       0.005
   0.02043646  0.05109115  0.00000000       0.005
   0.03065469  0.05109115  0.00000000       0.005
   0.04087292  0.05109115  0.00000000       0.005
   0.05109115  0.05109115  0.00000000       0.005
   0.06130938  0.05109115  0.00000000       0.002
   0.00000000  0.06130938  0.00000000       0.001
   0.01021823  0.06130938  0.00000000       0.002
   0.02043646  0.06130938  0.00000000       0.002
   0.03065469  0.06130938  0.00000000       0.002
   0.04087292  0.06130938  0.00000000       0.002
   0.05109115  0.06130938  0.00000000       0.002
   0.06130938  0.06130938  0.00000000       0.001
   0.00000000  0.01021823  0.01021823       0.002
   0.01021823  0.01021823  0.01021823       0.005
   0.02043646  0.01021823  0.01021823       0.005
   0.03065469  0.01021823  0.01021823       0.005
   0.04087292  0.01021823  0.01021823       0.005
   0.05109115  0.01021823  0.01021823       0.005
   0.06130938  0.01021823  0.01021823       0.002
   0.00000000  0.02043646  0.01021823       0.005
   0.01021823  0.02043646  0.01021823       0.009
   0.02043646  0.02043646  0.01021823       0.009
   0.03065469  0.02043646  0.01021823       0.009
   0.04087292  0.02043646  0.01021823       0.009
   0.05109115  0.02043646  0.01021823       0.009
   0.06130938  0.02043646  0.01021823       0.005
   0.00000000  0.03065469  0.01021823       0.005
   0.01021823  0.03065469  0.01021823       0.009
   0.02043646  0.03065469  0.01021823       0.009
   0.03065469  0.03065469  0.01021823       0.009
   0.04087292  0.03065469  0.01021823       0.009
   0.05109115  0.03065469  0.01021823       0.009
   0.06130938  0.03065469  0.01021823       0.005
   0.00000000  0.04087292  0.01021823       0.005
   0.01021823  0.04087292  0.01021823       0.009
   0.02043646  0.04087292  0.01021823       0.009
   0.03065469  0.04087292  0.01021823       0.009
   0.04087292  0.04087292  0.01021823       0.009
   0.05109115  0.04087292  0.01021823       0.009
   0.06130938  0.04087292  0.01021823       0.005
   0.00000000  0.05109115  0.01021823       0.005
   0.01021823  0.05109115  0.01021823       0.009
   0.02043646  0.05109115  0.01021823       0.009
   0.03065469  0.05109115  0.01021823       0.009
   0.04087292  0.05109115  0.01021823       0.009
   0.05109115  0.05109115  0.01021823       0.009
   0.06130938  0.05109115  0.01021823       0.005
   0.00000000  0.06130938  0.01021823       0.002
   0.01021823  0.06130938  0.01021823       0.005
   0.02043646  0.06130938  0.01021823       0.005
   0.03065469  0.06130938  0.01021823       0.005
   0.04087292  0.06130938  0.01021823       0.005
   0.05109115  0.06130938  0.01021823       0.005
   0.06130938  0.06130938  0.01021823       0.002
   0.00000000  0.02043646  0.02043646       0.002
   0.01021823  0.02043646  0.02043646       0.005
   0.02043646  0.02043646  0.02043646       0.005
   0.03065469  0.02043646  0.02043646       0.005
   0.04087292  0.02043646  0.02043646       0.005
   0.05109115  0.02043646  0.02043646       0.005
   0.06130938  0.02043646  0.02043646       0.002
   0.00000000  0.03065469  0.02043646       0.005
   0.01021823  0.03065469  0.02043646       0.009
   0.02043646  0.03065469  0.02043646       0.009
   0.03065469  0.03065469  0.02043646       0.009
   0.04087292  0.03065469  0.02043646       0.009
   0.05109115  0.03065469  0.02043646       0.009
   0.06130938  0.03065469  0.02043646       0.005
   0.00000000  0.04087292  0.02043646       0.005
   0.01021823  0.04087292  0.02043646       0.009
   0.02043646  0.04087292  0.02043646       0.009
   0.03065469  0.04087292  0.02043646       0.009
   0.04087292  0.04087292  0.02043646       0.009
   0.05109115  0.04087292  0.02043646       0.009
   0.06130938  0.04087292  0.02043646       0.005
   0.00000000  0.05109115  0.02043646       0.005
   0.01021823  0.05109115  0.02043646       0.009
   0.02043646  0.05109115  0.02043646       0.009
   0.03065469  0.05109115  0.02043646       0.009
   0.04087292  0.05109115  0.02043646       0.009
   0.05109115  0.05109115  0.02043646       0.009
   0.06130938  0.05109115  0.02043646       0.005
   0.00000000  0.06130938  0.02043646       0.002
   0.01021823  0.06130938  0.02043646       0.005
   0.02043646  0.06130938  0.02043646       0.005
   0.03065469  0.06130938  0.02043646       0.005
   0.04087292  0.06130938  0.02043646       0.005
   0.05109115  0.06130938  0.02043646       0.005
   0.06130938  0.06130938  0.02043646       0.002
   0.00000000  0.03065469  0.03065469       0.002
   0.01021823  0.03065469  0.03065469       0.005
   0.02043646  0.03065469  0.03065469       0.005
   0.03065469  0.03065469  0.03065469       0.005
   0.04087292  0.03065469  0.03065469       0.005
   0.05109115  0.03065469  0.03065469       0.005
   0.06130938  0.03065469  0.03065469       0.002
   0.00000000  0.04087292  0.03065469       0.005
   0.01021823  0.04087292  0.03065469       0.009
   0.02043646  0.04087292  0.03065469       0.009
   0.03065469  0.04087292  0.03065469       0.009
   0.04087292  0.04087292  0.03065469       0.009
   0.05109115  0.04087292  0.03065469       0.009
   0.06130938  0.04087292  0.03065469       0.005
   0.00000000  0.05109115  0.03065469       0.005
   0.01021823  0.05109115  0.03065469       0.009
   0.02043646  0.05109115  0.03065469       0.009
   0.03065469  0.05109115  0.03065469       0.009
   0.04087292  0.05109115  0.03065469       0.009
   0.05109115  0.05109115  0.03065469       0.009
   0.06130938  0.05109115  0.03065469       0.005
   0.00000000  0.06130938  0.03065469       0.002
   0.01021823  0.06130938  0.03065469       0.005
   0.02043646  0.06130938  0.03065469       0.005
   0.03065469  0.06130938  0.03065469       0.005
   0.04087292  0.06130938  0.03065469       0.005
   0.05109115  0.06130938  0.03065469       0.005
   0.06130938  0.06130938  0.03065469       0.002
   0.00000000  0.04087292  0.04087292       0.002
   0.01021823  0.04087292  0.04087292       0.005
   0.02043646  0.04087292  0.04087292       0.005
   0.03065469  0.04087292  0.04087292       0.005
   0.04087292  0.04087292  0.04087292       0.005
   0.05109115  0.04087292  0.04087292       0.005
   0.06130938  0.04087292  0.04087292       0.002
   0.00000000  0.05109115  0.04087292       0.005
   0.01021823  0.05109115  0.04087292       0.009
   0.02043646  0.05109115  0.04087292       0.009
   0.03065469  0.05109115  0.04087292       0.009
   0.04087292  0.05109115  0.04087292       0.009
   0.05109115  0.05109115  0.04087292       0.009
   0.06130938  0.05109115  0.04087292       0.005
   0.00000000  0.06130938  0.04087292       0.002
   0.01021823  0.06130938  0.04087292       0.005
   0.02043646  0.06130938  0.04087292       0.005
   0.03065469  0.06130938  0.04087292       0.005
   0.04087292  0.06130938  0.04087292       0.005
   0.05109115  0.06130938  0.04087292       0.005
   0.06130938  0.06130938  0.04087292       0.002
   0.00000000  0.05109115  0.05109115       0.002
   0.01021823  0.05109115  0.05109115       0.005
   0.02043646  0.05109115  0.05109115       0.005
   0.03065469  0.05109115  0.05109115       0.005
   0.04087292  0.05109115  0.05109115       0.005
   0.05109115  0.05109115  0.05109115       0.005
   0.06130938  0.05109115  0.05109115       0.002
   0.00000000  0.06130938  0.05109115       0.002
   0.01021823  0.06130938  0.05109115       0.005
   0.02043646  0.06130938  0.05109115       0.005
   0.03065469  0.06130938  0.05109115       0.005
   0.04087292  0.06130938  0.05109115       0.005
   0.05109115  0.06130938  0.05109115       0.005
   0.06130938  0.06130938  0.05109115       0.002
   0.00000000  0.06130938  0.06130938       0.001
   0.01021823  0.06130938  0.06130938       0.001
   0.02043646  0.06130938  0.06130938       0.001
   0.03065469  0.06130938  0.06130938       0.001
   0.04087292  0.06130938  0.06130938       0.001
   0.05109115  0.06130938  0.06130938       0.001
   0.06130938  0.06130938  0.06130938       0.001
 
 k-points in reciprocal lattice and weights: Automatic mesh                          
   0.00000000  0.00000000  0.00000000       0.001
   0.08333333  0.00000000  0.00000000       0.001
   0.16666667  0.00000000  0.00000000       0.001
   0.25000000  0.00000000  0.00000000       0.001
   0.33333333  0.00000000  0.00000000       0.001
   0.41666667  0.00000000  0.00000000       0.001
   0.50000000  0.00000000  0.00000000       0.001
   0.00000000  0.08333333  0.00000000       0.002
   0.08333333  0.08333333  0.00000000       0.005
   0.16666667  0.08333333  0.00000000       0.005
   0.25000000  0.08333333  0.00000000       0.005
   0.33333333  0.08333333  0.00000000       0.005
   0.41666667  0.08333333  0.00000000       0.005
   0.50000000  0.08333333  0.00000000       0.002
   0.00000000  0.16666667  0.00000000       0.002
   0.08333333  0.16666667  0.00000000       0.005
   0.16666667  0.16666667  0.00000000       0.005
   0.25000000  0.16666667  0.00000000       0.005
   0.33333333  0.16666667  0.00000000       0.005
   0.41666667  0.16666667  0.00000000       0.005
   0.50000000  0.16666667  0.00000000       0.002
   0.00000000  0.25000000  0.00000000       0.002
   0.08333333  0.25000000  0.00000000       0.005
   0.16666667  0.25000000  0.00000000       0.005
   0.25000000  0.25000000  0.00000000       0.005
   0.33333333  0.25000000  0.00000000       0.005
   0.41666667  0.25000000  0.00000000       0.005
   0.50000000  0.25000000  0.00000000       0.002
   0.00000000  0.33333333  0.00000000       0.002
   0.08333333  0.33333333  0.00000000       0.005
   0.16666667  0.33333333  0.00000000       0.005
   0.25000000  0.33333333  0.00000000       0.005
   0.33333333  0.33333333  0.00000000       0.005
   0.41666667  0.33333333  0.00000000       0.005
   0.50000000  0.33333333  0.00000000       0.002
   0.00000000  0.41666667  0.00000000       0.002
   0.08333333  0.41666667  0.00000000       0.005
   0.16666667  0.41666667  0.00000000       0.005
   0.25000000  0.41666667  0.00000000       0.005
   0.33333333  0.41666667  0.00000000       0.005
   0.41666667  0.41666667  0.00000000       0.005
   0.50000000  0.41666667  0.00000000       0.002
   0.00000000  0.50000000  0.00000000       0.001
   0.08333333  0.50000000  0.00000000       0.002
   0.16666667  0.50000000  0.00000000       0.002
   0.25000000  0.50000000  0.00000000       0.002
   0.33333333  0.50000000  0.00000000       0.002
   0.41666667  0.50000000  0.00000000       0.002
   0.50000000  0.50000000  0.00000000       0.001
   0.00000000  0.08333333  0.08333333       0.002
   0.08333333  0.08333333  0.08333333       0.005
   0.16666667  0.08333333  0.08333333       0.005
   0.25000000  0.08333333  0.08333333       0.005
   0.33333333  0.08333333  0.08333333       0.005
   0.41666667  0.08333333  0.08333333       0.005
   0.50000000  0.08333333  0.08333333       0.002
   0.00000000  0.16666667  0.08333333       0.005
   0.08333333  0.16666667  0.08333333       0.009
   0.16666667  0.16666667  0.08333333       0.009
   0.25000000  0.16666667  0.08333333       0.009
   0.33333333  0.16666667  0.08333333       0.009
   0.41666667  0.16666667  0.08333333       0.009
   0.50000000  0.16666667  0.08333333       0.005
   0.00000000  0.25000000  0.08333333       0.005
   0.08333333  0.25000000  0.08333333       0.009
   0.16666667  0.25000000  0.08333333       0.009
   0.25000000  0.25000000  0.08333333       0.009
   0.33333333  0.25000000  0.08333333       0.009
   0.41666667  0.25000000  0.08333333       0.009
   0.50000000  0.25000000  0.08333333       0.005
   0.00000000  0.33333333  0.08333333       0.005
   0.08333333  0.33333333  0.08333333       0.009
   0.16666667  0.33333333  0.08333333       0.009
   0.25000000  0.33333333  0.08333333       0.009
   0.33333333  0.33333333  0.08333333       0.009
   0.41666667  0.33333333  0.08333333       0.009
   0.50000000  0.33333333  0.08333333       0.005
   0.00000000  0.41666667  0.08333333       0.005
   0.08333333  0.41666667  0.08333333       0.009
   0.16666667  0.41666667  0.08333333       0.009
   0.25000000  0.41666667  0.08333333       0.009
   0.33333333  0.41666667  0.08333333       0.009
   0.41666667  0.41666667  0.08333333       0.009
   0.50000000  0.41666667  0.08333333       0.005
   0.00000000  0.50000000  0.08333333       0.002
   0.08333333  0.50000000  0.08333333       0.005
   0.16666667  0.50000000  0.08333333       0.005
   0.25000000  0.50000000  0.08333333       0.005
   0.33333333  0.50000000  0.08333333       0.005
   0.41666667  0.50000000  0.08333333       0.005
   0.50000000  0.50000000  0.08333333       0.002
   0.00000000  0.16666667  0.16666667       0.002
   0.08333333  0.16666667  0.16666667       0.005
   0.16666667  0.16666667  0.16666667       0.005
   0.25000000  0.16666667  0.16666667       0.005
   0.33333333  0.16666667  0.16666667       0.005
   0.41666667  0.16666667  0.16666667       0.005
   0.50000000  0.16666667  0.16666667       0.002
   0.00000000  0.25000000  0.16666667       0.005
   0.08333333  0.25000000  0.16666667       0.009
   0.16666667  0.25000000  0.16666667       0.009
   0.25000000  0.25000000  0.16666667       0.009
   0.33333333  0.25000000  0.16666667       0.009
   0.41666667  0.25000000  0.16666667       0.009
   0.50000000  0.25000000  0.16666667       0.005
   0.00000000  0.33333333  0.16666667       0.005
   0.08333333  0.33333333  0.16666667       0.009
   0.16666667  0.33333333  0.16666667       0.009
   0.25000000  0.33333333  0.16666667       0.009
   0.33333333  0.33333333  0.16666667       0.009
   0.41666667  0.33333333  0.16666667       0.009
   0.50000000  0.33333333  0.16666667       0.005
   0.00000000  0.41666667  0.16666667       0.005
   0.08333333  0.41666667  0.16666667       0.009
   0.16666667  0.41666667  0.16666667       0.009
   0.25000000  0.41666667  0.16666667       0.009
   0.33333333  0.41666667  0.16666667       0.009
   0.41666667  0.41666667  0.16666667       0.009
   0.50000000  0.41666667  0.16666667       0.005
   0.00000000  0.50000000  0.16666667       0.002
   0.08333333  0.50000000  0.16666667       0.005
   0.16666667  0.50000000  0.16666667       0.005
   0.25000000  0.50000000  0.16666667       0.005
   0.33333333  0.50000000  0.16666667       0.005
   0.41666667  0.50000000  0.16666667       0.005
   0.50000000  0.50000000  0.16666667       0.002
   0.00000000  0.25000000  0.25000000       0.002
   0.08333333  0.25000000  0.25000000       0.005
   0.16666667  0.25000000  0.25000000       0.005
   0.25000000  0.25000000  0.25000000       0.005
   0.33333333  0.25000000  0.25000000       0.005
   0.41666667  0.25000000  0.25000000       0.005
   0.50000000  0.25000000  0.25000000       0.002
   0.00000000  0.33333333  0.25000000       0.005
   0.08333333  0.33333333  0.25000000       0.009
   0.16666667  0.33333333  0.25000000       0.009
   0.25000000  0.33333333  0.25000000       0.009
   0.33333333  0.33333333  0.25000000       0.009
   0.41666667  0.33333333  0.25000000       0.009
   0.50000000  0.33333333  0.25000000       0.005
   0.00000000  0.41666667  0.25000000       0.005
   0.08333333  0.41666667  0.25000000       0.009
   0.16666667  0.41666667  0.25000000       0.009
   0.25000000  0.41666667  0.25000000       0.009
   0.33333333  0.41666667  0.25000000       0.009
   0.41666667  0.41666667  0.25000000       0.009
   0.50000000  0.41666667  0.25000000       0.005
   0.00000000  0.50000000  0.25000000       0.002
   0.08333333  0.50000000  0.25000000       0.005
   0.16666667  0.50000000  0.25000000       0.005
   0.25000000  0.50000000  0.25000000       0.005
   0.33333333  0.50000000  0.25000000       0.005
   0.41666667  0.50000000  0.25000000       0.005
   0.50000000  0.50000000  0.25000000       0.002
   0.00000000  0.33333333  0.33333333       0.002
   0.08333333  0.33333333  0.33333333       0.005
   0.16666667  0.33333333  0.33333333       0.005
   0.25000000  0.33333333  0.33333333       0.005
   0.33333333  0.33333333  0.33333333       0.005
   0.41666667  0.33333333  0.33333333       0.005
   0.50000000  0.33333333  0.33333333       0.002
   0.00000000  0.41666667  0.33333333       0.005
   0.08333333  0.41666667  0.33333333       0.009
   0.16666667  0.41666667  0.33333333       0.009
   0.25000000  0.41666667  0.33333333       0.009
   0.33333333  0.41666667  0.33333333       0.009
   0.41666667  0.41666667  0.33333333       0.009
   0.50000000  0.41666667  0.33333333       0.005
   0.00000000  0.50000000  0.33333333       0.002
   0.08333333  0.50000000  0.33333333       0.005
   0.16666667  0.50000000  0.33333333       0.005
   0.25000000  0.50000000  0.33333333       0.005
   0.33333333  0.50000000  0.33333333       0.005
   0.41666667  0.50000000  0.33333333       0.005
   0.50000000  0.50000000  0.33333333       0.002
   0.00000000  0.41666667  0.41666667       0.002
   0.08333333  0.41666667  0.41666667       0.005
   0.16666667  0.41666667  0.41666667       0.005
   0.25000000  0.41666667  0.41666667       0.005
   0.33333333  0.41666667  0.41666667       0.005
   0.41666667  0.41666667  0.41666667       0.005
   0.50000000  0.41666667  0.41666667       0.002
   0.00000000  0.50000000  0.41666667       0.002
   0.08333333  0.50000000  0.41666667       0.005
   0.16666667  0.50000000  0.41666667       0.005
   0.25000000  0.50000000  0.41666667       0.005
   0.33333333  0.50000000  0.41666667       0.005
   0.41666667  0.50000000  0.41666667       0.005
   0.50000000  0.50000000  0.41666667       0.002
   0.00000000  0.50000000  0.50000000       0.001
   0.08333333  0.50000000  0.50000000       0.001
   0.16666667  0.50000000  0.50000000       0.001
   0.25000000  0.50000000  0.50000000       0.001
   0.33333333  0.50000000  0.50000000       0.001
   0.41666667  0.50000000  0.50000000       0.001
   0.50000000  0.50000000  0.50000000       0.001
 
 position of ions in fractional coordinates (direct lattice) 
   0.25122619  0.25000000  0.00000000
   0.75000000  0.25000000  0.00000000
   0.25000000  0.75000000  0.00000000
   0.75000000  0.75000000  0.00000000
   0.25000000  0.25000000  0.50000000
   0.75000000  0.25000000  0.50000000
   0.25000000  0.75000000  0.50000000
   0.75000000  0.75000000  0.50000000
   0.25000000  0.00000000  0.25000000
   0.75000000  0.00000000  0.25000000
   0.25000000  0.50000000  0.25000000
   0.75000000  0.50000000  0.25000000
   0.25000000  0.00000000  0.75000000
   0.75000000  0.00000000  0.75000000
   0.25000000  0.50000000  0.75000000
   0.75000000  0.50000000  0.75000000
   0.00000000  0.25000000  0.25000000
   0.50000000  0.25000000  0.25000000
   0.00000000  0.75000000  0.25000000
   0.50000000  0.75000000  0.25000000
   0.00000000  0.25000000  0.75000000
   0.50000000  0.25000000  0.75000000
   0.00000000  0.75000000  0.75000000
   0.50000000  0.75000000  0.75000000
   0.00000000  0.00000000  0.00000000
   0.50000000  0.00000000  0.00000000
   0.00000000  0.50000000  0.00000000
   0.50000000  0.50000000  0.00000000
   0.00000000  0.00000000  0.50000000
   0.50000000  0.00000000  0.50000000
   0.00000000  0.50000000  0.50000000
   0.50000000  0.50000000  0.50000000
 
 position of ions in cartesian coordinates  (Angst):
   2.04883972  2.03883972  0.00000000
   6.11651915  2.03883972  0.00000000
   2.03883972  6.11651915  0.00000000
   6.11651915  6.11651915  0.00000000
   2.03883972  2.03883972  4.07767943
   6.11651915  2.03883972  4.07767943
   2.03883972  6.11651915  4.07767943
   6.11651915  6.11651915  4.07767943
   2.03883972  0.00000000  2.03883972
   6.11651915  0.00000000  2.03883972
   2.03883972  4.07767943  2.03883972
   6.11651915  4.07767943  2.03883972
   2.03883972  0.00000000  6.11651915
   6.11651915  0.00000000  6.11651915
   2.03883972  4.07767943  6.11651915
   6.11651915  4.07767943  6.11651915
   0.00000000  2.03883972  2.03883972
   4.07767943  2.03883972  2.03883972
   0.00000000  6.11651915  2.03883972
   4.07767943  6.11651915  2.03883972
   0.00000000  2.03883972  6.11651915
   4.07767943  2.03883972  6.11651915
   0.00000000  6.11651915  6.11651915
   4.07767943  6.11651915  6.11651915
   0.00000000  0.00000000  0.00000000
   4.07767943  0.00000000  0.00000000
   0.00000000  4.07767943  0.00000000
   4.07767943  4.07767943  0.00000000
   0.00000000  0.00000000  4.07767943
   4.07767943  0.00000000  4.07767943
   0.00000000  4.07767943  4.07767943
   4.07767943  4.07767943  4.07767943
 


--------------------------------------------------------------------------------------------------------


 k-point  1 :  0.00000.00000.0000  plane waves:  13805
 k-point  2 :  0.08330.00000.0000  plane waves:  13745
 k-point  3 :  0.16670.00000.0000  plane waves:  13738
 k-point  4 :  0.25000.00000.0000  plane waves:  13742
 k-point  5 :  0.33330.00000.0000  plane waves:  13718
 k-point  6 :  0.41670.00000.0000  plane waves:  13758
 k-point  7 :  0.50000.00000.0000  plane waves:  13758
 k-point  8 :  0.00000.08330.0000  plane waves:  13745
 k-point  9 :  0.08330.08330.0000  plane waves:  13745
 k-point 10 :  0.16670.08330.0000  plane waves:  13742
 k-point 11 :  0.25000.08330.0000  plane waves:  13750
 k-point 12 :  0.33330.08330.0000  plane waves:  13743
 k-point 13 :  0.41670.08330.0000  plane waves:  13770
 k-point 14 :  0.50000.08330.0000  plane waves:  13768
 k-point 15 :  0.00000.16670.0000  plane waves:  13738
 k-point 16 :  0.08330.16670.0000  plane waves:  13742
 k-point 17 :  0.16670.16670.0000  plane waves:  13755
 k-point 18 :  0.25000.16670.0000  plane waves:  13750
 k-point 19 :  0.33330.16670.0000  plane waves:  13760
 k-point 20 :  0.41670.16670.0000  plane waves:  13765
 k-point 21 :  0.50000.16670.0000  plane waves:  13784
 k-point 22 :  0.00000.25000.0000  plane waves:  13742
 k-point 23 :  0.08330.25000.0000  plane waves:  13750
 k-point 24 :  0.16670.25000.0000  plane waves:  13750
 k-point 25 :  0.25000.25000.0000  plane waves:  13759
 k-point 26 :  0.33330.25000.0000  plane waves:  13787
 k-point 27 :  0.41670.25000.0000  plane waves:  13799
 k-point 28 :  0.50000.25000.0000  plane waves:  13802
 k-point 29 :  0.00000.33330.0000  plane waves:  13718
 k-point 30 :  0.08330.33330.0000  plane waves:  13743
 k-point 31 :  0.16670.33330.0000  plane waves:  13760
 k-point 32 :  0.25000.33330.0000  plane waves:  13787
 k-point 33 :  0.33330.33330.0000  plane waves:  13787
 k-point 34 :  0.41670.33330.0000  plane waves:  13775
 k-point 35 :  0.50000.33330.0000  plane waves:  13792
 k-point 36 :  0.00000.41670.0000  plane waves:  13758
 k-point 37 :  0.08330.41670.0000  plane waves:  13770
 k-point 38 :  0.16670.41670.0000  plane waves:  13765
 k-point 39 :  0.25000.41670.0000  plane waves:  13799
 k-point 40 :  0.33330.41670.0000  plane waves:  13775
 k-point 41 :  0.41670.41670.0000  plane waves:  13779
 k-point 42 :  0.50000.41670.0000  plane waves:  13776
 k-point 43 :  0.00000.50000.0000  plane waves:  13758
 k-point 44 :  0.08330.50000.0000  plane waves:  13768
 k-point 45 :  0.16670.50000.0000  plane waves:  13784
 k-point 46 :  0.25000.50000.0000  plane waves:  13802
 k-point 47 :  0.33330.50000.0000  plane waves:  13792
 k-point 48 :  0.41670.50000.0000  plane waves:  13776
 k-point 49 :  0.50000.50000.0000  plane waves:  13780
 k-point 50 :  0.00000.08330.0833  plane waves:  13745
 k-point 51 :  0.08330.08330.0833  plane waves:  13724
 k-point 52 :  0.16670.08330.0833  plane waves:  13740
 k-point 53 :  0.25000.08330.0833  plane waves:  13743
 k-point 54 :  0.33330.08330.0833  plane waves:  13756
 k-point 55 :  0.41670.08330.0833  plane waves:  13763
 k-point 56 :  0.50000.08330.0833  plane waves:  13770
 k-point 57 :  0.00000.16670.0833  plane waves:  13742
 k-point 58 :  0.08330.16670.0833  plane waves:  13740
 k-point 59 :  0.16670.16670.0833  plane waves:  13757
 k-point 60 :  0.25000.16670.0833  plane waves:  13758
 k-point 61 :  0.33330.16670.0833  plane waves:  13772
 k-point 62 :  0.41670.16670.0833  plane waves:  13777
 k-point 63 :  0.50000.16670.0833  plane waves:  13760
 k-point 64 :  0.00000.25000.0833  plane waves:  13750
 k-point 65 :  0.08330.25000.0833  plane waves:  13743
 k-point 66 :  0.16670.25000.0833  plane waves:  13758
 k-point 67 :  0.25000.25000.0833  plane waves:  13768
 k-point 68 :  0.33330.25000.0833  plane waves:  13771
 k-point 69 :  0.41670.25000.0833  plane waves:  13790
 k-point 70 :  0.50000.25000.0833  plane waves:  13786
 k-point 71 :  0.00000.33330.0833  plane waves:  13743
 k-point 72 :  0.08330.33330.0833  plane waves:  13756
 k-point 73 :  0.16670.33330.0833  plane waves:  13772
 k-point 74 :  0.25000.33330.0833  plane waves:  13771
 k-point 75 :  0.33330.33330.0833  plane waves:  13779
 k-point 76 :  0.41670.33330.0833  plane waves:  13764
 k-point 77 :  0.50000.33330.0833  plane waves:  13798
 k-point 78 :  0.00000.41670.0833  plane waves:  13770
 k-point 79 :  0.08330.41670.0833  plane waves:  13763
 k-point 80 :  0.16670.41670.0833  plane waves:  13777
 k-point 81 :  0.25000.41670.0833  plane waves:  13790
 k-point 82 :  0.33330.41670.0833  plane waves:  13764
 k-point 83 :  0.41670.41670.0833  plane waves:  13768
 k-point 84 :  0.50000.41670.0833  plane waves:  13778
 k-point 85 :  0.00000.50000.0833  plane waves:  13768
 k-point 86 :  0.08330.50000.0833  plane waves:  13770
 k-point 87 :  0.16670.50000.0833  plane waves:  13760
 k-point 88 :  0.25000.50000.0833  plane waves:  13786
 k-point 89 :  0.33330.50000.0833  plane waves:  13798
 k-point 90 :  0.41670.50000.0833  plane waves:  13778
 k-point 91 :  0.50000.50000.0833  plane waves:  13776
 k-point 92 :  0.00000.16670.1667  plane waves:  13755
 k-point 93 :  0.08330.16670.1667  plane waves:  13757
 k-point 94 :  0.16670.16670.1667  plane waves:  13736
 k-point 95 :  0.25000.16670.1667  plane waves:  13753
 k-point 96 :  0.33330.16670.1667  plane waves:  13767
 k-point 97 :  0.41670.16670.1667  plane waves:  13781
 k-point 98 :  0.50000.16670.1667  plane waves:  13804
 k-point 99 :  0.00000.25000.1667  plane waves:  13750
 k-point ** :  0.08330.25000.1667  plane waves:  13758
 k-point ** :  0.16670.25000.1667  plane waves:  13753
 k-point ** :  0.25000.25000.1667  plane waves:  13754
 k-point ** :  0.33330.25000.1667  plane waves:  13773
 k-point ** :  0.41670.25000.1667  plane waves:  13777
 k-point ** :  0.50000.25000.1667  plane waves:  13776
 k-point ** :  0.00000.33330.1667  plane waves:  13760
 k-point ** :  0.08330.33330.1667  plane waves:  13772
 k-point ** :  0.16670.33330.1667  plane waves:  13767
 k-point ** :  0.25000.33330.1667  plane waves:  13773
 k-point ** :  0.33330.33330.1667  plane waves:  13777
 k-point ** :  0.41670.33330.1667  plane waves:  13775
 k-point ** :  0.50000.33330.1667  plane waves:  13790
 k-point ** :  0.00000.41670.1667  plane waves:  13765
 k-point ** :  0.08330.41670.1667  plane waves:  13777
 k-point ** :  0.16670.41670.1667  plane waves:  13781
 k-point ** :  0.25000.41670.1667  plane waves:  13777
 k-point ** :  0.33330.41670.1667  plane waves:  13775
 k-point ** :  0.41670.41670.1667  plane waves:  13778
 k-point ** :  0.50000.41670.1667  plane waves:  13768
 k-point ** :  0.00000.50000.1667  plane waves:  13784
 k-point ** :  0.08330.50000.1667  plane waves:  13760
 k-point ** :  0.16670.50000.1667  plane waves:  13804
 k-point ** :  0.25000.50000.1667  plane waves:  13776
 k-point ** :  0.33330.50000.1667  plane waves:  13790
 k-point ** :  0.41670.50000.1667  plane waves:  13768
 k-point ** :  0.50000.50000.1667  plane waves:  13756
 k-point ** :  0.00000.25000.2500  plane waves:  13759
 k-point ** :  0.08330.25000.2500  plane waves:  13768
 k-point ** :  0.16670.25000.2500  plane waves:  13754
 k-point ** :  0.25000.25000.2500  plane waves:  13727
 k-point ** :  0.33330.25000.2500  plane waves:  13767
 k-point ** :  0.41670.25000.2500  plane waves:  13773
 k-point ** :  0.50000.25000.2500  plane waves:  13788
 k-point ** :  0.00000.33330.2500  plane waves:  13787
 k-point ** :  0.08330.33330.2500  plane waves:  13771
 k-point ** :  0.16670.33330.2500  plane waves:  13773
 k-point ** :  0.25000.33330.2500  plane waves:  13767
 k-point ** :  0.33330.33330.2500  plane waves:  13763
 k-point ** :  0.41670.33330.2500  plane waves:  13775
 k-point ** :  0.50000.33330.2500  plane waves:  13774
 k-point ** :  0.00000.41670.2500  plane waves:  13799
 k-point ** :  0.08330.41670.2500  plane waves:  13790
 k-point ** :  0.16670.41670.2500  plane waves:  13777
 k-point ** :  0.25000.41670.2500  plane waves:  13773
 k-point ** :  0.33330.41670.2500  plane waves:  13775
 k-point ** :  0.41670.41670.2500  plane waves:  13791
 k-point ** :  0.50000.41670.2500  plane waves:  13764
 k-point ** :  0.00000.50000.2500  plane waves:  13802
 k-point ** :  0.08330.50000.2500  plane waves:  13786
 k-point ** :  0.16670.50000.2500  plane waves:  13776
 k-point ** :  0.25000.50000.2500  plane waves:  13788
 k-point ** :  0.33330.50000.2500  plane waves:  13774
 k-point ** :  0.41670.50000.2500  plane waves:  13764
 k-point ** :  0.50000.50000.2500  plane waves:  13772
 k-point ** :  0.00000.33330.3333  plane waves:  13787
 k-point ** :  0.08330.33330.3333  plane waves:  13779
 k-point ** :  0.16670.33330.3333  plane waves:  13777
 k-point ** :  0.25000.33330.3333  plane waves:  13763
 k-point ** :  0.33330.33330.3333  plane waves:  13793
 k-point ** :  0.41670.33330.3333  plane waves:  13789
 k-point ** :  0.50000.33330.3333  plane waves:  13764
 k-point ** :  0.00000.41670.3333  plane waves:  13775
 k-point ** :  0.08330.41670.3333  plane waves:  13764
 k-point ** :  0.16670.41670.3333  plane waves:  13775
 k-point ** :  0.25000.41670.3333  plane waves:  13775
 k-point ** :  0.33330.41670.3333  plane waves:  13789
 k-point ** :  0.41670.41670.3333  plane waves:  13767
 k-point ** :  0.50000.41670.3333  plane waves:  13770
 k-point ** :  0.00000.50000.3333  plane waves:  13792
 k-point ** :  0.08330.50000.3333  plane waves:  13798
 k-point ** :  0.16670.50000.3333  plane waves:  13790
 k-point ** :  0.25000.50000.3333  plane waves:  13774
 k-point ** :  0.33330.50000.3333  plane waves:  13764
 k-point ** :  0.41670.50000.3333  plane waves:  13770
 k-point ** :  0.50000.50000.3333  plane waves:  13768
 k-point ** :  0.00000.41670.4167  plane waves:  13779
 k-point ** :  0.08330.41670.4167  plane waves:  13768
 k-point ** :  0.16670.41670.4167  plane waves:  13778
 k-point ** :  0.25000.41670.4167  plane waves:  13791
 k-point ** :  0.33330.41670.4167  plane waves:  13767
 k-point ** :  0.41670.41670.4167  plane waves:  13791
 k-point ** :  0.50000.41670.4167  plane waves:  13752
 k-point ** :  0.00000.50000.4167  plane waves:  13776
 k-point ** :  0.08330.50000.4167  plane waves:  13778
 k-point ** :  0.16670.50000.4167  plane waves:  13768
 k-point ** :  0.25000.50000.4167  plane waves:  13764
 k-point ** :  0.33330.50000.4167  plane waves:  13770
 k-point ** :  0.41670.50000.4167  plane waves:  13752
 k-point ** :  0.50000.50000.4167  plane waves:  13772
 k-point ** :  0.00000.50000.5000  plane waves:  13780
 k-point ** :  0.08330.50000.5000  plane waves:  13776
 k-point ** :  0.16670.50000.5000  plane waves:  13756
 k-point ** :  0.25000.50000.5000  plane waves:  13772
 k-point ** :  0.33330.50000.5000  plane waves:  13768
 k-point ** :  0.41670.50000.5000  plane waves:  13772
 k-point ** :  0.50000.50000.5000  plane waves:  13776

 maximum and minimum number of plane-waves per node :  13805 13718

 maximum number of plane-waves:  13805
 maximal index in each direction: 
   IXMAX= 14   IYMAX= 14   IZMAX= 14
   IXMIN=-15   IYMIN=-15   IZMIN=-15

 NGX is ok and might be reduce to  60
 NGY is ok and might be reduce to  60
 NGZ is ok and might be reduce to  60

 parallel 3dFFT wavefunction:
    minimum data exchange during FFTs selected (reduces bandwidth)
 parallel 3dFFT charge:
    minimum data exchange during FFTs selected (reduces bandwidth)

 For storing wavefunctions 3108.98 MBYTES are necessary
 For predicting wavefunctions   35.06 MBYTES are necessary
Broyden mixing: mesh for mixing (old mesh)
   NGX = 29   NGY = 29   NGZ = 29
  (NGX  =120   NGY  =120   NGZ  =120)
 gives a total of  24389 points
 initial charge density was supplied:
 charge density of overlapping atoms calculated
 number of electron   96.0000000 magnetization 
 keeping initial charge density in first step


--------------------------------------------------------------------------------------------------------


 Maximum index for augmentation-charges         1948 (set IRDMAX)


--------------------------------------------------------------------------------------------------------


 First call to EWALD:  gamma=   0.217
 Maximum number of real-space cells 3x 3x 3
 Maximum number of reciprocal cells 3x 3x 3

    FEWALD:  VPU time    0.00: CPU time    0.00


----------------------------------------- Iteration    1(   1)  ---------------------------------------


    POTLOK:  VPU time    0.15: CPU time    0.15
    SETDIJ:  VPU time    0.01: CPU time    0.01
    EDDAV :  VPU time   76.69: CPU time   76.68
    DOS   :  VPU time    0.00: CPU time   -0.00
    ------------------------------------------
      LOOP:  VPU time   76.86: CPU time   76.85

 eigenvalue-minimisations  : 28224
 total energy-change (2. order) : 0.1163774E+03  (-0.3250345E+04)
 number of electron   96.0000000 magnetization 
 augmentation part    96.0000000 magnetization 

 Free energy of the ion-electron system (eV)
  ---------------------------------------------------
  alpha Z        PSCENC =        -6.34098059
  Ewald energy   TEWEN  =     -2331.47907581
  -1/2 Hartree   DENC   =        -3.59168532
  -V(xc)+E(xc)   XCENC  =      -841.21531088
  PAW double counting   =      1137.73615723     -115.16745734
  entropy T*S    EENTRO =        -0.00023933
  eigenvalues    EBANDS =       563.20682264
  atomic energy  EATOM  =      1713.22913220
  ---------------------------------------------------
  free energy    TOTEN  =       116.37736281 eV

  energy without entropy =      116.37760214  energy(sigma->0) =      116.37748247


--------------------------------------------------------------------------------------------------------




----------------------------------------- Iteration    1(   2)  ---------------------------------------


    EDDAV :  VPU time   86.21: CPU time   86.19
    DOS   :  VPU time    0.00: CPU time   -0.00
    ------------------------------------------
      LOOP:  VPU time   86.23: CPU time   86.20

 eigenvalue-minimisations  : 33160
 total energy-change (2. order) :-0.2238019E+03  (-0.2079111E+03)
 number of electron   96.0000000 magnetization 
 augmentation part    96.0000000 magnetization 

 Free energy of the ion-electron system (eV)
  ---------------------------------------------------
  alpha Z        PSCENC =        -6.34098059
  Ewald energy   TEWEN  =     -2331.47907581
  -1/2 Hartree   DENC   =        -3.59168532
  -V(xc)+E(xc)   XCENC  =      -841.21531088
  PAW double counting   =      1137.73615723     -115.16745734
  entropy T*S    EENTRO =        -0.00071501
  eigenvalues    EBANDS =       339.40541555
  atomic energy  EATOM  =      1713.22913220
  ---------------------------------------------------
  free energy    TOTEN  =      -107.42451996 eV

  energy without entropy =     -107.42380495  energy(sigma->0) =     -107.42416246


--------------------------------------------------------------------------------------------------------




----------------------------------------- Iteration    1(   3)  ---------------------------------------


    EDDAV :  VPU time   89.85: CPU time   89.82
    DOS   :  VPU time    0.00: CPU time   -0.00
    ------------------------------------------
      LOOP:  VPU time   89.86: CPU time   89.84

 eigenvalue-minimisations  : 35128
 total energy-change (2. order) :-0.1279302E+02  (-0.1218470E+02)
 number of electron   96.0000000 magnetization 
 augmentation part    96.0000000 magnetization 

 Free energy of the ion-electron system (eV)
  ---------------------------------------------------
  alpha Z        PSCENC =        -6.34098059
  Ewald energy   TEWEN  =     -2331.47907581
  -1/2 Hartree   DENC   =        -3.59168532
  -V(xc)+E(xc)   XCENC  =      -841.21531088
  PAW double counting   =      1137.73615723     -115.16745734
  entropy T*S    EENTRO =        -0.00075797
  eigenvalues    EBANDS =       326.61243764
  atomic energy  EATOM  =      1713.22913220
  ---------------------------------------------------
  free energy    TOTEN  =      -120.21754083 eV

  energy without entropy =     -120.21678286  energy(sigma->0) =     -120.21716185


--------------------------------------------------------------------------------------------------------




----------------------------------------- Iteration    1(   4)  ---------------------------------------


    EDDAV :  VPU time   85.90: CPU time   85.88
    DOS   :  VPU time    0.00: CPU time   -0.00
    ------------------------------------------
      LOOP:  VPU time   85.91: CPU time   85.89

 eigenvalue-minimisations  : 33224
 total energy-change (2. order) :-0.2421200E+00  (-0.2400138E+00)
 number of electron   96.0000000 magnetization 
 augmentation part    96.0000000 magnetization 

 Free energy of the ion-electron system (eV)
  ---------------------------------------------------
  alpha Z        PSCENC =        -6.34098059
  Ewald energy   TEWEN  =     -2331.47907581
  -1/2 Hartree   DENC   =        -3.59168532
  -V(xc)+E(xc)   XCENC  =      -841.21531088
  PAW double counting   =      1137.73615723     -115.16745734
  entropy T*S    EENTRO =        -0.00075210
  eigenvalues    EBANDS =       326.37031173
  atomic energy  EATOM  =      1713.22913220
  ---------------------------------------------------
  free energy    TOTEN  =      -120.45966087 eV

  energy without entropy =     -120.45890877  energy(sigma->0) =     -120.45928482


--------------------------------------------------------------------------------------------------------




----------------------------------------- Iteration    1(   5)  ---------------------------------------


    EDDAV :  VPU time   85.63: CPU time   85.60
    DOS   :  VPU time    0.00: CPU time   -0.00
    CHARGE:  VPU time    3.13: CPU time    3.13
    MIXING:  VPU time    0.00: CPU time    0.00
    ------------------------------------------
      LOOP:  VPU time   88.78: CPU time   88.75

 eigenvalue-minimisations  : 33064
 total energy-change (2. order) :-0.2906729E-02  (-0.2904711E-02)
 number of electron   95.9999998 magnetization 
 augmentation part    -1.2058071 magnetization 

 Broyden mixing:
  rms(total) = 0.52318E+00    rms(broyden)= 0.52318E+00
  rms(prec ) = 0.75836E+00
  weight for this iteration     100.00

 Free energy of the ion-electron system (eV)
  ---------------------------------------------------
  alpha Z        PSCENC =        -6.34098059
  Ewald energy   TEWEN  =     -2331.47907581
  -1/2 Hartree   DENC   =        -3.59168532
  -V(xc)+E(xc)   XCENC  =      -841.21531088
  PAW double counting   =      1137.73615723     -115.16745734
  entropy T*S    EENTRO =        -0.00075244
  eigenvalues    EBANDS =       326.36740534
  atomic energy  EATOM  =      1713.22913220
  ---------------------------------------------------
  free energy    TOTEN  =      -120.46256760 eV

  energy without entropy =     -120.46181516  energy(sigma->0) =     -120.46219138


--------------------------------------------------------------------------------------------------------




----------------------------------------- Iteration    1(   6)  ---------------------------------------


    POTLOK:  VPU time    0.15: CPU time    0.15
    SETDIJ:  VPU time    0.01: CPU time    0.01
    EDDAV :  VPU time   84.45: CPU time   84.42
    DOS   :  VPU time    0.00: CPU time   -0.00
    CHARGE:  VPU time    3.19: CPU time    3.19
    MIXING:  VPU time    0.00: CPU time    0.00
    ------------------------------------------
      LOOP:  VPU time   87.82: CPU time   87.79

 eigenvalue-minimisations  : 32392
 total energy-change (2. order) : 0.4106408E+00  (-0.5391987E-02)
 number of electron   95.9999998 magnetization 
 augmentation part    -1.2237542 magnetization 

 Broyden mixing:
  rms(total) = 0.32472E+00    rms(broyden)= 0.32472E+00
  rms(prec ) = 0.47244E+00
  weight for this iteration     100.00

 eigenvalues of (default mixing * dielectric matrix)
  average eigenvalue GAMMA=   2.6269
  2.6269

 Free energy of the ion-electron system (eV)
  ---------------------------------------------------
  alpha Z        PSCENC =        -6.34098059
  Ewald energy   TEWEN  =     -2331.47907581
  -1/2 Hartree   DENC   =        -2.90060412
  -V(xc)+E(xc)   XCENC  =      -840.15816721
  PAW double counting   =      1137.74461356     -115.22497467
  entropy T*S    EENTRO =        -0.00072730
  eigenvalues    EBANDS =       325.07885713
  atomic energy  EATOM  =      1713.22913220
  ---------------------------------------------------
  free energy    TOTEN  =      -120.05192680 eV

  energy without entropy =     -120.05119950  energy(sigma->0) =     -120.05156315


--------------------------------------------------------------------------------------------------------




----------------------------------------- Iteration    1(   7)  ---------------------------------------


    POTLOK:  VPU time    0.15: CPU time    0.15
    SETDIJ:  VPU time    0.01: CPU time    0.01
    EDDAV :  VPU time   82.91: CPU time   82.88
    DOS   :  VPU time    0.00: CPU time   -0.00
    CHARGE:  VPU time    3.23: CPU time    3.23
    MIXING:  VPU time    0.00: CPU time    0.00
    ------------------------------------------
      LOOP:  VPU time   86.31: CPU time   86.28

 eigenvalue-minimisations  : 31576
 total energy-change (2. order) : 0.2993520E+00  (-0.1603975E-01)
 number of electron   95.9999997 magnetization 
 augmentation part    -1.2576765 magnetization 

 Broyden mixing:
  rms(total) = 0.13512E-01    rms(broyden)= 0.13512E-01
  rms(prec ) = 0.16138E-01
  weight for this iteration     100.00

 eigenvalues of (default mixing * dielectric matrix)
  average eigenvalue GAMMA=   2.4932
  2.4932  2.4932

 Free energy of the ion-electron system (eV)
  ---------------------------------------------------
  alpha Z        PSCENC =        -6.34098059
  Ewald energy   TEWEN  =     -2331.47907581
  -1/2 Hartree   DENC   =        -3.16306472
  -V(xc)+E(xc)   XCENC  =      -837.98576232
  PAW double counting   =      1137.63240900     -115.24778280
  entropy T*S    EENTRO =        -0.00053344
  eigenvalues    EBANDS =       323.60308370
  atomic energy  EATOM  =      1713.22913220
  ---------------------------------------------------
  free energy    TOTEN  =      -119.75257477 eV

  energy without entropy =     -119.75204133  energy(sigma->0) =     -119.75230805


[...]
      6      -1.1402      2.00000
      7      -1.1402      2.00000
      8      -1.1402      2.00000
      9       1.7548      2.00000
     10       1.7548      2.00000
     11       1.7548      2.00000
     12       1.7548      2.00000
     13       2.4654      2.00000
     14       2.4654      2.00000
     15       2.4654      2.00000
     16       2.4654      2.00000
     17       2.4654      2.00000
     18       2.4654      2.00000
     19       2.4654      2.00000
     20       2.4654      2.00000
     21       3.1765      2.00000
     22       3.1765      2.00000
     23       3.1766      2.00000
     24       3.1766      2.00000
     25       3.1766      2.00000
     26       3.1766      2.00000
     27       3.1766      2.00000
     28       3.1766      2.00000
     29       3.8699      2.00000
     30       3.8699      2.00000
     31       3.8699      2.00000
     32       3.8700      2.00000
     33       5.9998      2.00000
     34       5.9998      2.00000
     35       6.0001      2.00000
     36       6.0001      2.00000
     37       6.0001      2.00000
     38       6.0001      2.00000
     39       6.0003      2.00000
     40       6.0003      2.00000
     41       6.6874      2.00000
     42       6.6874      2.00000
     43       6.6874      2.00000
     44       6.6874      2.00000
     45       7.3864      2.00000
     46       7.3864      2.00000
     47       7.3864      2.00000
     48       7.3864      2.00000
     49       8.0555      0.00000
     50       8.0555      0.00000
     51       8.0557      0.00000
     52       8.0557      0.00000
     53       8.0557      0.00000
     54       8.0558      0.00000
     55       8.0560      0.00000
     56       8.0560      0.00000
     57       9.6720      0.00000
     58       9.6720      0.00000
     59       9.6720      0.00000
     60       9.6720      0.00000
     61      10.1454      0.00000
     62      10.1454      0.00000
     63      10.1454      0.00000
     64      10.1454      0.00000
     65      11.0216      0.00000
     66      11.0216      0.00000
     67      11.0220      0.00000
     68      11.0221      0.00000
     69      11.0221      0.00000
     70      11.0221      0.00000
     71      11.0225      0.00000
     72      11.0225      0.00000

 k-point 195 :       0.4167    0.5000    0.5000
  band No.  band energies     occupation 
      1      -1.7358      2.00000
      2      -1.7357      2.00000
      3      -1.7357      2.00000
      4      -1.7357      2.00000
      5      -1.3690      2.00000
      6      -1.3690      2.00000
      7      -1.3690      2.00000
      8      -1.3689      2.00000
      9       2.2451      2.00000
     10       2.2452      2.00000
     11       2.2452      2.00000
     12       2.2452      2.00000
     13       2.5990      2.00000
     14       2.5990      2.00000
     15       2.5990      2.00000
     16       2.5991      2.00000
     17       2.5991      2.00000
     18       2.5991      2.00000
     19       2.5991      2.00000
     20       2.5991      2.00000
     21       2.9548      2.00000
     22       2.9548      2.00000
     23       2.9548      2.00000
     24       2.9548      2.00000
     25       2.9548      2.00000
     26       2.9548      2.00000
     27       2.9549      2.00000
     28       2.9549      2.00000
     29       3.3046      2.00000
     30       3.3046      2.00000
     31       3.3046      2.00000
     32       3.3047      2.00000
     33       6.4766      2.00000
     34       6.4766      2.00000
     35       6.4768      2.00000
     36       6.4768      2.00000
     37       6.4768      2.00000
     38       6.4768      2.00000
     39       6.4770      2.00000
     40       6.4770      2.00000
     41       6.8192      2.00000
     42       6.8192      2.00000
     43       6.8192      2.00000
     44       6.8192      2.00000
     45       7.1687      2.00000
     46       7.1687      2.00000
     47       7.1687      2.00000
     48       7.1687      2.00000
     49       7.5066      2.00000
     50       7.5066      2.00000
     51       7.5068      2.00000
     52       7.5068      2.00000
     53       7.5068      2.00000
     54       7.5068      2.00000
     55       7.5071      2.00000
     56       7.5071      2.00000
     57      10.4754      0.00000
     58      10.4754      0.00000
     59      10.4754      0.00000
     60      10.4754      0.00000
     61      10.6133      0.00000
     62      10.6133      0.00000
     63      10.6133      0.00000
     64      10.6133      0.00000
     65      11.1517      0.00000
     66      11.1517      0.00000
     67      11.1520      0.00000
     68      11.1521      0.00000
     69      11.1521      0.00000
     70      11.1521      0.00000
     71      11.1524      0.00000
     72      11.1525      0.00000

 k-point 196 :       0.5000    0.5000    0.5000
  band No.  band energies     occupation 
      1      -1.5722      2.00000
      2      -1.5680      2.00000
      3      -1.5680      2.00000
      4      -1.5676      2.00000
      5      -1.5675      2.00000
      6      -1.5670      2.00000
      7      -1.5670      2.00000
      8      -1.5628      2.00000
      9       2.7520      2.00000
     10       2.7582      2.00000
     11       2.7582      2.00000
     12       2.7615      2.00000
     13       2.7617      2.00000
     14       2.7617      2.00000
     15       2.7621      2.00000
     16       2.7621      2.00000
     17       2.7622      2.00000
     18       2.7622      2.00000
     19       2.7622      2.00000
     20       2.7622      2.00000
     21       2.7623      2.00000
     22       2.7623      2.00000
     23       2.7623      2.00000
     24       2.7623      2.00000
     25       2.7623      2.00000
     26       2.7623      2.00000
     27       2.7627      2.00000
     28       2.7628      2.00000
     29       2.7630      2.00000
     30       2.7662      2.00000
     31       2.7662      2.00000
     32       2.7725      2.00000
     33       6.9736      2.00000
     34       6.9736      2.00000
     35       6.9756      2.00000
     36       6.9775      2.00000
     37       6.9789      2.00000
     38       6.9793      2.00000
     39       6.9793      2.00000
     40       6.9793      2.00000
     41       6.9795      2.00000
     42       6.9795      2.00000
     43       6.9795      2.00000
     44       6.9796      2.00000
     45       6.9796      2.00000
     46       6.9797      2.00000
     47       6.9797      2.00000
     48       6.9797      2.00000
     49       6.9799      2.00000
     50       6.9799      2.00000
     51       6.9799      2.00000
     52       6.9803      2.00000
     53       6.9817      2.00000
     54       6.9836      2.00000
     55       6.9855      2.00000
     56       6.9855      2.00000
     57      11.1052      0.00000
     58      11.1053      0.00000
     59      11.1053      0.00000
     60      11.1058      0.00000
     61      11.1073      0.00000
     62      11.1079      0.00000
     63      11.1079      0.00000
     64      11.1081      0.00000
     65      11.3058      0.00000
     66      11.3068      0.00000
     67      11.3075      0.00000
     68      11.3081      0.00000
     69      11.3086      0.00000
     70      11.3089      0.00000
     71      11.3094      0.00000
     72      11.3101      0.00000


--------------------------------------------------------------------------------------------------------


 soft charge-density along one line, spin component           1
         0         1         2         3         4         5         6         7         8         9
 total charge-density along one line
 
 pseudopotential strength for first ion, spin component:           1
  8.453  -0.006  -0.000  -0.000  -0.000  -0.000  -0.000  -0.000
 -0.006   0.000  -0.000  -0.000  -0.000   0.000   0.000   0.000
 -0.000  -0.000   1.987  -0.000  -0.000  -0.026   0.000   0.000
 -0.000  -0.000  -0.000   1.987   0.000   0.000  -0.026  -0.000
 -0.000  -0.000  -0.000   0.000   1.987   0.000  -0.000  -0.026
 -0.000   0.000  -0.026   0.000   0.000  -0.012   0.000   0.000
 -0.000   0.000   0.000  -0.026  -0.000   0.000  -0.012  -0.000
 -0.000   0.000   0.000  -0.000  -0.026   0.000  -0.000  -0.012
 total augmentation occupancy for first ion, spin component:           1
  1.339  -0.447   0.000   0.000   0.002   0.000  -0.000  -0.001
 -0.447   0.445   0.000   0.000  -0.003   0.000  -0.000   0.001
  0.000   0.000   0.708   0.002   0.006  -0.142  -0.001  -0.001
  0.000   0.000   0.002   0.716  -0.003  -0.001  -0.139  -0.001
  0.002  -0.003   0.006  -0.003   0.712  -0.001  -0.001  -0.140
  0.000   0.000  -0.142  -0.001  -0.001   0.033   0.000   0.000
 -0.000  -0.000  -0.001  -0.139  -0.001   0.000   0.032   0.000
 -0.001   0.001  -0.001  -0.001  -0.140   0.000   0.000   0.032


------------------------ aborting loop because EDIFF is reached ----------------------------------------




--------------------------------------------------------------------------------------------------------


    CHARGE:  VPU time    4.14: CPU time    4.14
    FORLOC:  VPU time    0.03: CPU time    0.03
    FORNL :  VPU time   32.14: CPU time   32.13
    STRESS:  VPU time   71.46: CPU time   71.43
    FORCOR:  VPU time    0.17: CPU time    0.18
    FORHAR:  VPU time    0.06: CPU time    0.06
    MIXING:  VPU time    0.00: CPU time    0.00


--------------------------------------------------------------------------------------------------------



  FREE ENERGIE OF THE ION-ELECTRON SYSTEM (eV)
  ---------------------------------------------------
  free  energy   TOTEN  =      -119.752659 eV

  energy  without entropy=     -119.752128  energy(sigma->0) =     -119.752394
 

  FORCE on cell =-STRESS in cart. coord.  units (eV/reduce length):
  Direction    X        Y        Z        XY       YZ       ZX
  --------------------------------------------------------------------------------------
  Alpha Z     -6.34     -6.34     -6.34
  Ewald     -777.16   -777.16   -777.16      0.00      0.00      0.00
  Hartree      1.08      1.08      1.08     -0.00     -0.00     -0.00
  E(xc)     -271.75   -271.75   -271.75      0.00      0.00      0.00
  Local        7.38      7.37      7.37     -0.00      0.00      0.00
  n-local    601.33    601.63    601.04     -0.70     -0.16      0.38
  augment    -33.65    -33.65    -33.65      0.00      0.00      0.00
  Kinetic    472.20    465.24    479.15      5.54      0.52     -4.51
  -------------------------------------------------------------------------------------
  Total       -6.92     -6.92     -6.92      0.00      0.00      0.00
  in kB      -20.44    -20.45    -20.45      0.00      0.00      0.00
  external pressure =      -20.45 kB  Pullay stress =        0.00 kB


 VOLUME and BASIS-vectors are now :
 -----------------------------------------------------------------------------
  energy-cutoff  :      500.00
  volume of cell :      542.41
      direct lattice vectors                 reciprocal lattice vectors
     8.155358867  0.000000000  0.000000000     0.122618761  0.000000000  0.000000000
     0.000000000  8.155358867  0.000000000     0.000000000  0.122618761  0.000000000
     0.000000000  0.000000000  8.155358867     0.000000000  0.000000000  0.122618761

  length of vectors
     8.155358867  8.155358867  8.155358867     0.122618761  0.122618761  0.122618761


 FORCES acting on ions
    electron-ion (+dipol)            ewald-force                    non-local-force                 convergence-correction
 -----------------------------------------------------------------------------------------------
   0.377E+00 -.803E-14 -.149E-07   -.310E+00 -.133E-14 0.490E-15   -.108E+00 -.963E-19 -.122E-19   0.697E-06 0.529E-14 -.246E-13
   -.839E-01 0.202E-12 -.912E-13   0.819E-01 0.000E+00 0.280E-14   0.411E-02 -.868E-20 0.506E-20   0.192E-05 0.749E-14 -.313E-13
   0.262E-01 0.452E-13 -.844E-13   -.259E-01 -.178E-14 0.147E-14   -.602E-03 0.251E-19 -.989E-20   0.656E-06 -.581E-14 -.218E-13
   -.202E-01 -.330E-12 -.254E-13   0.204E-01 0.178E-14 -.209E-14   0.329E-03 -.520E-19 0.365E-20   -.178E-05 -.816E-14 -.265E-13
   0.262E-01 0.220E-13 -.615E-13   -.259E-01 0.000E+00 -.264E-14   -.602E-03 0.183E-19 0.224E-20   0.664E-06 0.288E-14 0.249E-13
   -.202E-01 -.447E-13 -.213E-13   0.204E-01 0.000E+00 -.264E-14   0.329E-03 -.682E-21 -.137E-19   -.179E-05 0.296E-14 0.316E-13
   0.105E-01 -.170E-13 -.382E-13   -.107E-01 -.178E-14 0.180E-14   0.281E-03 0.807E-20 -.106E-20   -.166E-05 -.337E-14 0.221E-13
   -.103E-01 0.144E-12 0.380E-12   0.100E-01 -.178E-14 0.535E-14   -.439E-03 0.145E-19 -.254E-20   0.130E-05 -.363E-14 0.268E-13
   0.468E-01 -.218E-03 0.218E-03   -.489E-01 0.189E-03 -.189E-03   0.633E-03 0.474E-04 -.474E-04   -.802E-06 -.116E-06 0.116E-06
   -.289E-01 0.725E-04 -.725E-04   0.275E-01 -.565E-04 0.565E-04   0.922E-03 -.160E-04 0.160E-04   0.530E-06 -.700E-07 0.700E-07
   0.468E-01 0.218E-03 0.218E-03   -.489E-01 -.189E-03 -.189E-03   0.633E-03 -.474E-04 -.474E-04   -.802E-06 0.116E-06 0.116E-06
   -.289E-01 -.725E-04 -.725E-04   0.275E-01 0.565E-04 0.565E-04   0.922E-03 0.160E-04 0.160E-04   0.530E-06 0.700E-07 0.700E-07
   0.468E-01 -.218E-03 -.218E-03   -.489E-01 0.189E-03 0.189E-03   0.633E-03 0.474E-04 0.474E-04   -.802E-06 -.116E-06 -.116E-06
   -.289E-01 0.725E-04 0.725E-04   0.275E-01 -.565E-04 -.565E-04   0.922E-03 -.160E-04 -.160E-04   0.530E-06 -.700E-07 -.700E-07
   0.468E-01 0.218E-03 -.218E-03   -.489E-01 -.189E-03 0.189E-03   0.633E-03 -.474E-04 0.474E-04   -.802E-06 0.116E-06 -.116E-06
   -.289E-01 -.725E-04 0.725E-04   0.275E-01 0.565E-04 -.565E-04   0.922E-03 0.160E-04 -.160E-04   0.530E-06 0.700E-07 -.700E-07
   -.467E-01 0.577E-14 0.821E-01   0.396E-01 -.577E-14 -.750E-01   0.128E-01 -.143E-20 -.130E-01   -.268E-06 0.416E-14 -.845E-06
   -.465E-01 -.301E-12 -.829E-01   0.393E-01 -.533E-14 0.756E-01   0.131E-01 0.908E-20 0.134E-01   -.320E-06 0.306E-14 0.959E-06
   -.589E-03 -.511E-14 0.642E-02   0.132E-02 -.266E-14 -.621E-02   -.649E-03 0.318E-20 -.823E-04   0.508E-06 -.475E-14 0.141E-05
   -.470E-03 -.369E-13 -.642E-02   0.120E-02 -.355E-14 0.621E-02   -.641E-03 0.364E-20 0.765E-04   0.358E-06 -.372E-14 -.128E-05
   -.467E-01 0.519E-14 -.821E-01   0.396E-01 -.355E-14 0.750E-01   0.128E-01 -.340E-20 0.130E-01   -.268E-06 0.574E-14 0.845E-06
   -.465E-01 0.979E-13 0.829E-01   0.393E-01 -.355E-14 -.756E-01   0.131E-01 0.572E-20 -.134E-01   -.320E-06 0.553E-14 -.959E-06
   -.589E-03 -.760E-14 -.642E-02   0.132E-02 -.311E-14 0.621E-02   -.649E-03 0.123E-20 0.823E-04   0.508E-06 -.629E-14 -.141E-05
   -.470E-03 0.146E-12 0.642E-02   0.120E-02 -.178E-14 -.621E-02   -.641E-03 0.800E-20 -.765E-04   0.358E-06 -.613E-14 0.128E-05
   -.467E-01 -.821E-01 0.542E-14   0.396E-01 0.750E-01 0.261E-14   0.128E-01 0.130E-01 0.117E-20   -.267E-06 0.842E-06 -.260E-13
   -.465E-01 0.829E-01 0.225E-13   0.393E-01 -.756E-01 0.173E-14   0.131E-01 -.134E-01 -.538E-20   -.319E-06 -.956E-06 -.240E-13
   -.467E-01 0.821E-01 -.682E-15   0.396E-01 -.750E-01 -.465E-16   0.128E-01 -.130E-01 0.277E-20   -.267E-06 -.842E-06 -.275E-13
   -.465E-01 -.829E-01 0.319E-13   0.393E-01 0.756E-01 -.182E-14   0.131E-01 0.134E-01 -.914E-20   -.319E-06 0.956E-06 -.265E-13
   -.589E-03 -.642E-02 -.736E-14   0.132E-02 0.621E-02 -.265E-14   -.649E-03 0.823E-04 0.418E-20   0.507E-06 -.141E-05 0.263E-13
   -.470E-03 0.642E-02 -.116E-12   0.120E-02 -.621E-02 -.175E-14   -.641E-03 -.765E-04 0.114E-19   0.357E-06 0.128E-05 0.244E-13
   -.589E-03 0.642E-02 -.304E-14   0.132E-02 -.621E-02 -.421E-15   -.649E-03 -.823E-04 -.116E-19   0.507E-06 0.141E-05 0.278E-13
   -.470E-03 -.642E-02 0.106E-12   0.120E-02 0.621E-02 0.180E-14   -.641E-03 0.765E-04 0.143E-19   0.357E-06 -.128E-05 0.268E-13
 -----------------------------------------------------------------------------------------------
   0.697E-06 0.501E-12 -.149E-07   -.195E-14 0.784E-14 0.533E-14   -.151E-05 0.176E-17 -.150E-17   0.261E-07 0.379E-16 -.260E-16
 
 
 POSITION                                       TOTAL-FORCE (eV/Angst)
 -----------------------------------------------------------------------------------
      2.04884      2.03884      0.00000        -0.041445      0.000000      0.000000
      6.11652      2.03884      0.00000         0.002097     -0.000000     -0.000000
      2.03884      6.11652      0.00000        -0.000348      0.000000      0.000000
      6.11652      6.11652      0.00000         0.000491      0.000000     -0.000000
      2.03884      2.03884      4.07768        -0.000348      0.000000      0.000000
      6.11652      2.03884      4.07768         0.000491      0.000000      0.000000
      2.03884      6.11652      4.07768         0.000029      0.000000      0.000000
      6.11652      6.11652      4.07768        -0.000763      0.000000     -0.000000
      2.03884      0.00000      2.03884        -0.001444      0.000018     -0.000018
      6.11652      0.00000      2.03884        -0.000448      0.000000     -0.000000
      2.03884      4.07768      2.03884        -0.001444     -0.000018     -0.000018
      6.11652      4.07768      2.03884        -0.000448     -0.000000     -0.000000
      2.03884      0.00000      6.11652        -0.001444      0.000018      0.000018
      6.11652      0.00000      6.11652        -0.000448      0.000000      0.000000
      2.03884      4.07768      6.11652        -0.001444     -0.000018      0.000018
      6.11652      4.07768      6.11652        -0.000448     -0.000000      0.000000
      0.00000      2.03884      2.03884         0.005766      0.000000     -0.005858
      4.07768      2.03884      2.03884         0.005905      0.000000      0.006056
      0.00000      6.11652      2.03884         0.000083      0.000000      0.000129
      4.07768      6.11652      2.03884         0.000088      0.000000     -0.000132
      0.00000      2.03884      6.11652         0.005766      0.000000      0.005858
      4.07768      2.03884      6.11652         0.005905     -0.000000     -0.006056
      0.00000      6.11652      6.11652         0.000083     -0.000000     -0.000129
      4.07768      6.11652      6.11652         0.000088      0.000000      0.000132
      0.00000      0.00000      0.00000         0.005766      0.005858     -0.000000
      4.07768      0.00000      0.00000         0.005905     -0.006056     -0.000000
      0.00000      4.07768      0.00000         0.005766     -0.005858     -0.000000
      4.07768      4.07768      0.00000         0.005905      0.006056      0.000000
      0.00000      0.00000      4.07768         0.000083     -0.000129     -0.000000
      4.07768      0.00000      4.07768         0.000088      0.000132     -0.000000
      0.00000      4.07768      4.07768         0.000083      0.000129      0.000000
      4.07768      4.07768      4.07768         0.000088     -0.000132     -0.000000
 -----------------------------------------------------------------------------------
    total drift:                               -0.000001      0.000000     -0.000000


--------------------------------------------------------------------------------------------------------



 mean value of Nose-termostat <S>:     1.000 mean value of <T> :     0.000
 mean temperature <T/S>/<1/S>  :     0.000

     LOOP+:  VPU time 1314.47: CPU time 1314.08
  
  
 General timing and accounting informations for this job:
 ========================================================
  
                  Total CPU time used (sec):     1347.375
                            User time (sec):     1240.274
                          System time (sec):      107.101
                         Elapsed time (sec):     1346.968
  
                   Maximum memory used (kb):     4391616.
                   Average memory used (kb):           0.
  
                          Minor page faults:       948664
                          Major page faults:            0
                 Voluntary context switches:          962
