<?xml version="1.0" encoding="ISO-8859-1"?>
<modeling>
 <generator>
  <i name="program" type="string">vasp</i>
  <i name="version" type="string">4.6.28 </i>
  <i name="subversion" type="string">25Jul05 complex  parallel</i>
  <i name="platform" type="string">LinuxIFC</i>
  <i name="date" type="string">2016 10 21</i>
  <i name="time" type="string">07:16:45</i>
 </generator>
 <incar>
  <i type="string" name="PREC">accurate</i>
  <i type="int" name="IALGO">    38</i>
  <i name="EDIFF">      0.00000001</i>
  <i type="int" name="IBRION">    -1</i>
  <i name="ENCUT">    500.00000000</i>
  <i type="logical" name="LREAL"> F  </i>
  <i type="int" name="ISMEAR">     0</i>
  <i name="SIGMA">      0.01000000</i>
  <i type="logical" name="LWAVE"> F  </i>
  <i type="logical" name="LCHARG"> F  </i>
 </incar>
 <kpoints>
  <generation param="Gamma">
   <v type="int" name="divisions">      12      12      12</v>
   <v name="usershift">      0.00000000      0.00000000      0.00000000</v>
   <v name="genvec1">      0.08333333      0.00000000      0.00000000</v>
   <v name="genvec2">      0.00000000      0.08333333      0.00000000</v>
   <v name="genvec3">      0.00000000      0.00000000      0.08333333</v>
   <v name="shift">      0.00000000      0.00000000      0.00000000</v>
  </generation>
  <varray name="kpointlist" >
   <v>       0.00000000      0.00000000      0.00000000</v>
   <v>       0.08333333      0.00000000      0.00000000</v>
   <v>       0.16666667      0.00000000      0.00000000</v>
   <v>       0.25000000      0.00000000      0.00000000</v>
   <v>       0.33333333      0.00000000      0.00000000</v>
   <v>       0.41666667      0.00000000      0.00000000</v>
   <v>       0.50000000      0.00000000      0.00000000</v>
   <v>       0.00000000      0.08333333      0.00000000</v>
   <v>       0.08333333      0.08333333      0.00000000</v>
   <v>       0.16666667      0.08333333      0.00000000</v>
   <v>       0.25000000      0.08333333      0.00000000</v>
   <v>       0.33333333      0.08333333      0.00000000</v>
   <v>       0.41666667      0.08333333      0.00000000</v>
   <v>       0.50000000      0.08333333      0.00000000</v>
   <v>       0.00000000      0.16666667      0.00000000</v>
   <v>       0.08333333      0.16666667      0.00000000</v>
   <v>       0.16666667      0.16666667      0.00000000</v>
   <v>       0.25000000      0.16666667      0.00000000</v>
   <v>       0.33333333      0.16666667      0.00000000</v>
   <v>       0.41666667      0.16666667      0.00000000</v>
   <v>       0.50000000      0.16666667      0.00000000</v>
   <v>       0.00000000      0.25000000      0.00000000</v>
   <v>       0.08333333      0.25000000      0.00000000</v>
   <v>       0.16666667      0.25000000      0.00000000</v>
   <v>       0.25000000      0.25000000      0.00000000</v>
   <v>       0.33333333      0.25000000      0.00000000</v>
   <v>       0.41666667      0.25000000      0.00000000</v>
   <v>       0.50000000      0.25000000      0.00000000</v>
   <v>       0.00000000      0.33333333      0.00000000</v>
   <v>       0.08333333      0.33333333      0.00000000</v>
   <v>       0.16666667      0.33333333      0.00000000</v>
   <v>       0.25000000      0.33333333      0.00000000</v>
   <v>       0.33333333      0.33333333      0.00000000</v>
   <v>       0.41666667      0.33333333      0.00000000</v>
   <v>       0.50000000      0.33333333      0.00000000</v>
   <v>       0.00000000      0.41666667      0.00000000</v>
   <v>       0.08333333      0.41666667      0.00000000</v>
   <v>       0.16666667      0.41666667      0.00000000</v>
   <v>       0.25000000      0.41666667      0.00000000</v>
   <v>       0.33333333      0.41666667      0.00000000</v>
   <v>       0.41666667      0.41666667      0.00000000</v>
   <v>       0.50000000      0.41666667      0.00000000</v>
   <v>       0.00000000      0.50000000      0.00000000</v>
   <v>       0.08333333      0.50000000      0.00000000</v>
   <v>       0.16666667      0.50000000      0.00000000</v>
   <v>       0.25000000      0.50000000      0.00000000</v>
   <v>       0.33333333      0.50000000      0.00000000</v>
   <v>       0.41666667      0.50000000      0.00000000</v>
   <v>       0.50000000      0.50000000      0.00000000</v>
   <v>       0.00000000      0.08333333      0.08333333</v>
   <v>       0.08333333      0.08333333      0.08333333</v>
   <v>       0.16666667      0.08333333      0.08333333</v>
   <v>       0.25000000      0.08333333      0.08333333</v>
   <v>       0.33333333      0.08333333      0.08333333</v>
   <v>       0.41666667      0.08333333      0.08333333</v>
   <v>       0.50000000      0.08333333      0.08333333</v>
   <v>       0.00000000      0.16666667      0.08333333</v>
   <v>       0.08333333      0.16666667      0.08333333</v>
   <v>       0.16666667      0.16666667      0.08333333</v>
   <v>       0.25000000      0.16666667      0.08333333</v>
   <v>       0.33333333      0.16666667      0.08333333</v>
   <v>       0.41666667      0.16666667      0.08333333</v>
   <v>       0.50000000      0.16666667      0.08333333</v>
   <v>       0.00000000      0.25000000      0.08333333</v>
   <v>       0.08333333      0.25000000      0.08333333</v>
   <v>       0.16666667      0.25000000      0.08333333</v>
   <v>       0.25000000      0.25000000      0.08333333</v>
   <v>       0.33333333      0.25000000      0.08333333</v>
   <v>       0.41666667      0.25000000      0.08333333</v>
   <v>       0.50000000      0.25000000      0.08333333</v>
   <v>       0.00000000      0.33333333      0.08333333</v>
   <v>       0.08333333      0.33333333      0.08333333</v>
   <v>       0.16666667      0.33333333      0.08333333</v>
   <v>       0.25000000      0.33333333      0.08333333</v>
   <v>       0.33333333      0.33333333      0.08333333</v>
   <v>       0.41666667      0.33333333      0.08333333</v>
   <v>       0.50000000      0.33333333      0.08333333</v>
   <v>       0.00000000      0.41666667      0.08333333</v>
   <v>       0.08333333      0.41666667      0.08333333</v>
   <v>       0.16666667      0.41666667      0.08333333</v>
   <v>       0.25000000      0.41666667      0.08333333</v>
   <v>       0.33333333      0.41666667      0.08333333</v>
   <v>       0.41666667      0.41666667      0.08333333</v>
   <v>       0.50000000      0.41666667      0.08333333</v>
   <v>       0.00000000      0.50000000      0.08333333</v>
   <v>       0.08333333      0.50000000      0.08333333</v>
   <v>       0.16666667      0.50000000      0.08333333</v>
   <v>       0.25000000      0.50000000      0.08333333</v>
   <v>       0.33333333      0.50000000      0.08333333</v>
   <v>       0.41666667      0.50000000      0.08333333</v>
   <v>       0.50000000      0.50000000      0.08333333</v>
   <v>       0.00000000      0.16666667      0.16666667</v>
   <v>       0.08333333      0.16666667      0.16666667</v>
   <v>       0.16666667      0.16666667      0.16666667</v>
   <v>       0.25000000      0.16666667      0.16666667</v>
   <v>       0.33333333      0.16666667      0.16666667</v>
   <v>       0.41666667      0.16666667      0.16666667</v>
   <v>       0.50000000      0.16666667      0.16666667</v>
   <v>       0.00000000      0.25000000      0.16666667</v>
   <v>       0.08333333      0.25000000      0.16666667</v>
   <v>       0.16666667      0.25000000      0.16666667</v>
   <v>       0.25000000      0.25000000      0.16666667</v>
   <v>       0.33333333      0.25000000      0.16666667</v>
   <v>       0.41666667      0.25000000      0.16666667</v>
   <v>       0.50000000      0.25000000      0.16666667</v>
   <v>       0.00000000      0.33333333      0.16666667</v>
   <v>       0.08333333      0.33333333      0.16666667</v>
   <v>       0.16666667      0.33333333      0.16666667</v>
   <v>       0.25000000      0.33333333      0.16666667</v>
   <v>       0.33333333      0.33333333      0.16666667</v>
   <v>       0.41666667      0.33333333      0.16666667</v>
   <v>       0.50000000      0.33333333      0.16666667</v>
   <v>       0.00000000      0.41666667      0.16666667</v>
   <v>       0.08333333      0.41666667      0.16666667</v>
   <v>       0.16666667      0.41666667      0.16666667</v>
   <v>       0.25000000      0.41666667      0.16666667</v>
   <v>       0.33333333      0.41666667      0.16666667</v>
   <v>       0.41666667      0.41666667      0.16666667</v>
   <v>       0.50000000      0.41666667      0.16666667</v>
   <v>       0.00000000      0.50000000      0.16666667</v>
   <v>       0.08333333      0.50000000      0.16666667</v>
   <v>       0.16666667      0.50000000      0.16666667</v>
   <v>       0.25000000      0.50000000      0.16666667</v>
   <v>       0.33333333      0.50000000      0.16666667</v>
   <v>       0.41666667      0.50000000      0.16666667</v>
   <v>       0.50000000      0.50000000      0.16666667</v>
   <v>       0.00000000      0.25000000      0.25000000</v>
   <v>       0.08333333      0.25000000      0.25000000</v>
   <v>       0.16666667      0.25000000      0.25000000</v>
   <v>       0.25000000      0.25000000      0.25000000</v>
   <v>       0.33333333      0.25000000      0.25000000</v>
   <v>       0.41666667      0.25000000      0.25000000</v>
   <v>       0.50000000      0.25000000      0.25000000</v>
   <v>       0.00000000      0.33333333      0.25000000</v>
   <v>       0.08333333      0.33333333      0.25000000</v>
   <v>       0.16666667      0.33333333      0.25000000</v>
   <v>       0.25000000      0.33333333      0.25000000</v>
   <v>       0.33333333      0.33333333      0.25000000</v>
   <v>       0.41666667      0.33333333      0.25000000</v>
   <v>       0.50000000      0.33333333      0.25000000</v>
   <v>       0.00000000      0.41666667      0.25000000</v>
   <v>       0.08333333      0.41666667      0.25000000</v>
   <v>       0.16666667      0.41666667      0.25000000</v>
   <v>       0.25000000      0.41666667      0.25000000</v>
   <v>       0.33333333      0.41666667      0.25000000</v>
   <v>       0.41666667      0.41666667      0.25000000</v>
   <v>       0.50000000      0.41666667      0.25000000</v>
   <v>       0.00000000      0.50000000      0.25000000</v>
   <v>       0.08333333      0.50000000      0.25000000</v>
   <v>       0.16666667      0.50000000      0.25000000</v>
   <v>       0.25000000      0.50000000      0.25000000</v>
   <v>       0.33333333      0.50000000      0.25000000</v>
   <v>       0.41666667      0.50000000      0.25000000</v>
   <v>       0.50000000      0.50000000      0.25000000</v>
   <v>       0.00000000      0.33333333      0.33333333</v>
   <v>       0.08333333      0.33333333      0.33333333</v>
   <v>       0.16666667      0.33333333      0.33333333</v>
   <v>       0.25000000      0.33333333      0.33333333</v>
   <v>       0.33333333      0.33333333      0.33333333</v>
   <v>       0.41666667      0.33333333      0.33333333</v>
   <v>       0.50000000      0.33333333      0.33333333</v>
   <v>       0.00000000      0.41666667      0.33333333</v>
   <v>       0.08333333      0.41666667      0.33333333</v>
   <v>       0.16666667      0.41666667      0.33333333</v>
   <v>       0.25000000      0.41666667      0.33333333</v>
   <v>       0.33333333      0.41666667      0.33333333</v>
   <v>       0.41666667      0.41666667      0.33333333</v>
   <v>       0.50000000      0.41666667      0.33333333</v>
   <v>       0.00000000      0.50000000      0.33333333</v>
   <v>       0.08333333      0.50000000      0.33333333</v>
   <v>       0.16666667      0.50000000      0.33333333</v>
   <v>       0.25000000      0.50000000      0.33333333</v>
   <v>       0.33333333      0.50000000      0.33333333</v>
   <v>       0.41666667      0.50000000      0.33333333</v>
   <v>       0.50000000      0.50000000      0.33333333</v>
   <v>       0.00000000      0.41666667      0.41666667</v>
   <v>       0.08333333      0.41666667      0.41666667</v>
   <v>       0.16666667      0.41666667      0.41666667</v>
   <v>       0.25000000      0.41666667      0.41666667</v>
   <v>       0.33333333      0.41666667      0.41666667</v>
   <v>       0.41666667      0.41666667      0.41666667</v>
   <v>       0.50000000      0.41666667      0.41666667</v>
   <v>       0.00000000      0.50000000      0.41666667</v>
   <v>       0.08333333      0.50000000      0.41666667</v>
   <v>       0.16666667      0.50000000      0.41666667</v>
   <v>       0.25000000      0.50000000      0.41666667</v>
   <v>       0.33333333      0.50000000      0.41666667</v>
   <v>       0.41666667      0.50000000      0.41666667</v>
   <v>       0.50000000      0.50000000      0.41666667</v>
   <v>       0.00000000      0.50000000      0.50000000</v>
   <v>       0.08333333      0.50000000      0.50000000</v>
   <v>       0.16666667      0.50000000      0.50000000</v>
   <v>       0.25000000      0.50000000      0.50000000</v>
   <v>       0.33333333      0.50000000      0.50000000</v>
   <v>       0.41666667      0.50000000      0.50000000</v>
   <v>       0.50000000      0.50000000      0.50000000</v>
  </varray>
  <varray name="weights" >
   <v>       0.00057870</v>
   <v>       0.00115741</v>
   <v>       0.00115741</v>
   <v>       0.00115741</v>
   <v>       0.00115741</v>
   <v>       0.00115741</v>
   <v>       0.00057870</v>
   <v>       0.00231481</v>
   <v>       0.00462963</v>
   <v>       0.00462963</v>
   <v>       0.00462963</v>
   <v>       0.00462963</v>
   <v>       0.00462963</v>
   <v>       0.00231481</v>
   <v>       0.00231481</v>
   <v>       0.00462963</v>
   <v>       0.00462963</v>
   <v>       0.00462963</v>
   <v>       0.00462963</v>
   <v>       0.00462963</v>
   <v>       0.00231481</v>
   <v>       0.00231481</v>
   <v>       0.00462963</v>
   <v>       0.00462963</v>
   <v>       0.00462963</v>
   <v>       0.00462963</v>
   <v>       0.00462963</v>
   <v>       0.00231481</v>
   <v>       0.00231481</v>
   <v>       0.00462963</v>
   <v>       0.00462963</v>
   <v>       0.00462963</v>
   <v>       0.00462963</v>
   <v>       0.00462963</v>
   <v>       0.00231481</v>
   <v>       0.00231481</v>
   <v>       0.00462963</v>
   <v>       0.00462963</v>
   <v>       0.00462963</v>
   <v>       0.00462963</v>
   <v>       0.00462963</v>
   <v>       0.00231481</v>
   <v>       0.00115741</v>
   <v>       0.00231481</v>
   <v>       0.00231481</v>
   <v>       0.00231481</v>
   <v>       0.00231481</v>
   <v>       0.00231481</v>
   <v>       0.00115741</v>
   <v>       0.00231481</v>
   <v>       0.00462963</v>
   <v>       0.00462963</v>
   <v>       0.00462963</v>
   <v>       0.00462963</v>
   <v>       0.00462963</v>
   <v>       0.00231481</v>
   <v>       0.00462963</v>
   <v>       0.00925926</v>
   <v>       0.00925926</v>
   <v>       0.00925926</v>
   <v>       0.00925926</v>
   <v>       0.00925926</v>
   <v>       0.00462963</v>
   <v>       0.00462963</v>
   <v>       0.00925926</v>
   <v>       0.00925926</v>
   <v>       0.00925926</v>
   <v>       0.00925926</v>
   <v>       0.00925926</v>
   <v>       0.00462963</v>
   <v>       0.00462963</v>
   <v>       0.00925926</v>
   <v>       0.00925926</v>
   <v>       0.00925926</v>
   <v>       0.00925926</v>
   <v>       0.00925926</v>
   <v>       0.00462963</v>
   <v>       0.00462963</v>
   <v>       0.00925926</v>
   <v>       0.00925926</v>
   <v>       0.00925926</v>
   <v>       0.00925926</v>
   <v>       0.00925926</v>
   <v>       0.00462963</v>
   <v>       0.00231481</v>
   <v>       0.00462963</v>
   <v>       0.00462963</v>
   <v>       0.00462963</v>
   <v>       0.00462963</v>
   <v>       0.00462963</v>
   <v>       0.00231481</v>
   <v>       0.00231481</v>
   <v>       0.00462963</v>
   <v>       0.00462963</v>
   <v>       0.00462963</v>
   <v>       0.00462963</v>
   <v>       0.00462963</v>
   <v>       0.00231481</v>
   <v>       0.00462963</v>
   <v>       0.00925926</v>
   <v>       0.00925926</v>
   <v>       0.00925926</v>
   <v>       0.00925926</v>
   <v>       0.00925926</v>
   <v>       0.00462963</v>
   <v>       0.00462963</v>
   <v>       0.00925926</v>
   <v>       0.00925926</v>
   <v>       0.00925926</v>
   <v>       0.00925926</v>
   <v>       0.00925926</v>
   <v>       0.00462963</v>
   <v>       0.00462963</v>
   <v>       0.00925926</v>
   <v>       0.00925926</v>
   <v>       0.00925926</v>
   <v>       0.00925926</v>
   <v>       0.00925926</v>
   <v>       0.00462963</v>
   <v>       0.00231481</v>
   <v>       0.00462963</v>
   <v>       0.00462963</v>
   <v>       0.00462963</v>
   <v>       0.00462963</v>
   <v>       0.00462963</v>
   <v>       0.00231481</v>
   <v>       0.00231481</v>
   <v>       0.00462963</v>
   <v>       0.00462963</v>
   <v>       0.00462963</v>
   <v>       0.00462963</v>
   <v>       0.00462963</v>
   <v>       0.00231481</v>
   <v>       0.00462963</v>
   <v>       0.00925926</v>
   <v>       0.00925926</v>
   <v>       0.00925926</v>
   <v>       0.00925926</v>
   <v>       0.00925926</v>
   <v>       0.00462963</v>
   <v>       0.00462963</v>
   <v>       0.00925926</v>
   <v>       0.00925926</v>
   <v>       0.00925926</v>
   <v>       0.00925926</v>
   <v>       0.00925926</v>
   <v>       0.00462963</v>
   <v>       0.00231481</v>
   <v>       0.00462963</v>
   <v>       0.00462963</v>
   <v>       0.00462963</v>
   <v>       0.00462963</v>
   <v>       0.00462963</v>
   <v>       0.00231481</v>
   <v>       0.00231481</v>
   <v>       0.00462963</v>
   <v>       0.00462963</v>
   <v>       0.00462963</v>
   <v>       0.00462963</v>
   <v>       0.00462963</v>
   <v>       0.00231481</v>
   <v>       0.00462963</v>
   <v>       0.00925926</v>
   <v>       0.00925926</v>
   <v>       0.00925926</v>
   <v>       0.00925926</v>
   <v>       0.00925926</v>
   <v>       0.00462963</v>
   <v>       0.00231481</v>
   <v>       0.00462963</v>
   <v>       0.00462963</v>
   <v>       0.00462963</v>
   <v>       0.00462963</v>
   <v>       0.00462963</v>
   <v>       0.00231481</v>
   <v>       0.00231481</v>
   <v>       0.00462963</v>
   <v>       0.00462963</v>
   <v>       0.00462963</v>
   <v>       0.00462963</v>
   <v>       0.00462963</v>
   <v>       0.00231481</v>
   <v>       0.00231481</v>
   <v>       0.00462963</v>
   <v>       0.00462963</v>
   <v>       0.00462963</v>
   <v>       0.00462963</v>
   <v>       0.00462963</v>
   <v>       0.00231481</v>
   <v>       0.00057870</v>
   <v>       0.00115741</v>
   <v>       0.00115741</v>
   <v>       0.00115741</v>
   <v>       0.00115741</v>
   <v>       0.00115741</v>
   <v>       0.00057870</v>
  </varray>
 </kpoints>
 <parameters>
  <separator name="general" >
   <i type="string" name="SYSTEM">unknown system</i>
   <i type="logical" name="LCOMPAT"> F  </i>
  </separator>
  <separator name="electronic" >
   <i type="string" name="PREC">accura</i>
   <i name="ENMAX">    500.00000000</i>
   <i name="ENAUG">    291.05200000</i>
   <i name="EDIFF">      0.00000001</i>
   <i type="int" name="IALGO">    38</i>
   <i type="int" name="IWAVPR">    10</i>
   <i type="int" name="NBANDS">    65</i>
   <i name="NELECT">     96.00000000</i>
   <separator name="electronic smearing" >
    <i type="int" name="ISMEAR">     0</i>
    <i name="SIGMA">      0.01000000</i>
   </separator>
   <separator name="electronic projectors" >
    <i type="logical" name="LREAL"> F  </i>
    <v name="ROPT">      0.00000000</v>
    <i type="int" name="LMAXPAW">  -100</i>
    <i type="int" name="LMAXMIX">     2</i>
   </separator>
   <separator name="electronic startup" >
    <i type="int" name="ISTART">     0</i>
    <i type="int" name="ICHARG">     2</i>
    <i type="int" name="INIWAV">     1</i>
   </separator>
   <separator name="electronic spin" >
    <i type="int" name="ISPIN">     1</i>
    <i type="logical" name="LNONCOLLINEAR"> F  </i>
    <v name="MAGMOM">      1.00000000      1.00000000      1.00000000      1.00000000      1.00000000      1.00000000      1.00000000      1.00000000      1.00000000      1.00000000      1.00000000      1.00000000      1.00000000      1.00000000      1.00000000      1.00000000      1.00000000      1.00000000      1.00000000      1.00000000
      1.00000000      1.00000000      1.00000000      1.00000000      1.00000000      1.00000000      1.00000000      1.00000000      1.00000000      1.00000000      1.00000000      1.00000000</v>
    <i name="NUPDOWN">     -1.00000000</i>
    <i type="logical" name="LSORBIT"> F  </i>
    <v name="SAXIS">      0.00000000      0.00000000      1.00000000</v>
    <i type="logical" name="LSPIRAL"> F  </i>
    <v name="QSPIRAL">      0.00000000      0.00000000      0.00000000</v>
    <i type="logical" name="LZEROZ"> F  </i>
   </separator>
   <separator name="electronic exchange-correlation" >
    <i type="string" name="GGA">--</i>
    <i type="int" name="VOSKOWN">     0</i>
    <i type="logical" name="LASPH"> F  </i>
    <i type="logical" name="LMETAGGA"> F  </i>
    <i type="string" name="GGA2">--</i>
   </separator>
   <separator name="electronic convergence" >
    <i type="int" name="NELM">    60</i>
    <i type="int" name="NELMDL">     0</i>
    <i type="int" name="NELMIN">     2</i>
    <i name="ENINI">    500.00000000</i>
    <separator name="electronic convergence detail" >
     <i type="logical" name="LDIAG"> T  </i>
     <i name="WEIMIN">      0.00000000</i>
     <i name="EBREAK">      0.00000000</i>
     <i name="DEPER">      0.30000000</i>
     <i type="int" name="NRMM">     4</i>
     <i name="TIME">      0.10000000</i>
    </separator>
   </separator>
   <separator name="electronic mixer" >
    <i name="AMIX">      0.40000000</i>
    <i name="BMIX">      1.00000000</i>
    <i name="AMIN">      0.10000000</i>
    <i name="AMIX_MAG">      1.60000000</i>
    <i name="BMIX_MAG">      1.00000000</i>
    <separator name="electronic mixer details" >
     <i type="int" name="IMIX">     4</i>
     <i type="int" name="MAXMIX">   -45</i>
     <i name="WC">    100.00000000</i>
     <i type="int" name="INIMIX">     1</i>
     <i type="int" name="MIXPRE">     1</i>
     <i type="int" name="MREMOVE">     5</i>
    </separator>
   </separator>
   <separator name="electronic dipolcorrection" >
    <i type="int" name="IDIPOL">     0</i>
    <i type="logical" name="LDIPOL"> F  </i>
    <v name="DIPOL">   -100.00000000</v>
    <i name="EFIELD">      0.00000000</i>
   </separator>
  </separator>
  <separator name="grids" >
   <i type="int" name="NGX">    60</i>
   <i type="int" name="NGY">    60</i>
   <i type="int" name="NGZ">    60</i>
   <i type="int" name="NGXF">   120</i>
   <i type="int" name="NGYF">   120</i>
   <i type="int" name="NGZF">   120</i>
   <i type="logical" name="ADDGRID"> F  </i>
  </separator>
  <separator name="ionic" >
   <i type="int" name="NSW">     0</i>
   <i type="int" name="IBRION">    -1</i>
   <i type="int" name="ISIF">     2</i>
   <i name="PSTRESS">      0.00000000</i>
   <i name="EDIFFG">      0.00000010</i>
   <i type="int" name="NFREE">     0</i>
   <i name="POTIM">      0.50000000</i>
   <i name="SMASS">     -3.00000000</i>
  </separator>
  <separator name="ionic md" >
   <i name="TEBEG">      0.00010000</i>
   <i name="TEEND">      0.00010000</i>
   <i type="int" name="NBLOCK">     1</i>
   <i type="int" name="KBLOCK">     1</i>
   <i type="int" name="NPACO">   256</i>
   <i name="APACO">     16.00000000</i>
  </separator>
  <separator name="symmetry" >
   <i type="int" name="ISYM">     2</i>
   <i name="SYMPREC">      0.00001000</i>
  </separator>
  <separator name="dos" >
   <i type="logical" name="LORBIT"> F  </i>
   <v name="RWIGS">     -1.00000000</v>
   <i type="int" name="NEDOS">   301</i>
   <i name="EMIN">     10.00000000</i>
   <i name="EMAX">    -10.00000000</i>
  </separator>
  <separator name="writing" >
   <i type="int" name="NWRITE">     2</i>
   <i type="logical" name="LWAVE"> F  </i>
   <i type="logical" name="LCHARG"> F  </i>
   <i type="logical" name="LPARD"> F  </i>
   <i type="logical" name="LVTOT"> F  </i>
   <i type="logical" name="LELF"> F  </i>
   <i type="logical" name="LOPTICS"> F  </i>
   <i name="STM">      0.00000000</i>
  </separator>
  <separator name="performance" >
   <i type="int" name="NPAR">     8</i>
   <i type="int" name="NSIM">     4</i>
   <i type="int" name="NBLK">   256</i>
   <i type="logical" name="LPLANE"> T  </i>
   <i type="logical" name="LCRITICAL_MEM"> F  </i>
   <i type="logical" name="LSCALAPACK"> F  </i>
   <i type="logical" name="LSCALU"> F  </i>
   <i type="logical" name="LASYNC"> F  </i>
  </separator>
  <separator name="miscellaneous" >
   <i type="int" name="IDIOT">     3</i>
   <i type="logical" name="LMUSIC"> F  </i>
   <v name="POMASS">     26.98200000</v>
   <i type="logical" name="LCORR"> T  </i>
  </separator>
  <i type="logical" name="LREAL_COMPAT"> F  </i>
  <i type="logical" name="GGA_COMPAT"> T  </i>
  <i type="logical" name="LBERRY"> F  </i>
  <i type="int" name="ICORELEVEL">     0</i>
  <i type="logical" name="LDAU"> F  </i>
  <i type="int" name="I_CONSTRAINED_M">     0</i>
 </parameters>
 <atominfo>
  <atoms>      32</atoms>
  <types>       1</types>
  <array name="atoms" >
   <dimension dim="1">ion</dimension>
   <field type="string">element</field>
   <field type="int">atomtype</field>
   <set>
    <rc><c>Al</c><c>   1</c></rc>
    <rc><c>Al</c><c>   1</c></rc>
    <rc><c>Al</c><c>   1</c></rc>
    <rc><c>Al</c><c>   1</c></rc>
    <rc><c>Al</c><c>   1</c></rc>
    <rc><c>Al</c><c>   1</c></rc>
    <rc><c>Al</c><c>   1</c></rc>
    <rc><c>Al</c><c>   1</c></rc>
    <rc><c>Al</c><c>   1</c></rc>
    <rc><c>Al</c><c>   1</c></rc>
    <rc><c>Al</c><c>   1</c></rc>
    <rc><c>Al</c><c>   1</c></rc>
    <rc><c>Al</c><c>   1</c></rc>
    <rc><c>Al</c><c>   1</c></rc>
    <rc><c>Al</c><c>   1</c></rc>
    <rc><c>Al</c><c>   1</c></rc>
    <rc><c>Al</c><c>   1</c></rc>
    <rc><c>Al</c><c>   1</c></rc>
    <rc><c>Al</c><c>   1</c></rc>
    <rc><c>Al</c><c>   1</c></rc>
    <rc><c>Al</c><c>   1</c></rc>
    <rc><c>Al</c><c>   1</c></rc>
    <rc><c>Al</c><c>   1</c></rc>
    <rc><c>Al</c><c>   1</c></rc>
    <rc><c>Al</c><c>   1</c></rc>
    <rc><c>Al</c><c>   1</c></rc>
    <rc><c>Al</c><c>   1</c></rc>
    <rc><c>Al</c><c>   1</c></rc>
    <rc><c>Al</c><c>   1</c></rc>
    <rc><c>Al</c><c>   1</c></rc>
    <rc><c>Al</c><c>   1</c></rc>
    <rc><c>Al</c><c>   1</c></rc>
   </set>
  </array>
  <array name="atomtypes" >
   <dimension dim="1">type</dimension>
   <field type="int">atomspertype</field>
   <field type="string">element</field>
   <field>mass</field>
   <field>valence</field>
   <field type="string">pseudopotential</field>
   <set>
    <rc><c>  32</c><c>Al</c><c>     26.98200000</c><c>      3.00000000</c><c> PAW_PBE Al 04Jan2001                   </c></rc>
   </set>
  </array>
 </atominfo>
 <structure name="initialpos" >
  <crystal>
   <varray name="basis" >
    <v>       8.15535887      0.00000000      0.00000000</v>
    <v>       0.00000000      8.15535887      0.00000000</v>
    <v>       0.00000000      0.00000000      8.15535887</v>
   </varray>
   <i name="volume">    542.41192527</i>
   <varray name="rec_basis" >
    <v>       0.12261876      0.00000000      0.00000000</v>
    <v>       0.00000000      0.12261876      0.00000000</v>
    <v>       0.00000000      0.00000000      0.12261876</v>
   </varray>
  </crystal>
  <varray name="positions" >
   <v>       0.25122619      0.25000000      0.00000000</v>
   <v>       0.75000000      0.25000000      0.00000000</v>
   <v>       0.25000000      0.75000000      0.00000000</v>
   <v>       0.75000000      0.75000000      0.00000000</v>
   <v>       0.25000000      0.25000000      0.50000000</v>
   <v>       0.75000000      0.25000000      0.50000000</v>
   <v>       0.25000000      0.75000000      0.50000000</v>
   <v>       0.75000000      0.75000000      0.50000000</v>
   <v>       0.25000000      0.00000000      0.25000000</v>
   <v>       0.75000000      0.00000000      0.25000000</v>
   <v>       0.25000000      0.50000000      0.25000000</v>
   <v>       0.75000000      0.50000000      0.25000000</v>
   <v>       0.25000000      0.00000000      0.75000000</v>
   <v>       0.75000000      0.00000000      0.75000000</v>
   <v>       0.25000000      0.50000000      0.75000000</v>
   <v>       0.75000000      0.50000000      0.75000000</v>
   <v>       0.00000000      0.25000000      0.25000000</v>
   <v>       0.50000000      0.25000000      0.25000000</v>
   <v>       0.00000000      0.75000000      0.25000000</v>
   <v>       0.50000000      0.75000000      0.25000000</v>
   <v>       0.00000000      0.25000000      0.75000000</v>
   <v>       0.50000000      0.25000000      0.75000000</v>
   <v>       0.00000000      0.75000000      0.75000000</v>
   <v>       0.50000000      0.75000000      0.75000000</v>
   <v>       0.00000000      0.00000000      0.00000000</v>
   <v>       0.50000000      0.00000000      0.00000000</v>
   <v>       0.00000000      0.50000000      0.00000000</v>
   <v>       0.50000000      0.50000000      0.00000000</v>
   <v>       0.00000000      0.00000000      0.50000000</v>
   <v>       0.50000000      0.00000000      0.50000000</v>
   <v>       0.00000000      0.50000000      0.50000000</v>
   <v>       0.50000000      0.50000000      0.50000000</v>
  </varray>
 </structure>
 <calculation>
  <scstep>
   <time name="dav">   76.69   76.68</time>
   <time name="total">   76.86   76.85</time>
   <energy>
    <i name="alphaZ">     -6.34098059</i>
    <i name="ewald">  -2331.47907581</i>
    <i name="hartreedc">     -3.59168532</i>
    <i name="XCdc">   -841.21531088</i>
    <i name="pawpsdc">   1137.73615723</i>
    <i name="pawaedc">   -115.16745734</i>
    <i name="eentropy">     -0.00023933</i>
    <i name="bandstr">    563.20682264</i>
    <i name="atom">   1713.22913220</i>
    <i name="e_fr_energy">    116.37736281</i>
    <i name="e_wo_entrp">    116.37760214</i>
    <i name="e_0_energy">    116.37748247</i>
   </energy>
  </scstep>
  <scstep>
   <time name="dav">   86.21   86.19</time>
   <time name="total">   86.23   86.20</time>
   <energy>
    <i name="e_fr_energy">   -107.42451996</i>
    <i name="e_wo_entrp">   -107.42380495</i>
    <i name="e_0_energy">   -107.42416246</i>
   </energy>
  </scstep>
  <scstep>
   <time name="dav">   89.85   89.82</time>
   <time name="total">   89.86   89.84</time>
   <energy>
    <i name="e_fr_energy">   -120.21754083</i>
    <i name="e_wo_entrp">   -120.21678286</i>
    <i name="e_0_energy">   -120.21716185</i>
   </energy>
  </scstep>
  <scstep>
   <time name="dav">   85.90   85.88</time>
   <time name="total">   85.91   85.89</time>
   <energy>
    <i name="e_fr_energy">   -120.45966087</i>
    <i name="e_wo_entrp">   -120.45890877</i>
    <i name="e_0_energy">   -120.45928482</i>
   </energy>
  </scstep>
  <scstep>
   <time name="dav">   85.63   85.60</time>
   <time name="total">   88.78   88.75</time>
   <energy>
    <i name="e_fr_energy">   -120.46256760</i>
    <i name="e_wo_entrp">   -120.46181516</i>
    <i name="e_0_energy">   -120.46219138</i>
   </energy>
  </scstep>
  <scstep>
   <time name="dav">   84.45   84.42</time>
   <time name="total">   87.82   87.79</time>
   <energy>
    <i name="e_fr_energy">   -120.05192680</i>
    <i name="e_wo_entrp">   -120.05119950</i>
    <i name="e_0_energy">   -120.05156315</i>
   </energy>
  </scstep>
  <scstep>
   <time name="dav">   82.91   82.88</time>
   <time name="total">   86.31   86.28</time>
   <energy>
    <i name="e_fr_energy">   -119.75257477</i>
    <i name="e_wo_entrp">   -119.75204133</i>
    <i name="e_0_energy">   -119.75230805</i>
   </energy>
  </scstep>
  <scstep>
   <time name="dav">   86.11   86.08</time>
   <time name="total">   89.41   89.38</time>
   <energy>
    <i name="e_fr_energy">   -119.75263579</i>
    <i name="e_wo_entrp">   -119.75210292</i>
    <i name="e_0_energy">   -119.75236936</i>
   </energy>
  </scstep>
  <scstep>
   <time name="dav">   85.68   85.65</time>
   <time name="total">   89.10   89.07</time>
   <energy>
    <i name="e_fr_energy">   -119.75266356</i>
    <i name="e_wo_entrp">   -119.75213179</i>
    <i name="e_0_energy">   -119.75239768</i>
   </energy>
  </scstep>
  <scstep>
   <time name="dav">   94.96   94.93</time>
   <time name="total">   99.35   99.32</time>
   <energy>
    <i name="e_fr_energy">   -119.75266379</i>
    <i name="e_wo_entrp">   -119.75213211</i>
    <i name="e_0_energy">   -119.75239795</i>
   </energy>
  </scstep>
  <scstep>
   <time name="dav">  100.73  100.70</time>
   <time name="total">  105.15  105.12</time>
   <energy>
    <i name="e_fr_energy">   -119.75266069</i>
    <i name="e_wo_entrp">   -119.75212901</i>
    <i name="e_0_energy">   -119.75239485</i>
   </energy>
  </scstep>
  <scstep>
   <time name="dav">   76.38   76.36</time>
   <time name="total">   80.79   80.76</time>
   <energy>
    <i name="e_fr_energy">   -119.75265957</i>
    <i name="e_wo_entrp">   -119.75212791</i>
    <i name="e_0_energy">   -119.75239374</i>
   </energy>
  </scstep>
  <scstep>
   <time name="dav">   68.61   68.59</time>
   <time name="total">   72.89   72.87</time>
   <energy>
    <i name="e_fr_energy">   -119.75265945</i>
    <i name="e_wo_entrp">   -119.75212778</i>
    <i name="e_0_energy">   -119.75239362</i>
   </energy>
  </scstep>
  <scstep>
   <time name="dav">   67.77   67.75</time>
   <time name="total">   67.96   67.94</time>
   <energy>
    <i name="alphaZ">     -6.34098059</i>
    <i name="ewald">  -2331.47907581</i>
    <i name="hartreedc">     -3.24315618</i>
    <i name="XCdc">   -837.90166076</i>
    <i name="pawpsdc">   1138.81430978</i>
    <i name="pawaedc">   -116.51595486</i>
    <i name="eentropy">     -0.00053167</i>
    <i name="bandstr">    323.68525844</i>
    <i name="atom">   1713.22913220</i>
    <i name="e_fr_energy">   -119.75265945</i>
    <i name="e_wo_entrp">   -119.75212778</i>
    <i name="e_0_energy">   -119.75239361</i>
   </energy>
  </scstep>
  <structure>
   <crystal>
    <varray name="basis" >
     <v>       8.15535887      0.00000000      0.00000000</v>
     <v>       0.00000000      8.15535887      0.00000000</v>
     <v>       0.00000000      0.00000000      8.15535887</v>
    </varray>
    <i name="volume">    542.41192527</i>
    <varray name="rec_basis" >
     <v>       0.12261876      0.00000000      0.00000000</v>
     <v>       0.00000000      0.12261876      0.00000000</v>
     <v>       0.00000000      0.00000000      0.12261876</v>
    </varray>
   </crystal>
   <varray name="positions" >
    <v>       0.25122619      0.25000000      0.00000000</v>
    <v>       0.75000000      0.25000000      0.00000000</v>
    <v>       0.25000000      0.75000000      0.00000000</v>
    <v>       0.75000000      0.75000000      0.00000000</v>
    <v>       0.25000000      0.25000000      0.50000000</v>
    <v>       0.75000000      0.25000000      0.50000000</v>
    <v>       0.25000000      0.75000000      0.50000000</v>
    <v>       0.75000000      0.75000000      0.50000000</v>
    <v>       0.25000000      0.00000000      0.25000000</v>
    <v>       0.75000000      0.00000000      0.25000000</v>
    <v>       0.25000000      0.50000000      0.25000000</v>
    <v>       0.75000000      0.50000000      0.25000000</v>
    <v>       0.25000000      0.00000000      0.75000000</v>
    <v>       0.75000000      0.00000000      0.75000000</v>
    <v>       0.25000000      0.50000000      0.75000000</v>
    <v>       0.75000000      0.50000000      0.75000000</v>
    <v>       0.00000000      0.25000000      0.25000000</v>
    <v>       0.50000000      0.25000000      0.25000000</v>
    <v>       0.00000000      0.75000000      0.25000000</v>
    <v>       0.50000000      0.75000000      0.25000000</v>
    <v>       0.00000000      0.25000000      0.75000000</v>
    <v>       0.50000000      0.25000000      0.75000000</v>
    <v>       0.00000000      0.75000000      0.75000000</v>
    <v>       0.50000000      0.75000000      0.75000000</v>
    <v>       0.00000000      0.00000000      0.00000000</v>
    <v>       0.50000000      0.00000000      0.00000000</v>
    <v>       0.00000000      0.50000000      0.00000000</v>
    <v>       0.50000000      0.50000000      0.00000000</v>
    <v>       0.00000000      0.00000000      0.50000000</v>
    <v>       0.50000000      0.00000000      0.50000000</v>
    <v>       0.00000000      0.50000000      0.50000000</v>
    <v>       0.50000000      0.50000000      0.50000000</v>
   </varray>
  </structure>
  <varray name="forces" >
   <v>      -0.04144498      0.00000000      0.00000000</v>
   <v>       0.00209694     -0.00000000     -0.00000000</v>
   <v>      -0.00034811      0.00000000      0.00000000</v>
   <v>       0.00049070      0.00000000     -0.00000000</v>
   <v>      -0.00034811      0.00000000      0.00000000</v>
   <v>       0.00049070      0.00000000      0.00000000</v>
   <v>       0.00002899      0.00000000      0.00000000</v>
   <v>      -0.00076327      0.00000000     -0.00000000</v>
   <v>      -0.00144397      0.00001792     -0.00001792</v>
   <v>      -0.00044802      0.00000001     -0.00000001</v>
   <v>      -0.00144397     -0.00001792     -0.00001792</v>
   <v>      -0.00044802     -0.00000001     -0.00000001</v>
   <v>      -0.00144397      0.00001792      0.00001792</v>
   <v>      -0.00044802      0.00000001      0.00000001</v>
   <v>      -0.00144397     -0.00001792      0.00001792</v>
   <v>      -0.00044802     -0.00000001      0.00000001</v>
   <v>       0.00576598      0.00000000     -0.00585755</v>
   <v>       0.00590506      0.00000000      0.00605555</v>
   <v>       0.00008267      0.00000000      0.00012859</v>
   <v>       0.00008757      0.00000000     -0.00013231</v>
   <v>       0.00576598      0.00000000      0.00585755</v>
   <v>       0.00590506     -0.00000000     -0.00605555</v>
   <v>       0.00008267     -0.00000000     -0.00012859</v>
   <v>       0.00008757      0.00000000      0.00013231</v>
   <v>       0.00576598      0.00585755     -0.00000000</v>
   <v>       0.00590506     -0.00605555     -0.00000000</v>
   <v>       0.00576598     -0.00585755     -0.00000000</v>
   <v>       0.00590506      0.00605555      0.00000000</v>
   <v>       0.00008267     -0.00012859     -0.00000000</v>
   <v>       0.00008757      0.00013231     -0.00000000</v>
   <v>       0.00008267      0.00012859      0.00000000</v>
   <v>       0.00008757     -0.00013231     -0.00000000</v>
  </varray>
  <varray name="stress" >
   <v>     -20.44459725     -0.00000000      0.00000000</v>
   <v>       0.00000000    -20.44644088      0.00000000</v>
   <v>       0.00000000      0.00000000    -20.44644088</v>
  </varray>
  <energy>
   <i name="e_fr_energy">   -119.75265945</i>
   <i name="e_wo_entrp">   -119.75239361</i>
   <i name="e_0_energy">     -0.00053167</i>
  </energy>
  <eigenvalues>
   <array>
    <dimension dim="1">band</dimension>
    <dimension dim="2">kpoint</dimension>
    <dimension dim="3">spin</dimension>
    <field>eigene</field>
    <field>occ</field>
    <set>
     <set comment="spin 1">
      <set comment="kpoint 1">
       <r>  -3.2275  1.0000</r>
       <r>  -1.0221  1.0000</r>
       <r>  -1.0184  1.0000</r>
       <r>  -1.0184  1.0000</r>
       <r>  -1.0184  1.0000</r>
       <r>  -1.0184  1.0000</r>
       <r>  -1.0147  1.0000</r>
       <r>   1.1517  1.0000</r>
       <r>   1.1561  1.0000</r>
       <r>   1.1561  1.0000</r>
       <r>   1.1578  1.0000</r>
       <r>   1.1579  1.0000</r>
       <r>   1.1579  1.0000</r>
       <r>   1.1579  1.0000</r>
       <r>   1.1579  1.0000</r>
       <r>   1.1581  1.0000</r>
       <r>   1.1597  1.0000</r>
       <r>   1.1597  1.0000</r>
       <r>   1.1641  1.0000</r>
       <r>   3.2361  1.0000</r>
       <r>   3.2361  1.0000</r>
       <r>   3.2361  1.0000</r>
       <r>   3.2361  1.0000</r>
       <r>   3.3780  1.0000</r>
       <r>   3.3780  1.0000</r>
       <r>   3.3780  1.0000</r>
       <r>   3.3781  1.0000</r>
       <r>   4.8634  1.0000</r>
       <r>   4.8634  1.0000</r>
       <r>   4.8634  1.0000</r>
       <r>   6.1245  1.0000</r>
       <r>   6.1246  1.0000</r>
       <r>   6.1246  1.0000</r>
       <r>   6.9058  1.0000</r>
       <r>   6.9058  1.0000</r>
       <r>   6.9101  1.0000</r>
       <r>   6.9101  1.0000</r>
       <r>   6.9102  1.0000</r>
       <r>   6.9102  1.0000</r>
       <r>   6.9102  1.0000</r>
       <r>   6.9102  1.0000</r>
       <r>   6.9103  1.0000</r>
       <r>   6.9103  1.0000</r>
       <r>   6.9146  1.0000</r>
       <r>   6.9146  1.0000</r>
       <r>   7.9345  0.0000</r>
       <r>   7.9386  0.0000</r>
       <r>   7.9386  0.0000</r>
       <r>   7.9386  0.0000</r>
       <r>   7.9386  0.0000</r>
       <r>   7.9427  0.0000</r>
       <r>   8.6799  0.0000</r>
       <r>   8.6808  0.0000</r>
       <r>   8.6808  0.0000</r>
       <r>   8.6809  0.0000</r>
       <r>   8.6809  0.0000</r>
       <r>   8.6819  0.0000</r>
       <r>   8.9581  0.0000</r>
       <r>   8.9581  0.0000</r>
       <r>   8.9598  0.0000</r>
       <r>   8.9620  0.0000</r>
       <r>   8.9621  0.0000</r>
       <r>   8.9621  0.0000</r>
       <r>   8.9621  0.0000</r>
       <r>   8.9622  0.0000</r>
       <r>   8.9623  0.0000</r>
       <r>   8.9645  0.0000</r>
       <r>   8.9662  0.0000</r>
       <r>   8.9662  0.0000</r>
       <r>  10.3922  0.0000</r>
       <r>  10.3931  0.0000</r>
       <r>  10.3938  0.0000</r>
      </set>
      <set comment="kpoint 2">
       <r>  -3.2121  1.0000</r>
       <r>  -1.3690  1.0000</r>
       <r>  -1.0032  1.0000</r>
       <r>  -1.0032  1.0000</r>
       <r>  -1.0032  1.0000</r>
       <r>  -1.0032  1.0000</r>
       <r>  -0.6384  1.0000</r>
       <r>   0.8125  1.0000</r>
       <r>   0.8125  1.0000</r>
       <r>   0.8125  1.0000</r>
       <r>   0.8125  1.0000</r>
       <r>   1.1729  1.0000</r>
       <r>   1.1729  1.0000</r>
       <r>   1.1729  1.0000</r>
       <r>   1.1729  1.0000</r>
       <r>   1.5323  1.0000</r>
       <r>   1.5323  1.0000</r>
       <r>   1.5323  1.0000</r>
       <r>   1.5324  1.0000</r>
       <r>   2.9589  1.0000</r>
       <r>   2.9589  1.0000</r>
       <r>   2.9589  1.0000</r>
       <r>   2.9589  1.0000</r>
       <r>   3.6840  1.0000</r>
       <r>   3.6840  1.0000</r>
       <r>   3.6840  1.0000</r>
       <r>   3.6840  1.0000</r>
       <r>   4.5590  1.0000</r>
       <r>   4.8776  1.0000</r>
       <r>   4.8776  1.0000</r>
       <r>   6.1396  1.0000</r>
       <r>   6.1396  1.0000</r>
       <r>   6.4558  1.0000</r>
       <r>   6.5827  1.0000</r>
       <r>   6.5827  1.0000</r>
       <r>   6.6214  1.0000</r>
       <r>   6.6214  1.0000</r>
       <r>   6.6214  1.0000</r>
       <r>   6.6215  1.0000</r>
       <r>   6.9244  1.0000</r>
       <r>   6.9244  1.0000</r>
       <r>   6.9244  1.0000</r>
       <r>   6.9244  1.0000</r>
       <r>   7.2663  1.0000</r>
       <r>   7.2663  1.0000</r>
       <r>   7.8108  0.0000</r>
       <r>   7.8109  0.0000</r>
       <r>   8.1040  0.0000</r>
       <r>   8.1040  0.0000</r>
       <r>   8.1040  0.0000</r>
       <r>   8.1040  0.0000</r>
       <r>   8.6341  0.0000</r>
       <r>   8.6341  0.0000</r>
       <r>   8.6341  0.0000</r>
       <r>   8.6341  0.0000</r>
       <r>   8.6954  0.0000</r>
       <r>   8.6955  0.0000</r>
       <r>   8.6955  0.0000</r>
       <r>   8.6955  0.0000</r>
       <r>   8.8353  0.0000</r>
       <r>   8.8353  0.0000</r>
       <r>   8.8454  0.0000</r>
       <r>   8.8454  0.0000</r>
       <r>   8.8455  0.0000</r>
       <r>   8.8455  0.0000</r>
       <r>   9.3187  0.0000</r>
       <r>   9.3187  0.0000</r>
       <r>   9.3187  0.0000</r>
       <r>   9.3187  0.0000</r>
       <r>  10.0641  0.0000</r>
       <r>  10.0641  0.0000</r>
       <r>  10.0641  0.0000</r>
      </set>
      <set comment="kpoint 3">
       <r>  -3.1657  1.0000</r>
       <r>  -1.6898  1.0000</r>
       <r>  -0.9575  1.0000</r>
       <r>  -0.9575  1.0000</r>
       <r>  -0.9575  1.0000</r>
       <r>  -0.9575  1.0000</r>
       <r>  -0.2292  1.0000</r>
       <r>   0.4964  1.0000</r>
       <r>   0.4964  1.0000</r>
       <r>   0.4964  1.0000</r>
       <r>   0.4964  1.0000</r>
       <r>   1.2179  1.0000</r>
       <r>   1.2179  1.0000</r>
       <r>   1.2179  1.0000</r>
       <r>   1.2180  1.0000</r>
       <r>   1.9355  1.0000</r>
       <r>   1.9355  1.0000</r>
       <r>   1.9355  1.0000</r>
       <r>   1.9355  1.0000</r>
       <r>   2.6502  1.0000</r>
       <r>   2.6502  1.0000</r>
       <r>   2.6502  1.0000</r>
       <r>   2.6502  1.0000</r>
       <r>   3.9973  1.0000</r>
       <r>   4.0789  1.0000</r>
       <r>   4.0789  1.0000</r>
       <r>   4.0789  1.0000</r>
       <r>   4.0789  1.0000</r>
       <r>   4.9201  1.0000</r>
       <r>   4.9201  1.0000</r>
       <r>   6.0813  1.0000</r>
       <r>   6.0813  1.0000</r>
       <r>   6.0813  1.0000</r>
       <r>   6.0813  1.0000</r>
       <r>   6.1847  1.0000</r>
       <r>   6.1848  1.0000</r>
       <r>   6.2840  1.0000</r>
       <r>   6.2840  1.0000</r>
       <r>   6.9671  1.0000</r>
       <r>   6.9671  1.0000</r>
       <r>   6.9671  1.0000</r>
       <r>   6.9671  1.0000</r>
       <r>   7.0983  1.0000</r>
       <r>   7.5661  1.0000</r>
       <r>   7.5661  1.0000</r>
       <r>   7.6510  1.0000</r>
       <r>   7.6510  1.0000</r>
       <r>   8.1723  0.0000</r>
       <r>   8.1723  0.0000</r>
       <r>   8.1723  0.0000</r>
       <r>   8.1723  0.0000</r>
       <r>   8.2765  0.0000</r>
       <r>   8.2765  0.0000</r>
       <r>   8.2766  0.0000</r>
       <r>   8.2766  0.0000</r>
       <r>   8.3347  0.0000</r>
       <r>   8.3347  0.0000</r>
       <r>   8.3348  0.0000</r>
       <r>   8.3348  0.0000</r>
       <r>   9.1599  0.0000</r>
       <r>   9.1599  0.0000</r>
       <r>   9.3361  0.0000</r>
       <r>   9.3361  0.0000</r>
       <r>   9.3361  0.0000</r>
       <r>   9.3361  0.0000</r>
       <r>   9.7039  0.0000</r>
       <r>   9.7039  0.0000</r>
       <r>   9.7039  0.0000</r>
       <r>   9.7046  0.0000</r>
       <r>   9.7613  0.0000</r>
       <r>   9.7613  0.0000</r>
       <r>   9.7614  0.0000</r>
      </set>
      <set comment="kpoint 4">
       <r>  -3.0885  1.0000</r>
       <r>  -1.9807  1.0000</r>
       <r>  -0.8815  1.0000</r>
       <r>  -0.8814  1.0000</r>
       <r>  -0.8814  1.0000</r>
       <r>  -0.8814  1.0000</r>
       <r>   0.2067  1.0000</r>
       <r>   0.2098  1.0000</r>
       <r>   0.2098  1.0000</r>
       <r>   0.2098  1.0000</r>
       <r>   0.2119  1.0000</r>
       <r>   1.2929  1.0000</r>
       <r>   1.2929  1.0000</r>
       <r>   1.2929  1.0000</r>
       <r>   1.2929  1.0000</r>
       <r>   2.3643  1.0000</r>
       <r>   2.3662  1.0000</r>
       <r>   2.3662  1.0000</r>
       <r>   2.3670  1.0000</r>
       <r>   2.3684  1.0000</r>
       <r>   2.3692  1.0000</r>
       <r>   2.3692  1.0000</r>
       <r>   2.3710  1.0000</r>
       <r>   3.3993  1.0000</r>
       <r>   4.5042  1.0000</r>
       <r>   4.5042  1.0000</r>
       <r>   4.5042  1.0000</r>
       <r>   4.5042  1.0000</r>
       <r>   4.9911  1.0000</r>
       <r>   4.9911  1.0000</r>
       <r>   5.5003  1.0000</r>
       <r>   5.5003  1.0000</r>
       <r>   5.5003  1.0000</r>
       <r>   5.5003  1.0000</r>
       <r>   6.0138  1.0000</r>
       <r>   6.0138  1.0000</r>
       <r>   6.2598  1.0000</r>
       <r>   6.2598  1.0000</r>
       <r>   7.0383  1.0000</r>
       <r>   7.0383  1.0000</r>
       <r>   7.0383  1.0000</r>
       <r>   7.0383  1.0000</r>
       <r>   7.3103  1.0000</r>
       <r>   7.3103  1.0000</r>
       <r>   7.6006  1.0000</r>
       <r>   7.6006  1.0000</r>
       <r>   7.6006  1.0000</r>
       <r>   7.6006  1.0000</r>
       <r>   7.8306  0.0000</r>
       <r>   8.0619  0.0000</r>
       <r>   8.0619  0.0000</r>
       <r>   8.0639  0.0000</r>
       <r>   8.0639  0.0000</r>
       <r>   8.0665  0.0000</r>
       <r>   8.0665  0.0000</r>
       <r>   8.3951  0.0000</r>
       <r>   8.3951  0.0000</r>
       <r>   8.3951  0.0000</r>
       <r>   8.3951  0.0000</r>
       <r>   9.4855  0.0000</r>
       <r>   9.4855  0.0000</r>
       <r>   9.4856  0.0000</r>
       <r>   9.4856  0.0000</r>
       <r>   9.5480  0.0000</r>
       <r>   9.5481  0.0000</r>
       <r>  10.0033  0.0000</r>
       <r>  10.0033  0.0000</r>
       <r>  10.0034  0.0000</r>
       <r>  10.0034  0.0000</r>
       <r>  10.1178  0.0000</r>
       <r>  10.1178  0.0000</r>
       <r>  10.1178  0.0000</r>
      </set>
      <set comment="kpoint 5">
       <r>  -2.9804  1.0000</r>
       <r>  -2.2415  1.0000</r>
       <r>  -0.7750  1.0000</r>
       <r>  -0.7750  1.0000</r>
       <r>  -0.7750  1.0000</r>
       <r>  -0.7750  1.0000</r>
       <r>  -0.0472  1.0000</r>
       <r>  -0.0471  1.0000</r>
       <r>  -0.0471  1.0000</r>
       <r>  -0.0471  1.0000</r>
       <r>   0.6752  1.0000</r>
       <r>   1.3979  1.0000</r>
       <r>   1.3979  1.0000</r>
       <r>   1.3979  1.0000</r>
       <r>   1.3979  1.0000</r>
       <r>   2.1153  1.0000</r>
       <r>   2.1154  1.0000</r>
       <r>   2.1154  1.0000</r>
       <r>   2.1154  1.0000</r>
       <r>   2.8089  1.0000</r>
       <r>   2.8263  1.0000</r>
       <r>   2.8263  1.0000</r>
       <r>   2.8263  1.0000</r>
       <r>   2.8264  1.0000</r>
       <r>   4.9232  1.0000</r>
       <r>   4.9232  1.0000</r>
       <r>   4.9233  1.0000</r>
       <r>   4.9233  1.0000</r>
       <r>   4.9577  1.0000</r>
       <r>   4.9577  1.0000</r>
       <r>   4.9577  1.0000</r>
       <r>   4.9577  1.0000</r>
       <r>   5.0905  1.0000</r>
       <r>   5.0905  1.0000</r>
       <r>   5.7722  1.0000</r>
       <r>   5.7722  1.0000</r>
       <r>   6.3646  1.0000</r>
       <r>   6.3646  1.0000</r>
       <r>   7.0306  1.0000</r>
       <r>   7.0306  1.0000</r>
       <r>   7.0306  1.0000</r>
       <r>   7.0307  1.0000</r>
       <r>   7.0698  1.0000</r>
       <r>   7.0699  1.0000</r>
       <r>   7.1380  1.0000</r>
       <r>   7.1380  1.0000</r>
       <r>   7.1380  1.0000</r>
       <r>   7.1380  1.0000</r>
       <r>   7.8217  0.0000</r>
       <r>   7.8217  0.0000</r>
       <r>   7.8217  0.0000</r>
       <r>   7.8217  0.0000</r>
       <r>   8.5066  0.0000</r>
       <r>   8.5066  0.0000</r>
       <r>   8.5160  0.0000</r>
       <r>   8.5160  0.0000</r>
       <r>   8.5161  0.0000</r>
       <r>   8.5161  0.0000</r>
       <r>   8.6090  0.0000</r>
       <r>   9.2372  0.0000</r>
       <r>   9.2372  0.0000</r>
       <r>   9.2372  0.0000</r>
       <r>   9.2372  0.0000</r>
       <r>   9.9721  0.0000</r>
       <r>   9.9721  0.0000</r>
       <r>  10.5596  0.0000</r>
       <r>  10.5597  0.0000</r>
       <r>  10.5602  0.0000</r>
       <r>  10.5602  0.0000</r>
       <r>  10.5633  0.0000</r>
       <r>  10.5633  0.0000</r>
       <r>  10.7454  0.0000</r>
      </set>
      <set comment="kpoint 6">
       <r>  -2.8416  1.0000</r>
       <r>  -2.4720  1.0000</r>
       <r>  -0.6383  1.0000</r>
       <r>  -0.6383  1.0000</r>
       <r>  -0.6383  1.0000</r>
       <r>  -0.6383  1.0000</r>
       <r>  -0.2742  1.0000</r>
       <r>  -0.2742  1.0000</r>
       <r>  -0.2742  1.0000</r>
       <r>  -0.2742  1.0000</r>
       <r>   1.1694  1.0000</r>
       <r>   1.5327  1.0000</r>
       <r>   1.5327  1.0000</r>
       <r>   1.5327  1.0000</r>
       <r>   1.5327  1.0000</r>
       <r>   1.8916  1.0000</r>
       <r>   1.8916  1.0000</r>
       <r>   1.8916  1.0000</r>
       <r>   1.8916  1.0000</r>
       <r>   2.2380  1.0000</r>
       <r>   3.3128  1.0000</r>
       <r>   3.3128  1.0000</r>
       <r>   3.3128  1.0000</r>
       <r>   3.3128  1.0000</r>
       <r>   4.3633  1.0000</r>
       <r>   4.3633  1.0000</r>
       <r>   4.3633  1.0000</r>
       <r>   4.3633  1.0000</r>
       <r>   5.2182  1.0000</r>
       <r>   5.2182  1.0000</r>
       <r>   5.4384  1.0000</r>
       <r>   5.4384  1.0000</r>
       <r>   5.4384  1.0000</r>
       <r>   5.4384  1.0000</r>
       <r>   5.5591  1.0000</r>
       <r>   5.5591  1.0000</r>
       <r>   6.4769  1.0000</r>
       <r>   6.4770  1.0000</r>
       <r>   6.4770  1.0000</r>
       <r>   6.4771  1.0000</r>
       <r>   6.4988  1.0000</r>
       <r>   6.4989  1.0000</r>
       <r>   6.8526  1.0000</r>
       <r>   6.8526  1.0000</r>
       <r>   7.2661  1.0000</r>
       <r>   7.2661  1.0000</r>
       <r>   7.2661  1.0000</r>
       <r>   7.2661  1.0000</r>
       <r>   7.6080  1.0000</r>
       <r>   7.6080  1.0000</r>
       <r>   7.6080  1.0000</r>
       <r>   7.6080  1.0000</r>
       <r>   8.6570  0.0000</r>
       <r>   8.6570  0.0000</r>
       <r>   8.6570  0.0000</r>
       <r>   8.6570  0.0000</r>
       <r>   8.9775  0.0000</r>
       <r>   8.9775  0.0000</r>
       <r>   9.0164  0.0000</r>
       <r>   9.0165  0.0000</r>
       <r>   9.0165  0.0000</r>
       <r>   9.0165  0.0000</r>
       <r>   9.4216  0.0000</r>
       <r>  10.0057  0.0000</r>
       <r>  10.0057  0.0000</r>
       <r>  10.4223  0.0000</r>
       <r>  10.4223  0.0000</r>
       <r>  11.0311  0.0000</r>
       <r>  11.0311  0.0000</r>
       <r>  11.0311  0.0000</r>
       <r>  11.0311  0.0000</r>
       <r>  11.1336  0.0000</r>
      </set>
      <set comment="kpoint 7">
       <r>  -2.6735  1.0000</r>
       <r>  -2.6707  1.0000</r>
       <r>  -0.4752  1.0000</r>
       <r>  -0.4721  1.0000</r>
       <r>  -0.4721  1.0000</r>
       <r>  -0.4714  1.0000</r>
       <r>  -0.4712  1.0000</r>
       <r>  -0.4705  1.0000</r>
       <r>  -0.4705  1.0000</r>
       <r>  -0.4674  1.0000</r>
       <r>   1.6885  1.0000</r>
       <r>   1.6909  1.0000</r>
       <r>   1.6957  1.0000</r>
       <r>   1.6960  1.0000</r>
       <r>   1.6960  1.0000</r>
       <r>   1.6969  1.0000</r>
       <r>   1.6977  1.0000</r>
       <r>   1.6985  1.0000</r>
       <r>   1.6985  1.0000</r>
       <r>   1.7010  1.0000</r>
       <r>   3.8247  1.0000</r>
       <r>   3.8249  1.0000</r>
       <r>   3.8249  1.0000</r>
       <r>   3.8255  1.0000</r>
       <r>   3.8258  1.0000</r>
       <r>   3.8265  1.0000</r>
       <r>   3.8265  1.0000</r>
       <r>   3.8266  1.0000</r>
       <r>   5.3729  1.0000</r>
       <r>   5.3729  1.0000</r>
       <r>   5.3759  1.0000</r>
       <r>   5.3759  1.0000</r>
       <r>   5.9443  1.0000</r>
       <r>   5.9443  1.0000</r>
       <r>   5.9449  1.0000</r>
       <r>   5.9452  1.0000</r>
       <r>   5.9456  1.0000</r>
       <r>   5.9459  1.0000</r>
       <r>   5.9465  1.0000</r>
       <r>   5.9465  1.0000</r>
       <r>   6.6599  1.0000</r>
       <r>   6.6608  1.0000</r>
       <r>   6.6626  1.0000</r>
       <r>   6.6636  1.0000</r>
       <r>   7.4204  1.0000</r>
       <r>   7.4204  1.0000</r>
       <r>   7.4214  1.0000</r>
       <r>   7.4227  1.0000</r>
       <r>   7.4229  1.0000</r>
       <r>   7.4242  1.0000</r>
       <r>   7.4251  1.0000</r>
       <r>   7.4251  1.0000</r>
       <r>   8.8210  0.0000</r>
       <r>   8.8220  0.0000</r>
       <r>   8.8220  0.0000</r>
       <r>   8.8222  0.0000</r>
       <r>   8.8243  0.0000</r>
       <r>   8.8244  0.0000</r>
       <r>   8.8244  0.0000</r>
       <r>   8.8254  0.0000</r>
       <r>   9.4761  0.0000</r>
       <r>   9.4761  0.0000</r>
       <r>   9.4784  0.0000</r>
       <r>   9.4784  0.0000</r>
       <r>  10.2632  0.0000</r>
       <r>  10.2647  0.0000</r>
       <r>  10.8911  0.0000</r>
       <r>  10.8917  0.0000</r>
       <r>  10.8929  0.0000</r>
       <r>  10.8934  0.0000</r>
       <r>  11.5298  0.0000</r>
       <r>  11.5313  0.0000</r>
      </set>
      <set comment="kpoint 8">
       <r>  -3.2121  1.0000</r>
       <r>  -1.3690  1.0000</r>
       <r>  -1.0060  1.0000</r>
       <r>  -1.0032  1.0000</r>
       <r>  -1.0032  1.0000</r>
       <r>  -1.0003  1.0000</r>
       <r>  -0.6384  1.0000</r>
       <r>   0.8097  1.0000</r>
       <r>   0.8125  1.0000</r>
       <r>   0.8125  1.0000</r>
       <r>   0.8154  1.0000</r>
       <r>   1.1708  1.0000</r>
       <r>   1.1718  1.0000</r>
       <r>   1.1740  1.0000</r>
       <r>   1.1751  1.0000</r>
       <r>   1.5295  1.0000</r>
       <r>   1.5323  1.0000</r>
       <r>   1.5323  1.0000</r>
       <r>   1.5352  1.0000</r>
       <r>   2.9568  1.0000</r>
       <r>   2.9578  1.0000</r>
       <r>   2.9600  1.0000</r>
       <r>   2.9611  1.0000</r>
       <r>   3.6819  1.0000</r>
       <r>   3.6829  1.0000</r>
       <r>   3.6851  1.0000</r>
       <r>   3.6862  1.0000</r>
       <r>   4.5590  1.0000</r>
       <r>   4.8776  1.0000</r>
       <r>   4.8776  1.0000</r>
       <r>   6.1396  1.0000</r>
       <r>   6.1396  1.0000</r>
       <r>   6.4558  1.0000</r>
       <r>   6.5827  1.0000</r>
       <r>   6.5828  1.0000</r>
       <r>   6.6183  1.0000</r>
       <r>   6.6214  1.0000</r>
       <r>   6.6214  1.0000</r>
       <r>   6.6246  1.0000</r>
       <r>   6.9218  1.0000</r>
       <r>   6.9244  1.0000</r>
       <r>   6.9245  1.0000</r>
       <r>   6.9271  1.0000</r>
       <r>   7.2663  1.0000</r>
       <r>   7.2663  1.0000</r>
       <r>   7.8108  0.0000</r>
       <r>   7.8109  0.0000</r>
       <r>   8.1013  0.0000</r>
       <r>   8.1040  0.0000</r>
       <r>   8.1040  0.0000</r>
       <r>   8.1067  0.0000</r>
       <r>   8.6314  0.0000</r>
       <r>   8.6341  0.0000</r>
       <r>   8.6341  0.0000</r>
       <r>   8.6368  0.0000</r>
       <r>   8.6928  0.0000</r>
       <r>   8.6944  0.0000</r>
       <r>   8.6965  0.0000</r>
       <r>   8.6982  0.0000</r>
       <r>   8.8353  0.0000</r>
       <r>   8.8353  0.0000</r>
       <r>   8.8443  0.0000</r>
       <r>   8.8454  0.0000</r>
       <r>   8.8454  0.0000</r>
       <r>   8.8466  0.0000</r>
       <r>   9.3160  0.0000</r>
       <r>   9.3187  0.0000</r>
       <r>   9.3188  0.0000</r>
       <r>   9.3215  0.0000</r>
       <r>  10.0636  0.0000</r>
       <r>  10.0641  0.0000</r>
       <r>  10.0659  0.0000</r>
      </set>
      <set comment="kpoint 9">
       <r>  -3.1966  1.0000</r>
       <r>  -1.3549  1.0000</r>
       <r>  -1.3525  1.0000</r>
       <r>  -0.9880  1.0000</r>
       <r>  -0.9879  1.0000</r>
       <r>  -0.6244  1.0000</r>
       <r>  -0.6221  1.0000</r>
       <r>   0.4663  1.0000</r>
       <r>   0.8259  1.0000</r>
       <r>   0.8269  1.0000</r>
       <r>   0.8283  1.0000</r>
       <r>   0.8292  1.0000</r>
       <r>   1.1873  1.0000</r>
       <r>   1.1883  1.0000</r>
       <r>   1.5457  1.0000</r>
       <r>   1.5466  1.0000</r>
       <r>   1.5480  1.0000</r>
       <r>   1.5490  1.0000</r>
       <r>   1.9058  1.0000</r>
       <r>   2.6206  1.0000</r>
       <r>   2.6206  1.0000</r>
       <r>   3.2648  1.0000</r>
       <r>   3.2648  1.0000</r>
       <r>   3.4084  1.0000</r>
       <r>   3.4084  1.0000</r>
       <r>   4.0496  1.0000</r>
       <r>   4.0496  1.0000</r>
       <r>   4.5730  1.0000</r>
       <r>   4.5738  1.0000</r>
       <r>   4.8918  1.0000</r>
       <r>   6.1547  1.0000</r>
       <r>   6.2933  1.0000</r>
       <r>   6.2955  1.0000</r>
       <r>   6.4703  1.0000</r>
       <r>   6.4711  1.0000</r>
       <r>   6.5887  1.0000</r>
       <r>   6.5889  1.0000</r>
       <r>   6.5958  1.0000</r>
       <r>   6.5984  1.0000</r>
       <r>   6.6887  1.0000</r>
       <r>   6.6888  1.0000</r>
       <r>   6.9713  1.0000</r>
       <r>   6.9730  1.0000</r>
       <r>   7.2792  1.0000</r>
       <r>   7.2818  1.0000</r>
       <r>   7.8940  0.0000</r>
       <r>   7.8961  0.0000</r>
       <r>   8.0835  0.0000</r>
       <r>   8.0860  0.0000</r>
       <r>   8.3061  0.0000</r>
       <r>   8.3177  0.0000</r>
       <r>   8.3178  0.0000</r>
       <r>   8.3647  0.0000</r>
       <r>   8.3656  0.0000</r>
       <r>   8.3670  0.0000</r>
       <r>   8.3679  0.0000</r>
       <r>   8.8907  0.0000</r>
       <r>   8.8913  0.0000</r>
       <r>   8.9552  0.0000</r>
       <r>   8.9553  0.0000</r>
       <r>   8.9898  0.0000</r>
       <r>   8.9916  0.0000</r>
       <r>   9.0518  0.0000</r>
       <r>   9.0528  0.0000</r>
       <r>   9.0532  0.0000</r>
       <r>   9.0542  0.0000</r>
       <r>   9.0853  0.0000</r>
       <r>   9.0870  0.0000</r>
       <r>   9.6753  0.0000</r>
       <r>   9.7337  0.0000</r>
       <r>  10.3579  0.0000</r>
       <r>  10.3612  0.0000</r>
      </set>
      <set comment="kpoint 10">
       <r>  -3.1503  1.0000</r>
       <r>  -1.6745  1.0000</r>
       <r>  -1.3079  1.0000</r>
       <r>  -0.9423  1.0000</r>
       <r>  -0.9423  1.0000</r>
       <r>  -0.5777  1.0000</r>
       <r>  -0.2141  1.0000</r>
       <r>   0.1495  1.0000</r>
       <r>   0.5115  1.0000</r>
       <r>   0.5115  1.0000</r>
       <r>   0.8719  1.0000</r>
       <r>   0.8727  1.0000</r>
       <r>   0.8733  1.0000</r>
       <r>   1.5914  1.0000</r>
       <r>   1.5922  1.0000</r>
       <r>   1.5927  1.0000</r>
       <r>   1.9504  1.0000</r>
       <r>   1.9504  1.0000</r>
       <r>   2.3077  1.0000</r>
       <r>   2.3090  1.0000</r>
       <r>   2.3092  1.0000</r>
       <r>   3.0177  1.0000</r>
       <r>   3.0177  1.0000</r>
       <r>   3.7431  1.0000</r>
       <r>   3.7431  1.0000</r>
       <r>   4.0119  1.0000</r>
       <r>   4.4459  1.0000</r>
       <r>   4.4459  1.0000</r>
       <r>   4.6166  1.0000</r>
       <r>   4.9343  1.0000</r>
       <r>   5.7515  1.0000</r>
       <r>   5.9945  1.0000</r>
       <r>   6.0918  1.0000</r>
       <r>   6.0918  1.0000</r>
       <r>   6.1998  1.0000</r>
       <r>   6.2982  1.0000</r>
       <r>   6.4364  1.0000</r>
       <r>   6.5152  1.0000</r>
       <r>   6.6397  1.0000</r>
       <r>   6.6919  1.0000</r>
       <r>   6.6919  1.0000</r>
       <r>   7.1129  1.0000</r>
       <r>   7.3174  1.0000</r>
       <r>   7.3232  1.0000</r>
       <r>   7.6652  1.0000</r>
       <r>   7.6657  1.0000</r>
       <r>   7.8415  0.0000</r>
       <r>   7.8415  0.0000</r>
       <r>   7.8710  0.0000</r>
       <r>   7.9870  0.0000</r>
       <r>   8.0069  0.0000</r>
       <r>   8.0656  0.0000</r>
       <r>   8.0656  0.0000</r>
       <r>   8.4934  0.0000</r>
       <r>   8.5313  0.0000</r>
       <r>   8.5313  0.0000</r>
       <r>   8.5571  0.0000</r>
       <r>   8.5572  0.0000</r>
       <r>   8.6913  0.0000</r>
       <r>   9.1485  0.0000</r>
       <r>   9.1858  0.0000</r>
       <r>   9.3747  0.0000</r>
       <r>   9.3756  0.0000</r>
       <r>   9.3768  0.0000</r>
       <r>   9.4298  0.0000</r>
       <r>   9.4347  0.0000</r>
       <r>   9.4388  0.0000</r>
       <r>   9.4389  0.0000</r>
       <r>   9.6527  0.0000</r>
       <r>  10.0560  0.0000</r>
       <r>  10.0564  0.0000</r>
       <r>  10.0609  0.0000</r>
      </set>
      <set comment="kpoint 11">
       <r>  -3.0730  1.0000</r>
       <r>  -1.9654  1.0000</r>
       <r>  -1.2317  1.0000</r>
       <r>  -0.8662  1.0000</r>
       <r>  -0.8662  1.0000</r>
       <r>  -0.5018  1.0000</r>
       <r>  -0.1379  1.0000</r>
       <r>   0.2225  1.0000</r>
       <r>   0.2249  1.0000</r>
       <r>   0.2262  1.0000</r>
       <r>   0.5866  1.0000</r>
       <r>   0.9479  1.0000</r>
       <r>   0.9479  1.0000</r>
       <r>   1.6670  1.0000</r>
       <r>   1.6670  1.0000</r>
       <r>   2.0233  1.0000</r>
       <r>   2.0261  1.0000</r>
       <r>   2.0272  1.0000</r>
       <r>   2.3818  1.0000</r>
       <r>   2.3818  1.0000</r>
       <r>   2.7367  1.0000</r>
       <r>   2.7389  1.0000</r>
       <r>   2.7404  1.0000</r>
       <r>   3.4141  1.0000</r>
       <r>   4.1668  1.0000</r>
       <r>   4.1668  1.0000</r>
       <r>   4.6885  1.0000</r>
       <r>   4.8708  1.0000</r>
       <r>   4.8708  1.0000</r>
       <r>   5.0053  1.0000</r>
       <r>   5.1675  1.0000</r>
       <r>   5.5136  1.0000</r>
       <r>   5.5136  1.0000</r>
       <r>   5.7225  1.0000</r>
       <r>   5.8599  1.0000</r>
       <r>   6.0280  1.0000</r>
       <r>   6.2747  1.0000</r>
       <r>   6.5892  1.0000</r>
       <r>   6.7108  1.0000</r>
       <r>   6.7617  1.0000</r>
       <r>   6.7617  1.0000</r>
       <r>   7.2684  1.0000</r>
       <r>   7.2685  1.0000</r>
       <r>   7.3036  1.0000</r>
       <r>   7.3944  1.0000</r>
       <r>   7.6240  1.0000</r>
       <r>   7.7361  0.1702</r>
       <r>   7.7932  0.0000</r>
       <r>   7.7934  0.0000</r>
       <r>   7.8298  0.0000</r>
       <r>   7.8450  0.0000</r>
       <r>   7.9610  0.0000</r>
       <r>   7.9610  0.0000</r>
       <r>   8.0786  0.0000</r>
       <r>   8.0787  0.0000</r>
       <r>   8.4204  0.0000</r>
       <r>   8.6924  0.0000</r>
       <r>   8.6924  0.0000</r>
       <r>   8.7147  0.0000</r>
       <r>   9.1534  0.0000</r>
       <r>   9.5668  0.0000</r>
       <r>   9.7166  0.0000</r>
       <r>   9.7820  0.0000</r>
       <r>   9.7820  0.0000</r>
       <r>   9.7898  0.0000</r>
       <r>   9.8299  0.0000</r>
       <r>   9.8436  0.0000</r>
       <r>   9.8527  0.0000</r>
       <r>   9.8528  0.0000</r>
       <r>  10.0246  0.0000</r>
       <r>  10.0246  0.0000</r>
       <r>  10.3417  0.0000</r>
      </set>
      <set comment="kpoint 12">
       <r>  -2.9650  1.0000</r>
       <r>  -2.2262  1.0000</r>
       <r>  -1.1250  1.0000</r>
       <r>  -0.7598  1.0000</r>
       <r>  -0.7598  1.0000</r>
       <r>  -0.3961  1.0000</r>
       <r>  -0.3949  1.0000</r>
       <r>  -0.0320  1.0000</r>
       <r>  -0.0320  1.0000</r>
       <r>   0.3304  1.0000</r>
       <r>   0.6902  1.0000</r>
       <r>   1.0530  1.0000</r>
       <r>   1.0530  1.0000</r>
       <r>   1.7712  1.0000</r>
       <r>   1.7715  1.0000</r>
       <r>   1.7725  1.0000</r>
       <r>   1.7728  1.0000</r>
       <r>   2.4848  1.0000</r>
       <r>   2.4871  1.0000</r>
       <r>   2.4872  1.0000</r>
       <r>   2.8238  1.0000</r>
       <r>   2.8411  1.0000</r>
       <r>   2.8411  1.0000</r>
       <r>   3.1963  1.0000</r>
       <r>   4.5881  1.0000</r>
       <r>   4.6206  1.0000</r>
       <r>   4.6206  1.0000</r>
       <r>   4.7892  1.0000</r>
       <r>   4.9374  1.0000</r>
       <r>   4.9374  1.0000</r>
       <r>   5.1046  1.0000</r>
       <r>   5.2860  1.0000</r>
       <r>   5.3236  1.0000</r>
       <r>   5.3236  1.0000</r>
       <r>   5.4787  1.0000</r>
       <r>   5.7864  1.0000</r>
       <r>   6.3794  1.0000</r>
       <r>   6.6925  1.0000</r>
       <r>   6.6973  1.0000</r>
       <r>   6.6973  1.0000</r>
       <r>   6.8105  1.0000</r>
       <r>   6.8616  1.0000</r>
       <r>   6.8616  1.0000</r>
       <r>   7.0795  1.0000</r>
       <r>   7.3876  1.0000</r>
       <r>   7.3923  1.0000</r>
       <r>   7.3927  1.0000</r>
       <r>   7.4932  1.0000</r>
       <r>   7.4948  1.0000</r>
       <r>   7.5497  1.0000</r>
       <r>   7.5497  1.0000</r>
       <r>   8.1780  0.0000</r>
       <r>   8.1898  0.0000</r>
       <r>   8.2526  0.0000</r>
       <r>   8.5209  0.0000</r>
       <r>   8.6232  0.0000</r>
       <r>   8.8166  0.0000</r>
       <r>   8.8167  0.0000</r>
       <r>   8.8615  0.0000</r>
       <r>   8.9045  0.0000</r>
       <r>   9.5351  0.0000</r>
       <r>   9.5351  0.0000</r>
       <r>   9.5958  0.0000</r>
       <r>   9.9885  0.0000</r>
       <r>  10.2322  0.0000</r>
       <r>  10.2565  0.0000</r>
       <r>  10.2893  0.0000</r>
       <r>  10.2945  0.0000</r>
       <r>  10.2948  0.0000</r>
       <r>  10.4359  0.0000</r>
       <r>  10.5770  0.0000</r>
       <r>  10.7621  0.0000</r>
      </set>
      <set comment="kpoint 13">
       <r>  -2.8262  1.0000</r>
       <r>  -2.4566  1.0000</r>
       <r>  -0.9879  1.0000</r>
       <r>  -0.6244  1.0000</r>
       <r>  -0.6231  1.0000</r>
       <r>  -0.6217  1.0000</r>
       <r>  -0.2605  1.0000</r>
       <r>  -0.2591  1.0000</r>
       <r>  -0.2578  1.0000</r>
       <r>   0.1039  1.0000</r>
       <r>   1.1839  1.0000</r>
       <r>   1.1882  1.0000</r>
       <r>   1.1886  1.0000</r>
       <r>   1.5479  1.0000</r>
       <r>   1.5479  1.0000</r>
       <r>   1.9062  1.0000</r>
       <r>   1.9062  1.0000</r>
       <r>   2.2527  1.0000</r>
       <r>   2.2640  1.0000</r>
       <r>   2.2642  1.0000</r>
       <r>   2.9727  1.0000</r>
       <r>   3.3276  1.0000</r>
       <r>   3.3276  1.0000</r>
       <r>   3.6814  1.0000</r>
       <r>   4.0262  1.0000</r>
       <r>   4.3778  1.0000</r>
       <r>   4.3778  1.0000</r>
       <r>   4.7284  1.0000</r>
       <r>   4.9186  1.0000</r>
       <r>   5.1021  1.0000</r>
       <r>   5.1021  1.0000</r>
       <r>   5.2324  1.0000</r>
       <r>   5.2634  1.0000</r>
       <r>   5.5732  1.0000</r>
       <r>   5.8034  1.0000</r>
       <r>   5.8034  1.0000</r>
       <r>   6.1426  1.0000</r>
       <r>   6.1426  1.0000</r>
       <r>   6.5133  1.0000</r>
       <r>   6.8247  1.0000</r>
       <r>   6.8399  1.0000</r>
       <r>   6.8400  1.0000</r>
       <r>   6.8655  1.0000</r>
       <r>   6.9386  1.0000</r>
       <r>   6.9905  1.0000</r>
       <r>   6.9905  1.0000</r>
       <r>   7.1739  1.0000</r>
       <r>   7.2803  1.0000</r>
       <r>   7.3347  1.0000</r>
       <r>   7.3347  1.0000</r>
       <r>   7.6223  1.0000</r>
       <r>   7.9643  0.0000</r>
       <r>   8.3267  0.0000</r>
       <r>   8.6837  0.0000</r>
       <r>   8.7183  0.0000</r>
       <r>   8.9579  0.0000</r>
       <r>   8.9579  0.0000</r>
       <r>   8.9918  0.0000</r>
       <r>   9.0109  0.0000</r>
       <r>   9.3157  0.0000</r>
       <r>   9.3157  0.0000</r>
       <r>   9.3749  0.0000</r>
       <r>   9.4357  0.0000</r>
       <r>   9.7390  0.0000</r>
       <r>  10.0199  0.0000</r>
       <r>  10.4377  0.0000</r>
       <r>  10.7033  0.0000</r>
       <r>  10.7078  0.0000</r>
       <r>  10.7641  0.0000</r>
       <r>  10.7641  0.0000</r>
       <r>  11.1469  0.0000</r>
       <r>  11.2157  0.0000</r>
      </set>
      <set comment="kpoint 14">
       <r>  -2.6581  1.0000</r>
       <r>  -2.6553  1.0000</r>
       <r>  -0.8220  1.0000</r>
       <r>  -0.8191  1.0000</r>
       <r>  -0.4581  1.0000</r>
       <r>  -0.4570  1.0000</r>
       <r>  -0.4553  1.0000</r>
       <r>  -0.4541  1.0000</r>
       <r>  -0.0941  1.0000</r>
       <r>  -0.0913  1.0000</r>
       <r>   1.3511  1.0000</r>
       <r>   1.3523  1.0000</r>
       <r>   1.3540  1.0000</r>
       <r>   1.3551  1.0000</r>
       <r>   1.7050  1.0000</r>
       <r>   1.7064  1.0000</r>
       <r>   2.0683  1.0000</r>
       <r>   2.0695  1.0000</r>
       <r>   2.0712  1.0000</r>
       <r>   2.0724  1.0000</r>
       <r>   3.4863  1.0000</r>
       <r>   3.4876  1.0000</r>
       <r>   3.8395  1.0000</r>
       <r>   3.8398  1.0000</r>
       <r>   3.8409  1.0000</r>
       <r>   3.8411  1.0000</r>
       <r>   4.1920  1.0000</r>
       <r>   4.1933  1.0000</r>
       <r>   5.0752  1.0000</r>
       <r>   5.0782  1.0000</r>
       <r>   5.3871  1.0000</r>
       <r>   5.3901  1.0000</r>
       <r>   5.6091  1.0000</r>
       <r>   5.6093  1.0000</r>
       <r>   5.6106  1.0000</r>
       <r>   5.6107  1.0000</r>
       <r>   6.3086  1.0000</r>
       <r>   6.3087  1.0000</r>
       <r>   6.3100  1.0000</r>
       <r>   6.3102  1.0000</r>
       <r>   6.6744  1.0000</r>
       <r>   6.6771  1.0000</r>
       <r>   6.9842  1.0000</r>
       <r>   6.9870  1.0000</r>
       <r>   7.0936  1.0000</r>
       <r>   7.0967  1.0000</r>
       <r>   7.1460  1.0000</r>
       <r>   7.1475  1.0000</r>
       <r>   7.1491  1.0000</r>
       <r>   7.1505  1.0000</r>
       <r>   7.7775  0.0000</r>
       <r>   7.7806  0.0000</r>
       <r>   8.4897  0.0000</r>
       <r>   8.4925  0.0000</r>
       <r>   9.1218  0.0000</r>
       <r>   9.1224  0.0000</r>
       <r>   9.1246  0.0000</r>
       <r>   9.1253  0.0000</r>
       <r>   9.1790  0.0000</r>
       <r>   9.1819  0.0000</r>
       <r>   9.2136  0.0000</r>
       <r>   9.2157  0.0000</r>
       <r>   9.4904  0.0000</r>
       <r>   9.4927  0.0000</r>
       <r>  10.2770  0.0000</r>
       <r>  10.2784  0.0000</r>
       <r>  10.9068  0.0000</r>
       <r>  10.9073  0.0000</r>
       <r>  11.1792  0.0000</r>
       <r>  11.1801  0.0000</r>
       <r>  11.2028  0.0000</r>
       <r>  11.2068  0.0000</r>
      </set>
      <set comment="kpoint 15">
       <r>  -3.1657  1.0000</r>
       <r>  -1.6898  1.0000</r>
       <r>  -0.9604  1.0000</r>
       <r>  -0.9575  1.0000</r>
       <r>  -0.9575  1.0000</r>
       <r>  -0.9547  1.0000</r>
       <r>  -0.2292  1.0000</r>
       <r>   0.4936  1.0000</r>
       <r>   0.4964  1.0000</r>
       <r>   0.4964  1.0000</r>
       <r>   0.4993  1.0000</r>
       <r>   1.2158  1.0000</r>
       <r>   1.2168  1.0000</r>
       <r>   1.2191  1.0000</r>
       <r>   1.2201  1.0000</r>
       <r>   1.9326  1.0000</r>
       <r>   1.9355  1.0000</r>
       <r>   1.9355  1.0000</r>
       <r>   1.9384  1.0000</r>
       <r>   2.6481  1.0000</r>
       <r>   2.6491  1.0000</r>
       <r>   2.6514  1.0000</r>
       <r>   2.6524  1.0000</r>
       <r>   3.9973  1.0000</r>
       <r>   4.0767  1.0000</r>
       <r>   4.0777  1.0000</r>
       <r>   4.0800  1.0000</r>
       <r>   4.0811  1.0000</r>
       <r>   4.9201  1.0000</r>
       <r>   4.9202  1.0000</r>
       <r>   6.0782  1.0000</r>
       <r>   6.0813  1.0000</r>
       <r>   6.0813  1.0000</r>
       <r>   6.0843  1.0000</r>
       <r>   6.1847  1.0000</r>
       <r>   6.1848  1.0000</r>
       <r>   6.2840  1.0000</r>
       <r>   6.2841  1.0000</r>
       <r>   6.9645  1.0000</r>
       <r>   6.9671  1.0000</r>
       <r>   6.9671  1.0000</r>
       <r>   6.9698  1.0000</r>
       <r>   7.0983  1.0000</r>
       <r>   7.5661  1.0000</r>
       <r>   7.5661  1.0000</r>
       <r>   7.6510  1.0000</r>
       <r>   7.6510  1.0000</r>
       <r>   8.1698  0.0000</r>
       <r>   8.1712  0.0000</r>
       <r>   8.1734  0.0000</r>
       <r>   8.1748  0.0000</r>
       <r>   8.2741  0.0000</r>
       <r>   8.2766  0.0000</r>
       <r>   8.2766  0.0000</r>
       <r>   8.2789  0.0000</r>
       <r>   8.3320  0.0000</r>
       <r>   8.3347  0.0000</r>
       <r>   8.3348  0.0000</r>
       <r>   8.3375  0.0000</r>
       <r>   9.1599  0.0000</r>
       <r>   9.1599  0.0000</r>
       <r>   9.3341  0.0000</r>
       <r>   9.3361  0.0000</r>
       <r>   9.3361  0.0000</r>
       <r>   9.3381  0.0000</r>
       <r>   9.7012  0.0000</r>
       <r>   9.7039  0.0000</r>
       <r>   9.7039  0.0000</r>
       <r>   9.7067  0.0000</r>
       <r>   9.7593  0.0000</r>
       <r>   9.7613  0.0000</r>
       <r>   9.7630  0.0000</r>
      </set>
      <set comment="kpoint 16">
       <r>  -3.1503  1.0000</r>
       <r>  -1.6745  1.0000</r>
       <r>  -1.3079  1.0000</r>
       <r>  -0.9423  1.0000</r>
       <r>  -0.9423  1.0000</r>
       <r>  -0.5777  1.0000</r>
       <r>  -0.2141  1.0000</r>
       <r>   0.1494  1.0000</r>
       <r>   0.5115  1.0000</r>
       <r>   0.5115  1.0000</r>
       <r>   0.8712  1.0000</r>
       <r>   0.8727  1.0000</r>
       <r>   0.8740  1.0000</r>
       <r>   1.5906  1.0000</r>
       <r>   1.5922  1.0000</r>
       <r>   1.5935  1.0000</r>
       <r>   1.9504  1.0000</r>
       <r>   1.9504  1.0000</r>
       <r>   2.3077  1.0000</r>
       <r>   2.3090  1.0000</r>
       <r>   2.3092  1.0000</r>
       <r>   3.0177  1.0000</r>
       <r>   3.0177  1.0000</r>
       <r>   3.7431  1.0000</r>
       <r>   3.7431  1.0000</r>
       <r>   4.0118  1.0000</r>
       <r>   4.4459  1.0000</r>
       <r>   4.4459  1.0000</r>
       <r>   4.6166  1.0000</r>
       <r>   4.9343  1.0000</r>
       <r>   5.7515  1.0000</r>
       <r>   5.9945  1.0000</r>
       <r>   6.0919  1.0000</r>
       <r>   6.0919  1.0000</r>
       <r>   6.1997  1.0000</r>
       <r>   6.2982  1.0000</r>
       <r>   6.4364  1.0000</r>
       <r>   6.5151  1.0000</r>
       <r>   6.6397  1.0000</r>
       <r>   6.6919  1.0000</r>
       <r>   6.6919  1.0000</r>
       <r>   7.1129  1.0000</r>
       <r>   7.3174  1.0000</r>
       <r>   7.3232  1.0000</r>
       <r>   7.6652  1.0000</r>
       <r>   7.6657  1.0000</r>
       <r>   7.8415  0.0000</r>
       <r>   7.8415  0.0000</r>
       <r>   7.8709  0.0000</r>
       <r>   7.9870  0.0000</r>
       <r>   8.0068  0.0000</r>
       <r>   8.0656  0.0000</r>
       <r>   8.0656  0.0000</r>
       <r>   8.4934  0.0000</r>
       <r>   8.5313  0.0000</r>
       <r>   8.5313  0.0000</r>
       <r>   8.5570  0.0000</r>
       <r>   8.5571  0.0000</r>
       <r>   8.6913  0.0000</r>
       <r>   9.1485  0.0000</r>
       <r>   9.1858  0.0000</r>
       <r>   9.3748  0.0000</r>
       <r>   9.3756  0.0000</r>
       <r>   9.3767  0.0000</r>
       <r>   9.4298  0.0000</r>
       <r>   9.4344  0.0000</r>
       <r>   9.4388  0.0000</r>
       <r>   9.4391  0.0000</r>
       <r>   9.6527  0.0000</r>
       <r>  10.0563  0.0000</r>
       <r>  10.0563  0.0000</r>
       <r>  10.0606  0.0000</r>
      </set>
      <set comment="kpoint 17">
       <r>  -3.1039  1.0000</r>
       <r>  -1.6298  1.0000</r>
       <r>  -1.6275  1.0000</r>
       <r>  -0.8967  1.0000</r>
       <r>  -0.8966  1.0000</r>
       <r>  -0.1704  1.0000</r>
       <r>  -0.1684  1.0000</r>
       <r>  -0.1667  1.0000</r>
       <r>   0.5551  1.0000</r>
       <r>   0.5560  1.0000</r>
       <r>   0.5574  1.0000</r>
       <r>   0.5583  1.0000</r>
       <r>   1.2770  1.0000</r>
       <r>   1.2780  1.0000</r>
       <r>   1.9930  1.0000</r>
       <r>   1.9942  1.0000</r>
       <r>   1.9955  1.0000</r>
       <r>   1.9957  1.0000</r>
       <r>   1.9970  1.0000</r>
       <r>   1.9980  1.0000</r>
       <r>   2.7088  1.0000</r>
       <r>   3.3507  1.0000</r>
       <r>   3.3507  1.0000</r>
       <r>   3.4992  1.0000</r>
       <r>   3.4992  1.0000</r>
       <r>   4.0551  1.0000</r>
       <r>   4.0561  1.0000</r>
       <r>   4.8418  1.0000</r>
       <r>   4.8418  1.0000</r>
       <r>   4.9769  1.0000</r>
       <r>   5.4477  1.0000</r>
       <r>   5.4500  1.0000</r>
       <r>   6.0582  1.0000</r>
       <r>   6.0582  1.0000</r>
       <r>   6.2335  1.0000</r>
       <r>   6.2335  1.0000</r>
       <r>   6.2448  1.0000</r>
       <r>   6.3396  1.0000</r>
       <r>   6.3422  1.0000</r>
       <r>   6.8087  1.0000</r>
       <r>   6.8105  1.0000</r>
       <r>   7.1562  1.0000</r>
       <r>   7.1572  1.0000</r>
       <r>   7.5375  1.0000</r>
       <r>   7.5384  1.0000</r>
       <r>   7.5399  1.0000</r>
       <r>   7.5408  1.0000</r>
       <r>   7.7056  0.9996</r>
       <r>   7.7078  0.9988</r>
       <r>   7.7097  0.9973</r>
       <r>   7.7101  0.9968</r>
       <r>   7.7113  0.9947</r>
       <r>   8.4425  0.0000</r>
       <r>   8.4448  0.0000</r>
       <r>   8.9172  0.0000</r>
       <r>   8.9182  0.0000</r>
       <r>   8.9184  0.0000</r>
       <r>   8.9195  0.0000</r>
       <r>   9.0214  0.0000</r>
       <r>   9.0214  0.0000</r>
       <r>   9.0755  0.0000</r>
       <r>   9.0774  0.0000</r>
       <r>   9.1253  0.0000</r>
       <r>   9.2817  0.0000</r>
       <r>   9.2825  0.0000</r>
       <r>   9.5690  0.0000</r>
       <r>   9.5690  0.0000</r>
       <r>  10.0187  0.0000</r>
       <r>  10.0208  0.0000</r>
       <r>  10.4456  0.0000</r>
       <r>  10.5010  0.0000</r>
       <r>  10.5011  0.0000</r>
      </set>
      <set comment="kpoint 18">
       <r>  -3.0267  1.0000</r>
       <r>  -1.9194  1.0000</r>
       <r>  -1.5522  1.0000</r>
       <r>  -0.8206  1.0000</r>
       <r>  -0.8206  1.0000</r>
       <r>  -0.4560  1.0000</r>
       <r>  -0.0930  1.0000</r>
       <r>   0.2678  1.0000</r>
       <r>   0.2702  1.0000</r>
       <r>   0.2715  1.0000</r>
       <r>   0.6320  1.0000</r>
       <r>   0.6320  1.0000</r>
       <r>   0.9924  1.0000</r>
       <r>   1.7098  1.0000</r>
       <r>   1.7125  1.0000</r>
       <r>   1.7137  1.0000</r>
       <r>   2.0698  1.0000</r>
       <r>   2.0698  1.0000</r>
       <r>   2.4265  1.0000</r>
       <r>   2.4265  1.0000</r>
       <r>   3.1343  1.0000</r>
       <r>   3.1353  1.0000</r>
       <r>   3.1388  1.0000</r>
       <r>   3.4582  1.0000</r>
       <r>   3.8611  1.0000</r>
       <r>   3.8611  1.0000</r>
       <r>   4.1284  1.0000</r>
       <r>   4.8625  1.0000</r>
       <r>   5.0479  1.0000</r>
[...]
       <r>   6.8205  1.0000</r>
       <r>   7.1673  1.0000</r>
       <r>   7.1685  1.0000</r>
       <r>   7.1688  1.0000</r>
       <r>   7.1700  1.0000</r>
       <r>   7.5026  1.0000</r>
       <r>   7.5047  1.0000</r>
       <r>   7.5065  1.0000</r>
       <r>   7.5068  1.0000</r>
       <r>   7.5069  1.0000</r>
       <r>   7.5071  1.0000</r>
       <r>   7.5090  1.0000</r>
       <r>   7.5111  1.0000</r>
       <r>  10.4729  0.0000</r>
       <r>  10.4751  0.0000</r>
       <r>  10.4758  0.0000</r>
       <r>  10.4779  0.0000</r>
       <r>  10.6119  0.0000</r>
       <r>  10.6130  0.0000</r>
       <r>  10.6136  0.0000</r>
       <r>  10.6147  0.0000</r>
       <r>  11.1497  0.0000</r>
       <r>  11.1505  0.0000</r>
       <r>  11.1508  0.0000</r>
       <r>  11.1519  0.0000</r>
       <r>  11.1522  0.0000</r>
       <r>  11.1533  0.0000</r>
       <r>  11.1536  0.0000</r>
       <r>  11.1545  0.0000</r>
      </set>
      <set comment="kpoint 190">
       <r>  -2.1188  1.0000</r>
       <r>  -2.1188  1.0000</r>
       <r>  -2.1188  1.0000</r>
       <r>  -2.1188  1.0000</r>
       <r>   0.0687  1.0000</r>
       <r>   0.0732  1.0000</r>
       <r>   0.0732  1.0000</r>
       <r>   0.0738  1.0000</r>
       <r>   0.0739  1.0000</r>
       <r>   0.0745  1.0000</r>
       <r>   0.0745  1.0000</r>
       <r>   0.0790  1.0000</r>
       <r>   2.2275  1.0000</r>
       <r>   2.2275  1.0000</r>
       <r>   2.2275  1.0000</r>
       <r>   2.2275  1.0000</r>
       <r>   2.2275  1.0000</r>
       <r>   2.2275  1.0000</r>
       <r>   2.2275  1.0000</r>
       <r>   2.2275  1.0000</r>
       <r>   4.2641  1.0000</r>
       <r>   4.2641  1.0000</r>
       <r>   4.2655  1.0000</r>
       <r>   4.2656  1.0000</r>
       <r>   4.2656  1.0000</r>
       <r>   4.2656  1.0000</r>
       <r>   4.2671  1.0000</r>
       <r>   4.2671  1.0000</r>
       <r>   4.4539  1.0000</r>
       <r>   4.4539  1.0000</r>
       <r>   4.4556  1.0000</r>
       <r>   4.4556  1.0000</r>
       <r>   4.4556  1.0000</r>
       <r>   4.4557  1.0000</r>
       <r>   4.4572  1.0000</r>
       <r>   4.4572  1.0000</r>
       <r>   5.8858  1.0000</r>
       <r>   5.8858  1.0000</r>
       <r>   5.8858  1.0000</r>
       <r>   5.8859  1.0000</r>
       <r>   6.4075  1.0000</r>
       <r>   6.4075  1.0000</r>
       <r>   6.4075  1.0000</r>
       <r>   6.4075  1.0000</r>
       <r>   7.2768  1.0000</r>
       <r>   7.2768  1.0000</r>
       <r>   7.2768  1.0000</r>
       <r>   7.2768  1.0000</r>
       <r>   8.5402  0.0000</r>
       <r>   8.5402  0.0000</r>
       <r>   8.5407  0.0000</r>
       <r>   8.5417  0.0000</r>
       <r>   8.5433  0.0000</r>
       <r>   8.5442  0.0000</r>
       <r>   8.5447  0.0000</r>
       <r>   8.5447  0.0000</r>
       <r>   9.9909  0.0000</r>
       <r>   9.9909  0.0000</r>
       <r>   9.9909  0.0000</r>
       <r>   9.9910  0.0000</r>
       <r>   9.9910  0.0000</r>
       <r>   9.9910  0.0000</r>
       <r>   9.9910  0.0000</r>
       <r>   9.9910  0.0000</r>
       <r>  10.6962  0.0000</r>
       <r>  10.6962  0.0000</r>
       <r>  10.6962  0.0000</r>
       <r>  10.6962  0.0000</r>
       <r>  10.6962  0.0000</r>
       <r>  10.6962  0.0000</r>
       <r>  10.6962  0.0000</r>
       <r>  10.6962  0.0000</r>
      </set>
      <set comment="kpoint 191">
       <r>  -2.1034  1.0000</r>
       <r>  -2.1034  1.0000</r>
       <r>  -2.1034  1.0000</r>
       <r>  -2.1034  1.0000</r>
       <r>  -0.2742  1.0000</r>
       <r>  -0.2741  1.0000</r>
       <r>  -0.2741  1.0000</r>
       <r>  -0.2741  1.0000</r>
       <r>   0.4511  1.0000</r>
       <r>   0.4511  1.0000</r>
       <r>   0.4511  1.0000</r>
       <r>   0.4511  1.0000</r>
       <r>   2.2423  1.0000</r>
       <r>   2.2423  1.0000</r>
       <r>   2.2423  1.0000</r>
       <r>   2.2423  1.0000</r>
       <r>   2.2424  1.0000</r>
       <r>   2.2424  1.0000</r>
       <r>   2.2424  1.0000</r>
       <r>   2.2424  1.0000</r>
       <r>   4.0092  1.0000</r>
       <r>   4.0092  1.0000</r>
       <r>   4.0095  1.0000</r>
       <r>   4.0095  1.0000</r>
       <r>   4.0095  1.0000</r>
       <r>   4.0095  1.0000</r>
       <r>   4.0098  1.0000</r>
       <r>   4.0098  1.0000</r>
       <r>   4.7397  1.0000</r>
       <r>   4.7397  1.0000</r>
       <r>   4.7402  1.0000</r>
       <r>   4.7402  1.0000</r>
       <r>   4.7402  1.0000</r>
       <r>   4.7403  1.0000</r>
       <r>   4.7407  1.0000</r>
       <r>   4.7407  1.0000</r>
       <r>   5.5897  1.0000</r>
       <r>   5.5897  1.0000</r>
       <r>   5.5897  1.0000</r>
       <r>   5.5897  1.0000</r>
       <r>   6.4479  1.0000</r>
       <r>   6.4479  1.0000</r>
       <r>   6.4479  1.0000</r>
       <r>   6.4479  1.0000</r>
       <r>   7.5739  1.0000</r>
       <r>   7.5739  1.0000</r>
       <r>   7.5739  1.0000</r>
       <r>   7.5739  1.0000</r>
       <r>   8.2110  0.0000</r>
       <r>   8.2110  0.0000</r>
       <r>   8.2110  0.0000</r>
       <r>   8.2110  0.0000</r>
       <r>   8.9020  0.0000</r>
       <r>   8.9020  0.0000</r>
       <r>   8.9020  0.0000</r>
       <r>   8.9020  0.0000</r>
       <r>   9.7124  0.0000</r>
       <r>   9.7124  0.0000</r>
       <r>   9.7129  0.0000</r>
       <r>   9.7129  0.0000</r>
       <r>   9.7129  0.0000</r>
       <r>   9.7129  0.0000</r>
       <r>   9.7133  0.0000</r>
       <r>   9.7133  0.0000</r>
       <r>  10.7579  0.0000</r>
       <r>  10.7579  0.0000</r>
       <r>  10.7587  0.0000</r>
       <r>  10.7588  0.0000</r>
       <r>  10.7588  0.0000</r>
       <r>  10.7588  0.0000</r>
       <r>  10.7596  0.0000</r>
       <r>  10.7596  0.0000</r>
      </set>
      <set comment="kpoint 192">
       <r>  -2.0574  1.0000</r>
       <r>  -2.0574  1.0000</r>
       <r>  -2.0574  1.0000</r>
       <r>  -2.0574  1.0000</r>
       <r>  -0.5926  1.0000</r>
       <r>  -0.5926  1.0000</r>
       <r>  -0.5926  1.0000</r>
       <r>  -0.5926  1.0000</r>
       <r>   0.8572  1.0000</r>
       <r>   0.8572  1.0000</r>
       <r>   0.8572  1.0000</r>
       <r>   0.8572  1.0000</r>
       <r>   2.2870  1.0000</r>
       <r>   2.2870  1.0000</r>
       <r>   2.2870  1.0000</r>
       <r>   2.2870  1.0000</r>
       <r>   2.2870  1.0000</r>
       <r>   2.2870  1.0000</r>
       <r>   2.2870  1.0000</r>
       <r>   2.2870  1.0000</r>
       <r>   3.7058  1.0000</r>
       <r>   3.7058  1.0000</r>
       <r>   3.7059  1.0000</r>
       <r>   3.7059  1.0000</r>
       <r>   3.7059  1.0000</r>
       <r>   3.7059  1.0000</r>
       <r>   3.7060  1.0000</r>
       <r>   3.7060  1.0000</r>
       <r>   5.0413  1.0000</r>
       <r>   5.0413  1.0000</r>
       <r>   5.0413  1.0000</r>
       <r>   5.0413  1.0000</r>
       <r>   5.1291  1.0000</r>
       <r>   5.1291  1.0000</r>
       <r>   5.1294  1.0000</r>
       <r>   5.1294  1.0000</r>
       <r>   5.1294  1.0000</r>
       <r>   5.1294  1.0000</r>
       <r>   5.1297  1.0000</r>
       <r>   5.1297  1.0000</r>
       <r>   6.5061  1.0000</r>
       <r>   6.5061  1.0000</r>
       <r>   6.5061  1.0000</r>
       <r>   6.5061  1.0000</r>
       <r>   7.9077  0.0000</r>
       <r>   7.9077  0.0000</r>
       <r>   7.9077  0.0000</r>
       <r>   7.9077  0.0000</r>
       <r>   8.1877  0.0000</r>
       <r>   8.1877  0.0000</r>
       <r>   8.1877  0.0000</r>
       <r>   8.1877  0.0000</r>
       <r>   9.1880  0.0000</r>
       <r>   9.1880  0.0000</r>
       <r>   9.1884  0.0000</r>
       <r>   9.1884  0.0000</r>
       <r>   9.1884  0.0000</r>
       <r>   9.1884  0.0000</r>
       <r>   9.1888  0.0000</r>
       <r>   9.1888  0.0000</r>
       <r>   9.2892  0.0000</r>
       <r>   9.2892  0.0000</r>
       <r>   9.2892  0.0000</r>
       <r>   9.2892  0.0000</r>
       <r>  10.8340  0.0000</r>
       <r>  10.8340  0.0000</r>
       <r>  10.8347  0.0000</r>
       <r>  10.8347  0.0000</r>
       <r>  10.8347  0.0000</r>
       <r>  10.8347  0.0000</r>
       <r>  10.8354  0.0000</r>
       <r>  10.8354  0.0000</r>
      </set>
      <set comment="kpoint 193">
       <r>  -1.9808  1.0000</r>
       <r>  -1.9807  1.0000</r>
       <r>  -1.9807  1.0000</r>
       <r>  -1.9807  1.0000</r>
       <r>  -0.8813  1.0000</r>
       <r>  -0.8813  1.0000</r>
       <r>  -0.8813  1.0000</r>
       <r>  -0.8813  1.0000</r>
       <r>   1.2919  1.0000</r>
       <r>   1.2919  1.0000</r>
       <r>   1.2919  1.0000</r>
       <r>   1.2919  1.0000</r>
       <r>   2.3613  1.0000</r>
       <r>   2.3613  1.0000</r>
       <r>   2.3613  1.0000</r>
       <r>   2.3614  1.0000</r>
       <r>   2.3614  1.0000</r>
       <r>   2.3614  1.0000</r>
       <r>   2.3614  1.0000</r>
       <r>   2.3614  1.0000</r>
       <r>   3.4271  1.0000</r>
       <r>   3.4271  1.0000</r>
       <r>   3.4272  1.0000</r>
       <r>   3.4272  1.0000</r>
       <r>   3.4272  1.0000</r>
       <r>   3.4272  1.0000</r>
       <r>   3.4273  1.0000</r>
       <r>   3.4273  1.0000</r>
       <r>   4.4531  1.0000</r>
       <r>   4.4531  1.0000</r>
       <r>   4.4531  1.0000</r>
       <r>   4.4532  1.0000</r>
       <r>   5.5502  1.0000</r>
       <r>   5.5502  1.0000</r>
       <r>   5.5505  1.0000</r>
       <r>   5.5505  1.0000</r>
       <r>   5.5505  1.0000</r>
       <r>   5.5505  1.0000</r>
       <r>   5.5507  1.0000</r>
       <r>   5.5507  1.0000</r>
       <r>   6.5836  1.0000</r>
       <r>   6.5836  1.0000</r>
       <r>   6.5836  1.0000</r>
       <r>   6.5836  1.0000</r>
       <r>   7.6328  1.0000</r>
       <r>   7.6328  1.0000</r>
       <r>   7.6328  1.0000</r>
       <r>   7.6328  1.0000</r>
       <r>   8.6205  0.0000</r>
       <r>   8.6205  0.0000</r>
       <r>   8.6208  0.0000</r>
       <r>   8.6208  0.0000</r>
       <r>   8.6208  0.0000</r>
       <r>   8.6208  0.0000</r>
       <r>   8.6211  0.0000</r>
       <r>   8.6211  0.0000</r>
       <r>   8.9044  0.0000</r>
       <r>   8.9044  0.0000</r>
       <r>   8.9044  0.0000</r>
       <r>   8.9045  0.0000</r>
       <r>   9.7038  0.0000</r>
       <r>   9.7038  0.0000</r>
       <r>   9.7038  0.0000</r>
       <r>   9.7038  0.0000</r>
       <r>  10.9171  0.0000</r>
       <r>  10.9171  0.0000</r>
       <r>  10.9176  0.0000</r>
       <r>  10.9177  0.0000</r>
       <r>  10.9177  0.0000</r>
       <r>  10.9177  0.0000</r>
       <r>  10.9182  0.0000</r>
       <r>  10.9182  0.0000</r>
      </set>
      <set comment="kpoint 194">
       <r>  -1.8735  1.0000</r>
       <r>  -1.8735  1.0000</r>
       <r>  -1.8735  1.0000</r>
       <r>  -1.8735  1.0000</r>
       <r>  -1.1402  1.0000</r>
       <r>  -1.1402  1.0000</r>
       <r>  -1.1402  1.0000</r>
       <r>  -1.1402  1.0000</r>
       <r>   1.7548  1.0000</r>
       <r>   1.7548  1.0000</r>
       <r>   1.7548  1.0000</r>
       <r>   1.7548  1.0000</r>
       <r>   2.4654  1.0000</r>
       <r>   2.4654  1.0000</r>
       <r>   2.4654  1.0000</r>
       <r>   2.4654  1.0000</r>
       <r>   2.4654  1.0000</r>
       <r>   2.4654  1.0000</r>
       <r>   2.4654  1.0000</r>
       <r>   2.4654  1.0000</r>
       <r>   3.1765  1.0000</r>
       <r>   3.1765  1.0000</r>
       <r>   3.1766  1.0000</r>
       <r>   3.1766  1.0000</r>
       <r>   3.1766  1.0000</r>
       <r>   3.1766  1.0000</r>
       <r>   3.1766  1.0000</r>
       <r>   3.1766  1.0000</r>
       <r>   3.8699  1.0000</r>
       <r>   3.8699  1.0000</r>
       <r>   3.8699  1.0000</r>
       <r>   3.8700  1.0000</r>
       <r>   5.9998  1.0000</r>
       <r>   5.9998  1.0000</r>
       <r>   6.0001  1.0000</r>
       <r>   6.0001  1.0000</r>
       <r>   6.0001  1.0000</r>
       <r>   6.0001  1.0000</r>
       <r>   6.0003  1.0000</r>
       <r>   6.0003  1.0000</r>
       <r>   6.6874  1.0000</r>
       <r>   6.6874  1.0000</r>
       <r>   6.6874  1.0000</r>
       <r>   6.6874  1.0000</r>
       <r>   7.3864  1.0000</r>
       <r>   7.3864  1.0000</r>
       <r>   7.3864  1.0000</r>
       <r>   7.3864  1.0000</r>
       <r>   8.0555  0.0000</r>
       <r>   8.0555  0.0000</r>
       <r>   8.0557  0.0000</r>
       <r>   8.0557  0.0000</r>
       <r>   8.0557  0.0000</r>
       <r>   8.0558  0.0000</r>
       <r>   8.0560  0.0000</r>
       <r>   8.0560  0.0000</r>
       <r>   9.6720  0.0000</r>
       <r>   9.6720  0.0000</r>
       <r>   9.6720  0.0000</r>
       <r>   9.6720  0.0000</r>
       <r>  10.1454  0.0000</r>
       <r>  10.1454  0.0000</r>
       <r>  10.1454  0.0000</r>
       <r>  10.1454  0.0000</r>
       <r>  11.0216  0.0000</r>
       <r>  11.0216  0.0000</r>
       <r>  11.0220  0.0000</r>
       <r>  11.0221  0.0000</r>
       <r>  11.0221  0.0000</r>
       <r>  11.0221  0.0000</r>
       <r>  11.0225  0.0000</r>
       <r>  11.0225  0.0000</r>
      </set>
      <set comment="kpoint 195">
       <r>  -1.7358  1.0000</r>
       <r>  -1.7357  1.0000</r>
       <r>  -1.7357  1.0000</r>
       <r>  -1.7357  1.0000</r>
       <r>  -1.3690  1.0000</r>
       <r>  -1.3690  1.0000</r>
       <r>  -1.3690  1.0000</r>
       <r>  -1.3689  1.0000</r>
       <r>   2.2451  1.0000</r>
       <r>   2.2452  1.0000</r>
       <r>   2.2452  1.0000</r>
       <r>   2.2452  1.0000</r>
       <r>   2.5990  1.0000</r>
       <r>   2.5990  1.0000</r>
       <r>   2.5990  1.0000</r>
       <r>   2.5991  1.0000</r>
       <r>   2.5991  1.0000</r>
       <r>   2.5991  1.0000</r>
       <r>   2.5991  1.0000</r>
       <r>   2.5991  1.0000</r>
       <r>   2.9548  1.0000</r>
       <r>   2.9548  1.0000</r>
       <r>   2.9548  1.0000</r>
       <r>   2.9548  1.0000</r>
       <r>   2.9548  1.0000</r>
       <r>   2.9548  1.0000</r>
       <r>   2.9549  1.0000</r>
       <r>   2.9549  1.0000</r>
       <r>   3.3046  1.0000</r>
       <r>   3.3046  1.0000</r>
       <r>   3.3046  1.0000</r>
       <r>   3.3047  1.0000</r>
       <r>   6.4766  1.0000</r>
       <r>   6.4766  1.0000</r>
       <r>   6.4768  1.0000</r>
       <r>   6.4768  1.0000</r>
       <r>   6.4768  1.0000</r>
       <r>   6.4768  1.0000</r>
       <r>   6.4770  1.0000</r>
       <r>   6.4770  1.0000</r>
       <r>   6.8192  1.0000</r>
       <r>   6.8192  1.0000</r>
       <r>   6.8192  1.0000</r>
       <r>   6.8192  1.0000</r>
       <r>   7.1687  1.0000</r>
       <r>   7.1687  1.0000</r>
       <r>   7.1687  1.0000</r>
       <r>   7.1687  1.0000</r>
       <r>   7.5066  1.0000</r>
       <r>   7.5066  1.0000</r>
       <r>   7.5068  1.0000</r>
       <r>   7.5068  1.0000</r>
       <r>   7.5068  1.0000</r>
       <r>   7.5068  1.0000</r>
       <r>   7.5071  1.0000</r>
       <r>   7.5071  1.0000</r>
       <r>  10.4754  0.0000</r>
       <r>  10.4754  0.0000</r>
       <r>  10.4754  0.0000</r>
       <r>  10.4754  0.0000</r>
       <r>  10.6133  0.0000</r>
       <r>  10.6133  0.0000</r>
       <r>  10.6133  0.0000</r>
       <r>  10.6133  0.0000</r>
       <r>  11.1517  0.0000</r>
       <r>  11.1517  0.0000</r>
       <r>  11.1520  0.0000</r>
       <r>  11.1521  0.0000</r>
       <r>  11.1521  0.0000</r>
       <r>  11.1521  0.0000</r>
       <r>  11.1524  0.0000</r>
       <r>  11.1525  0.0000</r>
      </set>
      <set comment="kpoint 196">
       <r>  -1.5722  1.0000</r>
       <r>  -1.5680  1.0000</r>
       <r>  -1.5680  1.0000</r>
       <r>  -1.5676  1.0000</r>
       <r>  -1.5675  1.0000</r>
       <r>  -1.5670  1.0000</r>
       <r>  -1.5670  1.0000</r>
       <r>  -1.5628  1.0000</r>
       <r>   2.7520  1.0000</r>
       <r>   2.7582  1.0000</r>
       <r>   2.7582  1.0000</r>
       <r>   2.7615  1.0000</r>
       <r>   2.7617  1.0000</r>
       <r>   2.7617  1.0000</r>
       <r>   2.7621  1.0000</r>
       <r>   2.7621  1.0000</r>
       <r>   2.7622  1.0000</r>
       <r>   2.7622  1.0000</r>
       <r>   2.7622  1.0000</r>
       <r>   2.7622  1.0000</r>
       <r>   2.7623  1.0000</r>
       <r>   2.7623  1.0000</r>
       <r>   2.7623  1.0000</r>
       <r>   2.7623  1.0000</r>
       <r>   2.7623  1.0000</r>
       <r>   2.7623  1.0000</r>
       <r>   2.7627  1.0000</r>
       <r>   2.7628  1.0000</r>
       <r>   2.7630  1.0000</r>
       <r>   2.7662  1.0000</r>
       <r>   2.7662  1.0000</r>
       <r>   2.7725  1.0000</r>
       <r>   6.9736  1.0000</r>
       <r>   6.9736  1.0000</r>
       <r>   6.9756  1.0000</r>
       <r>   6.9775  1.0000</r>
       <r>   6.9789  1.0000</r>
       <r>   6.9793  1.0000</r>
       <r>   6.9793  1.0000</r>
       <r>   6.9793  1.0000</r>
       <r>   6.9795  1.0000</r>
       <r>   6.9795  1.0000</r>
       <r>   6.9795  1.0000</r>
       <r>   6.9796  1.0000</r>
       <r>   6.9796  1.0000</r>
       <r>   6.9797  1.0000</r>
       <r>   6.9797  1.0000</r>
       <r>   6.9797  1.0000</r>
       <r>   6.9799  1.0000</r>
       <r>   6.9799  1.0000</r>
       <r>   6.9799  1.0000</r>
       <r>   6.9803  1.0000</r>
       <r>   6.9817  1.0000</r>
       <r>   6.9836  1.0000</r>
       <r>   6.9855  1.0000</r>
       <r>   6.9855  1.0000</r>
       <r>  11.1052  0.0000</r>
       <r>  11.1053  0.0000</r>
       <r>  11.1053  0.0000</r>
       <r>  11.1058  0.0000</r>
       <r>  11.1073  0.0000</r>
       <r>  11.1079  0.0000</r>
       <r>  11.1079  0.0000</r>
       <r>  11.1081  0.0000</r>
       <r>  11.3058  0.0000</r>
       <r>  11.3068  0.0000</r>
       <r>  11.3075  0.0000</r>
       <r>  11.3081  0.0000</r>
       <r>  11.3086  0.0000</r>
       <r>  11.3089  0.0000</r>
       <r>  11.3094  0.0000</r>
       <r>  11.3101  0.0000</r>
      </set>
     </set>
    </set>
   </array>
  </eigenvalues>
 </calculation>
 <structure name="finalpos" >
  <crystal>
   <varray name="basis" >
    <v>       8.15535887      0.00000000      0.00000000</v>
    <v>       0.00000000      8.15535887      0.00000000</v>
    <v>       0.00000000      0.00000000      8.15535887</v>
   </varray>
   <i name="volume">    542.41192527</i>
   <varray name="rec_basis" >
    <v>       0.12261876      0.00000000      0.00000000</v>
    <v>       0.00000000      0.12261876      0.00000000</v>
    <v>       0.00000000      0.00000000      0.12261876</v>
   </varray>
  </crystal>
  <varray name="positions" >
   <v>       0.25122619      0.25000000      0.00000000</v>
   <v>       0.75000000      0.25000000      0.00000000</v>
   <v>       0.25000000      0.75000000      0.00000000</v>
   <v>       0.75000000      0.75000000      0.00000000</v>
   <v>       0.25000000      0.25000000      0.50000000</v>
   <v>       0.75000000      0.25000000      0.50000000</v>
   <v>       0.25000000      0.75000000      0.50000000</v>
   <v>       0.75000000      0.75000000      0.50000000</v>
   <v>       0.25000000      0.00000000      0.25000000</v>
   <v>       0.75000000      0.00000000      0.25000000</v>
   <v>       0.25000000      0.50000000      0.25000000</v>
   <v>       0.75000000      0.50000000      0.25000000</v>
   <v>       0.25000000      0.00000000      0.75000000</v>
   <v>       0.75000000      0.00000000      0.75000000</v>
   <v>       0.25000000      0.50000000      0.75000000</v>
   <v>       0.75000000      0.50000000      0.75000000</v>
   <v>       0.00000000      0.25000000      0.25000000</v>
   <v>       0.50000000      0.25000000      0.25000000</v>
   <v>       0.00000000      0.75000000      0.25000000</v>
   <v>       0.50000000      0.75000000      0.25000000</v>
   <v>       0.00000000      0.25000000      0.75000000</v>
   <v>       0.50000000      0.25000000      0.75000000</v>
   <v>       0.00000000      0.75000000      0.75000000</v>
   <v>       0.50000000      0.75000000      0.75000000</v>
   <v>       0.00000000      0.00000000      0.00000000</v>
   <v>       0.50000000      0.00000000      0.00000000</v>
   <v>       0.00000000      0.50000000      0.00000000</v>
   <v>       0.50000000      0.50000000      0.00000000</v>
   <v>       0.00000000      0.00000000      0.50000000</v>
   <v>       0.50000000      0.00000000      0.50000000</v>
   <v>       0.00000000      0.50000000      0.50000000</v>
   <v>       0.50000000      0.50000000      0.50000000</v>
  </varray>
 </structure>
</modeling>
