32   
1    

1    
  0.0100000000000000   0.0000000000000000   0.0000000000000000
  -0.0414686100   -0.0000000000   -0.0000000000
   0.0020972400   -0.0000000000   -0.0000000000
  -0.0003479000    0.0000000000   -0.0000000000
   0.0004906100    0.0000000000   -0.0000000000
  -0.0003479000    0.0000000000    0.0000000000
   0.0004906100    0.0000000000   -0.0000000000
   0.0000289800    0.0000000000    0.0000000000
  -0.0007633800    0.0000000000    0.0000000000
  -0.0014437300    0.0000179300   -0.0000179300
  -0.0004486500    0.0000000000   -0.0000000000
  -0.0014437300   -0.0000179300   -0.0000179300
  -0.0004486500   -0.0000000000   -0.0000000000
  -0.0014437300    0.0000179300    0.0000179300
  -0.0004486500    0.0000000000    0.0000000000
  -0.0014437300   -0.0000179300    0.0000179300
  -0.0004486500   -0.0000000000    0.0000000000
   0.0057691500    0.0000000000   -0.0058604600
   0.0059083300    0.0000000000    0.0060585700
   0.0000825400    0.0000000000    0.0001287800
   0.0000874400    0.0000000000   -0.0001325200
   0.0057691500    0.0000000000    0.0058604600
   0.0059083300    0.0000000000   -0.0060585700
   0.0000825400    0.0000000000   -0.0001287800
   0.0000874400    0.0000000000    0.0001325200
   0.0057691500    0.0058604600   -0.0000000000
   0.0059083300   -0.0060585700   -0.0000000000
   0.0057691500   -0.0058604600   -0.0000000000
   0.0059083300    0.0060585700    0.0000000000
   0.0000825400   -0.0001287800   -0.0000000000
   0.0000874400    0.0001325200   -0.0000000000
   0.0000825400    0.0001287800    0.0000000000
   0.0000874400   -0.0001325200   -0.0000000000
