mesh: [    48,    48,    48 ]
nqpoint: 2600   
reciprocal_lattice:
- [   0.24523752,   0.00000000,   0.00000000 ] # a*
- [   0.00000000,   0.24523752,   0.00000000 ] # b*
- [   0.00000000,   0.00000000,   0.24523752 ] # c*
natom:   4      
lattice:
- [     4.077679433369544,     0.000000000000000,     0.000000000000000 ] # a
- [     0.000000000000000,     4.077679433369544,     0.000000000000000 ] # b
- [     0.000000000000000,     0.000000000000000,     4.077679433369544 ] # c
points:
- symbol: Al # 1
  coordinates: [  0.500000000000000,  0.500000000000000,  0.000000000000000 ]
  mass: 26.981539
- symbol: Al # 2
  coordinates: [  0.500000000000000,  0.000000000000000,  0.500000000000000 ]
  mass: 26.981539
- symbol: Al # 3
  coordinates: [  0.000000000000000,  0.500000000000000,  0.500000000000000 ]
  mass: 26.981539
- symbol: Al # 4
  coordinates: [  0.000000000000000,  0.000000000000000,  0.000000000000000 ]
  mass: 26.981539
phonon:
- q-position: [    0.0104167,    0.0104167,    0.0104167 ]
  weight: 8    
  band:
  - # 1
    frequency:     0.1267732919
  - # 2
    frequency:     0.1267732919
  - # 3
    frequency:     0.2896578374
  - # 4
    frequency:     5.4040144159
  - # 5
    frequency:     5.4040144159
  - # 6
    frequency:     5.4040144159
  - # 7
    frequency:     5.4081950645
  - # 8
    frequency:     5.4081950645
  - # 9
    frequency:     5.4081950645
  - # 10
    frequency:     9.2626168409
  - # 11
    frequency:     9.2626168409
  - # 12
    frequency:     9.2626168409

- q-position: [    0.0312500,    0.0104167,    0.0104167 ]
  weight: 24   
  band:
  - # 1
    frequency:     0.2541399733
  - # 2
    frequency:     0.2732940358
  - # 3
    frequency:     0.5345388060
  - # 4
    frequency:     5.3978704568
  - # 5
    frequency:     5.4020440877
  - # 6
    frequency:     5.4074028368
  - # 7
    frequency:     5.4074028368
  - # 8
    frequency:     5.4205318316
  - # 9
    frequency:     5.4205318316
  - # 10
    frequency:     9.2531453719
  - # 11
    frequency:     9.2553040427
  - # 12
    frequency:     9.2553040427

- q-position: [    0.0520833,    0.0104167,    0.0104167 ]
  weight: 24   
  band:
  - # 1
    frequency:     0.4226549389
  - # 2
    frequency:     0.4378637233
  - # 3
    frequency:     0.8192964729
  - # 4
    frequency:     5.3855925096
  - # 5
    frequency:     5.3897520963
  - # 6
    frequency:     5.4176122147
  - # 7
    frequency:     5.4176122147
  - # 8
    frequency:     5.4415750032
  - # 9
    frequency:     5.4415750032
  - # 10
    frequency:     9.2342083174
  - # 11
    frequency:     9.2407024679
  - # 12
    frequency:     9.2407024679

- q-position: [    0.0729167,    0.0104167,    0.0104167 ]
  weight: 24   
  band:
  - # 1
    frequency:     0.5940263548
  - # 2
    frequency:     0.6056185932
  - # 3
    frequency:     1.1151474724
  - # 4
    frequency:     5.3672004748
  - # 5
    frequency:     5.3713389732
  - # 6
    frequency:     5.4339986608
  - # 7
    frequency:     5.4339986608
  - # 8
    frequency:     5.4715783485
  - # 9
    frequency:     5.4715783485
  - # 10
    frequency:     9.2058174815
  - # 11
    frequency:     9.2188600965
  - # 12
    frequency:     9.2188600965

- q-position: [    0.0937500,    0.0104167,    0.0104167 ]
  weight: 24   
  band:
  - # 1
    frequency:     0.7650495705
  - # 2
    frequency:     0.7741017170
  - # 3
    frequency:     1.4146637799
  - # 4
    frequency:     5.3427240999
  - # 5
    frequency:     5.3468344393
  - # 6
    frequency:     5.4559590444
  - # 7
    frequency:     5.4559590444
  - # 8
    frequency:     5.5105733001
  - # 9
    frequency:     5.5105733001
  - # 10
    frequency:     9.1679906627
  - # 11
    frequency:     9.1898487408
  - # 12
    frequency:     9.1898487408

- q-position: [    0.1145833,    0.0104167,    0.0104167 ]
  weight: 24   
  band:
  - # 1
    frequency:     0.9352721492
  - # 2
    frequency:     0.9424958083
  - # 3
    frequency:     1.7149814387
  - # 4
    frequency:     5.3122028566
  - # 5
    frequency:     5.3162779302
  - # 6
    frequency:     5.4828979000
  - # 7
    frequency:     5.4828979000
  - # 8
    frequency:     5.5584172865
  - # 9
    frequency:     5.5584172865
  - # 10
    frequency:     9.1207517626
  - # 11
    frequency:     9.1537638587
  - # 12
    frequency:     9.1537638587

- q-position: [    0.1354167,    0.0104167,    0.0104167 ]
  weight: 24   
  band:
  - # 1
    frequency:     1.1045438384
  - # 2
    frequency:     1.1103884386
  - # 3
    frequency:     2.0146585031
  - # 4
    frequency:     5.2756857781
  - # 5
    frequency:     5.2797184332
  - # 6
    frequency:     5.5141963429
  - # 7
    frequency:     5.5141963429
  - # 8
    frequency:     5.6148436879
  - # 9
    frequency:     5.6148436879
  - # 10
    frequency:     9.0641309293
  - # 11
    frequency:     9.1107243088
  - # 12
    frequency:     9.1107243088

- q-position: [    0.1562500,    0.0104167,    0.0104167 ]
  weight: 24   
  band:
  - # 1
    frequency:     1.2727454427
  - # 2
    frequency:     1.2775050683
  - # 3
    frequency:     2.3128004859
  - # 4
    frequency:     5.2332312581
  - # 5
    frequency:     5.2372142855
  - # 6
    frequency:     5.5491983073
  - # 7
    frequency:     5.5491983073
  - # 8
    frequency:     5.6794970725
  - # 9
    frequency:     5.6794970725
  - # 10
    frequency:     8.9981647330
  - # 11
    frequency:     9.0608720497
  - # 12
    frequency:     9.0608720497

- q-position: [    0.1770833,    0.0104167,    0.0104167 ]
  weight: 24   
  band:
  - # 1
    frequency:     1.4397522972
  - # 2
    frequency:     1.4436279773
  - # 3
    frequency:     2.6087591204
  - # 4
    frequency:     5.1849068129
  - # 5
    frequency:     5.1888329354
  - # 6
    frequency:     5.5872101952
  - # 7
    frequency:     5.5872101952
  - # 8
    frequency:     5.7519565567
  - # 9
    frequency:     5.7519565567
  - # 10
    frequency:     8.9228963712
  - # 11
    frequency:     9.0043717892
  - # 12
    frequency:     9.0043717892

- q-position: [    0.1979167,    0.0104167,    0.0104167 ]
  weight: 24   
  band:
  - # 1
    frequency:     1.6054310479
  - # 2
    frequency:     1.6085658571
  - # 3
    frequency:     2.9020114425
  - # 4
    frequency:     5.1307888077
  - # 5
    frequency:     5.1346506685
  - # 6
    frequency:     5.6275082182
  - # 7
    frequency:     5.6275082182
  - # 8
    frequency:     5.8317519975
  - # 9
    frequency:     5.8317519975
  - # 10
    frequency:     8.8383759007
  - # 11
    frequency:     8.9414105863
  - # 12
    frequency:     8.9414105863

- q-position: [    0.2187500,    0.0104167,    0.0104167 ]
  weight: 24   
  band:
  - # 1
    frequency:     1.7696411881
  - # 2
    frequency:     1.7721406179
  - # 3
    frequency:     3.1921053873
  - # 4
    frequency:     5.0709621507
  - # 5
    frequency:     5.0747522996
  - # 6
    frequency:     5.6693494543
  - # 7
    frequency:     5.6693494543
  - # 8
    frequency:     5.9183761040
  - # 9
    frequency:     5.9183761040
  - # 10
    frequency:     8.7446604945
  - # 11
    frequency:     8.8721974137
  - # 12
    frequency:     8.8721974137

- q-position: [    0.2395833,    0.0104167,    0.0104167 ]
  weight: 24   
  band:
  - # 1
    frequency:     1.9322367616
  - # 2
    frequency:     1.9341810270
  - # 3
    frequency:     3.4786331042
  - # 4
    frequency:     5.0055199548
  - # 5
    frequency:     5.0092308343
  - # 6
    frequency:     5.7119842703
  - # 7
    frequency:     5.7119842703
  - # 8
    frequency:     6.0112941007
  - # 9
    frequency:     6.0112941007
  - # 10
    frequency:     8.6418147186
  - # 11
    frequency:     8.7969626844
  - # 12
    frequency:     8.7969626844

- q-position: [    0.2604167,    0.0104167,    0.0104167 ]
  weight: 24   
  band:
  - # 1
    frequency:     2.0930676241
  - # 2
    frequency:     2.0945193916
  - # 3
    frequency:     3.7612169775
  - # 4
    frequency:     4.9345631720
  - # 5
    frequency:     4.9381871008
  - # 6
    frequency:     5.7546687889
  - # 7
    frequency:     5.7546687889
  - # 8
    frequency:     6.1099517332
  - # 9
    frequency:     6.1099517332
  - # 10
    frequency:     8.5299108257
  - # 11
    frequency:     8.7159577516
  - # 12
    frequency:     8.7159577516

- q-position: [    0.2812500,    0.0104167,    0.0104167 ]
  weight: 24   
  band:
  - # 1
    frequency:     2.2519803203
  - # 2
    frequency:     2.2529897349
  - # 3
    frequency:     4.0395019310
  - # 4
    frequency:     4.8582002011
  - # 5
    frequency:     4.8617293565
  - # 6
    frequency:     5.7966766754
  - # 7
    frequency:     5.7966766754
  - # 8
    frequency:     6.2137819980
  - # 9
    frequency:     6.2137819980
  - # 10
    frequency:     8.4090290624
  - # 11
    frequency:     8.6294543877
  - # 12
    frequency:     8.6294543877

- q-position: [    0.3020833,    0.0104167,    0.0104167 ]
  weight: 24   
  band:
  - # 1
    frequency:     2.4088187059
  - # 2
    frequency:     2.4094267637
  - # 3
    frequency:     4.3131510335
  - # 4
    frequency:     4.7765464729
  - # 5
    frequency:     4.7799728707
  - # 6
    frequency:     5.8373098664
  - # 7
    frequency:     5.8373098664
  - # 8
    frequency:     6.3222107977
  - # 9
    frequency:     6.3222107977
  - # 10
    frequency:     8.2792579846
  - # 11
    frequency:     8.5377442507
  - # 12
    frequency:     8.5377442507

- q-position: [    0.3229167,    0.0104167,    0.0104167 ]
  weight: 24   
  band:
  - # 1
    frequency:     2.5634244155
  - # 2
    frequency:     2.5636652886
  - # 3
    frequency:     4.5818429236
  - # 4
    frequency:     4.6897240149
  - # 5
    frequency:     4.6930394873
  - # 6
    frequency:     5.8759080750
  - # 7
    frequency:     5.8759080750
  - # 8
    frequency:     6.4346616480
  - # 9
    frequency:     6.4346616480
  - # 10
    frequency:     8.1406947787
  - # 11
    frequency:     8.4411383460
  - # 12
    frequency:     8.4411383460

- q-position: [    0.3437500,    0.0104167,    0.0104167 ]
  weight: 24   
  band:
  - # 1
    frequency:     2.7155399211
  - # 2
    frequency:     2.7156372435
  - # 3
    frequency:     4.5978610004
  - # 4
    frequency:     4.6010571704
  - # 5
    frequency:     4.8452702761
  - # 6
    frequency:     5.9118570323
  - # 7
    frequency:     5.9118570323
  - # 8
    frequency:     6.5505595417
  - # 9
    frequency:     6.5505595417
  - # 10
    frequency:     7.9934455819
  - # 11
    frequency:     8.3399664920
  - # 12
    frequency:     8.3399664920

- q-position: [    0.3645833,    0.0104167,    0.0104167 ]
  weight: 24   
  band:
  - # 1
    frequency:     2.8648849513
  - # 2
    frequency:     2.8652954802
  - # 3
    frequency:     4.5010912838
  - # 4
    frequency:     4.5041595357
  - # 5
    frequency:     5.1031388784
  - # 6
    frequency:     5.9445955063
  - # 7
    frequency:     5.9445955063
  - # 8
    frequency:     6.6693340686
  - # 9
    frequency:     6.6693340686
  - # 10
    frequency:     7.8376258006
  - # 11
    frequency:     8.2345768007
  - # 12
    frequency:     8.2345768007

- q-position: [    0.3854167,    0.0104167,    0.0104167 ]
  weight: 24   
  band:
  - # 1
    frequency:     3.0115343527
  - # 2
    frequency:     3.0122362312
  - # 3
    frequency:     4.3995539260
  - # 4
    frequency:     4.4024853720
  - # 5
    frequency:     5.3551670713
  - # 6
    frequency:     5.9736211780
  - # 7
    frequency:     5.9736211780
  - # 8
    frequency:     6.7904218857
  - # 9
    frequency:     6.7904218857
  - # 10
    frequency:     7.6733604196
  - # 11
    frequency:     8.1253351846
  - # 12
    frequency:     8.1253351846

- q-position: [    0.4062500,    0.0104167,    0.0104167 ]
  weight: 24   
  band:
  - # 1
    frequency:     3.1553218797
  - # 2
    frequency:     3.1562957350
  - # 3
    frequency:     4.2933927148
  - # 4
    frequency:     4.2961781555
  - # 5
    frequency:     5.6010854064
  - # 6
    frequency:     5.9984954791
  - # 7
    frequency:     5.9984954791
  - # 8
    frequency:     6.9132686202
  - # 9
    frequency:     6.9132686202
  - # 10
    frequency:     7.5007843002
  - # 11
    frequency:     8.0126249146
  - # 12
    frequency:     8.0126249146

- q-position: [    0.4270833,    0.0104167,    0.0104167 ]
  weight: 24   
  band:
  - # 1
    frequency:     3.2960812383
  - # 2
    frequency:     3.2973096914
  - # 3
    frequency:     4.1827556821
  - # 4
    frequency:     4.1853855607
  - # 5
    frequency:     5.8406364298
  - # 6
    frequency:     6.0188475008
  - # 7
    frequency:     6.0188475008
  - # 8
    frequency:     7.0373302433
  - # 9
    frequency:     7.0373302433
  - # 10
    frequency:     7.3200424634
  - # 11
    frequency:     7.8968462932
  - # 12
    frequency:     7.8968462932

- q-position: [    0.4479167,    0.0104167,    0.0104167 ]
  weight: 24   
  band:
  - # 1
    frequency:     3.4336463160
  - # 2
    frequency:     3.4351136054
  - # 3
    frequency:     4.0677946237
  - # 4
    frequency:     4.0702589707
  - # 5
    frequency:     6.0343770756
  - # 6
    frequency:     6.0343770756
  - # 7
    frequency:     6.0735745347
  - # 8
    frequency:     7.1312903539
  - # 9
    frequency:     7.1620737524
  - # 10
    frequency:     7.1620737524
  - # 11
    frequency:     7.7784166941
  - # 12
    frequency:     7.7784166941

- q-position: [    0.4687500,    0.0104167,    0.0104167 ]
  weight: 24   
  band:
  - # 1
    frequency:     3.5678514594
  - # 2
    frequency:     3.5695431493
  - # 3
    frequency:     3.9486646234
  - # 4
    frequency:     3.9509529922
  - # 5
    frequency:     6.0448571266
  - # 6
    frequency:     6.0448571266
  - # 7
    frequency:     6.2996658483
  - # 8
    frequency:     6.9346940830
  - # 9
    frequency:     7.2869756561
  - # 10
    frequency:     7.2869756561
  - # 11
    frequency:     7.6577725564
  - # 12
    frequency:     7.6577725564

- q-position: [    0.4895833,    0.0104167,    0.0104167 ]
  weight: 24   
  band:
  - # 1
    frequency:     3.6985317958
  - # 2
    frequency:     3.7004345467
  - # 3
    frequency:     3.8255235883
  - # 4
    frequency:     3.8276249757
  - # 5
    frequency:     6.0501353600
  - # 6
    frequency:     6.0501353600
  - # 7
    frequency:     6.5186881273
  - # 8
    frequency:     6.7304306481
  - # 9
    frequency:     7.4114913700
  - # 10
    frequency:     7.4114913700
  - # 11
    frequency:     7.5354002888
  - # 12
    frequency:     7.5354002888

- q-position: [    0.0312500,    0.0312500,    0.0104167 ]
  weight: 24   
  band:
  - # 1
    frequency:     0.2930583965
  - # 2
    frequency:     0.3616185279
  - # 3
    frequency:     0.7191276838
  - # 4
    frequency:     5.4012605059
  - # 5
    frequency:     5.4012605059
  - # 6
    frequency:     5.4030502116
  - # 7
    frequency:     5.4143797717
  - # 8
    frequency:     5.4143797717
  - # 9
    frequency:     5.4404602344
  - # 10
    frequency:     9.2458891623
  - # 11
    frequency:     9.2458891623
  - # 12
    frequency:     9.2480052067

- q-position: [    0.0520833,    0.0312500,    0.0104167 ]
  weight: 48   
  band:
  - # 1
    frequency:     0.4183318941
  - # 2
    frequency:     0.4981430735
  - # 3
    frequency:     0.9627513238
  - # 4
    frequency:     5.3889855942
  - # 5
    frequency:     5.4020856938
  - # 6
    frequency:     5.4059772979
  - # 7
    frequency:     5.4114548097
  - # 8
    frequency:     5.4354382367
  - # 9
    frequency:     5.4684904615
  - # 10
    frequency:     9.2270651880
  - # 11
    frequency:     9.2314009759
  - # 12
    frequency:     9.2334314086

- q-position: [    0.0729167,    0.0312500,    0.0104167 ]
  weight: 48   
  band:
  - # 1
    frequency:     0.5781146124
  - # 2
    frequency:     0.6510942714
  - # 3
    frequency:     1.2300149706
  - # 4
    frequency:     5.3705975608
  - # 5
    frequency:     5.3836696406
  - # 6
    frequency:     5.4160157289
  - # 7
    frequency:     5.4278043862
  - # 8
    frequency:     5.4654766309
  - # 9
    frequency:     5.5044076986
  - # 10
    frequency:     9.1988437330
  - # 11
    frequency:     9.2097292173
  - # 12
    frequency:     9.2116303344

- q-position: [    0.0937500,    0.0312500,    0.0104167 ]
  weight: 48   
  band:
  - # 1
    frequency:     0.7470590933
  - # 2
    frequency:     0.8107959577
  - # 3
    frequency:     1.5091228653
  - # 4
    frequency:     5.3461254931
  - # 5
    frequency:     5.3591615739
  - # 6
    frequency:     5.4327306548
  - # 7
    frequency:     5.4497044451
  - # 8
    frequency:     5.5045255450
  - # 9
    frequency:     5.5480849606
  - # 10
    frequency:     9.1612423164
  - # 11
    frequency:     9.1809463424
  - # 12
    frequency:     9.1826733587

- q-position: [    0.1145833,    0.0312500,    0.0104167 ]
  weight: 48   
  band:
  - # 1
    frequency:     0.9180368487
  - # 2
    frequency:     0.9735075853
  - # 3
    frequency:     1.7943927957
  - # 4
    frequency:     5.3156079863
  - # 5
    frequency:     5.3286012531
  - # 6
    frequency:     5.4555642934
  - # 7
    frequency:     5.4765590749
  - # 8
    frequency:     5.5524396405
  - # 9
    frequency:     5.5993541963
  - # 10
    frequency:     9.1142844822
  - # 11
    frequency:     9.1451486786
  - # 12
    frequency:     9.1466553623

- q-position: [    0.1354167,    0.0312500,    0.0104167 ]
  weight: 48   
  band:
  - # 1
    frequency:     1.0888694330
  - # 2
    frequency:     1.1374913669
  - # 3
    frequency:     2.0826076220
  - # 4
    frequency:     5.2790929833
  - # 5
    frequency:     5.2920380742
  - # 6
    frequency:     5.4838563189
  - # 7
    frequency:     5.5077489159
  - # 8
    frequency:     5.6089489386
  - # 9
    frequency:     5.6580040955
  - # 10
    frequency:     9.0579999536
  - # 11
    frequency:     9.1024561902
  - # 12
    frequency:     9.1036944920

- q-position: [    0.1562500,    0.0312500,    0.0104167 ]
  weight: 48   
  band:
  - # 1
    frequency:     1.2587770416
  - # 2
    frequency:     1.3017996775
  - # 3
    frequency:     2.3717543160
  - # 4
    frequency:     5.2366375779
  - # 5
    frequency:     5.2495308704
  - # 6
    frequency:     5.5168604826
  - # 7
    frequency:     5.5426169923
  - # 8
    frequency:     5.6736945599
  - # 9
    frequency:     5.7237842442
  - # 10
    frequency:     8.9924248244
  - # 11
    frequency:     9.0530121897
  - # 12
    frequency:     9.0539318675

- q-position: [    0.1770833,    0.0312500,    0.0104167 ]
  weight: 48   
  band:
  - # 1
    frequency:     1.4274158101
  - # 2
    frequency:     1.4658403436
  - # 3
    frequency:     2.6604658721
  - # 4
    frequency:     5.1883077813
  - # 5
    frequency:     5.2011476770
  - # 6
    frequency:     5.5537638916
  - # 7
    frequency:     5.5804683008
  - # 8
    frequency:     5.7462522444
  - # 9
    frequency:     5.7964081894
  - # 10
    frequency:     8.9176017824
  - # 11
    frequency:     8.9969830015
  - # 12
    frequency:     8.9975312386

- q-position: [    0.1979167,    0.0312500,    0.0104167 ]
  weight: 48   
  band:
  - # 1
    frequency:     1.5945862505
  - # 2
    frequency:     1.6291982577
  - # 3
    frequency:     2.9477448589
  - # 4
    frequency:     5.1341782541
  - # 5
    frequency:     5.1469654603
  - # 6
    frequency:     5.5937085174
  - # 7
    frequency:     5.6205771870
  - # 8
    frequency:     5.8261486008
  - # 9
    frequency:     5.8755548813
  - # 10
    frequency:     8.8335803630
  - # 11
    frequency:     8.9345575805
  - # 12
    frequency:     8.9346785974

- q-position: [    0.2187500,    0.0312500,    0.0104167 ]
  weight: 48   
  band:
  - # 1
    frequency:     1.7601365467
  - # 2
    frequency:     1.7915537335
  - # 3
    frequency:     3.2328170187
  - # 4
    frequency:     5.0743320063
  - # 5
    frequency:     5.0870698139
  - # 6
    frequency:     5.6358133317
  - # 7
    frequency:     5.6621984461
  - # 8
    frequency:     5.9128732560
  - # 9
    frequency:     5.9608692313
  - # 10
    frequency:     8.7404172306
  - # 11
    frequency:     8.8655817528
  - # 12
    frequency:     8.8659470917

- q-position: [    0.2395833,    0.0312500,    0.0104167 ]
  weight: 48   
  band:
  - # 1
    frequency:     1.9239285383
  - # 2
    frequency:     1.9526417352
  - # 3
    frequency:     3.5150497404
  - # 4
    frequency:     5.0088600669
  - # 5
    frequency:     5.0215546241
  - # 6
    frequency:     5.6791953938
  - # 7
    frequency:     5.7045797799
  - # 8
    frequency:     6.0058885515
  - # 9
    frequency:     6.0519627607
  - # 10
    frequency:     8.6381764838
  - # 11
    frequency:     8.7904698717
  - # 12
    frequency:     8.7913844579

- q-position: [    0.2604167,    0.0312500,    0.0104167 ]
  weight: 48   
  band:
  - # 1
    frequency:     2.0858255153
  - # 2
    frequency:     2.1122300449
  - # 3
    frequency:     3.7939047102
  - # 4
    frequency:     4.9378611265
  - # 5
    frequency:     4.9505217064
  - # 6
    frequency:     5.7229885982
  - # 7
    frequency:     5.7469742854
  - # 8
    frequency:     6.1046375785
  - # 9
    frequency:     6.1484150954
  - # 10
    frequency:     8.5269299815
  - # 11
    frequency:     8.7095929961
  - # 12
    frequency:     8.7111238796

- q-position: [    0.2812500,    0.0312500,    0.0104167 ]
  weight: 48   
  band:
  - # 1
    frequency:     2.2456880265
  - # 2
    frequency:     2.2701068917
  - # 3
    frequency:     4.0689094004
  - # 4
    frequency:     4.8614411543
  - # 5
    frequency:     4.8740804168
  - # 6
    frequency:     5.7663593739
  - # 7
    frequency:     5.7886522553
  - # 8
    frequency:     6.2085509292
  - # 9
    frequency:     6.2497766621
  - # 10
    frequency:     8.4067576854
  - # 11
    frequency:     8.6232215445
  - # 12
    frequency:     8.6254403367

- q-position: [    0.3020833,    0.0312500,    0.0104167 ]
  weight: 48   
  band:
  - # 1
    frequency:     2.4033727221
  - # 2
    frequency:     2.4260736218
  - # 3
    frequency:     4.3396393497
  - # 4
    frequency:     4.7797129940
  - # 5
    frequency:     4.7923472389
  - # 6
    frequency:     5.8085191878
  - # 7
    frequency:     5.8289119149
  - # 8
    frequency:     6.3170523599
  - # 9
    frequency:     6.3555725329
  - # 10
    frequency:     8.2777480171
  - # 11
    frequency:     8.5316458067
  - # 12
    frequency:     8.5346290795

- q-position: [    0.3229167,    0.0312500,    0.0104167 ]
  weight: 48   
  band:
  - # 1
    frequency:     2.5587323458
  - # 2
    frequency:     2.5799402002
  - # 3
    frequency:     4.6057068458
  - # 4
    frequency:     4.6927959401
  - # 5
    frequency:     4.7054453522
  - # 6
    frequency:     5.8487341170
  - # 7
    frequency:     5.8670889361
  - # 8
    frequency:     6.4295634889
  - # 9
    frequency:     6.4653070898
  - # 10
    frequency:     8.1399982240
  - # 11
    frequency:     8.4351754462
  - # 12
    frequency:     8.4390051186

- q-position: [    0.3437500,    0.0312500,    0.0104167 ]
  weight: 48   
  band:
  - # 1
    frequency:     2.7116161442
  - # 2
    frequency:     2.7315223838
  - # 3
    frequency:     4.6008152987
  - # 4
    frequency:     4.6135041836
  - # 5
    frequency:     4.8667535171
  - # 6
    frequency:     5.8863319703
  - # 7
    frequency:     5.9025646896
  - # 8
    frequency:     6.5455076241
  - # 9
    frequency:     6.5784690641
  - # 10
    frequency:     7.9936147521
  - # 11
    frequency:     8.3341390287
  - # 12
    frequency:     8.3389027306

- q-position: [    0.3645833,    0.0312500,    0.0104167 ]
  weight: 48   
  band:
  - # 1
    frequency:     2.8618704067
  - # 2
    frequency:     2.8806399206
  - # 3
    frequency:     4.5039019346
  - # 4
    frequency:     4.5166589467
  - # 5
    frequency:     5.1224453786
  - # 6
    frequency:     5.9207074909
  - # 7
    frequency:     5.9347732827
  - # 8
    frequency:     6.6643128013
  - # 9
    frequency:     6.6945365130
  - # 10
    frequency:     7.8387136228
  - # 11
    frequency:     8.2288836075
  - # 12
    frequency:     8.2346750037

- q-position: [    0.3854167,    0.0312500,    0.0104167 ]
  weight: 48   
  band:
  - # 1
    frequency:     3.0093390303
  - # 2
    frequency:     3.0271154074
  - # 3
    frequency:     4.4021918077
  - # 4
    frequency:     4.4150501733
  - # 5
    frequency:     5.3724694485
  - # 6
    frequency:     5.9513261218
  - # 7
    frequency:     5.9632074665
  - # 8
    frequency:     6.7854140787
  - # 9
    frequency:     6.8129813603
  - # 10
    frequency:     7.6754208098
  - # 11
    frequency:     8.1197744372
  - # 12
    frequency:     8.1266934803

- q-position: [    0.4062500,    0.0312500,    0.0104167 ]
  weight: 48   
  band:
  - # 1
    frequency:     3.1538640731
  - # 2
    frequency:     3.1707735822
  - # 3
    frequency:     4.2958255019
  - # 4
    frequency:     4.3088232412
  - # 5
    frequency:     5.6165313913
  - # 6
    frequency:     5.9777267183
  - # 7
    frequency:     5.9874235245
  - # 8
    frequency:     6.9082550397
  - # 9
    frequency:     6.9332731330
  - # 10
    frequency:     7.5038726146
  - # 11
    frequency:     8.0071949925
  - # 12
    frequency:     8.0153480490

- q-position: [    0.4270833,    0.0312500,    0.0104167 ]
  weight: 48   
  band:
  - # 1
    frequency:     3.2952862896
  - # 2
    frequency:     3.3114409168
  - # 3
    frequency:     4.1849477466
  - # 4
    frequency:     4.1981279062
  - # 5
    frequency:     5.8543538399
  - # 6
    frequency:     5.9995234896
  - # 7
    frequency:     6.0070452576
  - # 8
    frequency:     7.0322881082
  - # 9
    frequency:     7.0548812316
  - # 10
    frequency:     7.3242160409
  - # 11
    frequency:     7.8915478749
  - # 12
    frequency:     7.9010475720

- q-position: [    0.4479167,    0.0312500,    0.0104167 ]
  weight: 48   
  band:
  - # 1
    frequency:     3.4334456487
  - # 2
    frequency:     3.4489454220
  - # 3
    frequency:     4.0697069336
  - # 4
    frequency:     4.0831178408
  - # 5
    frequency:     6.0164073586
  - # 6
    frequency:     6.0217671809
  - # 7
    frequency:     6.0856751704
  - # 8
    frequency:     7.1366091649
  - # 9
    frequency:     7.1569717385
  - # 10
    frequency:     7.1772732600
  - # 11
    frequency:     7.7732590827
  - # 12
    frequency:     7.7842232688

- q-position: [    0.4687500,    0.0312500,    0.0104167 ]
  weight: 48   
  band:
  - # 1
    frequency:     3.5681818414
  - # 2
    frequency:     3.5831166091
  - # 3
    frequency:     3.9502546316
  - # 4
    frequency:     3.9639501902
  - # 5
    frequency:     6.0281468630
  - # 6
    frequency:     6.0313570364
  - # 7
    frequency:     6.3102485821
  - # 8
    frequency:     6.9412215062
  - # 9
    frequency:     7.2817521670
  - # 10
    frequency:     7.2998932663
  - # 11
    frequency:     7.6528018375
  - # 12
    frequency:     7.6653472371

- q-position: [    0.4895833,    0.0312500,    0.0104167 ]
  weight: 48   
  band:
  - # 1
    frequency:     3.6993347804
  - # 2
    frequency:     3.7137855699
  - # 3
    frequency:     3.8267450963
  - # 4
    frequency:     3.8407851491
  - # 5
    frequency:     6.0345886669
  - # 6
    frequency:     6.0356577151
  - # 7
    frequency:     6.5278413813
  - # 8
    frequency:     6.7382344004
  - # 9
    frequency:     7.4058427986
  - # 10
    frequency:     7.4218126190
  - # 11
    frequency:     7.5310473165
  - # 12
    frequency:     7.5451530853

- q-position: [    0.0520833,    0.0520833,    0.0104167 ]
  weight: 24   
  band:
  - # 1
    frequency:     0.4755104782
  - # 2
    frequency:     0.6054560659
  - # 3
    frequency:     1.1716949701
  - # 4
    frequency:     5.3991491583
  - # 5
    frequency:     5.3991491583
  - # 6
    frequency:     5.4010497484
  - # 7
    frequency:     5.4231750724
  - # 8
    frequency:     5.4231750724
  - # 9
    frequency:     5.5037918072
  - # 10
    frequency:     9.2128035705
  - # 11
    frequency:     9.2128035705
  - # 12
    frequency:     9.2189128702

- q-position: [    0.0729167,    0.0520833,    0.0104167 ]
  weight: 48   
  band:
  - # 1
    frequency:     0.5928722756
  - # 2
    frequency:     0.7375322507
  - # 3
    frequency:     1.4106861607
  - # 4
    frequency:     5.3807135557
  - # 5
    frequency:     5.4033953777
  - # 6
    frequency:     5.4048061907
  - # 7
    frequency:     5.4154242646
  - # 8
    frequency:     5.4532839458
  - # 9
    frequency:     5.5465435251
  - # 10
    frequency:     9.1849214550
  - # 11
    frequency:     9.1914726903
  - # 12
    frequency:     9.1971939539

- q-position: [    0.0937500,    0.0520833,    0.0104167 ]
  weight: 48   
  band:
  - # 1
    frequency:     0.7412918879
  - # 2
    frequency:     0.8829104646
  - # 3
    frequency:     1.6663690530
  - # 4
    frequency:     5.3561753906
  - # 5
    frequency:     5.3803624696
  - # 6
    frequency:     5.4128177737
  - # 7
    frequency:     5.4372030785
  - # 8
    frequency:     5.4924410060
  - # 9
    frequency:     5.5963993715
  - # 10
    frequency:     9.1477715492
  - # 11
    frequency:     9.1631462443
  - # 12
    frequency:     9.1683451640

- q-position: [    0.1145833,    0.0520833,    0.0104167 ]
  weight: 48   
  band:
  - # 1
    frequency:     0.9031334855
  - # 2
    frequency:     1.0355921776
  - # 3
    frequency:     1.9321443862
  - # 4
    frequency:     5.3255710804
  - # 5
    frequency:     5.3498848143
  - # 6
    frequency:     5.4289352638
  - # 7
    frequency:     5.4638889771
  - # 8
    frequency:     5.5404952842
  - # 9
    frequency:     5.6530389546
  - # 10
    frequency:     9.1013766252
  - # 11
    frequency:     9.1279222333
  - # 12
    frequency:     9.1324602330

- q-position: [    0.1354167,    0.0520833,    0.0104167 ]
  weight: 48   
  band:
  - # 1
    frequency:     1.0703768806
  - # 2