 running on    8 nodes
 distr:  one band on    1 nodes,    8 groups
 vasp.4.6.28 25Jul05 complex 
 POSCAR found :  1 types and   32 ions

 ----------------------------------------------------------------------------- 
|                                                                             |
|  ADVICE TO THIS USER RUNNING 'VASP/VAMP'   (HEAR YOUR MASTER'S VOICE ...):  |
|                                                                             |
|      You have a (more or less) 'large supercell' and for larger cells       |
|      it might be more efficient to use real space projection operators      |
|      So try LREAL= Auto  in the INCAR   file.                               |
|      Mind: If you want to do an extremely accurate calculations keep the    |
|      reciprocal projection scheme          (i.e. LREAL=.FALSE.)             |
|                                                                             |
 ----------------------------------------------------------------------------- 

 LDA part: xc-table for Pade appr. of Perdew
 generate k-points for:   6   6   6
 POSCAR, INCAR and KPOINTS ok, starting setup
 FFT: planning ...           1
 reading WAVECAR
 WARNING: random wavefunctions but no delay for mixing, default for NELMDL
 entering main loop
       N       E                     dE             d eps       ncg     rms          rms(c)
DAV:   1     0.113723574575E+03    0.11372E+03   -0.32425E+04  5760   0.104E+03
DAV:   2    -0.107615639607E+03   -0.22134E+03   -0.20605E+03  6760   0.136E+02
DAV:   3    -0.120131756445E+03   -0.12516E+02   -0.11885E+02  7200   0.258E+01
DAV:   4    -0.120371953461E+03   -0.24020E+00   -0.23822E+00  6728   0.377E+00
DAV:   5    -0.120374905985E+03   -0.29525E-02   -0.29504E-02  6808   0.489E-01    0.522E+00
DAV:   6    -0.119959472928E+03    0.41543E+00   -0.55620E-02  6568   0.725E-01    0.324E+00
DAV:   7    -0.119658290354E+03    0.30118E+00   -0.16491E-01  6360   0.117E+00    0.138E-01
DAV:   8    -0.119658367882E+03   -0.77528E-04   -0.13133E-03  6792   0.133E-01    0.469E-02
DAV:   9    -0.119658382954E+03   -0.15072E-04   -0.52276E-05  6704   0.201E-02    0.346E-03
DAV:  10    -0.119658383324E+03   -0.36992E-06   -0.24132E-06  6776   0.479E-03    0.182E-03
DAV:  11    -0.119658380461E+03    0.28625E-05   -0.21315E-07  6744   0.126E-03    0.668E-04
DAV:  12    -0.119658379616E+03    0.84527E-06   -0.24973E-08  4856   0.464E-04    0.152E-04
DAV:  13    -0.119658379350E+03    0.26570E-06   -0.24657E-09  3720   0.174E-04    0.318E-05
DAV:  14    -0.119658379345E+03    0.53856E-08   -0.41687E-10  3672   0.680E-05
   1 F= -.11965838E+03 E0= -.11965701E+03  d E =-.274128E-02
