  32  32   0   0
  0.1695037E+02  0.8155359E-09  0.8155359E-09  0.8155359E-09  0.5000000E-15
  1.000000000000000E-004
  CAR 
 unknown system                          
     12.26774045     -3.96584549  301      7.70838535      1.00000000
     -3.966  0.0000E+00  0.0000E+00
     -3.912  0.0000E+00  0.0000E+00
     -3.858  0.0000E+00  0.0000E+00
     -3.804  0.0000E+00  0.0000E+00
     -3.749  0.0000E+00  0.0000E+00
     -3.695  0.0000E+00  0.0000E+00
     -3.641  0.0000E+00  0.0000E+00
     -3.587  0.0000E+00  0.0000E+00
     -3.533  0.0000E+00  0.0000E+00
     -3.479  0.0000E+00  0.0000E+00
     -3.425  0.0000E+00  0.0000E+00
     -3.371  0.0000E+00  0.0000E+00
     -3.317  0.0000E+00  0.0000E+00
     -3.262  0.9556E-07  0.5171E-08
     -3.208  0.1707E+00  0.9234E-02
     -3.154  0.9809E+00  0.6231E-01
     -3.100  0.1541E+01  0.1457E+00
     -3.046  0.9923E+00  0.1994E+00
     -2.992  0.9964E+00  0.2533E+00
     -2.938  0.9826E+00  0.3065E+00
     -2.884  0.4090E+01  0.5278E+00
     -2.829  0.4106E+01  0.7500E+00
     -2.775  0.5516E-08  0.7500E+00
     -2.721  0.1982E+01  0.8573E+00
     -2.667  0.4049E+01  0.1076E+01
     -2.613  0.2724E+01  0.1224E+01
     -2.559  0.2904E+01  0.1381E+01
     -2.505  0.3751E+01  0.1584E+01
     -2.451  0.1359E+01  0.1657E+01
     -2.397  0.4105E+01  0.1880E+01
     -2.342  0.8206E+01  0.2324E+01
     -2.288  0.6910E-02  0.2324E+01
     -2.234  0.8838E+00  0.2372E+01
     -2.180  0.4430E+01  0.2612E+01
     -2.126  0.4955E+01  0.2880E+01
     -2.072  0.5236E+01  0.3163E+01
     -2.018  0.4008E+01  0.3380E+01
     -1.964  0.4101E+01  0.3602E+01
     -1.910  0.8212E+01  0.4046E+01
     -1.855  0.4086E+01  0.4267E+01
     -1.801  0.2180E-01  0.4269E+01
     -1.747  0.2957E+01  0.4429E+01
     -1.693  0.2900E+01  0.4585E+01
     -1.639  0.4377E+01  0.4822E+01
     -1.585  0.1138E+02  0.5438E+01
     -1.531  0.5424E+01  0.5731E+01
     -1.477  0.9835E-04  0.5731E+01
     -1.423  0.1231E+02  0.6398E+01
     -1.368  0.8126E+01  0.6837E+01
     -1.314  0.9547E-01  0.6843E+01
     -1.260  0.1291E+01  0.6912E+01
     -1.206  0.2909E+01  0.7070E+01
     -1.152  0.6523E+01  0.7423E+01
     -1.098  0.7805E+01  0.7845E+01
     -1.044  0.8167E+01  0.8287E+01
     -0.990  0.5132E+01  0.8565E+01
     -0.936  0.4103E+01  0.8787E+01
     -0.881  0.1215E+02  0.9444E+01
     -0.827  0.1791E+00  0.9454E+01
     -0.773  0.2541E+01  0.9591E+01
     -0.719  0.5886E+01  0.9910E+01
     -0.665  0.1257E+02  0.1059E+02
     -0.611  0.7773E+01  0.1101E+02
     -0.557  0.4081E+01  0.1123E+02
     -0.503  0.4105E+01  0.1145E+02
     -0.449  0.1231E+02  0.1212E+02
     -0.394  0.8134E+01  0.1256E+02
     -0.340  0.8813E-01  0.1256E+02
     -0.286  0.9356E+00  0.1262E+02
     -0.232  0.3630E+01  0.1281E+02
     -0.178  0.7414E+01  0.1321E+02
     -0.124  0.1314E+02  0.1392E+02
     -0.070  0.8082E+01  0.1436E+02
     -0.016  0.4103E+01  0.1458E+02
      0.038  0.1232E+02  0.1525E+02
      0.093  0.1637E+02  0.1614E+02
      0.147  0.6086E-01  0.1614E+02
      0.201  0.6700E+01  0.1650E+02
      0.255  0.5790E+01  0.1681E+02
      0.309  0.4838E+01  0.1708E+02
      0.363  0.3826E+01  0.1728E+02
      0.417  0.1170E+02  0.1792E+02
      0.471  0.3867E-02  0.1792E+02
      0.525  0.1232E+02  0.1858E+02
      0.580  0.1642E+02  0.1947E+02
      0.634  0.8423E-02  0.1947E+02
      0.688  0.9934E+00  0.1953E+02
      0.742  0.1282E+02  0.2022E+02
      0.796  0.1149E+02  0.2084E+02
      0.850  0.9314E+01  0.2135E+02
      0.904  0.3759E+01  0.2155E+02
      0.958  0.7944E+01  0.2198E+02
      1.012  0.1631E+02  0.2286E+02
      1.067  0.8211E+01  0.2331E+02
      1.121  0.3831E-05  0.2331E+02
      1.175  0.6123E+01  0.2364E+02
      1.229  0.7894E+01  0.2406E+02
      1.283  0.1715E+02  0.2499E+02
      1.337  0.8503E+01  0.2545E+02
      1.391  0.5613E+01  0.2576E+02
      1.445  0.4363E+01  0.2599E+02
      1.499  0.1543E+02  0.2683E+02
      1.554  0.8154E+01  0.2727E+02
      1.608  0.2761E-03  0.2727E+02
      1.662  0.4106E+01  0.2749E+02
      1.716  0.1741E+02  0.2843E+02
      1.770  0.8188E+01  0.2888E+02
      1.824  0.1123E+02  0.2948E+02
      1.878  0.7147E+01  0.2987E+02
      1.932  0.6464E+01  0.3022E+02
      1.986  0.8495E+01  0.3068E+02
      2.041  0.1601E+02  0.3155E+02
      2.095  0.1023E-01  0.3155E+02
      2.149  0.4126E+01  0.3177E+02
      2.203  0.2461E+02  0.3310E+02
      2.257  0.2053E+02  0.3421E+02
      2.311  0.8216E+01  0.3466E+02
      2.365  0.2956E-02  0.3466E+02
      2.419  0.7397E+01  0.3506E+02
      2.473  0.1308E+02  0.3577E+02
      2.528  0.4166E+01  0.3599E+02
      2.582  0.6858E+00  0.3603E+02
      2.636  0.4143E+01  0.3625E+02
      2.690  0.7881E+01  0.3668E+02
      2.744  0.1814E+02  0.3766E+02
      2.798  0.1234E+02  0.3833E+02
      2.852  0.5122E+01  0.3861E+02
      2.906  0.2866E+02  0.4016E+02
      2.960  0.8169E+01  0.4060E+02
      3.015  0.7090E-01  0.4060E+02
      3.069  0.1065E+02  0.4118E+02
      3.123  0.1477E+02  0.4198E+02
      3.177  0.9960E+01  0.4252E+02
      3.231  0.8468E+01  0.4297E+02
      3.285  0.1314E+02  0.4369E+02
      3.339  0.3312E+01  0.4386E+02
      3.393  0.1673E+02  0.4477E+02
      3.447  0.1468E+02  0.4556E+02
      3.502  0.2734E+01  0.4571E+02
      3.556  0.1395E+01  0.4579E+02
      3.610  0.2045E+02  0.4689E+02
      3.664  0.7783E+01  0.4732E+02
      3.718  0.1247E+02  0.4799E+02
      3.772  0.8546E+01  0.4845E+02
      3.826  0.1384E+02  0.4920E+02
      3.880  0.1725E+02  0.5014E+02
      3.934  0.5879E+01  0.5045E+02
      3.989  0.4968E+01  0.5072E+02
      4.043  0.1108E+02  0.5132E+02
      4.097  0.1785E+02  0.5229E+02
      4.151  0.4088E+01  0.5251E+02
      4.205  0.3955E+01  0.5272E+02
      4.259  0.1332E+02  0.5344E+02
      4.313  0.2820E+02  0.5497E+02
      4.367  0.1201E+02  0.5562E+02
      4.422  0.6543E-05  0.5562E+02
      4.476  0.9353E+01  0.5613E+02
      4.530  0.1482E+02  0.5693E+02
      4.584  0.1827E+02  0.5792E+02
      4.638  0.1075E+02  0.5850E+02
      4.692  0.1047E+02  0.5906E+02
      4.746  0.9636E+01  0.5959E+02
      4.800  0.1603E+02  0.6045E+02
      4.854  0.7113E+01  0.6084E+02
      4.909  0.1097E+01  0.6090E+02
      4.963  0.2130E+02  0.6205E+02
      5.017  0.2161E+02  0.6322E+02
      5.071  0.1241E+02  0.6389E+02
      5.125  0.1025E+02  0.6445E+02
      5.179  0.1810E+02  0.6543E+02
      5.233  0.5462E+01  0.6572E+02
      5.287  0.6987E+01  0.6610E+02
      5.341  0.1015E+02  0.6665E+02
      5.396  0.9484E+01  0.6716E+02
      5.450  0.1226E+02  0.6782E+02
      5.504  0.1698E+02  0.6874E+02
      5.558  0.1260E+02  0.6943E+02
      5.612  0.1678E+02  0.7033E+02
      5.666  0.5583E+01  0.7064E+02
      5.720  0.1660E+02  0.7153E+02
      5.774  0.8915E+01  0.7202E+02
      5.828  0.1082E+02  0.7260E+02
      5.883  0.1498E+02  0.7341E+02
      5.937  0.9715E+01  0.7394E+02
      5.991  0.1682E+02  0.7485E+02
      6.045  0.1229E+02  0.7551E+02
      6.099  0.1616E+02  0.7639E+02
      6.153  0.5388E+00  0.7642E+02
      6.207  0.2855E+01  0.7657E+02
      6.261  0.1356E+02  0.7730E+02
      6.315  0.6435E+01  0.7765E+02
      6.370  0.1376E+02  0.7840E+02
      6.424  0.2906E+02  0.7997E+02
      6.478  0.4803E+01  0.8023E+02
      6.532  0.1369E+02  0.8097E+02
      6.586  0.1462E+01  0.8105E+02
      6.640  0.2929E+02  0.8264E+02
      6.694  0.8987E+01  0.8312E+02
      6.748  0.1162E+02  0.8375E+02
      6.802  0.1189E+02  0.8439E+02
      6.857  0.6260E+01  0.8473E+02
      6.911  0.1485E+02  0.8554E+02
      6.965  0.1188E+02  0.8618E+02
      7.019  0.1048E+02  0.8675E+02
      7.073  0.1412E+02  0.8751E+02
      7.127  0.1814E+02  0.8849E+02
      7.181  0.1620E+02  0.8937E+02
      7.235  0.8073E+01  0.8981E+02
      7.289  0.1990E+01  0.8991E+02
      7.344  0.6133E+01  0.9024E+02
      7.398  0.2540E+02  0.9162E+02
      7.452  0.6939E+01  0.9199E+02
      7.506  0.1169E+02  0.9263E+02
      7.560  0.2083E+02  0.9375E+02
      7.614  0.1386E+02  0.9450E+02
      7.668  0.1369E+02  0.9524E+02
      7.722  0.2225E+02  0.9645E+02
      7.776  0.2179E+02  0.9763E+02
      7.831  0.1110E+02  0.9823E+02
      7.885  0.4872E+01  0.9849E+02
      7.939  0.1576E+02  0.9935E+02
      7.993  0.9629E+01  0.9987E+02
      8.047  0.1329E+02  0.1006E+03
      8.101  0.9202E+01  0.1011E+03
      8.155  0.3589E+01  0.1013E+03
      8.209  0.2205E+02  0.1025E+03
      8.263  0.8740E+01  0.1029E+03
      8.318  0.2404E+02  0.1042E+03
      8.372  0.8662E+01  0.1047E+03
      8.426  0.2662E-01  0.1047E+03
      8.480  0.1225E+02  0.1054E+03
      8.534  0.9557E+01  0.1059E+03
      8.588  0.1766E+02  0.1069E+03
      8.642  0.2988E+02  0.1085E+03
      8.696  0.1239E+02  0.1091E+03
      8.750  0.1497E+02  0.1099E+03
      8.805  0.1423E+02  0.1107E+03
      8.859  0.2168E+02  0.1119E+03
      8.913  0.1103E+02  0.1125E+03
      8.967  0.8019E+01  0.1129E+03
      9.021  0.1700E+02  0.1138E+03
      9.075  0.5673E+01  0.1141E+03
      9.129  0.1962E+02  0.1152E+03
      9.183  0.2064E+02  0.1163E+03
      9.237  0.1362E+02  0.1171E+03
      9.292  0.1643E+02  0.1180E+03
      9.346  0.5517E+01  0.1183E+03
      9.400  0.1579E+02  0.1191E+03
      9.454  0.1730E+02  0.1200E+03
      9.508  0.4052E+01  0.1203E+03
      9.562  0.1785E+02  0.1212E+03
      9.616  0.2724E+02  0.1227E+03
      9.670  0.7664E+01  0.1231E+03
      9.724  0.1213E+02  0.1238E+03
      9.779  0.2377E+02  0.1251E+03
      9.833  0.1422E+02  0.1258E+03
      9.887  0.9668E+00  0.1259E+03
      9.941  0.1185E+02  0.1265E+03
      9.995  0.1033E+02  0.1271E+03
     10.049  0.2286E+02  0.1283E+03
     10.103  0.1946E+02  0.1294E+03
     10.157  0.1940E+02  0.1304E+03
     10.211  0.6470E+01  0.1308E+03
     10.266  0.1173E+02  0.1314E+03
     10.320  0.1427E+02  0.1322E+03
     10.374  0.1733E+02  0.1331E+03
     10.428  0.9078E+01  0.1336E+03
     10.482  0.2152E+02  0.1348E+03
     10.536  0.1382E+02  0.1355E+03
     10.590  0.1379E+02  0.1363E+03
     10.644  0.1302E+02  0.1370E+03
     10.698  0.1515E+02  0.1378E+03
     10.753  0.1775E+02  0.1387E+03
     10.807  0.6662E+01  0.1391E+03
     10.861  0.1903E+02  0.1401E+03
     10.915  0.1634E+02  0.1410E+03
     10.969  0.2062E+01  0.1411E+03
     11.023  0.1292E+02  0.1418E+03
     11.077  0.1324E+02  0.1426E+03
     11.131  0.8565E+01  0.1430E+03
     11.186  0.3516E+01  0.1432E+03
     11.240  0.8205E+01  0.1436E+03
     11.294  0.3963E-01  0.1437E+03
     11.348  0.1329E+01  0.1437E+03
     11.402  0.7673E-04  0.1437E+03
     11.456  0.3047E+01  0.1439E+03
     11.510  0.1063E+01  0.1439E+03
     11.564  0.1023E+01  0.1440E+03
     11.618  0.0000E+00  0.1440E+03
     11.673  0.0000E+00  0.1440E+03
     11.727  0.0000E+00  0.1440E+03
     11.781  0.0000E+00  0.1440E+03
     11.835  0.0000E+00  0.1440E+03
     11.889  0.0000E+00  0.1440E+03
     11.943  0.0000E+00  0.1440E+03
     11.997  0.0000E+00  0.1440E+03
     12.051  0.0000E+00  0.1440E+03
     12.105  0.0000E+00  0.1440E+03
     12.160  0.0000E+00  0.1440E+03
     12.214  0.0000E+00  0.1440E+03
     12.268  0.0000E+00  0.1440E+03
