   32   32    1    1
  0.1695037E+02  0.8155359E-09  0.8155359E-09  0.8155359E-09  0.5000000E-15
  1.000000000000000E-004
  CAR 
 unknown system                          
   96   40   72
 
  0.0000000E+00  0.0000000E+00  0.0000000E+00  0.4629630E-02
   1       -3.2280
   2       -1.0223
   3       -1.0188
   4       -1.0188
   5       -1.0188
   6       -1.0188
   7       -1.0154
   8        1.1515
   9        1.1558
  10        1.1558
  11        1.1573
  12        1.1575
  13        1.1575
  14        1.1575
  15        1.1575
  16        1.1577
  17        1.1592
  18        1.1592
  19        1.1635
  20        3.2358
  21        3.2359
  22        3.2359
  23        3.2359
  24        3.3774
  25        3.3774
  26        3.3774
  27        3.3775
  28        4.8628
  29        4.8628
  30        4.8628
  31        6.1243
  32        6.1243
  33        6.1243
  34        6.9054
  35        6.9054
  36        6.9096
  37        6.9096
  38        6.9096
  39        6.9096
  40        6.9096
  41        6.9096
  42        6.9096
  43        6.9097
  44        6.9138
  45        6.9138
  46        7.9348
  47        7.9387
  48        7.9387
  49        7.9387
  50        7.9387
  51        7.9426
  52        8.6793
  53        8.6801
  54        8.6801
  55        8.6801
  56        8.6801
  57        8.6809
  58        8.9576
  59        8.9576
  60        8.9592
  61        8.9614
  62        8.9616
  63        8.9616
  64        8.9616
  65        8.9616
  66        8.9617
  67        8.9639
  68        8.9655
  69        8.9655
  70       10.3919
  71       10.3928
  72       10.3935
 
  0.1666667E+00  0.0000000E+00  0.0000000E+00  0.9259259E-02
   1       -3.1662
   2       -1.6902
   3       -0.9580
   4       -0.9579
   5       -0.9579
   6       -0.9579
   7       -0.2297
   8        0.4960
   9        0.4960
  10        0.4960
  11        0.4960
  12        1.2175
  13        1.2175
  14        1.2175
  15        1.2175
  16        1.9351
  17        1.9351
  18        1.9351
  19        1.9351
  20        2.6498
  21        2.6498
  22        2.6498
  23        2.6498
  24        3.9968
  25        4.0784
  26        4.0784
  27        4.0784
  28        4.0784
  29        4.9196
  30        4.9196
  31        6.0808
  32        6.0808
  33        6.0808
  34        6.0808
  35        6.1845
  36        6.1845
  37        6.2834
  38        6.2834
  39        6.9666
  40        6.9666
  41        6.9666
  42        6.9666
  43        7.0979
  44        7.5660
  45        7.5660
  46        7.6504
  47        7.6504
  48        8.1718
  49        8.1718
  50        8.1718
  51        8.1718
  52        8.2764
  53        8.2764
  54        8.2764
  55        8.2764
  56        8.3342
  57        8.3342
  58        8.3342
  59        8.3342
  60        9.1594
  61        9.1594
  62        9.3355
  63        9.3355
  64        9.3355
  65        9.3355
  66        9.7033
  67        9.7034
  68        9.7034
  69        9.7036
  70        9.7610
  71        9.7610
  72        9.7610
 
  0.3333333E+00  0.0000000E+00  0.0000000E+00  0.9259259E-02
   1       -2.9808
   2       -2.2419
   3       -0.7755
   4       -0.7754
   5       -0.7754
   6       -0.7754
   7       -0.0476
   8       -0.0476
   9       -0.0476
  10       -0.0476
  11        0.6747
  12        1.3974
  13        1.3975
  14        1.3975
  15        1.3975
  16        2.1149
  17        2.1149
  18        2.1149
  19        2.1149
  20        2.8085
  21        2.8258
  22        2.8258
  23        2.8258
  24        2.8259
  25        4.9228
  26        4.9228
  27        4.9228
  28        4.9228
  29        4.9572
  30        4.9572
  31        4.9572
  32        4.9572
  33        5.0899
  34        5.0899
  35        5.7716
  36        5.7716
  37        6.3644
  38        6.3644
  39        7.0301
  40        7.0301
  41        7.0301
  42        7.0302
  43        7.0696
  44        7.0697
  45        7.1374
  46        7.1374
  47        7.1374
  48        7.1374
  49        7.8211
  50        7.8211
  51        7.8211
  52        7.8211
  53        8.5060
  54        8.5060
  55        8.5157
  56        8.5157
  57        8.5158
  58        8.5158
  59        8.6086
  60        9.2369
  61        9.2369
  62        9.2369
  63        9.2369
  64        9.9716
  65        9.9716
  66       10.5590
  67       10.5590
  68       10.5596
  69       10.5596
  70       10.5627
  71       10.5627
  72       10.7449
 
  0.5000000E+00  0.0000000E+00  0.0000000E+00  0.4629630E-02
   1       -2.6739
   2       -2.6711
   3       -0.4757
   4       -0.4726
   5       -0.4726
   6       -0.4718
   7       -0.4717
   8       -0.4708
   9       -0.4708
  10       -0.4678
  11        1.6881
  12        1.6905
  13        1.6953
  14        1.6956
  15        1.6956
  16        1.6964
  17        1.6974
  18        1.6981
  19        1.6981
  20        1.7005
  21        3.8243
  22        3.8244
  23        3.8244
  24        3.8251
  25        3.8254
  26        3.8261
  27        3.8261
  28        3.8262
  29        5.3723
  30        5.3723
  31        5.3753
  32        5.3753
  33        5.9439
  34        5.9439
  35        5.9444
  36        5.9447
  37        5.9452
  38        5.9455
  39        5.9460
  40        5.9460
  41        6.6596
  42        6.6606
  43        6.6624
  44        6.6634
  45        7.4199
  46        7.4199
  47        7.4208
  48        7.4221
  49        7.4223
  50        7.4236
  51        7.4245
  52        7.4245
  53        8.8207
  54        8.8217
  55        8.8217
  56        8.8219
  57        8.8239
  58        8.8241
  59        8.8241
  60        8.8251
  61        9.4755
  62        9.4755
  63        9.4778
  64        9.4778
  65       10.2629
  66       10.2643
  67       10.8907
  68       10.8912
  69       10.8925
  70       10.8930
  71       11.5288
  72       11.5297
 
  0.0000000E+00  0.1666667E+00  0.0000000E+00  0.1851852E-01
   1       -3.1662
   2       -1.6902
   3       -0.9606
   4       -0.9579
   5       -0.9579
   6       -0.9553
   7       -0.2297
   8        0.4933
   9        0.4960
  10        0.4960
  11        0.4987
  12        1.2154
  13        1.2164
  14        1.2187
  15        1.2197
  16        1.9324
  17        1.9351
  18        1.9351
  19        1.9378
  20        2.6477
  21        2.6486
  22        2.6510
  23        2.6519
  24        3.9968
  25        4.0763
  26        4.0772
  27        4.0796
  28        4.0806
  29        4.9196
  30        4.9196
  31        6.0779
  32        6.0808
  33        6.0808
  34        6.0837
  35        6.1845
  36        6.1845
  37        6.2834
  38        6.2835
  39        6.9639
  40        6.9666
  41        6.9666
  42        6.9692
  43        7.0979
  44        7.5659
  45        7.5660
  46        7.6504
  47        7.6504
  48        8.1693
  49        8.1707
  50        8.1730
  51        8.1743
  52        8.2740
  53        8.2764
  54        8.2764
  55        8.2787
  56        8.3315
  57        8.3342
  58        8.3342
  59        8.3368
  60        9.1594
  61        9.1594
  62        9.3337
  63        9.3355
  64        9.3355
  65        9.3373
  66        9.7007
  67        9.7034
  68        9.7034
  69        9.7061
  70        9.7589
  71        9.7610
  72        9.7630
 
  0.1666667E+00  0.1666667E+00  0.0000000E+00  0.3703704E-01
   1       -3.1043
   2       -1.6301
   3       -1.6280
   4       -0.8971
   5       -0.8971
   6       -0.1707
   7       -0.1689
   8       -0.1672
   9        0.5547
  10        0.5557
  11        0.5569
  12        0.5578
  13        1.2766
  14        1.2775
  15        1.9927
  16        1.9939
  17        1.9950
  18        1.9952
  19        1.9964
  20        1.9975
  21        2.7084
  22        3.3505
  23        3.3505
  24        3.4986
  25        3.4986
  26        4.0547
  27        4.0555
  28        4.8413
  29        4.8413
  30        4.9763
  31        5.4473
  32        5.4495
  33        6.0578
  34        6.0578
  35        6.2329
  36        6.2329
  37        6.2445
  38        6.3391
  39        6.3415
  40        6.8083
  41        6.8101
  42        7.1559
  43        7.1568
  44        7.5371
  45        7.5380
  46        7.5393
  47        7.5402
  48        7.7052
  49        7.7073
  50        7.7094
  51        7.7094
  52        7.7108
  53        8.4424
  54        8.4447
  55        8.9167
  56        8.9177
  57        8.9179
  58        8.9190
  59        9.0212
  60        9.0213
  61        9.0750
  62        9.0768
  63        9.1249
  64        9.2812
  65        9.2818
  66        9.5683
  67        9.5683
  68       10.0183
  69       10.0202
  70       10.4451
  71       10.5007
  72       10.5008
 
  0.3333333E+00  0.1666667E+00  0.0000000E+00  0.3703704E-01
   1       -2.9191
   2       -2.1805
   3       -1.4457
   4       -0.7160
   5       -0.7146
   6       -0.7132
   7        0.0113
   8        0.0129
   9        0.0141
  10        0.7337
  11        0.7364
  12        0.7370
  13        0.7381
  14        1.4577
  15        1.4577
  16        2.1718
  17        2.1737
  18        2.1739
  19        2.8676
  20        2.8841
  21        2.8846
  22        2.8866
  23        2.8874
  24        3.5941
  25        4.2299
  26        4.2807
  27        4.3126
  28        4.3126
  29        4.9275
  30        4.9789
  31        4.9789
  32        5.1467
  33        5.6747
  34        5.7174
  35        5.7174
  36        5.8285
  37        6.3286
  38        6.3287
  39        6.3919
  40        6.3920
  41        6.4234
  42        6.5110
  43        7.0196
  44        7.0196
  45        7.0959
  46        7.1942
  47        7.3309
  48        7.7642
  49        7.7815
  50        7.7816
  51        7.8784
  52        7.8888
  53        8.0114
  54        8.5612
  55        8.5644
  56        8.5985
  57        8.6655
  58        9.2081
  59        9.4198
  60        9.4198
  61        9.7655
  62        9.7749
  63        9.7750
  64        9.9322
  65        9.9788
  66       10.0384
  67       10.1422
  68       10.1422
  69       10.1773
  70       10.6193
  71       10.8140
  72       10.8202
 
  0.5000000E+00  0.1666667E+00  0.0000000E+00  0.1851852E-01
   1       -2.6123
   2       -2.6095
   3       -1.1420
   4       -1.1392
   5       -0.4130
   6       -0.4119
   7       -0.4102
   8       -0.4091
   9        0.3131
  10        0.3159
  11        1.0357
  12        1.0368
  13        1.0386
  14        1.0397
  15        1.7493
  16        1.7507
  17        2.4694
  18        2.4705
  19        2.4723
  20        2.4734
  21        3.1757
  22        3.1771
  23        3.8829
  24        3.8832
  25        3.8843
  26        3.8846
  27        4.5195
  28        4.5224
  29        4.5863
  30        4.5877
  31        5.3019
  32        5.3021
  33        5.3034
  34        5.3035
  35        5.4291
  36        5.4322
  37        6.6135
  38        6.6147
  39        6.6165
  40        6.6177
  41        6.7002
  42        6.7003
  43        6.7016
  44        6.7018
  45        6.7156
  46        6.7184
  47        6.7941
  48        6.7972
  49        7.6176
  50        7.6204
  51        8.1619
  52        8.1650
  53        8.1842
  54        8.1869
  55        8.6986
  56        8.7004
  57        9.5326
  58        9.5349
  59        9.5585
  60        9.5614
  61        9.7306
  62        9.7313
  63        9.7335
  64        9.7343
  65       10.3175
  66       10.3189
  67       10.7386
  68       10.7388
  69       10.7404
  70       10.7406
  71       10.9025
  72       10.9055
 
  0.0000000E+00  0.3333333E+00  0.0000000E+00  0.1851852E-01
   1       -2.9808
   2       -2.2419
   3       -0.7781
   4       -0.7754
   5       -0.7754
   6       -0.7728
   7       -0.0503
   8       -0.0476
   9       -0.0476
  10       -0.0449
  11        0.6747
  12        1.3953
  13        1.3963
  14        1.3986
  15        1.3996
  16        2.1128
  17        2.1138
  18        2.1161
  19        2.1171
  20        2.8085
  21        2.8231
  22        2.8258
  23        2.8259
  24        2.8286
  25        4.9200
  26        4.9228
  27        4.9228
  28        4.9256
  29        4.9550
  30        4.9560
  31        4.9584
  32        4.9594
  33        5.0899
  34        5.0899
  35        5.7716
  36        5.7716
  37        6.3643
  38        6.3644
  39        7.0278
  40        7.0290
  41        7.0314
  42        7.0324
  43        7.0696
  44        7.0697
  45        7.1348
  46        7.1374
  47        7.1375
  48        7.1400
  49        7.8185
  50        7.8211
  51        7.8211
  52        7.8237
  53        8.5058
  54        8.5060
  55        8.5136
  56        8.5157
  57        8.5158
  58        8.5179
  59        8.6086
  60        9.2348
  61        9.2369
  62        9.2369
  63        9.2390
  64        9.9716
  65        9.9716
  66       10.5568
  67       10.5596
  68       10.5596
  69       10.5618
  70       10.5622
  71       10.5627
  72       10.7435
 
  0.1666667E+00  0.3333333E+00  0.0000000E+00  0.3703704E-01
   1       -2.9191
   2       -2.1805
   3       -1.4457
   4       -0.7160
   5       -0.7146
   6       -0.7132
   7        0.0113
   8        0.0129
   9        0.0141
  10        0.7339
  11        0.7359
  12        0.7370
  13        0.7385
  14        1.4577
  15        1.4577
  16        2.1712
  17        2.1737
  18        2.1745
  19        2.8676
  20        2.8847
  21        2.8850
  22        2.8863
  23        2.8867
  24        3.5941
  25        4.2299
  26        4.2806
  27        4.3126
  28        4.3126
  29        4.9274
  30        4.9789
  31        4.9790
  32        5.1466
  33        5.6747
  34        5.7174
  35        5.7174
  36        5.8284
  37        6.3287
  38        6.3287
  39        6.3919
  40        6.3920
  41        6.4234
  42        6.5110
  43        7.0196
  44        7.0196
  45        7.0959
  46        7.1942
  47        7.3309
  48        7.7642
  49        7.7816
  50        7.7816
  51        7.8784
  52        7.8888
  53        8.0114
  54        8.5620
  55        8.5637
  56        8.5985
  57        8.6655
  58        9.2080
  59        9.4198
  60        9.4198
  61        9.7656
  62        9.7749
  63        9.7749
  64        9.9322
  65        9.9788
  66       10.0384
  67       10.1422
  68       10.1422
  69       10.1773
  70       10.6193
  71       10.8140
  72       10.8275
 
  0.3333333E+00  0.3333333E+00  0.0000000E+00  0.3703704E-01
   1       -2.7341
   2       -1.9975
   3       -1.9954
   4       -1.2626
   5       -0.5324
   6       -0.5324
   7        0.1927
   8        0.1937
   9        0.1949
  10        0.1958
  11        0.9138
  12        0.9159
  13        0.9176
  14        0.9184
  15        1.6342
  16        1.6352
  17        3.0445
  18        3.0455
  19        3.0612
  20        3.0621
  21        3.0633
  22        3.0643
  23        3.6940
  24        3.6940
  25        3.7514
  26        3.7536
  27        3.8601
  28        3.8601
  29        4.4734
  30        5.0604
  31        5.0604
  32        5.2659
  33        5.2660
  34        5.3170
  35        5.8671
  36        5.8681
  37        5.8693
  38        5.8703
  39        5.9978
  40        6.0002
  41        6.5126
  42        6.5143
  43        6.5892
  44        6.5893
  45        6.5976
  46        6.6817
  47        7.3894
  48        7.3905
  49        8.0710
  50        8.6394
  51        8.6425
  52        8.6435
  53        8.6436
  54        8.6448
  55        8.7330
  56        8.7355
  57        8.8342
  58        8.8353
  59        9.4178
  60        9.4197
  61        9.4380
  62        9.4402
  63       10.2778
  64       10.2784
  65       10.6773
  66       10.6773
  67       10.7086
  68       10.7086
  69       10.7897
  70       10.7917
  71       10.8113
  72       10.8116
 
  0.5000000E+00  0.3333333E+00  0.0000000E+00  0.1851852E-01
   1       -2.4277
   2       -2.4249
   3       -1.6917
   4       -1.6888
   5       -0.2312
   6       -0.2301
   7       -0.2283
   8       -0.2272
   9        0.4941
  10        0.4952
  11        0.4970
  12        0.4981
  13        1.2140
  14        1.2169
  15        1.9284
  16        1.9298
  17        2.6425
  18        2.6439
  19        3.3388
  20        3.3417
  21        3.3550
  22        3.3562
  23        3.3579
  24        3.3591
  25        4.0572
  26        4.0575
  27        4.0585
  28        4.0588
  29        4.7770
  30        4.7770
  31        4.7784
  32        4.7785
  33        5.4556
  34        5.4569
  35        5.4616
  36        5.4625
  37        5.4644
  38        5.4654
  39        5.5996
  40        5.6026
  41        6.2818
  42        6.2849
  43        6.8567
  44        6.8593
  45        7.5674
  46        7.5675
  47        7.5689
  48        7.5691
  49        7.6044
  50        7.6059
  51        7.6599
  52        7.6625
  53        9.0179
  54        9.0210
  55        9.1081
  56        9.1110
  57        9.6112
  58        9.6112
  59        9.6128
  60        9.6128
  61        9.7039
  62        9.7062
  63       10.3535
  64       10.3566
  65       10.3886
  66       10.3910
  67       10.4770
  68       10.4782
  69       11.0765
  70       11.0808
  71       11.1375
  72       11.1524
 
  0.0000000E+00  0.5000000E+00  0.0000000E+00  0.9259259E-02
   1       -2.6725
   2       -2.6725
   3       -0.4767
   4       -0.4722
   5       -0.4717
   6       -0.4717
   7       -0.4717
   8       -0.4717
   9       -0.4712
  10       -0.4668
  11        1.6890
  12        1.6901
  13        1.6941
  14        1.6949
  15        1.6964
  16        1.6965
  17        1.6972
  18        1.6975
  19        1.6989
  20        1.7010
  21        3.8222
  22        3.8227
  23        3.8252
  24        3.8252
  25        3.8252
  26        3.8252
  27        3.8278
  28        3.8282
  29        5.3738
  30        5.3738
  31        5.3738
  32        5.3739
  33        5.9420
  34        5.9434
  35        5.9436
  36        5.9439
  37        5.9460
  38        5.9463
  39        5.9465
  40        5.9478
  41        6.6614
  42        6.6615
  43        6.6615
  44        6.6615
  45        7.4174
  46        7.4218
  47        7.4222
  48        7.4222
  49        7.4222
  50        7.4223
  51        7.4227
  52        7.4271
  53        8.8190
  54        8.8224
  55        8.8229
  56        8.8229
  57        8.8229
  58        8.8229
  59        8.8234
  60        8.8267
  61        9.4767
  62        9.4767
  63        9.4767
  64        9.4767
  65       10.2636
  66       10.2636
  67       10.8918
  68       10.8918
  69       10.8918
  70       10.8919
  71       11.5295
  72       11.5299
 
  0.1666667E+00  0.5000000E+00  0.0000000E+00  0.1851852E-01
   1       -2.6109
   2       -2.6109
   3       -1.1406
   4       -1.1406
   5       -0.4111
   6       -0.4111
   7       -0.4111
   8       -0.4111
   9        0.3145
  10        0.3145
  11        1.0377
  12        1.0377
  13        1.0377
  14        1.0377
  15        1.7500
  16        1.7500
  17        2.4714
  18        2.4714
  19        2.4714
  20        2.4714
  21        3.1764
  22        3.1764
  23        3.8838
  24        3.8838
  25        3.8838
  26        3.8838
  27        4.5209
  28        4.5210
  29        4.5870
  30        4.5870
  31        5.3027
  32        5.3028
  33        5.3028
  34        5.3028
  35        5.4306
  36        5.4306
  37        6.6156
  38        6.6156
  39        6.6156
  40        6.6156
  41        6.7009
  42        6.7010
  43        6.7010
  44        6.7010
  45        6.7170
  46        6.7171
  47        6.7956
  48        6.7957
  49        7.6190
  50        7.6190
  51        8.1634
  52        8.1634
  53        8.1855
  54        8.1855
  55        8.6995
  56        8.6995
  57        9.5337
  58        9.5337
  59        9.5599
  60        9.5600
  61        9.7324
  62        9.7324
  63        9.7324
  64        9.7324
  65       10.3182
  66       10.3182
  67       10.7396
  68       10.7396
  69       10.7396
  70       10.7397
  71       10.9041
  72       10.9478
 
  0.3333333E+00  0.5000000E+00  0.0000000E+00  0.1851852E-01
   1       -2.4263
   2       -2.4263
   3       -1.6902
   4       -1.6902
   5       -0.2292
   6       -0.2292
   7       -0.2292
   8       -0.2292
   9        0.4961
  10        0.4961
  11        0.4961
  12        0.4961
  13        1.2155
  14        1.2155
  15        1.9291
  16        1.9291
  17        2.6432
  18        2.6432
  19        3.3402
  20        3.3402
  21        3.3570
  22        3.3570
  23        3.3570
  24        3.3571
  25        4.0580
  26        4.0580
  27        4.0580
  28        4.0580
  29        4.7777
  30        4.7777
  31        4.7777
  32        4.7777
  33        5.4563
  34        5.4563
  35        5.4634
  36        5.4635
  37        5.4635
  38        5.4635
  39        5.6011
  40        5.6011
  41        6.2834
  42        6.2834
  43        6.8580
  44        6.8580
  45        7.5682
  46        7.5682
  47        7.5682
  48        7.5682
  49        7.6052
  50        7.6052
  51        7.6612
  52        7.6612
  53        9.0194
  54        9.0194
  55        9.1096
  56        9.1096
  57        9.6120
  58        9.6120
  59        9.6120
  60        9.6120
  61        9.7050
  62        9.7050
  63       10.3551
  64       10.3551
  65       10.3898
  66       10.3898
  67       10.4776
  68       10.4776
  69       11.0770
  70       11.0786
  71       11.1378
  72       11.1678
 
  0.5000000E+00  0.5000000E+00  0.0000000E+00  0.9259259E-02
   1       -2.1217
   2       -2.1195
   3       -2.1188
   4       -2.1167
   5        0.0699
   6        0.0720
   7        0.0730
   8        0.0731
   9        0.0737
  10        0.0739
  11        0.0749
  12        0.0769
  13        2.2233
  14        2.2251
  15        2.2267
  16        2.2270
  17        2.2271
  18        2.2274
  19        2.2290
  20        2.2308
  21        4.2626
  22        4.2642
  23        4.2649
  24        4.2653
  25        4.2654
  26        4.2658
  27        4.2665
  28        4.2680
  29        4.4531
  30        4.4532
  31        4.4541
  32        4.4549
  33        4.4550
  34        4.4558
  35        4.4568
  36        4.4568
  37        5.8826
  38        5.8849
  39        5.8856
  40        5.8880
  41        6.4058
  42        6.4068
  43        6.4076
  44        6.4086
  45        7.2747
  46        7.2758
  47        7.2770
  48        7.2781
  49        8.5401
  50        8.5411
  51        8.5412
  52        8.5416
  53        8.5424
  54        8.5428
  55        8.5429
  56        8.5438
  57        9.9850
  58        9.9887
  59        9.9901
  60        9.9904
  61        9.9904
  62        9.9907
  63        9.9921
  64        9.9958
  65       10.6926
  66       10.6941
  67       10.6955
  68       10.6958
  69       10.6961
  70       10.6963
  71       10.6978
  72       10.6992
 
  0.0000000E+00  0.1666667E+00  0.1666667E+00  0.1851852E-01
   1       -3.1043
   2       -1.6291
   3       -1.6290
   4       -0.8987
   5       -0.8954
   6       -0.1691
   7       -0.1691
   8       -0.1685
   9        0.5536
  10        0.5556
  11        0.5569
  12        0.5589
  13        1.2770
  14        1.2771
  15        1.9920
  16        1.9941
  17        1.9943
  18        1.9954
  19        1.9969
  20        1.9980
  21        2.7084
  22        3.3505
  23        3.3505
  24        3.4986
  25        3.4986
  26        4.0551
  27        4.0551
  28        4.8396
  29        4.8430
  30        4.9764
  31        5.4484
  32        5.4484
  33        6.0578
  34        6.0578
  35        6.2329
  36        6.2329
  37        6.2444
  38        6.3403
  39        6.3404
  40        6.8092
  41        6.8092
  42        7.1563
  43        7.1563
  44        7.5358
  45        7.5379
  46        7.5394
  47        7.5415
  48        7.7063
  49        7.7071
  50        7.7074
  51        7.7102
  52        7.7112
  53        8.4435
  54        8.4435
  55        8.9156
  56        8.9164
  57        8.9193
  58        8.9200
  59        9.0212
  60        9.0212
  61        9.0758
  62        9.0759
  63        9.1250
  64        9.2815
  65        9.2815
  66        9.5683
  67        9.5683
  68       10.0192
  69       10.0193
  70       10.4451
  71       10.5007
  72       10.5007
 
  0.1666667E+00  0.1666667E+00  0.1666667E+00  0.3703704E-01
   1       -3.0426
   2       -1.5694
   3       -1.5679
   4       -1.5664
   5       -0.1116
   6       -0.1088
   7       -0.1085
   8       -0.1080
   9       -0.1077
  10       -0.1050
  11        1.3340
  12        1.3360
  13        1.3368
  14        1.3370
  15        1.3379
  16        1.3380
  17        1.3404
  18        2.7654
  19        2.7669
  20        2.7675
  21        2.7681
  22        2.7687
  23        2.7702
  24        4.1128
  25        4.1134
  26        4.1140
  27        4.1953
  28        4.1960
  29        4.1967
  30        5.5017
  31        5.5032
  32        5.5044
  33        5.5044
  34        5.5056
  35        5.5071
  36        5.6022
  37        6.8941
  38        6.8945
  39        6.8959
  40        6.8960
  41        6.8971
  42        6.8976
  43        6.9032
  44        6.9048
  45        6.9063
  46        7.2138
  47        7.2144
  48        7.2151
  49        8.2841
  50        8.2849
  51        8.2860
  52        8.2860
  53        8.2870
  54        8.2879
  55        8.6084
  56        8.6092
  57        8.6102
  58        8.6102
  59        8.6113
  60        8.6120
  61        9.6612
  62        9.6621
  63        9.6630
  64       10.0313
  65       10.0320
  66       10.0329
  67       10.0878
  68       10.0891
  69       10.0898
  70       10.0898
  71       10.0906
  72       10.0918
 
  0.3333333E+00  0.1666667E+00  0.1666667E+00  0.3703704E-01
   1       -2.8574
   2       -2.1191
   3       -1.3846
   4       -1.3846
   5       -0.6538
   6       -0.6537
   7        0.0729
   8        0.0729
   9        0.0735
  10        0.7938
  11        0.7966
  12        0.7971
  13        0.7982
  14        1.5168
  15        1.5168
  16        2.2308
  17        2.2313
  18        2.2339
  19        2.2345
  20        2.9268
  21        2.9456
  22        3.5795
  23        3.6528
  24        3.6528
  25        3.7399
  26        4.2881
  27        4.2881
  28        4.3389
  29        4.3389
  30        4.9851
  31        4.9851
  32        5.0739
  33        5.0740
  34        5.6133
  35        5.6133
  36        5.7525
  37        5.8138
  38        5.8138
  39        6.3851
  40        6.3851
  41        6.4748
  42        7.0739
  43        7.0739
  44        7.1452
  45        7.1452
  46        7.3875
  47        7.3875
  48        7.7072
  49        7.7072
  50        7.7677
  51        7.7677
  52        8.1576
  53        8.1576
  54        8.5305
  55        8.7214
  56        8.8092
  57        8.8092
  58        9.1446
  59        9.1446
  60        9.5132
  61        9.5132
  62        9.8243
  63        9.8243
  64        9.9217
  65        9.9217
  66       10.4290
  67       10.4290
  68       10.5170
  69       10.5170
  70       10.8741
  71       10.8769
  72       10.9064
 
  0.5000000E+00  0.1666667E+00  0.1666667E+00  0.1851852E-01
   1       -2.5508
   2       -2.5479
   3       -1.0821
   4       -1.0801
   5       -1.0792
   6       -1.0773
   7        0.3722
   8        0.3744
   9        0.3744
  10        0.3753
  11        0.3765
  12        0.3778
  13        1.8083
  14        1.8100
  15        1.8147
  16        1.8149
  17        1.8172
  18        1.8181
  19        3.2345
  20        3.2350
  21        3.2360
  22        3.2362
  23        3.2390
  24        3.2418
  25        4.5773
  26        4.5776
  27        4.5803
  28        4.5806
  29        4.6425
  30        4.6429
  31        4.6439
  32        4.6442
  33        4.6597
  34        4.6611
  35        5.9806
  36        5.9825
  37        5.9835
  38        5.9854
  39        6.0598
  40        6.0604
  41        6.0612
  42        6.0619
  43        7.3618
  44        7.3625
  45        7.3648
  46        7.3655
  47        7.4537
  48        7.4552
  49        7.6652
  50        7.6658
  51        7.6680
  52        7.6687
  53        8.7636
  54        8.7641
  55        8.7654
  56        8.7659
  57        9.1039
  58        9.1046
  59        9.1067
  60        9.1075
  61       10.1099
  62       10.1107
  63       10.1118
  64       10.1125
  65       10.3672
  66       10.3684
  67       10.4496
  68       10.4517
  69       10.4527
  70       10.4548
  71       11.4327
  72       11.4490
 
  0.0000000E+00  0.3333333E+00  0.1666667E+00  0.3703704E-01
   1       -2.9191
   2       -2.1805
   3       -1.4457
   4       -0.7168
   5       -0.7146
   6       -0.7125
   7        0.0107
   8        0.0126
   9        0.0150
  10        0.7339
  11        0.7358
  12        0.7365
  13        0.7390
  14        1.4561
  15        1.4594
  16        2.1715
  17        2.1725
  18        2.1754
  19        2.8676
  20        2.8834
  21        2.8847
  22        2.8867
  23        2.8880
  24        3.5941
  25        4.2299
  26        4.2806
  27        4.3109
  28        4.3143
  29        4.9275
  30        4.9772
  31        4.9806
  32        5.1467
  33        5.6747
  34        5.7157
  35        5.7191
  36        5.8285
  37        6.3269
  38        6.3304
  39        6.3902
  40        6.3937
  41        6.4233
  42        6.5111
  43        7.0178
  44        7.0214
  45        7.0959
  46        7.1942
  47        7.3309
  48        7.7642
  49        7.7798
  50        7.7833
  51        7.8783
  52        7.8889
  53        8.0114
  54        8.5625
  55        8.5631
  56        8.5985
  57        8.6655
  58        9.2080
  59        9.4184