<?xml version="1.0" encoding="ISO-8859-1"?>
<modeling>
 <generator>
  <i name="program" type="string">vasp</i>
  <i name="version" type="string">4.6.28 </i>
  <i name="subversion" type="string">25Jul05 complex  parallel</i>
  <i name="platform" type="string">LinuxIFC</i>
  <i name="date" type="string">2016 10 19</i>
  <i name="time" type="string">17:32:55</i>
 </generator>
 <incar>
  <i type="string" name="PREC">accurate</i>
  <i type="int" name="IALGO">    38</i>
  <i name="EDIFF">      0.00000001</i>
  <i type="int" name="IBRION">    -1</i>
  <i name="ENCUT">    500.00000000</i>
  <i type="logical" name="LREAL"> F  </i>
  <i type="int" name="ISMEAR">     0</i>
  <i name="SIGMA">      0.01000000</i>
  <i type="logical" name="LWAVE"> F  </i>
  <i type="logical" name="LCHARG"> F  </i>
 </incar>
 <kpoints>
  <generation param="Auto">
   <i name="subdivisionlength">     50.00000000</i>
   <v type="int" name="divisions">       6       6       6</v>
   <v name="usershift">      0.00000000      0.00000000      0.00000000</v>
   <v name="genvec1">      0.16666667      0.00000000      0.00000000</v>
   <v name="genvec2">      0.00000000      0.16666667      0.00000000</v>
   <v name="genvec3">      0.00000000      0.00000000      0.16666667</v>
   <v name="shift">      0.00000000      0.00000000      0.00000000</v>
  </generation>
  <varray name="kpointlist" >
   <v>       0.00000000      0.00000000      0.00000000</v>
   <v>       0.16666667      0.00000000      0.00000000</v>
   <v>       0.33333333      0.00000000      0.00000000</v>
   <v>       0.50000000      0.00000000      0.00000000</v>
   <v>       0.00000000      0.16666667      0.00000000</v>
   <v>       0.16666667      0.16666667      0.00000000</v>
   <v>       0.33333333      0.16666667      0.00000000</v>
   <v>       0.50000000      0.16666667      0.00000000</v>
   <v>       0.00000000      0.33333333      0.00000000</v>
   <v>       0.16666667      0.33333333      0.00000000</v>
   <v>       0.33333333      0.33333333      0.00000000</v>
   <v>       0.50000000      0.33333333      0.00000000</v>
   <v>       0.00000000      0.50000000      0.00000000</v>
   <v>       0.16666667      0.50000000      0.00000000</v>
   <v>       0.33333333      0.50000000      0.00000000</v>
   <v>       0.50000000      0.50000000      0.00000000</v>
   <v>       0.00000000      0.16666667      0.16666667</v>
   <v>       0.16666667      0.16666667      0.16666667</v>
   <v>       0.33333333      0.16666667      0.16666667</v>
   <v>       0.50000000      0.16666667      0.16666667</v>
   <v>       0.00000000      0.33333333      0.16666667</v>
   <v>       0.16666667      0.33333333      0.16666667</v>
   <v>       0.33333333      0.33333333      0.16666667</v>
   <v>       0.50000000      0.33333333      0.16666667</v>
   <v>       0.00000000      0.50000000      0.16666667</v>
   <v>       0.16666667      0.50000000      0.16666667</v>
   <v>       0.33333333      0.50000000      0.16666667</v>
   <v>       0.50000000      0.50000000      0.16666667</v>
   <v>       0.00000000      0.33333333      0.33333333</v>
   <v>       0.16666667      0.33333333      0.33333333</v>
   <v>       0.33333333      0.33333333      0.33333333</v>
   <v>       0.50000000      0.33333333      0.33333333</v>
   <v>       0.00000000      0.50000000      0.33333333</v>
   <v>       0.16666667      0.50000000      0.33333333</v>
   <v>       0.33333333      0.50000000      0.33333333</v>
   <v>       0.50000000      0.50000000      0.33333333</v>
   <v>       0.00000000      0.50000000      0.50000000</v>
   <v>       0.16666667      0.50000000      0.50000000</v>
   <v>       0.33333333      0.50000000      0.50000000</v>
   <v>       0.50000000      0.50000000      0.50000000</v>
  </varray>
  <varray name="weights" >
   <v>       0.00462963</v>
   <v>       0.00925926</v>
   <v>       0.00925926</v>
   <v>       0.00462963</v>
   <v>       0.01851852</v>
   <v>       0.03703704</v>
   <v>       0.03703704</v>
   <v>       0.01851852</v>
   <v>       0.01851852</v>
   <v>       0.03703704</v>
   <v>       0.03703704</v>
   <v>       0.01851852</v>
   <v>       0.00925926</v>
   <v>       0.01851852</v>
   <v>       0.01851852</v>
   <v>       0.00925926</v>
   <v>       0.01851852</v>
   <v>       0.03703704</v>
   <v>       0.03703704</v>
   <v>       0.01851852</v>
   <v>       0.03703704</v>
   <v>       0.07407407</v>
   <v>       0.07407407</v>
   <v>       0.03703704</v>
   <v>       0.01851852</v>
   <v>       0.03703704</v>
   <v>       0.03703704</v>
   <v>       0.01851852</v>
   <v>       0.01851852</v>
   <v>       0.03703704</v>
   <v>       0.03703704</v>
   <v>       0.01851852</v>
   <v>       0.01851852</v>
   <v>       0.03703704</v>
   <v>       0.03703704</v>
   <v>       0.01851852</v>
   <v>       0.00462963</v>
   <v>       0.00925926</v>
   <v>       0.00925926</v>
   <v>       0.00462963</v>
  </varray>
 </kpoints>
 <parameters>
  <separator name="general" >
   <i type="string" name="SYSTEM">unknown system</i>
   <i type="logical" name="LCOMPAT"> F  </i>
  </separator>
  <separator name="electronic" >
   <i type="string" name="PREC">accura</i>
   <i name="ENMAX">    500.00000000</i>
   <i name="ENAUG">    291.05200000</i>
   <i name="EDIFF">      0.00000001</i>
   <i type="int" name="IALGO">    38</i>
   <i type="int" name="IWAVPR">    10</i>
   <i type="int" name="NBANDS">    65</i>
   <i name="NELECT">     96.00000000</i>
   <separator name="electronic smearing" >
    <i type="int" name="ISMEAR">     0</i>
    <i name="SIGMA">      0.01000000</i>
   </separator>
   <separator name="electronic projectors" >
    <i type="logical" name="LREAL"> F  </i>
    <v name="ROPT">      0.00000000</v>
    <i type="int" name="LMAXPAW">  -100</i>
    <i type="int" name="LMAXMIX">     2</i>
   </separator>
   <separator name="electronic startup" >
    <i type="int" name="ISTART">     0</i>
    <i type="int" name="ICHARG">     2</i>
    <i type="int" name="INIWAV">     1</i>
   </separator>
   <separator name="electronic spin" >
    <i type="int" name="ISPIN">     1</i>
    <i type="logical" name="LNONCOLLINEAR"> F  </i>
    <v name="MAGMOM">      1.00000000      1.00000000      1.00000000      1.00000000      1.00000000      1.00000000      1.00000000      1.00000000      1.00000000      1.00000000      1.00000000      1.00000000      1.00000000      1.00000000      1.00000000      1.00000000      1.00000000      1.00000000      1.00000000      1.00000000
      1.00000000      1.00000000      1.00000000      1.00000000      1.00000000      1.00000000      1.00000000      1.00000000      1.00000000      1.00000000      1.00000000      1.00000000</v>
    <i name="NUPDOWN">     -1.00000000</i>
    <i type="logical" name="LSORBIT"> F  </i>
    <v name="SAXIS">      0.00000000      0.00000000      1.00000000</v>
    <i type="logical" name="LSPIRAL"> F  </i>
    <v name="QSPIRAL">      0.00000000      0.00000000      0.00000000</v>
    <i type="logical" name="LZEROZ"> F  </i>
   </separator>
   <separator name="electronic exchange-correlation" >
    <i type="string" name="GGA">--</i>
    <i type="int" name="VOSKOWN">     0</i>
    <i type="logical" name="LASPH"> F  </i>
    <i type="logical" name="LMETAGGA"> F  </i>
    <i type="string" name="GGA2">--</i>
   </separator>
   <separator name="electronic convergence" >
    <i type="int" name="NELM">    60</i>
    <i type="int" name="NELMDL">     0</i>
    <i type="int" name="NELMIN">     2</i>
    <i name="ENINI">    500.00000000</i>
    <separator name="electronic convergence detail" >
     <i type="logical" name="LDIAG"> T  </i>
     <i name="WEIMIN">      0.00000000</i>
     <i name="EBREAK">      0.00000000</i>
     <i name="DEPER">      0.30000000</i>
     <i type="int" name="NRMM">     4</i>
     <i name="TIME">      0.10000000</i>
    </separator>
   </separator>
   <separator name="electronic mixer" >
    <i name="AMIX">      0.40000000</i>
    <i name="BMIX">      1.00000000</i>
    <i name="AMIN">      0.10000000</i>
    <i name="AMIX_MAG">      1.60000000</i>
    <i name="BMIX_MAG">      1.00000000</i>
    <separator name="electronic mixer details" >
     <i type="int" name="IMIX">     4</i>
     <i type="int" name="MAXMIX">   -45</i>
     <i name="WC">    100.00000000</i>
     <i type="int" name="INIMIX">     1</i>
     <i type="int" name="MIXPRE">     1</i>
     <i type="int" name="MREMOVE">     5</i>
    </separator>
   </separator>
   <separator name="electronic dipolcorrection" >
    <i type="int" name="IDIPOL">     0</i>
    <i type="logical" name="LDIPOL"> F  </i>
    <v name="DIPOL">   -100.00000000</v>
    <i name="EFIELD">      0.00000000</i>
   </separator>
  </separator>
  <separator name="grids" >
   <i type="int" name="NGX">    60</i>
   <i type="int" name="NGY">    60</i>
   <i type="int" name="NGZ">    60</i>
   <i type="int" name="NGXF">   120</i>
   <i type="int" name="NGYF">   120</i>
   <i type="int" name="NGZF">   120</i>
   <i type="logical" name="ADDGRID"> F  </i>
  </separator>
  <separator name="ionic" >
   <i type="int" name="NSW">     0</i>
   <i type="int" name="IBRION">    -1</i>
   <i type="int" name="ISIF">     2</i>
   <i name="PSTRESS">      0.00000000</i>
   <i name="EDIFFG">      0.00000010</i>
   <i type="int" name="NFREE">     0</i>
   <i name="POTIM">      0.50000000</i>
   <i name="SMASS">     -3.00000000</i>
  </separator>
  <separator name="ionic md" >
   <i name="TEBEG">      0.00010000</i>
   <i name="TEEND">      0.00010000</i>
   <i type="int" name="NBLOCK">     1</i>
   <i type="int" name="KBLOCK">     1</i>
   <i type="int" name="NPACO">   256</i>
   <i name="APACO">     16.00000000</i>
  </separator>
  <separator name="symmetry" >
   <i type="int" name="ISYM">     2</i>
   <i name="SYMPREC">      0.00001000</i>
  </separator>
  <separator name="dos" >
   <i type="logical" name="LORBIT"> F  </i>
   <v name="RWIGS">     -1.00000000</v>
   <i type="int" name="NEDOS">   301</i>
   <i name="EMIN">     10.00000000</i>
   <i name="EMAX">    -10.00000000</i>
  </separator>
  <separator name="writing" >
   <i type="int" name="NWRITE">     2</i>
   <i type="logical" name="LWAVE"> F  </i>
   <i type="logical" name="LCHARG"> F  </i>
   <i type="logical" name="LPARD"> F  </i>
   <i type="logical" name="LVTOT"> F  </i>
   <i type="logical" name="LELF"> F  </i>
   <i type="logical" name="LOPTICS"> F  </i>
   <i name="STM">      0.00000000</i>
  </separator>
  <separator name="performance" >
   <i type="int" name="NPAR">     8</i>
   <i type="int" name="NSIM">     4</i>
   <i type="int" name="NBLK">   256</i>
   <i type="logical" name="LPLANE"> T  </i>
   <i type="logical" name="LCRITICAL_MEM"> F  </i>
   <i type="logical" name="LSCALAPACK"> F  </i>
   <i type="logical" name="LSCALU"> F  </i>
   <i type="logical" name="LASYNC"> F  </i>
  </separator>
  <separator name="miscellaneous" >
   <i type="int" name="IDIOT">     3</i>
   <i type="logical" name="LMUSIC"> F  </i>
   <v name="POMASS">     26.98200000</v>
   <i type="logical" name="LCORR"> T  </i>
  </separator>
  <i type="logical" name="LREAL_COMPAT"> F  </i>
  <i type="logical" name="GGA_COMPAT"> T  </i>
  <i type="logical" name="LBERRY"> F  </i>
  <i type="int" name="ICORELEVEL">     0</i>
  <i type="logical" name="LDAU"> F  </i>
  <i type="int" name="I_CONSTRAINED_M">     0</i>
 </parameters>
 <atominfo>
  <atoms>      32</atoms>
  <types>       1</types>
  <array name="atoms" >
   <dimension dim="1">ion</dimension>
   <field type="string">element</field>
   <field type="int">atomtype</field>
   <set>
    <rc><c>Al</c><c>   1</c></rc>
    <rc><c>Al</c><c>   1</c></rc>
    <rc><c>Al</c><c>   1</c></rc>
    <rc><c>Al</c><c>   1</c></rc>
    <rc><c>Al</c><c>   1</c></rc>
    <rc><c>Al</c><c>   1</c></rc>
    <rc><c>Al</c><c>   1</c></rc>
    <rc><c>Al</c><c>   1</c></rc>
    <rc><c>Al</c><c>   1</c></rc>
    <rc><c>Al</c><c>   1</c></rc>
    <rc><c>Al</c><c>   1</c></rc>
    <rc><c>Al</c><c>   1</c></rc>
    <rc><c>Al</c><c>   1</c></rc>
    <rc><c>Al</c><c>   1</c></rc>
    <rc><c>Al</c><c>   1</c></rc>
    <rc><c>Al</c><c>   1</c></rc>
    <rc><c>Al</c><c>   1</c></rc>
    <rc><c>Al</c><c>   1</c></rc>
    <rc><c>Al</c><c>   1</c></rc>
    <rc><c>Al</c><c>   1</c></rc>
    <rc><c>Al</c><c>   1</c></rc>
    <rc><c>Al</c><c>   1</c></rc>
    <rc><c>Al</c><c>   1</c></rc>
    <rc><c>Al</c><c>   1</c></rc>
    <rc><c>Al</c><c>   1</c></rc>
    <rc><c>Al</c><c>   1</c></rc>
    <rc><c>Al</c><c>   1</c></rc>
    <rc><c>Al</c><c>   1</c></rc>
    <rc><c>Al</c><c>   1</c></rc>
    <rc><c>Al</c><c>   1</c></rc>
    <rc><c>Al</c><c>   1</c></rc>
    <rc><c>Al</c><c>   1</c></rc>
   </set>
  </array>
  <array name="atomtypes" >
   <dimension dim="1">type</dimension>
   <field type="int">atomspertype</field>
   <field type="string">element</field>
   <field>mass</field>
   <field>valence</field>
   <field type="string">pseudopotential</field>
   <set>
    <rc><c>  32</c><c>Al</c><c>     26.98200000</c><c>      3.00000000</c><c> PAW_PBE Al 04Jan2001                   </c></rc>
   </set>
  </array>
 </atominfo>
 <structure name="initialpos" >
  <crystal>
   <varray name="basis" >
    <v>       8.15535887      0.00000000      0.00000000</v>
    <v>       0.00000000      8.15535887      0.00000000</v>
    <v>       0.00000000      0.00000000      8.15535887</v>
   </varray>
   <i name="volume">    542.41192527</i>
   <varray name="rec_basis" >
    <v>       0.12261876      0.00000000      0.00000000</v>
    <v>       0.00000000      0.12261876      0.00000000</v>
    <v>       0.00000000      0.00000000      0.12261876</v>
   </varray>
  </crystal>
  <varray name="positions" >
   <v>       0.25122619      0.25000000      0.00000000</v>
   <v>       0.75000000      0.25000000      0.00000000</v>
   <v>       0.25000000      0.75000000      0.00000000</v>
   <v>       0.75000000      0.75000000      0.00000000</v>
   <v>       0.25000000      0.25000000      0.50000000</v>
   <v>       0.75000000      0.25000000      0.50000000</v>
   <v>       0.25000000      0.75000000      0.50000000</v>
   <v>       0.75000000      0.75000000      0.50000000</v>
   <v>       0.25000000      0.00000000      0.25000000</v>
   <v>       0.75000000      0.00000000      0.25000000</v>
   <v>       0.25000000      0.50000000      0.25000000</v>
   <v>       0.75000000      0.50000000      0.25000000</v>
   <v>       0.25000000      0.00000000      0.75000000</v>
   <v>       0.75000000      0.00000000      0.75000000</v>
   <v>       0.25000000      0.50000000      0.75000000</v>
   <v>       0.75000000      0.50000000      0.75000000</v>
   <v>       0.00000000      0.25000000      0.25000000</v>
   <v>       0.50000000      0.25000000      0.25000000</v>
   <v>       0.00000000      0.75000000      0.25000000</v>
   <v>       0.50000000      0.75000000      0.25000000</v>
   <v>       0.00000000      0.25000000      0.75000000</v>
   <v>       0.50000000      0.25000000      0.75000000</v>
   <v>       0.00000000      0.75000000      0.75000000</v>
   <v>       0.50000000      0.75000000      0.75000000</v>
   <v>       0.00000000      0.00000000      0.00000000</v>
   <v>       0.50000000      0.00000000      0.00000000</v>
   <v>       0.00000000      0.50000000      0.00000000</v>
   <v>       0.50000000      0.50000000      0.00000000</v>
   <v>       0.00000000      0.00000000      0.50000000</v>
   <v>       0.50000000      0.00000000      0.50000000</v>
   <v>       0.00000000      0.50000000      0.50000000</v>
   <v>       0.50000000      0.50000000      0.50000000</v>
  </varray>
 </structure>
 <calculation>
  <scstep>
   <time name="dav">   19.88   19.92</time>
   <time name="total">   20.02   20.07</time>
   <energy>
    <i name="alphaZ">     -6.34098059</i>
    <i name="ewald">  -2331.47907581</i>
    <i name="hartreedc">     -3.59168532</i>
    <i name="XCdc">   -841.21531088</i>
    <i name="pawpsdc">   1137.73615723</i>
    <i name="pawaedc">   -115.16745734</i>
    <i name="eentropy">     -0.00074894</i>
    <i name="bandstr">    560.55354402</i>
    <i name="atom">   1713.22913220</i>
    <i name="e_fr_energy">    113.72357458</i>
    <i name="e_wo_entrp">    113.72432352</i>
    <i name="e_0_energy">    113.72394905</i>
   </energy>
  </scstep>
  <scstep>
   <time name="dav">   22.24   22.28</time>
   <time name="total">   22.24   22.28</time>
   <energy>
    <i name="e_fr_energy">   -107.61563961</i>
    <i name="e_wo_entrp">   -107.61482686</i>
    <i name="e_0_energy">   -107.61523323</i>
   </energy>
  </scstep>
  <scstep>
   <time name="dav">   23.36   23.40</time>
   <time name="total">   23.36   23.40</time>
   <energy>
    <i name="e_fr_energy">   -120.13175644</i>
    <i name="e_wo_entrp">   -120.13051226</i>
    <i name="e_0_energy">   -120.13113435</i>
   </energy>
  </scstep>
  <scstep>
   <time name="dav">   22.16   22.19</time>
   <time name="total">   22.16   22.20</time>
   <energy>
    <i name="e_fr_energy">   -120.37195346</i>
    <i name="e_wo_entrp">   -120.37042133</i>
    <i name="e_0_energy">   -120.37118739</i>
   </energy>
  </scstep>
  <scstep>
   <time name="dav">   22.31   22.37</time>
   <time name="total">   23.63   23.69</time>
   <energy>
    <i name="e_fr_energy">   -120.37490599</i>
    <i name="e_wo_entrp">   -120.37336244</i>
    <i name="e_0_energy">   -120.37413421</i>
   </energy>
  </scstep>
  <scstep>
   <time name="dav">   21.75   21.79</time>
   <time name="total">   23.20   23.24</time>
   <energy>
    <i name="e_fr_energy">   -119.95947293</i>
    <i name="e_wo_entrp">   -119.95741982</i>
    <i name="e_0_energy">   -119.95844637</i>
   </energy>
  </scstep>
  <scstep>
   <time name="dav">   21.21   21.25</time>
   <time name="total">   22.64   22.69</time>
   <energy>
    <i name="e_fr_energy">   -119.65829035</i>
    <i name="e_wo_entrp">   -119.65555806</i>
    <i name="e_0_energy">   -119.65692421</i>
   </energy>
  </scstep>
  <scstep>
   <time name="dav">   22.29   22.33</time>
   <time name="total">   23.74   23.79</time>
   <energy>
    <i name="e_fr_energy">   -119.65836788</i>
    <i name="e_wo_entrp">   -119.65563346</i>
    <i name="e_0_energy">   -119.65700067</i>
   </energy>
  </scstep>
  <scstep>
   <time name="dav">   22.02   22.08</time>
   <time name="total">   23.46   23.53</time>
   <energy>
    <i name="e_fr_energy">   -119.65838295</i>
    <i name="e_wo_entrp">   -119.65564262</i>
    <i name="e_0_energy">   -119.65701279</i>
   </energy>
  </scstep>
  <scstep>
   <time name="dav">   22.22   22.27</time>
   <time name="total">   23.69   23.75</time>
   <energy>
    <i name="e_fr_energy">   -119.65838332</i>
    <i name="e_wo_entrp">   -119.65564234</i>
    <i name="e_0_energy">   -119.65701283</i>
   </energy>
  </scstep>
  <scstep>
   <time name="dav">   22.12   22.16</time>
   <time name="total">   23.59   23.64</time>
   <energy>
    <i name="e_fr_energy">   -119.65838046</i>
    <i name="e_wo_entrp">   -119.65563921</i>
    <i name="e_0_energy">   -119.65700983</i>
   </energy>
  </scstep>
  <scstep>
   <time name="dav">   17.67   17.71</time>
   <time name="total">   19.10   19.15</time>
   <energy>
    <i name="e_fr_energy">   -119.65837962</i>
    <i name="e_wo_entrp">   -119.65563831</i>
    <i name="e_0_energy">   -119.65700897</i>
   </energy>
  </scstep>
  <scstep>
   <time name="dav">   15.01   15.04</time>
   <time name="total">   16.45   16.49</time>
   <energy>
    <i name="e_fr_energy">   -119.65837935</i>
    <i name="e_wo_entrp">   -119.65563807</i>
    <i name="e_0_energy">   -119.65700871</i>
   </energy>
  </scstep>
  <scstep>
   <time name="dav">   14.86   14.89</time>
   <time name="total">   15.00   15.03</time>
   <energy>
    <i name="alphaZ">     -6.34098059</i>
    <i name="ewald">  -2331.47907581</i>
    <i name="hartreedc">     -3.18834874</i>
    <i name="XCdc">   -837.91783866</i>
    <i name="pawpsdc">   1138.76937887</i>
    <i name="pawaedc">   -116.46706155</i>
    <i name="eentropy">     -0.00274128</i>
    <i name="bandstr">    323.73915620</i>
    <i name="atom">   1713.22913220</i>
    <i name="e_fr_energy">   -119.65837934</i>
    <i name="e_wo_entrp">   -119.65563807</i>
    <i name="e_0_energy">   -119.65700871</i>
   </energy>
  </scstep>
  <structure>
   <crystal>
    <varray name="basis" >
     <v>       8.15535887      0.00000000      0.00000000</v>
     <v>       0.00000000      8.15535887      0.00000000</v>
     <v>       0.00000000      0.00000000      8.15535887</v>
    </varray>
    <i name="volume">    542.41192527</i>
    <varray name="rec_basis" >
     <v>       0.12261876      0.00000000      0.00000000</v>
     <v>       0.00000000      0.12261876      0.00000000</v>
     <v>       0.00000000      0.00000000      0.12261876</v>
    </varray>
   </crystal>
   <varray name="positions" >
    <v>       0.25122619      0.25000000      0.00000000</v>
    <v>       0.75000000      0.25000000      0.00000000</v>
    <v>       0.25000000      0.75000000      0.00000000</v>
    <v>       0.75000000      0.75000000      0.00000000</v>
    <v>       0.25000000      0.25000000      0.50000000</v>
    <v>       0.75000000      0.25000000      0.50000000</v>
    <v>       0.25000000      0.75000000      0.50000000</v>
    <v>       0.75000000      0.75000000      0.50000000</v>
    <v>       0.25000000      0.00000000      0.25000000</v>
    <v>       0.75000000      0.00000000      0.25000000</v>
    <v>       0.25000000      0.50000000      0.25000000</v>
    <v>       0.75000000      0.50000000      0.25000000</v>
    <v>       0.25000000      0.00000000      0.75000000</v>
    <v>       0.75000000      0.00000000      0.75000000</v>
    <v>       0.25000000      0.50000000      0.75000000</v>
    <v>       0.75000000      0.50000000      0.75000000</v>
    <v>       0.00000000      0.25000000      0.25000000</v>
    <v>       0.50000000      0.25000000      0.25000000</v>
    <v>       0.00000000      0.75000000      0.25000000</v>
    <v>       0.50000000      0.75000000      0.25000000</v>
    <v>       0.00000000      0.25000000      0.75000000</v>
    <v>       0.50000000      0.25000000      0.75000000</v>
    <v>       0.00000000      0.75000000      0.75000000</v>
    <v>       0.50000000      0.75000000      0.75000000</v>
    <v>       0.00000000      0.00000000      0.00000000</v>
    <v>       0.50000000      0.00000000      0.00000000</v>
    <v>       0.00000000      0.50000000      0.00000000</v>
    <v>       0.50000000      0.50000000      0.00000000</v>
    <v>       0.00000000      0.00000000      0.50000000</v>
    <v>       0.50000000      0.00000000      0.50000000</v>
    <v>       0.00000000      0.50000000      0.50000000</v>
    <v>       0.50000000      0.50000000      0.50000000</v>
   </varray>
  </structure>
  <varray name="forces" >
   <v>      -0.03494252      0.00000000     -0.00000000</v>
   <v>       0.00501798     -0.00000000     -0.00000000</v>
   <v>       0.00092936     -0.00000000      0.00000000</v>
   <v>       0.00004760      0.00000000      0.00000000</v>
   <v>       0.00092936      0.00000000      0.00000000</v>
   <v>       0.00004760     -0.00000000     -0.00000000</v>
   <v>      -0.00157061     -0.00000000      0.00000000</v>
   <v>      -0.00001537      0.00000000     -0.00000000</v>
   <v>      -0.00338615     -0.00000863      0.00000863</v>
   <v>      -0.00120415      0.00002750     -0.00002750</v>
   <v>      -0.00338615      0.00000863      0.00000863</v>
   <v>      -0.00120415     -0.00002750     -0.00002750</v>
   <v>      -0.00338615     -0.00000863     -0.00000863</v>
   <v>      -0.00120415      0.00002750      0.00002750</v>
   <v>      -0.00338615      0.00000863     -0.00000863</v>
   <v>      -0.00120415     -0.00002750      0.00002750</v>
   <v>       0.00475143     -0.00000000     -0.00544425</v>
   <v>       0.00493632     -0.00000000      0.00565982</v>
   <v>       0.00117245      0.00000000      0.00116076</v>
   <v>       0.00111925     -0.00000000     -0.00117003</v>
   <v>       0.00475143      0.00000000      0.00544425</v>
   <v>       0.00493632      0.00000000     -0.00565982</v>
   <v>       0.00117245      0.00000000     -0.00116076</v>
   <v>       0.00111925     -0.00000000      0.00117003</v>
   <v>       0.00475143      0.00544425     -0.00000000</v>
   <v>       0.00493632     -0.00565982     -0.00000000</v>
   <v>       0.00475143     -0.00544425      0.00000000</v>
   <v>       0.00493632      0.00565982     -0.00000000</v>
   <v>       0.00117245     -0.00116076     -0.00000000</v>
   <v>       0.00111925      0.00117003     -0.00000000</v>
   <v>       0.00117245      0.00116076     -0.00000000</v>
   <v>       0.00111925     -0.00117003     -0.00000000</v>
  </varray>
  <varray name="stress" >
   <v>     -20.25843010      0.00000000      0.00000000</v>
   <v>       0.00000000    -20.26546973      0.00000000</v>
   <v>       0.00000000      0.00000000    -20.26546973</v>
  </varray>
  <energy>
   <i name="e_fr_energy">   -119.65837934</i>
   <i name="e_wo_entrp">   -119.65700871</i>
   <i name="e_0_energy">     -0.00274128</i>
  </energy>
  <eigenvalues>
   <array>
    <dimension dim="1">band</dimension>
    <dimension dim="2">kpoint</dimension>
    <dimension dim="3">spin</dimension>
    <field>eigene</field>
    <field>occ</field>
    <set>
     <set comment="spin 1">
      <set comment="kpoint 1">
       <r>  -3.2280  1.0000</r>
       <r>  -1.0223  1.0000</r>
       <r>  -1.0188  1.0000</r>
       <r>  -1.0188  1.0000</r>
       <r>  -1.0188  1.0000</r>
       <r>  -1.0188  1.0000</r>
       <r>  -1.0154  1.0000</r>
       <r>   1.1515  1.0000</r>
       <r>   1.1558  1.0000</r>
       <r>   1.1558  1.0000</r>
       <r>   1.1573  1.0000</r>
       <r>   1.1575  1.0000</r>
       <r>   1.1575  1.0000</r>
       <r>   1.1575  1.0000</r>
       <r>   1.1575  1.0000</r>
       <r>   1.1577  1.0000</r>
       <r>   1.1592  1.0000</r>
       <r>   1.1592  1.0000</r>
       <r>   1.1635  1.0000</r>
       <r>   3.2358  1.0000</r>
       <r>   3.2359  1.0000</r>
       <r>   3.2359  1.0000</r>
       <r>   3.2359  1.0000</r>
       <r>   3.3774  1.0000</r>
       <r>   3.3774  1.0000</r>
       <r>   3.3774  1.0000</r>
       <r>   3.3775  1.0000</r>
       <r>   4.8628  1.0000</r>
       <r>   4.8628  1.0000</r>
       <r>   4.8628  1.0000</r>
       <r>   6.1243  1.0000</r>
       <r>   6.1243  1.0000</r>
       <r>   6.1243  1.0000</r>
       <r>   6.9054  1.0000</r>
       <r>   6.9054  1.0000</r>
       <r>   6.9096  1.0000</r>
       <r>   6.9096  1.0000</r>
       <r>   6.9096  1.0000</r>
       <r>   6.9096  1.0000</r>
       <r>   6.9096  1.0000</r>
       <r>   6.9096  1.0000</r>
       <r>   6.9096  1.0000</r>
       <r>   6.9097  1.0000</r>
       <r>   6.9138  1.0000</r>
       <r>   6.9138  1.0000</r>
       <r>   7.9348  0.0000</r>
       <r>   7.9387  0.0000</r>
       <r>   7.9387  0.0000</r>
       <r>   7.9387  0.0000</r>
       <r>   7.9387  0.0000</r>
       <r>   7.9426  0.0000</r>
       <r>   8.6793  0.0000</r>
       <r>   8.6801  0.0000</r>
       <r>   8.6801  0.0000</r>
       <r>   8.6801  0.0000</r>
       <r>   8.6801  0.0000</r>
       <r>   8.6809  0.0000</r>
       <r>   8.9576  0.0000</r>
       <r>   8.9576  0.0000</r>
       <r>   8.9592  0.0000</r>
       <r>   8.9614  0.0000</r>
       <r>   8.9616  0.0000</r>
       <r>   8.9616  0.0000</r>
       <r>   8.9616  0.0000</r>
       <r>   8.9616  0.0000</r>
       <r>   8.9617  0.0000</r>
       <r>   8.9639  0.0000</r>
       <r>   8.9655  0.0000</r>
       <r>   8.9655  0.0000</r>
       <r>  10.3919  0.0000</r>
       <r>  10.3928  0.0000</r>
       <r>  10.3935  0.0000</r>
      </set>
      <set comment="kpoint 2">
       <r>  -3.1662  1.0000</r>
       <r>  -1.6902  1.0000</r>
       <r>  -0.9580  1.0000</r>
       <r>  -0.9579  1.0000</r>
       <r>  -0.9579  1.0000</r>
       <r>  -0.9579  1.0000</r>
       <r>  -0.2297  1.0000</r>
       <r>   0.4960  1.0000</r>
       <r>   0.4960  1.0000</r>
       <r>   0.4960  1.0000</r>
       <r>   0.4960  1.0000</r>
       <r>   1.2175  1.0000</r>
       <r>   1.2175  1.0000</r>
       <r>   1.2175  1.0000</r>
       <r>   1.2175  1.0000</r>
       <r>   1.9351  1.0000</r>
       <r>   1.9351  1.0000</r>
       <r>   1.9351  1.0000</r>
       <r>   1.9351  1.0000</r>
       <r>   2.6498  1.0000</r>
       <r>   2.6498  1.0000</r>
       <r>   2.6498  1.0000</r>
       <r>   2.6498  1.0000</r>
       <r>   3.9968  1.0000</r>
       <r>   4.0784  1.0000</r>
       <r>   4.0784  1.0000</r>
       <r>   4.0784  1.0000</r>
       <r>   4.0784  1.0000</r>
       <r>   4.9196  1.0000</r>
       <r>   4.9196  1.0000</r>
       <r>   6.0808  1.0000</r>
       <r>   6.0808  1.0000</r>
       <r>   6.0808  1.0000</r>
       <r>   6.0808  1.0000</r>
       <r>   6.1845  1.0000</r>
       <r>   6.1845  1.0000</r>
       <r>   6.2834  1.0000</r>
       <r>   6.2834  1.0000</r>
       <r>   6.9666  1.0000</r>
       <r>   6.9666  1.0000</r>
       <r>   6.9666  1.0000</r>
       <r>   6.9666  1.0000</r>
       <r>   7.0979  1.0000</r>
       <r>   7.5660  1.0000</r>
       <r>   7.5660  1.0000</r>
       <r>   7.6504  1.0000</r>
       <r>   7.6504  1.0000</r>
       <r>   8.1718  0.0000</r>
       <r>   8.1718  0.0000</r>
       <r>   8.1718  0.0000</r>
       <r>   8.1718  0.0000</r>
       <r>   8.2764  0.0000</r>
       <r>   8.2764  0.0000</r>
       <r>   8.2764  0.0000</r>
       <r>   8.2764  0.0000</r>
       <r>   8.3342  0.0000</r>
       <r>   8.3342  0.0000</r>
       <r>   8.3342  0.0000</r>
       <r>   8.3342  0.0000</r>
       <r>   9.1594  0.0000</r>
       <r>   9.1594  0.0000</r>
       <r>   9.3355  0.0000</r>
       <r>   9.3355  0.0000</r>
       <r>   9.3355  0.0000</r>
       <r>   9.3355  0.0000</r>
       <r>   9.7033  0.0000</r>
       <r>   9.7034  0.0000</r>
       <r>   9.7034  0.0000</r>
       <r>   9.7036  0.0000</r>
       <r>   9.7610  0.0000</r>
       <r>   9.7610  0.0000</r>
       <r>   9.7610  0.0000</r>
      </set>
      <set comment="kpoint 3">
       <r>  -2.9808  1.0000</r>
       <r>  -2.2419  1.0000</r>
       <r>  -0.7755  1.0000</r>
       <r>  -0.7754  1.0000</r>
       <r>  -0.7754  1.0000</r>
       <r>  -0.7754  1.0000</r>
       <r>  -0.0476  1.0000</r>
       <r>  -0.0476  1.0000</r>
       <r>  -0.0476  1.0000</r>
       <r>  -0.0476  1.0000</r>
       <r>   0.6747  1.0000</r>
       <r>   1.3974  1.0000</r>
       <r>   1.3975  1.0000</r>
       <r>   1.3975  1.0000</r>
       <r>   1.3975  1.0000</r>
       <r>   2.1149  1.0000</r>
       <r>   2.1149  1.0000</r>
       <r>   2.1149  1.0000</r>
       <r>   2.1149  1.0000</r>
       <r>   2.8085  1.0000</r>
       <r>   2.8258  1.0000</r>
       <r>   2.8258  1.0000</r>
       <r>   2.8258  1.0000</r>
       <r>   2.8259  1.0000</r>
       <r>   4.9228  1.0000</r>
       <r>   4.9228  1.0000</r>
       <r>   4.9228  1.0000</r>
       <r>   4.9228  1.0000</r>
       <r>   4.9572  1.0000</r>
       <r>   4.9572  1.0000</r>
       <r>   4.9572  1.0000</r>
       <r>   4.9572  1.0000</r>
       <r>   5.0899  1.0000</r>
       <r>   5.0899  1.0000</r>
       <r>   5.7716  1.0000</r>
       <r>   5.7716  1.0000</r>
       <r>   6.3644  1.0000</r>
       <r>   6.3644  1.0000</r>
       <r>   7.0301  1.0000</r>
       <r>   7.0301  1.0000</r>
       <r>   7.0301  1.0000</r>
       <r>   7.0302  1.0000</r>
       <r>   7.0696  1.0000</r>
       <r>   7.0697  1.0000</r>
       <r>   7.1374  1.0000</r>
       <r>   7.1374  1.0000</r>
       <r>   7.1374  1.0000</r>
       <r>   7.1374  1.0000</r>
       <r>   7.8211  0.0000</r>
       <r>   7.8211  0.0000</r>
       <r>   7.8211  0.0000</r>
       <r>   7.8211  0.0000</r>
       <r>   8.5060  0.0000</r>
       <r>   8.5060  0.0000</r>
       <r>   8.5157  0.0000</r>
       <r>   8.5157  0.0000</r>
       <r>   8.5158  0.0000</r>
       <r>   8.5158  0.0000</r>
       <r>   8.6086  0.0000</r>
       <r>   9.2369  0.0000</r>
       <r>   9.2369  0.0000</r>
       <r>   9.2369  0.0000</r>
       <r>   9.2369  0.0000</r>
       <r>   9.9716  0.0000</r>
       <r>   9.9716  0.0000</r>
       <r>  10.5590  0.0000</r>
       <r>  10.5590  0.0000</r>
       <r>  10.5596  0.0000</r>
       <r>  10.5596  0.0000</r>
       <r>  10.5627  0.0000</r>
       <r>  10.5627  0.0000</r>
       <r>  10.7449  0.0000</r>
      </set>
      <set comment="kpoint 4">
       <r>  -2.6739  1.0000</r>
       <r>  -2.6711  1.0000</r>
       <r>  -0.4757  1.0000</r>
       <r>  -0.4726  1.0000</r>
       <r>  -0.4726  1.0000</r>
       <r>  -0.4718  1.0000</r>
       <r>  -0.4717  1.0000</r>
       <r>  -0.4708  1.0000</r>
       <r>  -0.4708  1.0000</r>
       <r>  -0.4678  1.0000</r>
       <r>   1.6881  1.0000</r>
       <r>   1.6905  1.0000</r>
       <r>   1.6953  1.0000</r>
       <r>   1.6956  1.0000</r>
       <r>   1.6956  1.0000</r>
       <r>   1.6964  1.0000</r>
       <r>   1.6974  1.0000</r>
       <r>   1.6981  1.0000</r>
       <r>   1.6981  1.0000</r>
       <r>   1.7005  1.0000</r>
       <r>   3.8243  1.0000</r>
       <r>   3.8244  1.0000</r>
       <r>   3.8244  1.0000</r>
       <r>   3.8251  1.0000</r>
       <r>   3.8254  1.0000</r>
       <r>   3.8261  1.0000</r>
       <r>   3.8261  1.0000</r>
       <r>   3.8262  1.0000</r>
       <r>   5.3723  1.0000</r>
       <r>   5.3723  1.0000</r>
       <r>   5.3753  1.0000</r>
       <r>   5.3753  1.0000</r>
       <r>   5.9439  1.0000</r>
       <r>   5.9439  1.0000</r>
       <r>   5.9444  1.0000</r>
       <r>   5.9447  1.0000</r>
       <r>   5.9452  1.0000</r>
       <r>   5.9455  1.0000</r>
       <r>   5.9460  1.0000</r>
       <r>   5.9460  1.0000</r>
       <r>   6.6596  1.0000</r>
       <r>   6.6606  1.0000</r>
       <r>   6.6624  1.0000</r>
       <r>   6.6634  1.0000</r>
       <r>   7.4199  1.0000</r>
       <r>   7.4199  1.0000</r>
       <r>   7.4208  1.0000</r>
       <r>   7.4221  1.0000</r>
       <r>   7.4223  1.0000</r>
       <r>   7.4236  1.0000</r>
       <r>   7.4245  1.0000</r>
       <r>   7.4245  1.0000</r>
       <r>   8.8207  0.0000</r>
       <r>   8.8217  0.0000</r>
       <r>   8.8217  0.0000</r>
       <r>   8.8219  0.0000</r>
       <r>   8.8239  0.0000</r>
       <r>   8.8241  0.0000</r>
       <r>   8.8241  0.0000</r>
       <r>   8.8251  0.0000</r>
       <r>   9.4755  0.0000</r>
       <r>   9.4755  0.0000</r>
       <r>   9.4778  0.0000</r>
       <r>   9.4778  0.0000</r>
       <r>  10.2629  0.0000</r>
       <r>  10.2643  0.0000</r>
       <r>  10.8907  0.0000</r>
       <r>  10.8912  0.0000</r>
       <r>  10.8925  0.0000</r>
       <r>  10.8930  0.0000</r>
       <r>  11.5288  0.0000</r>
       <r>  11.5297  0.0000</r>
      </set>
      <set comment="kpoint 5">
       <r>  -3.1662  1.0000</r>
       <r>  -1.6902  1.0000</r>
       <r>  -0.9606  1.0000</r>
       <r>  -0.9579  1.0000</r>
       <r>  -0.9579  1.0000</r>
       <r>  -0.9553  1.0000</r>
       <r>  -0.2297  1.0000</r>
       <r>   0.4933  1.0000</r>
       <r>   0.4960  1.0000</r>
       <r>   0.4960  1.0000</r>
       <r>   0.4987  1.0000</r>
       <r>   1.2154  1.0000</r>
       <r>   1.2164  1.0000</r>
       <r>   1.2187  1.0000</r>
       <r>   1.2197  1.0000</r>
       <r>   1.9324  1.0000</r>
       <r>   1.9351  1.0000</r>
       <r>   1.9351  1.0000</r>
       <r>   1.9378  1.0000</r>
       <r>   2.6477  1.0000</r>
       <r>   2.6486  1.0000</r>
       <r>   2.6510  1.0000</r>
       <r>   2.6519  1.0000</r>
       <r>   3.9968  1.0000</r>
       <r>   4.0763  1.0000</r>
       <r>   4.0772  1.0000</r>
       <r>   4.0796  1.0000</r>
       <r>   4.0806  1.0000</r>
       <r>   4.9196  1.0000</r>
       <r>   4.9196  1.0000</r>
       <r>   6.0779  1.0000</r>
       <r>   6.0808  1.0000</r>
       <r>   6.0808  1.0000</r>
       <r>   6.0837  1.0000</r>
       <r>   6.1845  1.0000</r>
       <r>   6.1845  1.0000</r>
       <r>   6.2834  1.0000</r>
       <r>   6.2835  1.0000</r>
       <r>   6.9639  1.0000</r>
       <r>   6.9666  1.0000</r>
       <r>   6.9666  1.0000</r>
       <r>   6.9692  1.0000</r>
       <r>   7.0979  1.0000</r>
       <r>   7.5659  1.0000</r>
       <r>   7.5660  1.0000</r>
       <r>   7.6504  1.0000</r>
       <r>   7.6504  1.0000</r>
       <r>   8.1693  0.0000</r>
       <r>   8.1707  0.0000</r>
       <r>   8.1730  0.0000</r>
       <r>   8.1743  0.0000</r>
       <r>   8.2740  0.0000</r>
       <r>   8.2764  0.0000</r>
       <r>   8.2764  0.0000</r>
       <r>   8.2787  0.0000</r>
       <r>   8.3315  0.0000</r>
       <r>   8.3342  0.0000</r>
       <r>   8.3342  0.0000</r>
       <r>   8.3368  0.0000</r>
       <r>   9.1594  0.0000</r>
       <r>   9.1594  0.0000</r>
       <r>   9.3337  0.0000</r>
       <r>   9.3355  0.0000</r>
       <r>   9.3355  0.0000</r>
       <r>   9.3373  0.0000</r>
       <r>   9.7007  0.0000</r>
       <r>   9.7034  0.0000</r>
       <r>   9.7034  0.0000</r>
       <r>   9.7061  0.0000</r>
       <r>   9.7589  0.0000</r>
       <r>   9.7610  0.0000</r>
       <r>   9.7630  0.0000</r>
      </set>
      <set comment="kpoint 6">
       <r>  -3.1043  1.0000</r>
       <r>  -1.6301  1.0000</r>
       <r>  -1.6280  1.0000</r>
       <r>  -0.8971  1.0000</r>
       <r>  -0.8971  1.0000</r>
       <r>  -0.1707  1.0000</r>
       <r>  -0.1689  1.0000</r>
       <r>  -0.1672  1.0000</r>
       <r>   0.5547  1.0000</r>
       <r>   0.5557  1.0000</r>
       <r>   0.5569  1.0000</r>
       <r>   0.5578  1.0000</r>
       <r>   1.2766  1.0000</r>
       <r>   1.2775  1.0000</r>
       <r>   1.9927  1.0000</r>
       <r>   1.9939  1.0000</r>
       <r>   1.9950  1.0000</r>
       <r>   1.9952  1.0000</r>
       <r>   1.9964  1.0000</r>
       <r>   1.9975  1.0000</r>
       <r>   2.7084  1.0000</r>
       <r>   3.3505  1.0000</r>
       <r>   3.3505  1.0000</r>
       <r>   3.4986  1.0000</r>
       <r>   3.4986  1.0000</r>
       <r>   4.0547  1.0000</r>
       <r>   4.0555  1.0000</r>
       <r>   4.8413  1.0000</r>
       <r>   4.8413  1.0000</r>
       <r>   4.9763  1.0000</r>
       <r>   5.4473  1.0000</r>
       <r>   5.4495  1.0000</r>
       <r>   6.0578  1.0000</r>
       <r>   6.0578  1.0000</r>
       <r>   6.2329  1.0000</r>
       <r>   6.2329  1.0000</r>
       <r>   6.2445  1.0000</r>
       <r>   6.3391  1.0000</r>
       <r>   6.3415  1.0000</r>
       <r>   6.8083  1.0000</r>
       <r>   6.8101  1.0000</r>
       <r>   7.1559  1.0000</r>
       <r>   7.1568  1.0000</r>
       <r>   7.5371  1.0000</r>
       <r>   7.5380  1.0000</r>
       <r>   7.5393  1.0000</r>
       <r>   7.5402  1.0000</r>
       <r>   7.7052  0.6759</r>
       <r>   7.7073  0.5618</r>
       <r>   7.7094  0.4422</r>
       <r>   7.7094  0.4402</r>
       <r>   7.7108  0.3638</r>
       <r>   8.4424  0.0000</r>
       <r>   8.4447  0.0000</r>
       <r>   8.9167  0.0000</r>
       <r>   8.9177  0.0000</r>
       <r>   8.9179  0.0000</r>
       <r>   8.9190  0.0000</r>
       <r>   9.0212  0.0000</r>
       <r>   9.0213  0.0000</r>
       <r>   9.0750  0.0000</r>
       <r>   9.0768  0.0000</r>
       <r>   9.1249  0.0000</r>
       <r>   9.2812  0.0000</r>
       <r>   9.2818  0.0000</r>
       <r>   9.5683  0.0000</r>
       <r>   9.5683  0.0000</r>
       <r>  10.0183  0.0000</r>
       <r>  10.0202  0.0000</r>
       <r>  10.4451  0.0000</r>
       <r>  10.5007  0.0000</r>
       <r>  10.5008  0.0000</r>
      </set>
      <set comment="kpoint 7">
       <r>  -2.9191  1.0000</r>
       <r>  -2.1805  1.0000</r>
       <r>  -1.4457  1.0000</r>
       <r>  -0.7160  1.0000</r>
       <r>  -0.7146  1.0000</r>
       <r>  -0.7132  1.0000</r>
       <r>   0.0113  1.0000</r>
       <r>   0.0129  1.0000</r>
       <r>   0.0141  1.0000</r>
       <r>   0.7337  1.0000</r>
       <r>   0.7364  1.0000</r>
       <r>   0.7370  1.0000</r>
       <r>   0.7381  1.0000</r>
       <r>   1.4577  1.0000</r>
       <r>   1.4577  1.0000</r>
       <r>   2.1718  1.0000</r>
       <r>   2.1737  1.0000</r>
       <r>   2.1739  1.0000</r>
       <r>   2.8676  1.0000</r>
       <r>   2.8841  1.0000</r>
       <r>   2.8846  1.0000</r>
       <r>   2.8866  1.0000</r>
       <r>   2.8874  1.0000</r>
       <r>   3.5941  1.0000</r>
       <r>   4.2299  1.0000</r>
       <r>   4.2807  1.0000</r>
       <r>   4.3126  1.0000</r>
       <r>   4.3126  1.0000</r>
       <r>   4.9275  1.0000</r>
       <r>   4.9789  1.0000</r>
       <r>   4.9789  1.0000</r>
       <r>   5.1467  1.0000</r>
       <r>   5.6747  1.0000</r>
       <r>   5.7174  1.0000</r>
       <r>   5.7174  1.0000</r>
       <r>   5.8285  1.0000</r>
       <r>   6.3286  1.0000</r>
       <r>   6.3287  1.0000</r>
       <r>   6.3919  1.0000</r>
       <r>   6.3920  1.0000</r>
       <r>   6.4234  1.0000</r>
       <r>   6.5110  1.0000</r>
       <r>   7.0196  1.0000</r>
       <r>   7.0196  1.0000</r>
       <r>   7.0959  1.0000</r>
       <r>   7.1942  1.0000</r>
       <r>   7.3309  1.0000</r>
       <r>   7.7642  0.0000</r>
       <r>   7.7815  0.0000</r>
       <r>   7.7816  0.0000</r>
       <r>   7.8784  0.0000</r>
       <r>   7.8888  0.0000</r>
       <r>   8.0114  0.0000</r>
       <r>   8.5612  0.0000</r>
       <r>   8.5644  0.0000</r>
       <r>   8.5985  0.0000</r>
       <r>   8.6655  0.0000</r>
       <r>   9.2081  0.0000</r>
       <r>   9.4198  0.0000</r>
       <r>   9.4198  0.0000</r>
       <r>   9.7655  0.0000</r>
       <r>   9.7749  0.0000</r>
       <r>   9.7750  0.0000</r>
       <r>   9.9322  0.0000</r>
       <r>   9.9788  0.0000</r>
       <r>  10.0384  0.0000</r>
       <r>  10.1422  0.0000</r>
       <r>  10.1422  0.0000</r>
       <r>  10.1773  0.0000</r>
       <r>  10.6193  0.0000</r>
       <r>  10.8140  0.0000</r>
       <r>  10.8202  0.0000</r>
      </set>
      <set comment="kpoint 8">
       <r>  -2.6123  1.0000</r>
       <r>  -2.6095  1.0000</r>
       <r>  -1.1420  1.0000</r>
       <r>  -1.1392  1.0000</r>
       <r>  -0.4130  1.0000</r>
       <r>  -0.4119  1.0000</r>
       <r>  -0.4102  1.0000</r>
       <r>  -0.4091  1.0000</r>
       <r>   0.3131  1.0000</r>
       <r>   0.3159  1.0000</r>
       <r>   1.0357  1.0000</r>
       <r>   1.0368  1.0000</r>
       <r>   1.0386  1.0000</r>
       <r>   1.0397  1.0000</r>
       <r>   1.7493  1.0000</r>
       <r>   1.7507  1.0000</r>
       <r>   2.4694  1.0000</r>
       <r>   2.4705  1.0000</r>
       <r>   2.4723  1.0000</r>
       <r>   2.4734  1.0000</r>
       <r>   3.1757  1.0000</r>
       <r>   3.1771  1.0000</r>
       <r>   3.8829  1.0000</r>
       <r>   3.8832  1.0000</r>
       <r>   3.8843  1.0000</r>
       <r>   3.8846  1.0000</r>
       <r>   4.5195  1.0000</r>
       <r>   4.5224  1.0000</r>
       <r>   4.5863  1.0000</r>
       <r>   4.5877  1.0000</r>
       <r>   5.3019  1.0000</r>
       <r>   5.3021  1.0000</r>
       <r>   5.3034  1.0000</r>
       <r>   5.3035  1.0000</r>
       <r>   5.4291  1.0000</r>
       <r>   5.4322  1.0000</r>
       <r>   6.6135  1.0000</r>
       <r>   6.6147  1.0000</r>
       <r>   6.6165  1.0000</r>
       <r>   6.6177  1.0000</r>
       <r>   6.7002  1.0000</r>
       <r>   6.7003  1.0000</r>
       <r>   6.7016  1.0000</r>
       <r>   6.7018  1.0000</r>
       <r>   6.7156  1.0000</r>
       <r>   6.7184  1.0000</r>
       <r>   6.7941  1.0000</r>
       <r>   6.7972  1.0000</r>
       <r>   7.6176  1.0000</r>
       <r>   7.6204  1.0000</r>
       <r>   8.1619  0.0000</r>
       <r>   8.1650  0.0000</r>
       <r>   8.1842  0.0000</r>
       <r>   8.1869  0.0000</r>
       <r>   8.6986  0.0000</r>
       <r>   8.7004  0.0000</r>
       <r>   9.5326  0.0000</r>
       <r>   9.5349  0.0000</r>
       <r>   9.5585  0.0000</r>
       <r>   9.5614  0.0000</r>
       <r>   9.7306  0.0000</r>
       <r>   9.7313  0.0000</r>
       <r>   9.7335  0.0000</r>
       <r>   9.7343  0.0000</r>
       <r>  10.3175  0.0000</r>
       <r>  10.3189  0.0000</r>
       <r>  10.7386  0.0000</r>
       <r>  10.7388  0.0000</r>
       <r>  10.7404  0.0000</r>
       <r>  10.7406  0.0000</r>
       <r>  10.9025  0.0000</r>
       <r>  10.9055  0.0000</r>
      </set>
      <set comment="kpoint 9">
       <r>  -2.9808  1.0000</r>
       <r>  -2.2419  1.0000</r>
       <r>  -0.7781  1.0000</r>
       <r>  -0.7754  1.0000</r>
       <r>  -0.7754  1.0000</r>
       <r>  -0.7728  1.0000</r>
       <r>  -0.0503  1.0000</r>
       <r>  -0.0476  1.0000</r>
       <r>  -0.0476  1.0000</r>
       <r>  -0.0449  1.0000</r>
       <r>   0.6747  1.0000</r>
       <r>   1.3953  1.0000</r>
       <r>   1.3963  1.0000</r>
       <r>   1.3986  1.0000</r>
       <r>   1.3996  1.0000</r>
       <r>   2.1128  1.0000</r>
       <r>   2.1138  1.0000</r>
       <r>   2.1161  1.0000</r>
       <r>   2.1171  1.0000</r>
       <r>   2.8085  1.0000</r>
       <r>   2.8231  1.0000</r>
       <r>   2.8258  1.0000</r>
       <r>   2.8259  1.0000</r>
       <r>   2.8286  1.0000</r>
       <r>   4.9200  1.0000</r>
       <r>   4.9228  1.0000</r>
       <r>   4.9228  1.0000</r>
       <r>   4.9256  1.0000</r>
       <r>   4.9550  1.0000</r>
       <r>   4.9560  1.0000</r>
       <r>   4.9584  1.0000</r>
       <r>   4.9594  1.0000</r>
       <r>   5.0899  1.0000</r>
       <r>   5.0899  1.0000</r>
       <r>   5.7716  1.0000</r>
       <r>   5.7716  1.0000</r>
       <r>   6.3643  1.0000</r>
       <r>   6.3644  1.0000</r>
       <r>   7.0278  1.0000</r>
       <r>   7.0290  1.0000</r>
       <r>   7.0314  1.0000</r>
       <r>   7.0324  1.0000</r>
       <r>   7.0696  1.0000</r>
       <r>   7.0697  1.0000</r>
       <r>   7.1348  1.0000</r>
       <r>   7.1374  1.0000</r>
       <r>   7.1375  1.0000</r>
       <r>   7.1400  1.0000</r>
       <r>   7.8185  0.0000</r>
       <r>   7.8211  0.0000</r>
       <r>   7.8211  0.0000</r>
       <r>   7.8237  0.0000</r>
       <r>   8.5058  0.0000</r>
       <r>   8.5060  0.0000</r>
       <r>   8.5136  0.0000</r>
       <r>   8.5157  0.0000</r>
       <r>   8.5158  0.0000</r>
       <r>   8.5179  0.0000</r>
       <r>   8.6086  0.0000</r>
       <r>   9.2348  0.0000</r>
       <r>   9.2369  0.0000</r>
       <r>   9.2369  0.0000</r>
       <r>   9.2390  0.0000</r>
       <r>   9.9716  0.0000</r>
       <r>   9.9716  0.0000</r>
       <r>  10.5568  0.0000</r>
       <r>  10.5596  0.0000</r>
       <r>  10.5596  0.0000</r>
       <r>  10.5618  0.0000</r>
       <r>  10.5622  0.0000</r>
       <r>  10.5627  0.0000</r>
       <r>  10.7435  0.0000</r>
      </set>
      <set comment="kpoint 10">
       <r>  -2.9191  1.0000</r>
       <r>  -2.1805  1.0000</r>
       <r>  -1.4457  1.0000</r>
       <r>  -0.7160  1.0000</r>
       <r>  -0.7146  1.0000</r>
       <r>  -0.7132  1.0000</r>
       <r>   0.0113  1.0000</r>
       <r>   0.0129  1.0000</r>
       <r>   0.0141  1.0000</r>
       <r>   0.7339  1.0000</r>
       <r>   0.7359  1.0000</r>
       <r>   0.7370  1.0000</r>
       <r>   0.7385  1.0000</r>
       <r>   1.4577  1.0000</r>
       <r>   1.4577  1.0000</r>
       <r>   2.1712  1.0000</r>
       <r>   2.1737  1.0000</r>
       <r>   2.1745  1.0000</r>
       <r>   2.8676  1.0000</r>
       <r>   2.8847  1.0000</r>
       <r>   2.8850  1.0000</r>
       <r>   2.8863  1.0000</r>
       <r>   2.8867  1.0000</r>
       <r>   3.5941  1.0000</r>
       <r>   4.2299  1.0000</r>
       <r>   4.2806  1.0000</r>
       <r>   4.3126  1.0000</r>
       <r>   4.3126  1.0000</r>
       <r>   4.9274  1.0000</r>
       <r>   4.9789  1.0000</r>
       <r>   4.9790  1.0000</r>
       <r>   5.1466  1.0000</r>
       <r>   5.6747  1.0000</r>
       <r>   5.7174  1.0000</r>
       <r>   5.7174  1.0000</r>
       <r>   5.8284  1.0000</r>
       <r>   6.3287  1.0000</r>
       <r>   6.3287  1.0000</r>
       <r>   6.3919  1.0000</r>
       <r>   6.3920  1.0000</r>
       <r>   6.4234  1.0000</r>
       <r>   6.5110  1.0000</r>
       <r>   7.0196  1.0000</r>
       <r>   7.0196  1.0000</r>
       <r>   7.0959  1.0000</r>
       <r>   7.1942  1.0000</r>
       <r>   7.3309  1.0000</r>
       <r>   7.7642  0.0000</r>
       <r>   7.7816  0.0000</r>
       <r>   7.7816  0.0000</r>
       <r>   7.8784  0.0000</r>
       <r>   7.8888  0.0000</r>
       <r>   8.0114  0.0000</r>
       <r>   8.5620  0.0000</r>
       <r>   8.5637  0.0000</r>
       <r>   8.5985  0.0000</r>
       <r>   8.6655  0.0000</r>
       <r>   9.2080  0.0000</r>
       <r>   9.4198  0.0000</r>
       <r>   9.4198  0.0000</r>
       <r>   9.7656  0.0000</r>
       <r>   9.7749  0.0000</r>
       <r>   9.7749  0.0000</r>
       <r>   9.9322  0.0000</r>
       <r>   9.9788  0.0000</r>
       <r>  10.0384  0.0000</r>
       <r>  10.1422  0.0000</r>
       <r>  10.1422  0.0000</r>
       <r>  10.1773  0.0000</r>
       <r>  10.6193  0.0000</r>
       <r>  10.8140  0.0000</r>
       <r>  10.8275  0.0000</r>
      </set>
      <set comment="kpoint 11">
       <r>  -2.7341  1.0000</r>
       <r>  -1.9975  1.0000</r>
       <r>  -1.9954  1.0000</r>
       <r>  -1.2626  1.0000</r>
       <r>  -0.5324  1.0000</r>
       <r>  -0.5324  1.0000</r>
       <r>   0.1927  1.0000</r>
       <r>   0.1937  1.0000</r>
       <r>   0.1949  1.0000</r>
       <r>   0.1958  1.0000</r>
       <r>   0.9138  1.0000</r>
       <r>   0.9159  1.0000</r>
       <r>   0.9176  1.0000</r>
       <r>   0.9184  1.0000</r>
       <r>   1.6342  1.0000</r>
       <r>   1.6352  1.0000</r>
       <r>   3.0445  1.0000</r>
       <r>   3.0455  1.0000</r>
       <r>   3.0612  1.0000</r>
       <r>   3.0621  1.0000</r>
       <r>   3.0633  1.0000</r>
       <r>   3.0643  1.0000</r>
       <r>   3.6940  1.0000</r>
       <r>   3.6940  1.0000</r>
       <r>   3.7514  1.0000</r>
       <r>   3.7536  1.0000</r>
       <r>   3.8601  1.0000</r>
       <r>   3.8601  1.0000</r>
       <r>   4.4734  1.0000</r>
       <r>   5.0604  1.0000</r>
       <r>   5.0604  1.0000</r>
       <r>   5.2659  1.0000</r>
       <r>   5.2660  1.0000</r>
       <r>   5.3170  1.0000</r>
       <r>   5.8671  1.0000</r>
       <r>   5.8681  1.0000</r>
       <r>   5.8693  1.0000</r>
       <r>   5.8703  1.0000</r>
       <r>   5.9978  1.0000</r>
       <r>   6.0002  1.0000</r>
       <r>   6.5126  1.0000</r>
       <r>   6.5143  1.0000</r>
       <r>   6.5892  1.0000</r>
       <r>   6.5893  1.0000</r>
       <r>   6.5976  1.0000</r>
       <r>   6.6817  1.0000</r>
       <r>   7.3894  1.0000</r>
       <r>   7.3905  1.0000</r>
       <r>   8.0710  0.0000</r>
       <r>   8.6394  0.0000</r>
       <r>   8.6425  0.0000</r>
       <r>   8.6435  0.0000</r>
       <r>   8.6436  0.0000</r>
       <r>   8.6448  0.0000</r>
       <r>   8.7330  0.0000</r>
       <r>   8.7355  0.0000</r>
       <r>   8.8342  0.0000</r>
       <r>   8.8353  0.0000</r>
       <r>   9.4178  0.0000</r>
       <r>   9.4197  0.0000</r>
       <r>   9.4380  0.0000</r>
       <r>   9.4402  0.0000</r>
       <r>  10.2778  0.0000</r>
       <r>  10.2784  0.0000</r>
       <r>  10.6773  0.0000</r>
       <r>  10.6773  0.0000</r>
       <r>  10.7086  0.0000</r>
       <r>  10.7086  0.0000</r>
       <r>  10.7897  0.0000</r>
       <r>  10.7917  0.0000</r>
       <r>  10.8113  0.0000</r>
       <r>  10.8116  0.0000</r>
      </set>
      <set comment="kpoint 12">
       <r>  -2.4277  1.0000</r>
       <r>  -2.4249  1.0000</r>
       <r>  -1.6917  1.0000</r>
       <r>  -1.6888  1.0000</r>
       <r>  -0.2312  1.0000</r>
       <r>  -0.2301  1.0000</r>
       <r>  -0.2283  1.0000</r>
       <r>  -0.2272  1.0000</r>
       <r>   0.4941  1.0000</r>
       <r>   0.4952  1.0000</r>
       <r>   0.4970  1.0000</r>
       <r>   0.4981  1.0000</r>
       <r>   1.2140  1.0000</r>
       <r>   1.2169  1.0000</r>
       <r>   1.9284  1.0000</r>
       <r>   1.9298  1.0000</r>
       <r>   2.6425  1.0000</r>
       <r>   2.6439  1.0000</r>
       <r>   3.3388  1.0000</r>
       <r>   3.3417  1.0000</r>
       <r>   3.3550  1.0000</r>
       <r>   3.3562  1.0000</r>
       <r>   3.3579  1.0000</r>
       <r>   3.3591  1.0000</r>
       <r>   4.0572  1.0000</r>
       <r>   4.0575  1.0000</r>
       <r>   4.0585  1.0000</r>
       <r>   4.0588  1.0000</r>
       <r>   4.7770  1.0000</r>
       <r>   4.7770  1.0000</r>
       <r>   4.7784  1.0000</r>
       <r>   4.7785  1.0000</r>
       <r>   5.4556  1.0000</r>
       <r>   5.4569  1.0000</r>
       <r>   5.4616  1.0000</r>
       <r>   5.4625  1.0000</r>
       <r>   5.4644  1.0000</r>
       <r>   5.4654  1.0000</r>
       <r>   5.5996  1.0000</r>
       <r>   5.6026  1.0000</r>
       <r>   6.2818  1.0000</r>
       <r>   6.2849  1.0000</r>
       <r>   6.8567  1.0000</r>
       <r>   6.8593  1.0000</r>
       <r>   7.5674  1.0000</r>
       <r>   7.5675  1.0000</r>
       <r>   7.5689  1.0000</r>
       <r>   7.5691  1.0000</r>
       <r>   7.6044  1.0000</r>
       <r>   7.6059  1.0000</r>
       <r>   7.6599  1.0000</r>
       <r>   7.6625  1.0000</r>
       <r>   9.0179  0.0000</r>
       <r>   9.0210  0.0000</r>
       <r>   9.1081  0.0000</r>
       <r>   9.1110  0.0000</r>
       <r>   9.6112  0.0000</r>
       <r>   9.6112  0.0000</r>
       <r>   9.6128  0.0000</r>
       <r>   9.6128  0.0000</r>
       <r>   9.7039  0.0000</r>
       <r>   9.7062  0.0000</r>
       <r>  10.3535  0.0000</r>
       <r>  10.3566  0.0000</r>
       <r>  10.3886  0.0000</r>
       <r>  10.3910  0.0000</r>
       <r>  10.4770  0.0000</r>
       <r>  10.4782  0.0000</r>
       <r>  11.0765  0.0000</r>
       <r>  11.0808  0.0000</r>
       <r>  11.1375  0.0000</r>
       <r>  11.1524  0.0000</r>
      </set>
      <set comment="kpoint 13">
       <r>  -2.6725  1.0000</r>
       <r>  -2.6725  1.0000</r>
       <r>  -0.4767  1.0000</r>
       <r>  -0.4722  1.0000</r>
       <r>  -0.4717  1.0000</r>
       <r>  -0.4717  1.0000</r>
       <r>  -0.4717  1.0000</r>
       <r>  -0.4717  1.0000</r>
       <r>  -0.4712  1.0000</r>
       <r>  -0.4668  1.0000</r>
       <r>   1.6890  1.0000</r>
       <r>   1.6901  1.0000</r>
       <r>   1.6941  1.0000</r>
       <r>   1.6949  1.0000</r>
       <r>   1.6964  1.0000</r>
       <r>   1.6965  1.0000</r>
       <r>   1.6972  1.0000</r>
       <r>   1.6975  1.0000</r>
       <r>   1.6989  1.0000</r>
       <r>   1.7010  1.0000</r>
       <r>   3.8222  1.0000</r>
       <r>   3.8227  1.0000</r>
       <r>   3.8252  1.0000</r>
       <r>   3.8252  1.0000</r>
       <r>   3.8252  1.0000</r>
       <r>   3.8252  1.0000</r>
       <r>   3.8278  1.0000</r>
       <r>   3.8282  1.0000</r>
       <r>   5.3738  1.0000</r>
       <r>   5.3738  1.0000</r>
       <r>   5.3738  1.0000</r>
       <r>   5.3739  1.0000</r>
       <r>   5.9420  1.0000</r>
       <r>   5.9434  1.0000</r>
       <r>   5.9436  1.0000</r>
       <r>   5.9439  1.0000</r>
       <r>   5.9460  1.0000</r>
       <r>   5.9463  1.0000</r>
       <r>   5.9465  1.0000</r>
       <r>   5.9478  1.0000</r>
       <r>   6.6614  1.0000</r>
       <r>   6.6615  1.0000</r>
       <r>   6.6615  1.0000</r>
       <r>   6.6615  1.0000</r>
       <r>   7.4174  1.0000</r>
       <r>   7.4218  1.0000</r>
       <r>   7.4222  1.0000</r>
       <r>   7.4222  1.0000</r>
       <r>   7.4222  1.0000</r>
       <r>   7.4223  1.0000</r>
       <r>   7.4227  1.0000</r>
       <r>   7.4271  1.0000</r>
       <r>   8.8190  0.0000</r>
       <r>   8.8224  0.0000</r>
       <r>   8.8229  0.0000</r>
       <r>   8.8229  0.0000</r>
       <r>   8.8229  0.0000</r>
       <r>   8.8229  0.0000</r>
       <r>   8.8234  0.0000</r>
       <r>   8.8267  0.0000</r>
       <r>   9.4767  0.0000</r>
       <r>   9.4767  0.0000</r>
       <r>   9.4767  0.0000</r>
       <r>   9.4767  0.0000</r>
       <r>  10.2636  0.0000</r>
       <r>  10.2636  0.0000</r>
       <r>  10.8918  0.0000</r>
       <r>  10.8918  0.0000</r>
       <r>  10.8918  0.0000</r>
       <r>  10.8919  0.0000</r>
       <r>  11.5295  0.0000</r>
       <r>  11.5299  0.0000</r>
      </set>
      <set comment="kpoint 14">
       <r>  -2.6109  1.0000</r>
       <r>  -2.6109  1.0000</r>
       <r>  -1.1406  1.0000</r>
       <r>  -1.1406  1.0000</r>
       <r>  -0.4111  1.0000</r>
       <r>  -0.4111  1.0000</r>
       <r>  -0.4111  1.0000</r>
       <r>  -0.4111  1.0000</r>
       <r>   0.3145  1.0000</r>
       <r>   0.3145  1.0000</r>
       <r>   1.0377  1.0000</r>
       <r>   1.0377  1.0000</r>
       <r>   1.0377  1.0000</r>
       <r>   1.0377  1.0000</r>
       <r>   1.7500  1.0000</r>
       <r>   1.7500  1.0000</r>
       <r>   2.4714  1.0000</r>
       <r>   2.4714  1.0000</r>
       <r>   2.4714  1.0000</r>
       <r>   2.4714  1.0000</r>
       <r>   3.1764  1.0000</r>
       <r>   3.1764  1.0000</r>
       <r>   3.8838  1.0000</r>
       <r>   3.8838  1.0000</r>
       <r>   3.8838  1.0000</r>
       <r>   3.8838  1.0000</r>
       <r>   4.5209  1.0000</r>
       <r>   4.5210  1.0000</r>
       <r>   4.5870  1.0000</r>
       <r>   4.5870  1.0000</r>
       <r>   5.3027  1.0000</r>
       <r>   5.3028  1.0000</r>
       <r>   5.3028  1.0000</r>
       <r>   5.3028  1.0000</r>
       <r>   5.4306  1.0000</r>
       <r>   5.4306  1.0000</r>
       <r>   6.6156  1.0000</r>
       <r>   6.6156  1.0000</r>
       <r>   6.6156  1.0000</r>
       <r>   6.6156  1.0000</r>
       <r>   6.7009  1.0000</r>
       <r>   6.7010  1.0000</r>
       <r>   6.7010  1.0000</r>
       <r>   6.7010  1.0000</r>
       <r>   6.7170  1.0000</r>
       <r>   6.7171  1.0000</r>
       <r>   6.7956  1.0000</r>
       <r>   6.7957  1.0000</r>
       <r>   7.6190  1.0000</r>
       <r>   7.6190  1.0000</r>
       <r>   8.1634  0.0000</r>
       <r>   8.1634  0.0000</r>
       <r>   8.1855  0.0000</r>
       <r>   8.1855  0.0000</r>
       <r>   8.6995  0.0000</r>
       <r>   8.6995  0.0000</r>
       <r>   9.5337  0.0000</r>
       <r>   9.5337  0.0000</r>
       <r>   9.5599  0.0000</r>
       <r>   9.5600  0.0000</r>
       <r>   9.7324  0.0000</r>
       <r>   9.7324  0.0000</r>
       <r>   9.7324  0.0000</r>
       <r>   9.7324  0.0000</r>
       <r>  10.3182  0.0000</r>
       <r>  10.3182  0.0000</r>
       <r>  10.7396  0.0000</r>
       <r>  10.7396  0.0000</r>
       <r>  10.7396  0.0000</r>
       <r>  10.7397  0.0000</r>
       <r>  10.9041  0.0000</r>
       <r>  10.9478  0.0000</r>
      </set>
      <set comment="kpoint 15">
       <r>  -2.4263  1.0000</r>
       <r>  -2.4263  1.0000</r>
       <r>  -1.6902  1.0000</r>
       <r>  -1.6902  1.0000</r>
       <r>  -0.2292  1.0000</r>
       <r>  -0.2292  1.0000</r>
       <r>  -0.2292  1.0000</r>
       <r>  -0.2292  1.0000</r>
       <r>   0.4961  1.0000</r>
       <r>   0.4961  1.0000</r>
       <r>   0.4961  1.0000</r>
       <r>   0.4961  1.0000</r>
       <r>   1.2155  1.0000</r>
       <r>   1.2155  1.0000</r>
       <r>   1.9291  1.0000</r>
       <r>   1.9291  1.0000</r>
       <r>   2.6432  1.0000</r>
       <r>   2.6432  1.0000</r>
       <r>   3.3402  1.0000</r>
       <r>   3.3402  1.0000</r>
       <r>   3.3570  1.0000</r>
       <r>   3.3570  1.0000</r>
       <r>   3.3570  1.0000</r>
       <r>   3.3571  1.0000</r>
       <r>   4.0580  1.0000</r>
       <r>   4.0580  1.0000</r>
       <r>   4.0580  1.0000</r>
       <r>   4.0580  1.0000</r>
       <r>   4.7777  1.0000</r>
       <r>   4.7777  1.0000</r>
       <r>   4.7777  1.0000</r>
       <r>   4.7777  1.0000</r>
       <r>   5.4563  1.0000</r>
       <r>   5.4563  1.0000</r>
       <r>   5.4634  1.0000</r>
       <r>   5.4635  1.0000</r>
       <r>   5.4635  1.0000</r>
       <r>   5.4635  1.0000</r>
       <r>   5.6011  1.0000</r>
       <r>   5.6011  1.0000</r>
       <r>   6.2834  1.0000</r>
       <r>   6.2834  1.0000</r>
       <r>   6.8580  1.0000</r>
       <r>   6.8580  1.0000</r>
       <r>   7.5682  1.0000</r>
       <r>   7.5682  1.0000</r>
       <r>   7.5682  1.0000</r>
       <r>   7.5682  1.0000</r>
       <r>   7.6052  1.0000</r>
       <r>   7.6052  1.0000</r>
       <r>   7.6612  1.0000</r>
       <r>   7.6612  1.0000</r>
       <r>   9.0194  0.0000</r>
       <r>   9.0194  0.0000</r>
       <r>   9.1096  0.0000</r>
       <r>   9.1096  0.0000</r>
       <r>   9.6120  0.0000</r>
       <r>   9.6120  0.0000</r>
       <r>   9.6120  0.0000</r>
       <r>   9.6120  0.0000</r>
       <r>   9.7050  0.0000</r>
       <r>   9.7050  0.0000</r>
       <r>  10.3551  0.0000</r>
       <r>  10.3551  0.0000</r>
       <r>  10.3898  0.0000</r>
       <r>  10.3898  0.0000</r>
       <r>  10.4776  0.0000</r>
       <r>  10.4776  0.0000</r>
       <r>  11.0770  0.0000</r>
       <r>  11.0786  0.0000</r>
       <r>  11.1378  0.0000</r>
       <r>  11.1678  0.0000</r>
      </set>
      <set comment="kpoint 16">
       <r>  -2.1217  1.0000</r>
       <r>  -2.1195  1.0000</r>
       <r>  -2.1188  1.0000</r>
       <r>  -2.1167  1.0000</r>
       <r>   0.0699  1.0000</r>
       <r>   0.0720  1.0000</r>
       <r>   0.0730  1.0000</r>
       <r>   0.0731  1.0000</r>
       <r>   0.0737  1.0000</r>
       <r>   0.0739  1.0000</r>
       <r>   0.0749  1.0000</r>
       <r>   0.0769  1.0000</r>
       <r>   2.2233  1.0000</r>
       <r>   2.2251  1.0000</r>
       <r>   2.2267  1.0000</r>
       <r>   2.2270  1.0000</r>
       <r>   2.2271  1.0000</r>
       <r>   2.2274  1.0000</r>
       <r>   2.2290  1.0000</r>
       <r>   2.2308  1.0000</r>
       <r>   4.2626  1.0000</r>
       <r>   4.2642  1.0000</r>
       <r>   4.2649  1.0000</r>
       <r>   4.2653  1.0000</r>
       <r>   4.2654  1.0000</r>
       <r>   4.2658  1.0000</r>
       <r>   4.2665  1.0000</r>
       <r>   4.2680  1.0000</r>
       <r>   4.4531  1.0000</r>
       <r>   4.4532  1.0000</r>
       <r>   4.4541  1.0000</r>
       <r>   4.4549  1.0000</r>
       <r>   4.4550  1.0000</r>
       <r>   4.4558  1.0000</r>
       <r>   4.4568  1.0000</r>
       <r>   4.4568  1.0000</r>
       <r>   5.8826  1.0000</r>
       <r>   5.8849  1.0000</r>
       <r>   5.8856  1.0000</r>
       <r>   5.8880  1.0000</r>
       <r>   6.4058  1.0000</r>
       <r>   6.4068  1.0000</r>
       <r>   6.4076  1.0000</r>
       <r>   6.4086  1.0000</r>
       <r>   7.2747  1.0000</r>
       <r>   7.2758  1.0000</r>
       <r>   7.2770  1.0000</r>
       <r>   7.2781  1.0000</r>
       <r>   8.5401  0.0000</r>
       <r>   8.5411  0.0000</r>
       <r>   8.5412  0.0000</r>
       <r>   8.5416  0.0000</r>
       <r>   8.5424  0.0000</r>
       <r>   8.5428  0.0000</r>
       <r>   8.5429  0.0000</r>
       <r>   8.5438  0.0000</r>
       <r>   9.9850  0.0000</r>
       <r>   9.9887  0.0000</r>
       <r>   9.9901  0.0000</r>
       <r>   9.9904  0.0000</r>
       <r>   9.9904  0.0000</r>
       <r>   9.9907  0.0000</r>
       <r>   9.9921  0.0000</r>
       <r>   9.9958  0.0000</r>
       <r>  10.6926  0.0000</r>
       <r>  10.6941  0.0000</r>
       <r>  10.6955  0.0000</r>
       <r>  10.6958  0.0000</r>
       <r>  10.6961  0.0000</r>
       <r>  10.6963  0.0000</r>
       <r>  10.6978  0.0000</r>
       <r>  10.6992  0.0000</r>
      </set>
      <set comment="kpoint 17">
       <r>  -3.1043  1.0000</r>
       <r>  -1.6291  1.0000</r>
       <r>  -1.6290  1.0000</r>
       <r>  -0.8987  1.0000</r>
       <r>  -0.8954  1.0000</r>
       <r>  -0.1691  1.0000</r>
       <r>  -0.1691  1.0000</r>
       <r>  -0.1685  1.0000</r>
       <r>   0.5536  1.0000</r>
       <r>   0.5556  1.0000</r>
       <r>   0.5569  1.0000</r>
       <r>   0.5589  1.0000</r>
       <r>   1.2770  1.0000</r>
       <r>   1.2771  1.0000</r>
       <r>   1.9920  1.0000</r>
       <r>   1.9941  1.0000</r>
       <r>   1.9943  1.0000</r>
       <r>   1.9954  1.0000</r>
       <r>   1.9969  1.0000</r>
       <r>   1.9980  1.0000</r>
       <r>   2.7084  1.0000</r>
       <r>   3.3505  1.0000</r>
       <r>   3.3505  1.0000</r>
       <r>   3.4986  1.0000</r>
       <r>   3.4986  1.0000</r>
       <r>   4.0551  1.0000</r>
       <r>   4.0551  1.0000</r>
       <r>   4.8396  1.0000</r>
       <r>   4.8430  1.0000</r>
       <r>   4.9764  1.0000</r>
       <r>   5.4484  1.0000</r>
       <r>   5.4484  1.0000</r>
       <r>   6.0578  1.0000</r>
       <r>   6.0578  1.0000</r>
       <r>   6.2329  1.0000</r>
       <r>   6.2329  1.0000</r>
       <r>   6.2444  1.0000</r>
       <r>   6.3403  1.0000</r>
       <r>   6.3404  1.0000</r>
       <r>   6.8092  1.0000</r>
       <r>   6.8092  1.0000</r>
       <r>   7.1563  1.0000</r>
       <r>   7.1563  1.0000</r>
       <r>   7.5358  1.0000</r>
       <r>   7.5379  1.0000</r>
       <r>   7.5394  1.0000</r>
       <r>   7.5415  1.0000</r>
       <r>   7.7063  0.6146</r>
       <r>   7.7071  0.5705</r>
       <r>   7.7074  0.5557</r>
       <r>   7.7102  0.4012</r>
       <r>   7.7112  0.3471</r>
       <r>   8.4435  0.0000</r>
       <r>   8.4435  0.0000</r>
       <r>   8.9156  0.0000</r>
       <r>   8.9164  0.0000</r>
       <r>   8.9193  0.0000</r>
       <r>   8.9200  0.0000</r>
       <r>   9.0212  0.0000</r>
       <r>   9.0212  0.0000</r>
       <r>   9.0758  0.0000</r>
       <r>   9.0759  0.0000</r>
       <r>   9.1250  0.0000</r>
       <r>   9.2815  0.0000</r>
       <r>   9.2815  0.0000</r>
       <r>   9.5683  0.0000</r>
       <r>   9.5683  0.0000</r>
       <r>  10.0192  0.0000</r>
       <r>  10.0193  0.0000</r>
       <r>  10.4451  0.0000</r>
       <r>  10.5007  0.0000</r>
       <r>  10.5007  0.0000</r>
      </set>
      <set comment="kpoint 18">
       <r>  -3.0426  1.0000</r>
       <r>  -1.5694  1.0000</r>
       <r>  -1.5679  1.0000</r>
       <r>  -1.5664  1.0000</r>
       <r>  -0.1116  1.0000</r>
       <r>  -0.1088  1.0000</r>
       <r>  -0.1085  1.0000</r>
       <r>  -0.1080  1.0000</r>
       <r>  -0.1077  1.0000</r>
       <r>  -0.1050  1.0000</r>
       <r>   1.3340  1.0000</r>
       <r>   1.3360  1.0000</r>
       <r>   1.3368  1.0000</r>
       <r>   1.3370  1.0000</r>
       <r>   1.3379  1.0000</r>
       <r>   1.3380  1.0000</r>
       <r>   1.3404  1.0000</r>
       <r>   2.7654  1.0000</r>
       <r>   2.7669  1.0000</r>
       <r>   2.7675  1.0000</r>
       <r>   2.7681  1.0000</r>
       <r>   2.7687  1.0000</r>
       <r>   2.7702  1.0000</r>
       <r>   4.1128  1.0000</r>
       <r>   4.1134  1.0000</r>
       <r>   4.1140  1.0000</r>
       <r>   4.1953  1.0000</r>
       <r>   4.1960  1.0000</r>
       <r>   4.1967  1.0000</r>
       <r>   5.5017  1.0000</r>
       <r>   5.5032  1.0000</r>
       <r>   5.5044  1.0000</r>
       <r>   5.5044  1.0000</r>
       <r>   5.5056  1.0000</r>
       <r>   5.5071  1.0000</r>
       <r>   5.6022  1.0000</r>
       <r>   6.8941  1.0000</r>
       <r>   6.8945  1.0000</r>
       <r>   6.8959  1.0000</r>
       <r>   6.8960  1.0000</r>
       <r>   6.8971  1.0000</r>
       <r>   6.8976  1.0000</r>
       <r>   6.9032  1.0000</r>
       <r>   6.9048  1.0000</r>
       <r>   6.9063  1.0000</r>
       <r>   7.2138  1.0000</r>
       <r>   7.2144  1.0000</r>
       <r>   7.2151  1.0000</r>
       <r>   8.2841  0.0000</r>
       <r>   8.2849  0.0000</r>
       <r>   8.2860  0.0000</r>
       <r>   8.2860  0.0000</r>
       <r>   8.2870  0.0000</r>
       <r>   8.2879  0.0000</r>
       <r>   8.6084  0.0000</r>
       <r>   8.6092  0.0000</r>
       <r>   8.6102  0.0000</r>
       <r>   8.6102  0.0000</r>
       <r>   8.6113  0.0000</r>
       <r>   8.6120  0.0000</r>
       <r>   9.6612  0.0000</r>
       <r>   9.6621  0.0000</r>
       <r>   9.6630  0.0000</r>
       <r>  10.0313  0.0000</r>
       <r>  10.0320  0.0000</r>
       <r>  10.0329  0.0000</r>
       <r>  10.0878  0.0000</r>
       <r>  10.0891  0.0000</r>
       <r>  10.0898  0.0000</r>
       <r>  10.0898  0.0000</r>
       <r>  10.0906  0.0000</r>
       <r>  10.0918  0.0000</r>
      </set>
      <set comment="kpoint 19">
       <r>  -2.8574  1.0000</r>
       <r>  -2.1191  1.0000</r>
       <r>  -1.3846  1.0000</r>
       <r>  -1.3846  1.0000</r>
       <r>  -0.6538  1.0000</r>
       <r>  -0.6537  1.0000</r>
       <r>   0.0729  1.0000</r>
       <r>   0.0729  1.0000</r>
       <r>   0.0735  1.0000</r>
       <r>   0.7938  1.0000</r>
       <r>   0.7966  1.0000</r>
       <r>   0.7971  1.0000</r>
       <r>   0.7982  1.0000</r>
       <r>   1.5168  1.0000</r>
       <r>   1.5168  1.0000</r>
       <r>   2.2308  1.0000</r>
       <r>   2.2313  1.0000</r>
       <r>   2.2339  1.0000</r>
       <r>   2.2345  1.0000</r>
       <r>   2.9268  1.0000</r>
       <r>   2.9456  1.0000</r>
       <r>   3.5795  1.0000</r>
       <r>   3.6528  1.0000</r>
       <r>   3.6528  1.0000</r>
       <r>   3.7399  1.0000</r>
       <r>   4.2881  1.0000</r>
       <r>   4.2881  1.0000</r>
       <r>   4.3389  1.0000</r>
       <r>   4.3389  1.0000</r>
       <r>   4.9851  1.0000</r>
       <r>   4.9851  1.0000</r>
       <r>   5.0739  1.0000</r>
       <r>   5.0740  1.0000</r>
       <r>   5.6133  1.0000</r>
       <r>   5.6133  1.0000</r>
       <r>   5.7525  1.0000</r>
       <r>   5.8138  1.0000</r>
       <r>   5.8138  1.0000</r>
       <r>   6.3851  1.0000</r>
       <r>   6.3851  1.0000</r>
       <r>   6.4748  1.0000</r>
       <r>   7.0739  1.0000</r>
       <r>   7.0739  1.0000</r>
       <r>   7.1452  1.0000</r>
       <r>   7.1452  1.0000</r>
       <r>   7.3875  1.0000</r>
       <r>   7.3875  1.0000</r>
       <r>   7.7072  0.5678</r>
       <r>   7.7072  0.5661</r>
       <r>   7.7677  0.0000</r>
       <r>   7.7677  0.0000</r>
       <r>   8.1576  0.0000</r>
       <r>   8.1576  0.0000</r>
       <r>   8.5305  0.0000</r>
       <r>   8.7214  0.0000</r>
       <r>   8.8092  0.0000</r>
       <r>   8.8092  0.0000</r>
       <r>   9.1446  0.0000</r>
       <r>   9.1446  0.0000</r>
       <r>   9.5132  0.0000</r>
       <r>   9.5132  0.0000</r>
       <r>   9.8243  0.0000</r>
       <r>   9.8243  0.0000</r>
       <r>   9.9217  0.0000</r>
       <r>   9.9217  0.0000</r>
       <r>  10.4290  0.0000</r>
       <r>  10.4290  0.0000</r>
       <r>  10.5170  0.0000</r>
       <r>  10.5170  0.0000</r>
       <r>  10.8741  0.0000</r>
       <r>  10.8769  0.0000</r>
       <r>  10.9064  0.0000</r>
      </set>
      <set comment="kpoint 20">
       <r>  -2.5508  1.0000</r>
       <r>  -2.5479  1.0000</r>
       <r>  -1.0821  1.0000</r>
       <r>  -1.0801  1.0000</r>
       <r>  -1.0792  1.0000</r>
       <r>  -1.0773  1.0000</r>
       <r>   0.3722  1.0000</r>
       <r>   0.3744  1.0000</r>
       <r>   0.3744  1.0000</r>
       <r>   0.3753  1.0000</r>
       <r>   0.3765  1.0000</r>
       <r>   0.3778  1.0000</r>
       <r>   1.8083  1.0000</r>
       <r>   1.8100  1.0000</r>
       <r>   1.8147  1.0000</r>
       <r>   1.8149  1.0000</r>
       <r>   1.8172  1.0000</r>
       <r>   1.8181  1.0000</r>
       <r>   3.2345  1.0000</r>
       <r>   3.2350  1.0000</r>
       <r>   3.2360  1.0000</r>
       <r>   3.2362  1.0000</r>
       <r>   3.2390  1.0000</r>
       <r>   3.2418  1.0000</r>
       <r>   4.5773  1.0000</r>
       <r>   4.5776  1.0000</r>
       <r>   4.5803  1.0000</r>
       <r>   4.5806  1.0000</r>
       <r>   4.6425  1.0000</r>
       <r>   4.6429  1.0000</r>
       <r>   4.6439  1.0000</r>
       <r>   4.6442  1.0000</r>
       <r>   4.6597  1.0000</r>
       <r>   4.6611  1.0000</r>
       <r>   5.9806  1.0000</r>
       <r>   5.9825  1.0000</r>
       <r>   5.9835  1.0000</r>
       <r>   5.9854  1.0000</r>
       <r>   6.0598  1.0000</r>
       <r>   6.0604  1.0000</r>
       <r>   6.0612  1.0000</r>
       <r>   6.0619  1.0000</r>
       <r>   7.3618  1.0000</r>
       <r>   7.3625  1.0000</r>
       <r>   7.3648  1.0000</r>
       <r>   7.3655  1.0000</r>
       <r>   7.4537  1.0000</r>
       <r>   7.4552  1.0000</r>
       <r>   7.6652  1.0000</r>
       <r>   7.6658  1.0000</r>
       <r>   7.6680  1.0000</r>
       <r>   7.6687  1.0000</r>
       <r>   8.7636  0.0000</r>
       <r>   8.7641  0.0000</r>
       <r>   8.7654  0.0000</r>
       <r>   8.7659  0.0000</r>
       <r>   9.1039  0.0000</r>
       <r>   9.1046  0.0000</r>
       <r>   9.1067  0.0000</r>
       <r>   9.1075  0.0000</r>
       <r>  10.1099  0.0000</r>
       <r>  10.1107  0.0000</r>
       <r>  10.1118  0.0000</r>
       <r>  10.1125  0.0000</r>
       <r>  10.3672  0.0000</r>
       <r>  10.3684  0.0000</r>
       <r>  10.4496  0.0000</r>
       <r>  10.4517  0.0000</r>
       <r>  10.4527  0.0000</r>
       <r>  10.4548  0.0000</r>
       <r>  11.4327  0.0000</r>
       <r>  11.4490  0.0000</r>
      </set>
      <set comment="kpoint 21">
       <r>  -2.9191  1.0000</r>
       <r>  -2.1805  1.0000</r>
       <r>  -1.4457  1.0000</r>
       <r>  -0.7168  1.0000</r>
       <r>  -0.7146  1.0000</r>
       <r>  -0.7125  1.0000</r>
       <r>   0.0107  1.0000</r>
       <r>   0.0126  1.0000</r>
       <r>   0.0150  1.0000</r>
       <r>   0.7339  1.0000</r>
       <r>   0.7358  1.0000</r>
       <r>   0.7365  1.0000</r>
       <r>   0.7390  1.0000</r>
       <r>   1.4561  1.0000</r>
       <r>   1.4594  1.0000</r>
       <r>   2.1715  1.0000</r>
       <r>   2.1725  1.0000</r>
       <r>   2.1754  1.0000</r>
       <r>   2.8676  1.0000</r>
       <r>   2.8834  1.0000</r>
       <r>   2.8847  1.0000</r>
       <r>   2.8867  1.0000</r>
       <r>   2.8880  1.0000</r>
       <r>   3.5941  1.0000</r>
       <r>   4.2299  1.0000</r>
       <r>   4.2806  1.0000</r>
       <r>   4.3109  1.0000</r>
       <r>   4.3143  1.0000</r>
       <r>   4.9275  1.0000</r>
       <r>   4.9772  1.0000</r>
       <r>   4.9806  1.0000</r>
       <r>   5.1467  1.0000</r>
       <r>   5.6747  1.0000</r>
       <r>   5.7157  1.0000</r>
       <r>   5.7191  1.0000</r>
       <r>   5.8285  1.0000</r>
       <r>   6.3269  1.0000</r>
       <r>   6.3304  1.0000</r>
       <r>   6.3902  1.0000</r>
       <r>   6.3937  1.0000</r>
       <r>   6.4233  1.0000</r>
       <r>   6.5111  1.0000</r>
       <r>   7.0178  1.0000</r>
       <r>   7.0214  1.0000</r>
       <r>   7.0959  1.0000</r>
       <r>   7.1942  1.0000</r>
       <r>   7.3309  1.0000</r>
       <r>   7.7642  0.0000</r>
       <r>   7.7798  0.0000</r>
       <r>   7.7833  0.0000</r>
       <r>   7.8783  0.0000</r>
       <r>   7.8889  0.0000</r>
       <r>   8.0114  0.0000</r>
       <r>   8.5625  0.0000</r>
       <r>   8.5631  0.0000</r>
       <r>   8.5985  0.0000</r>
       <r>   8.6655  0.0000</r>
       <r>   9.2080  0.0000</r>
       <r>   9.4184  0.0000</r>
       <r>   9.4212  0.0000</r>
       <r>   9.7656  0.0000</r>
       <r>   9.7730  0.0000</r>
       <r>   9.7767  0.0000</r>
       <r>   9.9322  0.0000</r>
       <r>   9.9788  0.0000</r>
       <r>  10.0384  0.0000</r>
       <r>  10.1406  0.0000</r>
       <r>  10.1437  0.0000</r>
       <r>  10.1773  0.0000</r>
       <r>  10.6193  0.0000</r>
       <r>  10.8135  0.0000</r>
       <r>  10.8232  0.0000</r>
      </set>
      <set comment="kpoint 22">
       <r>  -2.8574  1.0000</r>
       <r>  -2.1191  1.0000</r>
       <r>  -1.3857  1.0000</r>
       <r>  -1.3836  1.0000</r>
       <r>  -0.6548  1.0000</r>
       <r>  -0.6527  1.0000</r>
       <r>   0.0714  1.0000</r>
       <r>   0.0731  1.0000</r>
       <r>   0.0748  1.0000</r>
       <r>   0.7945  1.0000</r>
       <r>   0.7955  1.0000</r>
       <r>   0.7969  1.0000</r>
       <r>   0.7987  1.0000</r>
       <r>   1.5163  1.0000</r>
       <r>   1.5173  1.0000</r>
       <r>   2.2304  1.0000</r>
       <r>   2.2325  1.0000</r>
       <r>   2.2333  1.0000</r>
       <r>   2.2342  1.0000</r>
       <r>   2.9268  1.0000</r>
       <r>   2.9455  1.0000</r>
       <r>   3.5795  1.0000</r>
       <r>   3.6517  1.0000</r>
       <r>   3.6539  1.0000</r>
       <r>   3.7399  1.0000</r>
       <r>   4.2877  1.0000</r>
       <r>   4.2886  1.0000</r>
       <r>   4.3377  1.0000</r>
       <r>   4.3399  1.0000</r>
       <r>   4.9847  1.0000</r>
       <r>   4.9856  1.0000</r>
       <r>   5.0734  1.0000</r>
       <r>   5.0744  1.0000</r>
       <r>   5.6123  1.0000</r>
       <r>   5.6144  1.0000</r>
       <r>   5.7525  1.0000</r>
       <r>   5.8127  1.0000</r>
       <r>   5.8150  1.0000</r>
       <r>   6.3840  1.0000</r>
       <r>   6.3862  1.0000</r>
       <r>   6.4748  1.0000</r>
       <r>   7.0733  1.0000</r>
       <r>   7.0745  1.0000</r>
       <r>   7.1446  1.0000</r>
       <r>   7.1457  1.0000</r>
       <r>   7.3870  1.0000</r>
       <r>   7.3880  1.0000</r>
       <r>   7.7065  0.6063</r>
       <r>   7.7079  0.5251</r>
       <r>   7.7671  0.0000</r>
       <r>   7.7683  0.0000</r>
       <r>   8.1575  0.0000</r>
       <r>   8.1577  0.0000</r>
       <r>   8.5305  0.0000</r>
       <r>   8.7214  0.0000</r>
       <r>   8.8086  0.0000</r>
       <r>   8.8098  0.0000</r>
       <r>   9.1435  0.0000</r>
       <r>   9.1458  0.0000</r>
       <r>   9.5126  0.0000</r>
       <r>   9.5138  0.0000</r>
       <r>   9.8238  0.0000</r>
       <r>   9.8248  0.0000</r>
       <r>   9.9205  0.0000</r>
       <r>   9.9229  0.0000</r>
       <r>  10.4281  0.0000</r>
       <r>  10.4298  0.0000</r>
       <r>  10.5163  0.0000</r>
       <r>  10.5176  0.0000</r>
       <r>  10.8731  0.0000</r>
       <r>  10.8834  0.0000</r>
       <r>  10.9061  0.0000</r>
      </set>
      <set comment="kpoint 23">
       <r>  -2.6725  1.0000</r>
       <r>  -1.9362  1.0000</r>
       <r>  -1.9341  1.0000</r>
       <r>  -1.2025  1.0000</r>
       <r>  -1.2006  1.0000</r>
       <r>  -0.4727  1.0000</r>
       <r>  -0.4705  1.0000</r>
       <r>   0.2539  1.0000</r>
       <r>   0.2551  1.0000</r>
       <r>   0.9736  1.0000</r>
       <r>   0.9758  1.0000</r>
       <r>   0.9766  1.0000</r>
       <r>   0.9788  1.0000</r>
       <r>   1.6937  1.0000</r>
       <r>   1.6948  1.0000</r>
       <r>   1.6971  1.0000</r>
       <r>   2.4091  1.0000</r>
       <r>   2.4113  1.0000</r>
       <r>   3.1036  1.0000</r>
       <r>   3.1045  1.0000</r>
       <r>   3.1206  1.0000</r>
       <r>   3.1215  1.0000</r>
       <r>   3.8101  1.0000</r>
       <r>   3.8123  1.0000</r>
       <r>   3.8266  1.0000</r>
       <r>   3.8288  1.0000</r>
       <r>   4.4626  1.0000</r>
       <r>   4.5115  1.0000</r>
       <r>   4.5124  1.0000</r>
       <r>   4.5298  1.0000</r>
       <r>   4.5472  1.0000</r>
       <r>   4.5482  1.0000</r>
       <r>   5.1557  1.0000</r>
       <r>   5.1580  1.0000</r>
       <r>   5.2291  1.0000</r>
       <r>   5.2313  1.0000</r>
       <r>   5.8674  1.0000</r>
       <r>   5.9271  1.0000</r>
       <r>   5.9281  1.0000</r>
       <r>   5.9485  1.0000</r>
       <r>   6.6094  1.0000</r>
       <r>   6.6107  1.0000</r>
       <r>   6.6220  1.0000</r>
       <r>   6.6242  1.0000</r>
       <r>   7.3434  1.0000</r>
       <r>   7.5500  1.0000</r>
       <r>   7.9284  0.0000</r>
       <r>   7.9308  0.0000</r>
       <r>   8.0089  0.0000</r>
       <r>   8.0100  0.0000</r>
       <r>   8.2986  0.0000</r>
       <r>   8.3003  0.0000</r>
       <r>   8.6266  0.0000</r>
       <r>   8.6279  0.0000</r>
       <r>   8.7061  0.0000</r>
       <r>   8.8832  0.0000</r>
       <r>   8.8843  0.0000</r>
       <r>   8.9937  0.0000</r>
       <r>   9.3891  0.0000</r>
       <r>   9.3903  0.0000</r>
       <r>   9.5859  0.0000</r>
       <r>   9.5873  0.0000</r>
       <r>  10.0040  0.0000</r>
       <r>  10.0052  0.0000</r>
       <r>  10.0485  0.0000</r>
       <r>  10.2749  0.0000</r>
       <r>  10.2757  0.0000</r>
       <r>  10.6593  0.0000</r>
       <r>  10.6618  0.0000</r>
       <r>  10.9846  0.0000</r>
       <r>  10.9857  0.0000</r>
       <r>  11.0918  0.0000</r>
      </set>
      <set comment="kpoint 24">
       <r>  -2.3663  1.0000</r>
       <r>  -2.3634  1.0000</r>
       <r>  -1.6305  1.0000</r>
       <r>  -1.6276  1.0000</r>
       <r>  -0.8984  1.0000</r>
       <r>  -0.8956  1.0000</r>
       <r>  -0.1699  1.0000</r>
       <r>  -0.1670  1.0000</r>
       <r>   0.5543  1.0000</r>
       <r>   0.5572  1.0000</r>
       <r>   1.2739  1.0000</r>
       <r>   1.2759  1.0000</r>
       <r>   1.2767  1.0000</r>
       <r>   1.2787  1.0000</r>
       <r>   1.9880  1.0000</r>
       <r>   1.9894  1.0000</r>
[...]
       <r>   6.8580  1.0000</r>
       <r>   7.5662  1.0000</r>
       <r>   7.5667  1.0000</r>
       <r>   7.5697  1.0000</r>
       <r>   7.5702  1.0000</r>
       <r>   7.6052  1.0000</r>
       <r>   7.6052  1.0000</r>
       <r>   7.6612  1.0000</r>
       <r>   7.6612  1.0000</r>
       <r>   9.0193  0.0000</r>
       <r>   9.0194  0.0000</r>
       <r>   9.1096  0.0000</r>
       <r>   9.1097  0.0000</r>
       <r>   9.6100  0.0000</r>
       <r>   9.6104  0.0000</r>
       <r>   9.6136  0.0000</r>
       <r>   9.6140  0.0000</r>
       <r>   9.7050  0.0000</r>
       <r>   9.7050  0.0000</r>
       <r>  10.3550  0.0000</r>
       <r>  10.3551  0.0000</r>
       <r>  10.3898  0.0000</r>
       <r>  10.3899  0.0000</r>
       <r>  10.4776  0.0000</r>
       <r>  10.4776  0.0000</r>
       <r>  11.0765  0.0000</r>
       <r>  11.0769  0.0000</r>
       <r>  11.1331  0.0000</r>
       <r>  11.1408  0.0000</r>
      </set>
      <set comment="kpoint 34">
       <r>  -2.3649  1.0000</r>
       <r>  -2.3648  1.0000</r>
       <r>  -1.6291  1.0000</r>
       <r>  -1.6291  1.0000</r>
       <r>  -0.8970  1.0000</r>
       <r>  -0.8970  1.0000</r>
       <r>  -0.1685  1.0000</r>
       <r>  -0.1685  1.0000</r>
       <r>   0.5557  1.0000</r>
       <r>   0.5557  1.0000</r>
       <r>   1.2750  1.0000</r>
       <r>   1.2754  1.0000</r>
       <r>   1.2772  1.0000</r>
       <r>   1.2776  1.0000</r>
       <r>   1.9887  1.0000</r>
       <r>   1.9887  1.0000</r>
       <r>   2.7024  1.0000</r>
       <r>   2.7025  1.0000</r>
       <r>   2.7073  1.0000</r>
       <r>   2.7073  1.0000</r>
       <r>   3.3991  1.0000</r>
       <r>   3.3992  1.0000</r>
       <r>   3.4124  1.0000</r>
       <r>   3.4125  1.0000</r>
       <r>   4.0370  1.0000</r>
       <r>   4.0370  1.0000</r>
       <r>   4.2181  1.0000</r>
       <r>   4.2182  1.0000</r>
       <r>   4.7200  1.0000</r>
       <r>   4.7200  1.0000</r>
       <r>   4.7529  1.0000</r>
       <r>   4.7529  1.0000</r>
       <r>   4.9215  1.0000</r>
       <r>   4.9215  1.0000</r>
       <r>   5.3862  1.0000</r>
       <r>   5.3862  1.0000</r>
       <r>   5.5358  1.0000</r>
       <r>   5.5358  1.0000</r>
       <r>   5.5917  1.0000</r>
       <r>   5.5917  1.0000</r>
       <r>   6.2164  1.0000</r>
       <r>   6.2164  1.0000</r>
       <r>   6.9305  1.0000</r>
       <r>   6.9305  1.0000</r>
       <r>   7.5147  1.0000</r>
       <r>   7.5147  1.0000</r>
       <r>   7.9613  0.0000</r>
       <r>   7.9613  0.0000</r>
       <r>   8.2230  0.0000</r>
       <r>   8.2230  0.0000</r>
       <r>   8.3185  0.0000</r>
       <r>   8.3185  0.0000</r>
       <r>   8.5877  0.0000</r>
       <r>   8.5877  0.0000</r>
       <r>   8.8497  0.0000</r>
       <r>   8.8497  0.0000</r>
       <r>   8.9804  0.0000</r>
       <r>   8.9804  0.0000</r>
       <r>   9.2516  0.0000</r>
       <r>   9.2516  0.0000</r>
       <r>   9.5946  0.0000</r>
       <r>   9.5946  0.0000</r>
       <r>  10.2162  0.0000</r>
       <r>  10.2162  0.0000</r>
       <r>  10.3548  0.0000</r>
       <r>  10.3548  0.0000</r>
       <r>  10.5805  0.0000</r>
       <r>  10.5805  0.0000</r>
       <r>  10.6065  0.0000</r>
       <r>  10.6065  0.0000</r>
       <r>  11.0658  0.0000</r>
       <r>  11.0658  0.0000</r>
      </set>
      <set comment="kpoint 35">
       <r>  -2.1806  1.0000</r>
       <r>  -2.1806  1.0000</r>
       <r>  -1.4477  1.0000</r>
       <r>  -1.4458  1.0000</r>
       <r>  -1.4456  1.0000</r>
       <r>  -1.4437  1.0000</r>
       <r>  -0.7145  1.0000</r>
       <r>  -0.7145  1.0000</r>
       <r>   1.4531  1.0000</r>
       <r>   1.4551  1.0000</r>
       <r>   1.4553  1.0000</r>
       <r>   1.4572  1.0000</r>
       <r>   2.1667  1.0000</r>
       <r>   2.1674  1.0000</r>
       <r>   2.1717  1.0000</r>
       <r>   2.1720  1.0000</r>
       <r>   2.1723  1.0000</r>
       <r>   2.1734  1.0000</r>
       <r>   2.8792  1.0000</r>
       <r>   2.8793  1.0000</r>
       <r>   2.8814  1.0000</r>
       <r>   2.8815  1.0000</r>
       <r>   3.5748  1.0000</r>
       <r>   3.5757  1.0000</r>
       <r>   3.5759  1.0000</r>
       <r>   3.5765  1.0000</r>
       <r>   3.5878  1.0000</r>
       <r>   3.5881  1.0000</r>
       <r>   4.2759  1.0000</r>
       <r>   4.2778  1.0000</r>
       <r>   4.2780  1.0000</r>
       <r>   4.2799  1.0000</r>
       <r>   5.0155  1.0000</r>
       <r>   5.0155  1.0000</r>
       <r>   5.7089  1.0000</r>
       <r>   5.7089  1.0000</r>
       <r>   5.7111  1.0000</r>
       <r>   5.7111  1.0000</r>
       <r>   6.4062  1.0000</r>
       <r>   6.4071  1.0000</r>
       <r>   6.4073  1.0000</r>
       <r>   6.4081  1.0000</r>
       <r>   7.0815  1.0000</r>
       <r>   7.0825  1.0000</r>
       <r>   7.0826  1.0000</r>
       <r>   7.0836  1.0000</r>
       <r>   7.7579  0.0000</r>
       <r>   7.7586  0.0000</r>
       <r>   7.7590  0.0000</r>
       <r>   7.7598  0.0000</r>
       <r>   8.4603  0.0000</r>
       <r>   8.4603  0.0000</r>
       <r>   8.4625  0.0000</r>
       <r>   8.4626  0.0000</r>
       <r>   9.1220  0.0000</r>
       <r>   9.1220  0.0000</r>
       <r>   9.1789  0.0000</r>
       <r>   9.1789  0.0000</r>
       <r>   9.3869  0.0000</r>
       <r>   9.3874  0.0000</r>
       <r>   9.3877  0.0000</r>
       <r>   9.3882  0.0000</r>
       <r>  10.0700  0.0000</r>
       <r>  10.0710  0.0000</r>
       <r>  10.0712  0.0000</r>
       <r>  10.0722  0.0000</r>
       <r>  10.7441  0.0000</r>
       <r>  10.7441  0.0000</r>
       <r>  11.2055  0.0000</r>
       <r>  11.2065  0.0000</r>
       <r>  11.2067  0.0000</r>
       <r>  11.2076  0.0000</r>
      </set>
      <set comment="kpoint 36">
       <r>  -1.8764  1.0000</r>
       <r>  -1.8743  1.0000</r>
       <r>  -1.8736  1.0000</r>
       <r>  -1.8714  1.0000</r>
       <r>  -1.1431  1.0000</r>
       <r>  -1.1410  1.0000</r>
       <r>  -1.1402  1.0000</r>
       <r>  -1.1381  1.0000</r>
       <r>   1.7518  1.0000</r>
       <r>   1.7540  1.0000</r>
       <r>   1.7547  1.0000</r>
       <r>   1.7568  1.0000</r>
       <r>   2.4612  1.0000</r>
       <r>   2.4630  1.0000</r>
       <r>   2.4646  1.0000</r>
       <r>   2.4649  1.0000</r>
       <r>   2.4650  1.0000</r>
       <r>   2.4653  1.0000</r>
       <r>   2.4669  1.0000</r>
       <r>   2.4687  1.0000</r>
       <r>   3.1724  1.0000</r>
       <r>   3.1742  1.0000</r>
       <r>   3.1758  1.0000</r>
       <r>   3.1761  1.0000</r>
       <r>   3.1762  1.0000</r>
       <r>   3.1765  1.0000</r>
       <r>   3.1781  1.0000</r>
       <r>   3.1799  1.0000</r>
       <r>   3.8669  1.0000</r>
       <r>   3.8691  1.0000</r>
       <r>   3.8698  1.0000</r>
       <r>   3.8721  1.0000</r>
       <r>   5.9957  1.0000</r>
       <r>   5.9975  1.0000</r>
       <r>   5.9993  1.0000</r>
       <r>   5.9995  1.0000</r>
       <r>   5.9997  1.0000</r>
       <r>   5.9999  1.0000</r>
       <r>   6.0016  1.0000</r>
       <r>   6.0034  1.0000</r>
       <r>   6.6856  1.0000</r>
       <r>   6.6868  1.0000</r>
       <r>   6.6871  1.0000</r>
       <r>   6.6882  1.0000</r>
       <r>   7.3846  1.0000</r>
       <r>   7.3858  1.0000</r>
       <r>   7.3861  1.0000</r>
       <r>   7.3873  1.0000</r>
       <r>   8.0511  0.0000</r>
       <r>   8.0532  0.0000</r>
       <r>   8.0550  0.0000</r>
       <r>   8.0552  0.0000</r>
       <r>   8.0553  0.0000</r>
       <r>   8.0556  0.0000</r>
       <r>   8.0573  0.0000</r>
       <r>   8.0594  0.0000</r>
       <r>   9.6692  0.0000</r>
       <r>   9.6711  0.0000</r>
       <r>   9.6720  0.0000</r>
       <r>   9.6740  0.0000</r>
       <r>  10.1435  0.0000</r>
       <r>  10.1446  0.0000</r>
       <r>  10.1451  0.0000</r>
       <r>  10.1463  0.0000</r>
       <r>  11.0193  0.0000</r>
       <r>  11.0201  0.0000</r>
       <r>  11.0203  0.0000</r>
       <r>  11.0215  0.0000</r>
       <r>  11.0218  0.0000</r>
       <r>  11.0229  0.0000</r>
       <r>  11.0232  0.0000</r>
       <r>  11.0240  0.0000</r>
      </set>
      <set comment="kpoint 37">
       <r>  -2.1192  1.0000</r>
       <r>  -2.1192  1.0000</r>
       <r>  -2.1192  1.0000</r>
       <r>  -2.1192  1.0000</r>
       <r>   0.0684  1.0000</r>
       <r>   0.0728  1.0000</r>
       <r>   0.0728  1.0000</r>
       <r>   0.0732  1.0000</r>
       <r>   0.0737  1.0000</r>
       <r>   0.0741  1.0000</r>
       <r>   0.0741  1.0000</r>
       <r>   0.0784  1.0000</r>
       <r>   2.2270  1.0000</r>
       <r>   2.2270  1.0000</r>
       <r>   2.2270  1.0000</r>
       <r>   2.2270  1.0000</r>
       <r>   2.2270  1.0000</r>
       <r>   2.2270  1.0000</r>
       <r>   2.2270  1.0000</r>
       <r>   2.2270  1.0000</r>
       <r>   4.2639  1.0000</r>
       <r>   4.2639  1.0000</r>
       <r>   4.2653  1.0000</r>
       <r>   4.2654  1.0000</r>
       <r>   4.2654  1.0000</r>
       <r>   4.2654  1.0000</r>
       <r>   4.2667  1.0000</r>
       <r>   4.2667  1.0000</r>
       <r>   4.4534  1.0000</r>
       <r>   4.4534  1.0000</r>
       <r>   4.4549  1.0000</r>
       <r>   4.4549  1.0000</r>
       <r>   4.4549  1.0000</r>
       <r>   4.4550  1.0000</r>
       <r>   4.4565  1.0000</r>
       <r>   4.4565  1.0000</r>
       <r>   5.8853  1.0000</r>
       <r>   5.8853  1.0000</r>
       <r>   5.8853  1.0000</r>
       <r>   5.8853  1.0000</r>
       <r>   6.4072  1.0000</r>
       <r>   6.4072  1.0000</r>
       <r>   6.4072  1.0000</r>
       <r>   6.4072  1.0000</r>
       <r>   7.2764  1.0000</r>
       <r>   7.2764  1.0000</r>
       <r>   7.2764  1.0000</r>
       <r>   7.2764  1.0000</r>
       <r>   8.5397  0.0000</r>
       <r>   8.5397  0.0000</r>
       <r>   8.5403  0.0000</r>
       <r>   8.5412  0.0000</r>
       <r>   8.5428  0.0000</r>
       <r>   8.5437  0.0000</r>
       <r>   8.5442  0.0000</r>
       <r>   8.5442  0.0000</r>
       <r>   9.9904  0.0000</r>
       <r>   9.9904  0.0000</r>
       <r>   9.9904  0.0000</r>
       <r>   9.9904  0.0000</r>
       <r>   9.9904  0.0000</r>
       <r>   9.9904  0.0000</r>
       <r>   9.9904  0.0000</r>
       <r>   9.9904  0.0000</r>
       <r>  10.6959  0.0000</r>
       <r>  10.6959  0.0000</r>
       <r>  10.6959  0.0000</r>
       <r>  10.6959  0.0000</r>
       <r>  10.6959  0.0000</r>
       <r>  10.6959  0.0000</r>
       <r>  10.6960  0.0000</r>
       <r>  10.6960  0.0000</r>
      </set>
      <set comment="kpoint 38">
       <r>  -2.0578  1.0000</r>
       <r>  -2.0578  1.0000</r>
       <r>  -2.0578  1.0000</r>
       <r>  -2.0578  1.0000</r>
       <r>  -0.5930  1.0000</r>
       <r>  -0.5930  1.0000</r>
       <r>  -0.5930  1.0000</r>
       <r>  -0.5930  1.0000</r>
       <r>   0.8568  1.0000</r>
       <r>   0.8568  1.0000</r>
       <r>   0.8568  1.0000</r>
       <r>   0.8568  1.0000</r>
       <r>   2.2865  1.0000</r>
       <r>   2.2865  1.0000</r>
       <r>   2.2865  1.0000</r>
       <r>   2.2866  1.0000</r>
       <r>   2.2866  1.0000</r>
       <r>   2.2866  1.0000</r>
       <r>   2.2866  1.0000</r>
       <r>   2.2866  1.0000</r>
       <r>   3.7053  1.0000</r>
       <r>   3.7053  1.0000</r>
       <r>   3.7055  1.0000</r>
       <r>   3.7055  1.0000</r>
       <r>   3.7055  1.0000</r>
       <r>   3.7055  1.0000</r>
       <r>   3.7056  1.0000</r>
       <r>   3.7056  1.0000</r>
       <r>   5.0408  1.0000</r>
       <r>   5.0408  1.0000</r>
       <r>   5.0409  1.0000</r>
       <r>   5.0409  1.0000</r>
       <r>   5.1286  1.0000</r>
       <r>   5.1286  1.0000</r>
       <r>   5.1289  1.0000</r>
       <r>   5.1289  1.0000</r>
       <r>   5.1289  1.0000</r>
       <r>   5.1289  1.0000</r>
       <r>   5.1292  1.0000</r>
       <r>   5.1292  1.0000</r>
       <r>   6.5056  1.0000</r>
       <r>   6.5056  1.0000</r>
       <r>   6.5056  1.0000</r>
       <r>   6.5056  1.0000</r>
       <r>   7.9072  0.0000</r>
       <r>   7.9072  0.0000</r>
       <r>   7.9072  0.0000</r>
       <r>   7.9072  0.0000</r>
       <r>   8.1873  0.0000</r>
       <r>   8.1873  0.0000</r>
       <r>   8.1873  0.0000</r>
       <r>   8.1873  0.0000</r>
       <r>   9.1875  0.0000</r>
       <r>   9.1875  0.0000</r>
       <r>   9.1879  0.0000</r>
       <r>   9.1879  0.0000</r>
       <r>   9.1879  0.0000</r>
       <r>   9.1880  0.0000</r>
       <r>   9.1883  0.0000</r>
       <r>   9.1883  0.0000</r>
       <r>   9.2887  0.0000</r>
       <r>   9.2887  0.0000</r>
       <r>   9.2887  0.0000</r>
       <r>   9.2887  0.0000</r>
       <r>  10.8336  0.0000</r>
       <r>  10.8336  0.0000</r>
       <r>  10.8343  0.0000</r>
       <r>  10.8343  0.0000</r>
       <r>  10.8343  0.0000</r>
       <r>  10.8343  0.0000</r>
       <r>  10.8350  0.0000</r>
       <r>  10.8350  0.0000</r>
      </set>
      <set comment="kpoint 39">
       <r>  -1.8740  1.0000</r>
       <r>  -1.8739  1.0000</r>
       <r>  -1.8739  1.0000</r>
       <r>  -1.8739  1.0000</r>
       <r>  -1.1406  1.0000</r>
       <r>  -1.1406  1.0000</r>
       <r>  -1.1406  1.0000</r>
       <r>  -1.1406  1.0000</r>
       <r>   1.7543  1.0000</r>
       <r>   1.7544  1.0000</r>
       <r>   1.7544  1.0000</r>
       <r>   1.7544  1.0000</r>
       <r>   2.4649  1.0000</r>
       <r>   2.4649  1.0000</r>
       <r>   2.4649  1.0000</r>
       <r>   2.4650  1.0000</r>
       <r>   2.4650  1.0000</r>
       <r>   2.4650  1.0000</r>
       <r>   2.4650  1.0000</r>
       <r>   2.4650  1.0000</r>
       <r>   3.1761  1.0000</r>
       <r>   3.1761  1.0000</r>
       <r>   3.1761  1.0000</r>
       <r>   3.1761  1.0000</r>
       <r>   3.1761  1.0000</r>
       <r>   3.1762  1.0000</r>
       <r>   3.1762  1.0000</r>
       <r>   3.1762  1.0000</r>
       <r>   3.8695  1.0000</r>
       <r>   3.8695  1.0000</r>
       <r>   3.8695  1.0000</r>
       <r>   3.8695  1.0000</r>
       <r>   5.9994  1.0000</r>
       <r>   5.9994  1.0000</r>
       <r>   5.9996  1.0000</r>
       <r>   5.9996  1.0000</r>
       <r>   5.9996  1.0000</r>
       <r>   5.9996  1.0000</r>
       <r>   5.9998  1.0000</r>
       <r>   5.9998  1.0000</r>
       <r>   6.6869  1.0000</r>
       <r>   6.6869  1.0000</r>
       <r>   6.6869  1.0000</r>
       <r>   6.6869  1.0000</r>
       <r>   7.3859  1.0000</r>
       <r>   7.3859  1.0000</r>
       <r>   7.3859  1.0000</r>
       <r>   7.3859  1.0000</r>
       <r>   8.0550  0.0000</r>
       <r>   8.0550  0.0000</r>
       <r>   8.0553  0.0000</r>
       <r>   8.0553  0.0000</r>
       <r>   8.0553  0.0000</r>
       <r>   8.0553  0.0000</r>
       <r>   8.0555  0.0000</r>
       <r>   8.0555  0.0000</r>
       <r>   9.6716  0.0000</r>
       <r>   9.6716  0.0000</r>
       <r>   9.6716  0.0000</r>
       <r>   9.6716  0.0000</r>
       <r>  10.1449  0.0000</r>
       <r>  10.1449  0.0000</r>
       <r>  10.1449  0.0000</r>
       <r>  10.1449  0.0000</r>
       <r>  11.0212  0.0000</r>
       <r>  11.0212  0.0000</r>
       <r>  11.0216  0.0000</r>
       <r>  11.0216  0.0000</r>
       <r>  11.0216  0.0000</r>
       <r>  11.0216  0.0000</r>
       <r>  11.0221  0.0000</r>
       <r>  11.0221  0.0000</r>
      </set>
      <set comment="kpoint 40">
       <r>  -1.5725  1.0000</r>
       <r>  -1.5684  1.0000</r>
       <r>  -1.5684  1.0000</r>
       <r>  -1.5682  1.0000</r>
       <r>  -1.5677  1.0000</r>
       <r>  -1.5675  1.0000</r>
       <r>  -1.5675  1.0000</r>
       <r>  -1.5634  1.0000</r>
       <r>   2.7519  1.0000</r>
       <r>   2.7580  1.0000</r>
       <r>   2.7580  1.0000</r>
       <r>   2.7610  1.0000</r>
       <r>   2.7613  1.0000</r>
       <r>   2.7614  1.0000</r>
       <r>   2.7615  1.0000</r>
       <r>   2.7615  1.0000</r>
       <r>   2.7617  1.0000</r>
       <r>   2.7617  1.0000</r>
       <r>   2.7617  1.0000</r>
       <r>   2.7618  1.0000</r>
       <r>   2.7619  1.0000</r>
       <r>   2.7619  1.0000</r>
       <r>   2.7619  1.0000</r>
       <r>   2.7619  1.0000</r>
       <r>   2.7621  1.0000</r>
       <r>   2.7621  1.0000</r>
       <r>   2.7622  1.0000</r>
       <r>   2.7624  1.0000</r>
       <r>   2.7626  1.0000</r>
       <r>   2.7656  1.0000</r>
       <r>   2.7656  1.0000</r>
       <r>   2.7717  1.0000</r>
       <r>   6.9734  1.0000</r>
       <r>   6.9734  1.0000</r>
       <r>   6.9754  1.0000</r>
       <r>   6.9771  1.0000</r>
       <r>   6.9784  1.0000</r>
       <r>   6.9788  1.0000</r>
       <r>   6.9788  1.0000</r>
       <r>   6.9788  1.0000</r>
       <r>   6.9791  1.0000</r>
       <r>   6.9791  1.0000</r>
       <r>   6.9791  1.0000</r>
       <r>   6.9791  1.0000</r>
       <r>   6.9792  1.0000</r>
       <r>   6.9792  1.0000</r>
       <r>   6.9792  1.0000</r>
       <r>   6.9792  1.0000</r>
       <r>   6.9794  1.0000</r>
       <r>   6.9794  1.0000</r>
       <r>   6.9794  1.0000</r>
       <r>   6.9798  1.0000</r>
       <r>   6.9811  1.0000</r>
       <r>   6.9828  1.0000</r>
       <r>   6.9848  1.0000</r>
       <r>   6.9848  1.0000</r>
       <r>  11.1047  0.0000</r>
       <r>  11.1048  0.0000</r>
       <r>  11.1048  0.0000</r>
       <r>  11.1053  0.0000</r>
       <r>  11.1068  0.0000</r>
       <r>  11.1074  0.0000</r>
       <r>  11.1074  0.0000</r>
       <r>  11.1076  0.0000</r>
       <r>  11.3053  0.0000</r>
       <r>  11.3062  0.0000</r>
       <r>  11.3065  0.0000</r>
       <r>  11.3068  0.0000</r>
       <r>  11.3078  0.0000</r>
       <r>  11.3083  0.0000</r>
       <r>  11.3087  0.0000</r>
       <r>  11.3093  0.0000</r>
      </set>
     </set>
    </set>
   </array>
  </eigenvalues>
 </calculation>
 <structure name="finalpos" >
  <crystal>
   <varray name="basis" >
    <v>       8.15535887      0.00000000      0.00000000</v>
    <v>       0.00000000      8.15535887      0.00000000</v>
    <v>       0.00000000      0.00000000      8.15535887</v>
   </varray>
   <i name="volume">    542.41192527</i>
   <varray name="rec_basis" >
    <v>       0.12261876      0.00000000      0.00000000</v>
    <v>       0.00000000      0.12261876      0.00000000</v>
    <v>       0.00000000      0.00000000      0.12261876</v>
   </varray>
  </crystal>
  <varray name="positions" >
   <v>       0.25122619      0.25000000      0.00000000</v>
   <v>       0.75000000      0.25000000      0.00000000</v>
   <v>       0.25000000      0.75000000      0.00000000</v>
   <v>       0.75000000      0.75000000      0.00000000</v>
   <v>       0.25000000      0.25000000      0.50000000</v>
   <v>       0.75000000      0.25000000      0.50000000</v>
   <v>       0.25000000      0.75000000      0.50000000</v>
   <v>       0.75000000      0.75000000      0.50000000</v>
   <v>       0.25000000      0.00000000      0.25000000</v>
   <v>       0.75000000      0.00000000      0.25000000</v>
   <v>       0.25000000      0.50000000      0.25000000</v>
   <v>       0.75000000      0.50000000      0.25000000</v>
   <v>       0.25000000      0.00000000      0.75000000</v>
   <v>       0.75000000      0.00000000      0.75000000</v>
   <v>       0.25000000      0.50000000      0.75000000</v>
   <v>       0.75000000      0.50000000      0.75000000</v>
   <v>       0.00000000      0.25000000      0.25000000</v>
   <v>       0.50000000      0.25000000      0.25000000</v>
   <v>       0.00000000      0.75000000      0.25000000</v>
   <v>       0.50000000      0.75000000      0.25000000</v>
   <v>       0.00000000      0.25000000      0.75000000</v>
   <v>       0.50000000      0.25000000      0.75000000</v>
   <v>       0.00000000      0.75000000      0.75000000</v>
   <v>       0.50000000      0.75000000      0.75000000</v>
   <v>       0.00000000      0.00000000      0.00000000</v>
   <v>       0.50000000      0.00000000      0.00000000</v>
   <v>       0.00000000      0.50000000      0.00000000</v>
   <v>       0.50000000      0.50000000      0.00000000</v>
   <v>       0.00000000      0.00000000      0.50000000</v>
   <v>       0.50000000      0.00000000      0.50000000</v>
   <v>       0.00000000      0.50000000      0.50000000</v>
   <v>       0.50000000      0.50000000      0.50000000</v>
  </varray>
 </structure>
</modeling>
