32   
1    

1    
  0.0100000000000000   0.0000000000000000   0.0000000000000000
   0.0001236000    0.0000000000   -0.0000000000
   0.0029758600    0.0000000000    0.0000000000
  -0.0005116100    0.0000000000   -0.0000000000
  -0.0016153500    0.0000000000   -0.0000000000
  -0.0005116100    0.0000000000   -0.0000000000
  -0.0016153500    0.0000000000    0.0000000000
   0.0002803900   -0.0000000000   -0.0000000000
   0.0000815600    0.0000000000   -0.0000000000
   0.0002698000    0.0006925700    0.0000000000
   0.0001899700   -0.0005854700    0.0000000000
   0.0002698000   -0.0006925700    0.0000000000
   0.0001899700    0.0005854700    0.0000000000
   0.0002081200   -0.0000308600    0.0000000000
   0.0002088900    0.0000346500   -0.0000000000
   0.0002081200    0.0000308600   -0.0000000000
   0.0002088900   -0.0000346500    0.0000000000
   0.0002698000    0.0000000000    0.0006925700
   0.0001899700    0.0000000000   -0.0005854700
   0.0002081200    0.0000000000   -0.0000308600
   0.0002088900   -0.0000000000    0.0000346500
   0.0002698000   -0.0000000000   -0.0006925700
   0.0001899700    0.0000000000    0.0005854700
   0.0002081200   -0.0000000000    0.0000308600
   0.0002088900   -0.0000000000   -0.0000346500
  -0.0011971400    0.0000068600    0.0000068600
   0.0005184800    0.0000046500    0.0000046500
  -0.0011971400   -0.0000068600    0.0000068600
   0.0005184800   -0.0000046500    0.0000046500
  -0.0011971400    0.0000068600   -0.0000068600
   0.0005184800    0.0000046500   -0.0000046500
  -0.0011971400   -0.0000068600   -0.0000068600
   0.0005184800   -0.0000046500   -0.0000046500
