mesh: [    48,    48,    48 ]
nqpoint: 2600   
reciprocal_lattice:
- [   0.22189283,   0.00000000,   0.00000000 ] # a*
- [   0.00000000,   0.22189283,   0.00000000 ] # b*
- [   0.00000000,   0.00000000,   0.22189283 ] # c*
natom:   4      
lattice:
- [     4.506680054500057,     0.000000000000000,     0.000000000000000 ] # a
- [     0.000000000000000,     4.506680054500057,     0.000000000000000 ] # b
- [     0.000000000000000,     0.000000000000000,     4.506680054500057 ] # c
points:
- symbol: Au # 1
  coordinates: [  0.000000000000000,  0.000000000000000,  0.000000000000000 ]
  mass: 196.966569
- symbol: Au # 2
  coordinates: [  0.500000000000000,  0.500000000000000,  0.000000000000000 ]
  mass: 196.966569
- symbol: Au # 3
  coordinates: [  0.500000000000000,  0.000000000000000,  0.500000000000000 ]
  mass: 196.966569
- symbol: Au # 4
  coordinates: [  0.000000000000000,  0.500000000000000,  0.500000000000000 ]
  mass: 196.966569
phonon:
- q-position: [    0.0104167,    0.0104167,    0.0104167 ]
  weight: 8    
  band:
  - # 1
    frequency:    -0.4898939545
  - # 2
    frequency:    -0.4898939545
  - # 3
    frequency:    -0.4898939545
  - # 4
    frequency:    -0.4892360737
  - # 5
    frequency:    -0.4892360737
  - # 6
    frequency:    -0.4892360737
  - # 7
    frequency:    -0.0142278691
  - # 8
    frequency:    -0.0142278691
  - # 9
    frequency:     0.0276419078
  - # 10
    frequency:     0.9320107659
  - # 11
    frequency:     0.9320107659
  - # 12
    frequency:     0.9320107659

- q-position: [    0.0312500,    0.0104167,    0.0104167 ]
  weight: 24   
  band:
  - # 1
    frequency:    -0.4948406031
  - # 2
    frequency:    -0.4948406031
  - # 3
    frequency:    -0.4922901846
  - # 4
    frequency:    -0.4922901846
  - # 5
    frequency:    -0.4913775281
  - # 6
    frequency:    -0.4907225473
  - # 7
    frequency:    -0.0518175059
  - # 8
    frequency:    -0.0475931618
  - # 9
    frequency:     0.0789941800
  - # 10
    frequency:     0.9277784772
  - # 11
    frequency:     0.9277784772
  - # 12
    frequency:     0.9331783101

- q-position: [    0.0520833,    0.0104167,    0.0104167 ]
  weight: 24   
  band:
  - # 1
    frequency:    -0.5042850872
  - # 2
    frequency:    -0.5042850872
  - # 3
    frequency:    -0.4984836855
  - # 4
    frequency:    -0.4984836855
  - # 5
    frequency:    -0.4942994607
  - # 6
    frequency:    -0.4936501239
  - # 7
    frequency:    -0.0872605584
  - # 8
    frequency:    -0.0847048015
  - # 9
    frequency:     0.1339231039
  - # 10
    frequency:     0.9193121462
  - # 11
    frequency:     0.9193121462
  - # 12
    frequency:     0.9354763470

- q-position: [    0.0729167,    0.0104167,    0.0104167 ]
  weight: 24   
  band:
  - # 1
    frequency:    -0.5178963871
  - # 2
    frequency:    -0.5178963871
  - # 3
    frequency:    -0.5074661898
  - # 4
    frequency:    -0.5074661898
  - # 5
    frequency:    -0.4985718691
  - # 6
    frequency:    -0.4979306266
  - # 7
    frequency:    -0.1221445343
  - # 8
    frequency:    -0.1203041784
  - # 9
    frequency:     0.1879086700
  - # 10
    frequency:     0.9066072312
  - # 11
    frequency:     0.9066072312
  - # 12
    frequency:     0.9388320634

- q-position: [    0.0937500,    0.0104167,    0.0104167 ]
  weight: 24   
  band:
  - # 1
    frequency:    -0.5351490590
  - # 2
    frequency:    -0.5351490590
  - # 3
    frequency:    -0.5188414066
  - # 4
    frequency:    -0.5188414066
  - # 5
    frequency:    -0.5040689476
  - # 6
    frequency:    -0.5034378513
  - # 7
    frequency:    -0.1565067340
  - # 8
    frequency:    -0.1550598757
  - # 9
    frequency:     0.2410930906
  - # 10
    frequency:     0.8896542103
  - # 11
    frequency:     0.8896542103
  - # 12
    frequency:     0.9431393621

- q-position: [    0.1145833,    0.0104167,    0.0104167 ]
  weight: 24   
  band:
  - # 1
    frequency:    -0.5554281252
  - # 2
    frequency:    -0.5554281252
  - # 3
    frequency:    -0.5321512612
  - # 4
    frequency:    -0.5321512612
  - # 5
    frequency:    -0.5106333070
  - # 6
    frequency:    -0.5100139475
  - # 7
    frequency:    -0.1902678320
  - # 8
    frequency:    -0.1890681144
  - # 9
    frequency:     0.2934044415
  - # 10
    frequency:     0.8684349592
  - # 11
    frequency:     0.8684349592
  - # 12
    frequency:     0.9482623345

- q-position: [    0.1354167,    0.0104167,    0.0104167 ]
  weight: 24   
  band:
  - # 1
    frequency:    -0.5780894470
  - # 2
    frequency:    -0.5780894470
  - # 3
    frequency:    -0.5468978230
  - # 4
    frequency:    -0.5468978230
  - # 5
    frequency:    -0.5180831795
  - # 6
    frequency:    -0.5174766644
  - # 7
    frequency:    -0.2233244468
  - # 8
    frequency:    -0.2222931102
  - # 9
    frequency:     0.3447155506
  - # 10
    frequency:     0.8429172102
  - # 11
    frequency:     0.8429172102
  - # 12
    frequency:     0.9540394797

- q-position: [    0.1562500,    0.0104167,    0.0104167 ]
  weight: 24   
  band:
  - # 1
    frequency:    -0.6025003301
  - # 2
    frequency:    -0.6025003301
  - # 3
    frequency:    -0.5625675687
  - # 4
    frequency:    -0.5625675687
  - # 5
    frequency:    -0.5262197806
  - # 6
    frequency:    -0.5256267494
  - # 7
    frequency:    -0.2555676923
  - # 8
    frequency:    -0.2546575150
  - # 9
    frequency:     0.3948834415
  - # 10
    frequency:     0.8130462547
  - # 11
    frequency:     0.8130462547
  - # 12
    frequency:     0.9602883891

- q-position: [    0.1770833,    0.0104167,    0.0104167 ]
  weight: 24   
  band:
  - # 1
    frequency:    -0.6280647382
  - # 2
    frequency:    -0.6280647382
  - # 3
    frequency:    -0.5786506311
  - # 4
    frequency:    -0.5786506311
  - # 5
    frequency:    -0.5348342524
  - # 6
    frequency:    -0.5342549192
  - # 7
    frequency:    -0.2868889974
  - # 8
    frequency:    -0.2860694488
  - # 9
    frequency:     0.4437621831
  - # 10
    frequency:     0.7787324567
  - # 11
    frequency:     0.7787324567
  - # 12
    frequency:     0.9668106265

- q-position: [    0.1979167,    0.0104167,    0.0104167 ]
  weight: 24   
  band:
  - # 1
    frequency:    -0.6542364294
  - # 2
    frequency:    -0.6542364294
  - # 3
    frequency:    -0.5946538934
  - # 4
    frequency:    -0.5946538934
  - # 5
    frequency:    -0.5437137992
  - # 6
    frequency:    -0.5431480123
  - # 7
    frequency:    -0.3171826010
  - # 8
    frequency:    -0.3164328105
  - # 9
    frequency:     0.4912082592
  - # 10
    frequency:     0.7398320405
  - # 11
    frequency:     0.7398320405
  - # 12
    frequency:     0.9733965597

- q-position: [    0.2187500,    0.0104167,    0.0104167 ]
  weight: 24   
  band:
  - # 1
    frequency:    -0.6805236884
  - # 2
    frequency:    -0.6805236884
  - # 3
    frequency:    -0.6101086225
  - # 4
    frequency:    -0.6101086225
  - # 5
    frequency:    -0.5526468123
  - # 6
    frequency:    -0.5520941209
  - # 7
    frequency:    -0.3463469342
  - # 8
    frequency:    -0.3456520088
  - # 9
    frequency:     0.5370833544
  - # 10
    frequency:     0.6961164555
  - # 11
    frequency:     0.6961164555
  - # 12
    frequency:     0.9798299522

- q-position: [    0.2395833,    0.0104167,    0.0104167 ]
  weight: 24   
  band:
  - # 1
    frequency:    -0.7064889066
  - # 2
    frequency:    -0.7064889066
  - # 3
    frequency:    -0.6245738813
  - # 4
    frequency:    -0.6245738813
  - # 5
    frequency:    -0.5614269418
  - # 6
    frequency:    -0.5608866634
  - # 7
    frequency:    -0.3742855613
  - # 8
    frequency:    -0.3736345036
  - # 9
    frequency:     0.5812560984
  - # 10
    frequency:     0.6472210644
  - # 11
    frequency:     0.6472210644
  - # 12
    frequency:     0.9858921747

- q-position: [    0.2604167,    0.0104167,    0.0104167 ]
  weight: 24   
  band:
  - # 1
    frequency:    -0.7317454369
  - # 2
    frequency:    -0.7317454369
  - # 3
    frequency:    -0.6376369538
  - # 4
    frequency:    -0.6376369538
  - # 5
    frequency:    -0.5698561804
  - # 6
    frequency:    -0.5693274617
  - # 7
    frequency:    -0.4009079167
  - # 8
    frequency:    -0.4002923753
  - # 9
    frequency:     0.5925533843
  - # 10
    frequency:     0.5925533843
  - # 11
    frequency:     0.6236033326
  - # 12
    frequency:     0.9913659530

- q-position: [    0.2812500,    0.0104167,    0.0104167 ]
  weight: 24   
  band:
  - # 1
    frequency:    -0.7559533140
  - # 2
    frequency:    -0.7559533140
  - # 3
    frequency:    -0.6489117626
  - # 4
    frequency:    -0.6489117626
  - # 5
    frequency:    -0.5777470878
  - # 6
    frequency:    -0.5772289581
  - # 7
    frequency:    -0.4261299344
  - # 8
    frequency:    -0.4255434164
  - # 9
    frequency:     0.5311139542
  - # 10
    frequency:     0.5311139542
  - # 11
    frequency:     0.6640111288
  - # 12
    frequency:     0.9960386138

- q-position: [    0.3020833,    0.0104167,    0.0104167 ]
  weight: 24   
  band:
  - # 1
    frequency:    -0.7788147820
  - # 2
    frequency:    -0.7788147820
  - # 3
    frequency:    -0.6580359565
  - # 4
    frequency:    -0.6580359565
  - # 5
    frequency:    -0.5849243104
  - # 6
    frequency:    -0.5844157241
  - # 7
    frequency:    -0.4498746156
  - # 8
    frequency:    -0.4493119690
  - # 9
    frequency:     0.4611010052
  - # 10
    frequency:     0.4611010052
  - # 11
    frequency:     0.7023756669
  - # 12
    frequency:     0.9997048276

- q-position: [    0.3229167,    0.0104167,    0.0104167 ]
  weight: 24   
  band:
  - # 1
    frequency:    -0.8000701209
  - # 2
    frequency:    -0.8000701209
  - # 3
    frequency:    -0.6646670482
  - # 4
    frequency:    -0.6646670482
  - # 5
    frequency:    -0.5912255474
  - # 6
    frequency:    -0.5907254171
  - # 7
    frequency:    -0.4720725517
  - # 8
    frequency:    -0.4715296146
  - # 9
    frequency:     0.3788605998
  - # 10
    frequency:     0.3788605998
  - # 11
    frequency:     0.7386040174
  - # 12
    frequency:     1.0021688742

- q-position: [    0.3437500,    0.0104167,    0.0104167 ]
  weight: 24   
  band:
  - # 1
    frequency:    -0.8194939910
  - # 2
    frequency:    -0.8194939910
  - # 3
    frequency:    -0.6684777297
  - # 4
    frequency:    -0.6684777297
  - # 5
    frequency:    -0.5965021015
  - # 6
    frequency:    -0.5960093215
  - # 7
    frequency:    -0.4926624164
  - # 8
    frequency:    -0.4921357709
  - # 9
    frequency:     0.2750287677
  - # 10
    frequency:     0.2750287677
  - # 11
    frequency:     0.7726148569
  - # 12
    frequency:     1.0032464720

- q-position: [    0.3645833,    0.0104167,    0.0104167 ]
  weight: 24   
  band:
  - # 1
    frequency:    -0.8368923559
  - # 2
    frequency:    -0.8368923559
  - # 3
    frequency:    -0.6691502649
  - # 4
    frequency:    -0.6691502649
  - # 5
    frequency:    -0.6006191260
  - # 6
    frequency:    -0.6001325880
  - # 7
    frequency:    -0.5115914312
  - # 8
    frequency:    -0.5110782268
  - # 9
    frequency:     0.0984344880
  - # 10
    frequency:     0.0984344880
  - # 11
    frequency:     0.8043391268
  - # 12
    frequency:     1.0027662225

- q-position: [    0.3854167,    0.0104167,    0.0104167 ]
  weight: 24   
  band:
  - # 1
    frequency:    -0.8520999638
  - # 2
    frequency:    -0.8520999638
  - # 3
    frequency:    -0.6663696162
  - # 4
    frequency:    -0.6663696162
  - # 5
    frequency:    -0.6034556610
  - # 6
    frequency:    -0.6029742620
  - # 7
    frequency:    -0.5288158087
  - # 8
    frequency:    -0.5283136322
  - # 9
    frequency:    -0.2315337033
  - # 10
    frequency:    -0.2315337033
  - # 11
    frequency:     0.8337206439
  - # 12
    frequency:     1.0005707197

- q-position: [    0.4062500,    0.0104167,    0.0104167 ]
  weight: 24   
  band:
  - # 1
    frequency:    -0.8649783296
  - # 2
    frequency:    -0.8649783296
  - # 3
    frequency:    -0.6598146697
  - # 4
    frequency:    -0.6598146697
  - # 5
    frequency:    -0.6049045245
  - # 6
    frequency:    -0.6044271698
  - # 7
    frequency:    -0.5443011767
  - # 8
    frequency:    -0.5438079543
  - # 9
    frequency:    -0.3370423453
  - # 10
    frequency:    -0.3370423453
  - # 11
    frequency:     0.8607166636
  - # 12
    frequency:     0.9965173785

- q-position: [    0.4270833,    0.0104167,    0.0104167 ]
  weight: 24   
  band:
  - # 1
    frequency:    -0.8754141517
  - # 2
    frequency:    -0.8754141517
  - # 3
    frequency:    -0.6491464688
  - # 4
    frequency:    -0.6491464688
  - # 5
    frequency:    -0.6048721092
  - # 6
    frequency:    -0.6043977096
  - # 7
    frequency:    -0.5580229852
  - # 8
    frequency:    -0.5575369071
  - # 9
    frequency:    -0.4119390166
  - # 10
    frequency:    -0.4119390166
  - # 11
    frequency:     0.8852983994
  - # 12
    frequency:     0.9904790236

- q-position: [    0.4479167,    0.0104167,    0.0104167 ]
  weight: 24   
  band:
  - # 1
    frequency:    -0.8833180966
  - # 2
    frequency:    -0.8833180966
  - # 3
    frequency:    -0.6339916238
  - # 4
    frequency:    -0.6339916238
  - # 5
    frequency:    -0.6032781202
  - # 6
    frequency:    -0.6028055851
  - # 7
    frequency:    -0.5699668975
  - # 8
    frequency:    -0.5694863597
  - # 9
    frequency:    -0.4705166392
  - # 10
    frequency:    -0.4705166392
  - # 11
    frequency:     0.9074514952
  - # 12
    frequency:     0.9823442835

- q-position: [    0.4687500,    0.0104167,    0.0104167 ]
  weight: 24   
  band:
  - # 1
    frequency:    -0.8886238955
  - # 2
    frequency:    -0.8886238955
  - # 3
    frequency:    -0.6139177656
  - # 4
    frequency:    -0.6139177656
  - # 5
    frequency:    -0.6000552752
  - # 6
    frequency:    -0.5995835028
  - # 7
    frequency:    -0.5801291701
  - # 8
    frequency:    -0.5796527271
  - # 9
    frequency:    -0.5179240891
  - # 10
    frequency:    -0.5179240891
  - # 11
    frequency:     0.9271764515
  - # 12
    frequency:     0.9720178202

- q-position: [    0.4895833,    0.0104167,    0.0104167 ]
  weight: 24   
  band:
  - # 1
    frequency:    -0.8912877061
  - # 2
    frequency:    -0.8912877061
  - # 3
    frequency:    -0.5951489851
  - # 4
    frequency:    -0.5946768478
  - # 5
    frequency:    -0.5885170202
  - # 6
    frequency:    -0.5883973932
  - # 7
    frequency:    -0.5883973932
  - # 8
    frequency:    -0.5880433474
  - # 9
    frequency:    -0.5567113580
  - # 10
    frequency:    -0.5567113580
  - # 11
    frequency:     0.9444890000
  - # 12
    frequency:     0.9594204246

- q-position: [    0.0312500,    0.0312500,    0.0104167 ]
  weight: 24   
  band:
  - # 1
    frequency:    -0.5003552616
  - # 2
    frequency:    -0.4962591059
  - # 3
    frequency:    -0.4962591059
  - # 4
    frequency:    -0.4945448286
  - # 5
    frequency:    -0.4937719538
  - # 6
    frequency:    -0.4937719538
  - # 7
    frequency:    -0.0709191736
  - # 8
    frequency:     0.0258199396
  - # 9
    frequency:     0.0813127624
  - # 10
    frequency:     0.9235312452
  - # 11
    frequency:     0.9289805079
  - # 12
    frequency:     0.9289805079

- q-position: [    0.0520833,    0.0312500,    0.0104167 ]
  weight: 48   
  band:
  - # 1
    frequency:    -0.5100643841
  - # 2
    frequency:    -0.5055561284
  - # 3
    frequency:    -0.5000279153
  - # 4
    frequency:    -0.4999795767
  - # 5
    frequency:    -0.4990555402
  - # 6
    frequency:    -0.4966877479
  - # 7
    frequency:    -0.0999890372
  - # 8
    frequency:    -0.0507213754
  - # 9
    frequency:     0.1293489963
  - # 10
    frequency:     0.9150346239
  - # 11
    frequency:     0.9205835480
  - # 12
    frequency:     0.9313466108

- q-position: [    0.0729167,    0.0312500,    0.0104167 ]
  weight: 48   
  band:
  - # 1
    frequency:    -0.5236106702
  - # 2
    frequency:    -0.5189537963
  - # 3
    frequency:    -0.5089898397
  - # 4
    frequency:    -0.5084458716
  - # 5
    frequency:    -0.5031517234
  - # 6
    frequency:    -0.5009440160
  - # 7
    frequency:    -0.1317757883
  - # 8
    frequency:    -0.0977930328
  - # 9
    frequency:     0.1842317107
  - # 10
    frequency:     0.9022832293
  - # 11
    frequency:     0.9079837249
  - # 12
    frequency:     0.9348022174

- q-position: [    0.0937500,    0.0312500,    0.0104167 ]
  weight: 48   
  band:
  - # 1
    frequency:    -0.5405673029
  - # 2
    frequency:    -0.5359429581
  - # 3
    frequency:    -0.5204038365
  - # 4
    frequency:    -0.5193417947
  - # 5
    frequency:    -0.5084375430
  - # 6
    frequency:    -0.5064048586
  - # 7
    frequency:    -0.1643840667
  - # 8
    frequency:    -0.1377073133
  - # 9
    frequency:     0.2382706384
  - # 10
    frequency:     0.8852661836
  - # 11
    frequency:     0.8911728777
  - # 12
    frequency:     0.9392387371

- q-position: [    0.1145833,    0.0312500,    0.0104167 ]
  weight: 48   
  band:
  - # 1
    frequency:    -0.5604014698
  - # 2
    frequency:    -0.5559239582
  - # 3
    frequency:    -0.5337623414
  - # 4
    frequency:    -0.5322149816
  - # 5
    frequency:    -0.5147784891
  - # 6
    frequency:    -0.5128967251
  - # 7
    frequency:    -0.1970536302
  - # 8
    frequency:    -0.1746976643
  - # 9
    frequency:     0.2912205968
  - # 10
    frequency:     0.8639633641
  - # 11
    frequency:     0.8701349168
  - # 12
    frequency:     0.9445171768

- q-position: [    0.1354167,    0.0312500,    0.0104167 ]
  weight: 48   
  band:
  - # 1
    frequency:    -0.5825280185
  - # 2
    frequency:    -0.5782664275
  - # 3
    frequency:    -0.5485667520
  - # 4
    frequency:    -0.5465451005
  - # 5
    frequency:    -0.5220221571
  - # 6
    frequency:    -0.5202158434
  - # 7
    frequency:    -0.2293888009
  - # 8
    frequency:    -0.2098586045
  - # 9
    frequency:     0.3430172274
  - # 10
    frequency:     0.8383396536
  - # 11
    frequency:     0.8448405195
  - # 12
    frequency:     0.9504725262

- q-position: [    0.1562500,    0.0312500,    0.0104167 ]
  weight: 48   
  band:
  - # 1
    frequency:    -0.6063555622
  - # 2
    frequency:    -0.6023493511
  - # 3
    frequency:    -0.5643030708
  - # 4
    frequency:    -0.5618084685
  - # 5
    frequency:    -0.5299981238
  - # 6
    frequency:    -0.5281426235
  - # 7
    frequency:    -0.2611361103
  - # 8
    frequency:    -0.2435716576
  - # 9
    frequency:     0.3935664004
  - # 10
    frequency:     0.8083363117
  - # 11
    frequency:     0.8152392101
  - # 12
    frequency:     0.9569186122

- q-position: [    0.1770833,    0.0312500,    0.0104167 ]
  weight: 48   
  band:
  - # 1
    frequency:    -0.6313167575
  - # 2
    frequency:    -0.6275861450
  - # 3
    frequency:    -0.5804610877
  - # 4
    frequency:    -0.5774914527
  - # 5
    frequency:    -0.5385113658
  - # 6
    frequency:    -0.5364617567
  - # 7
    frequency:    -0.2921076308
  - # 8
    frequency:    -0.2759707653
  - # 9
    frequency:     0.4427525539
  - # 10
    frequency:     0.7738579481
  - # 11
    frequency:     0.7812474800
  - # 12
    frequency:     0.9636531358

- q-position: [    0.1979167,    0.0312500,    0.0104167 ]
  weight: 48   
  band:
  - # 1
    frequency:    -0.6568851192
  - # 2
    frequency:    -0.6534379757
  - # 3
    frequency:    -0.5965474696
  - # 4
    frequency:    -0.5931002061
  - # 5
    frequency:    -0.5473439291
  - # 6
    frequency:    -0.5449725412
  - # 7
    frequency:    -0.3221504681
  - # 8
    frequency:    -0.3070852544
  - # 9
    frequency:     0.4904509844
  - # 10
    frequency:     0.7347524046
  - # 11
    frequency:     0.7427305856
  - # 12
    frequency:     0.9704626388

- q-position: [    0.2187500,    0.0312500,    0.0104167 ]
  weight: 48   
  band:
  - # 1
    frequency:    -0.6825823814
  - # 2
    frequency:    -0.6794188285
  - # 3
    frequency:    -0.6120934082
  - # 4
    frequency:    -0.6081665236
  - # 5
    frequency:    -0.5562699719
  - # 6
    frequency:    -0.5534839089
  - # 7
    frequency:    -0.3511332740
  - # 8
    frequency:    -0.3368953897
  - # 9
    frequency:     0.5365353296
  - # 10
    frequency:     0.6907785224
  - # 11
    frequency:     0.6994736753
  - # 12
    frequency:     0.9771272027

- q-position: [    0.2395833,    0.0312500,    0.0104167 ]
  weight: 48   
  band:
  - # 1
    frequency:    -0.7079799708
  - # 2
    frequency:    -0.7050954544
  - # 3
    frequency:    -0.6266580547
  - # 4
    frequency:    -0.6222503581
  - # 5
    frequency:    -0.5650696348
  - # 6
    frequency:    -0.5618086021
  - # 7
    frequency:    -0.3789398403
  - # 8
    frequency:    -0.3653575410
  - # 9
    frequency:     0.5808820221
  - # 10
    frequency:     0.6415518299
  - # 11
    frequency:     0.6511337432
  - # 12
    frequency:     0.9834247384

- q-position: [    0.2604167,    0.0312500,    0.0104167 ]
  weight: 48   
  band:
  - # 1
    frequency:    -0.7326972186
  - # 2
    frequency:    -0.7300845534
  - # 3
    frequency:    -0.6398289695
  - # 4
    frequency:    -0.6349398095
  - # 5
    frequency:    -0.5735350965
  - # 6
    frequency:    -0.5697632544
  - # 7
    frequency:    -0.4054659277
  - # 8
    frequency:    -0.3924169522
  - # 9
    frequency:     0.5864466632
  - # 10
    frequency:     0.5971544353
  - # 11
    frequency:     0.6233731173
  - # 12
    frequency:     0.9891347849

- q-position: [    0.2812500,    0.0312500,    0.0104167 ]
  weight: 48   
  band:
  - # 1
    frequency:    -0.7563980436
  - # 2
    frequency:    -0.7540487631
  - # 3
    frequency:    -0.6512205728
  - # 4
    frequency:    -0.6458493361
  - # 5
    frequency:    -0.5814723161
  - # 6
    frequency:    -0.5771711129
  - # 7
    frequency:    -0.4306176909
  - # 8
    frequency:    -0.4180148389
  - # 9
    frequency:     0.5244030674
  - # 10
    frequency:     0.5366016098
  - # 11
    frequency:     0.6638982372
  - # 12
    frequency:     0.9940417826

- q-position: [    0.3020833,    0.0312500,    0.0104167 ]
  weight: 48   
  band:
  - # 1
    frequency:    -0.7787871522
  - # 2
    frequency:    -0.7766923905
  - # 3
    frequency:    -0.6604712746
  - # 4
    frequency:    -0.6546167413
  - # 5
    frequency:    -0.5887015110
  - # 6
    frequency:    -0.5838646447
  - # 7
    frequency:    -0.4543109374
  - # 8
    frequency:    -0.4420926528
  - # 9
    frequency:     0.4534941576
  - # 10
    frequency:     0.4678062645
  - # 11
    frequency:     0.7023560145
  - # 12
    frequency:     0.9979378254

- q-position: [    0.3229167,    0.0312500,    0.0104167 ]
  weight: 48   
  band:
  - # 1
    frequency:    -0.7996063298
  - # 2
    frequency:    -0.7977573886
  - # 3
    frequency:    -0.6672396699
  - # 4
    frequency:    -0.6608992456
  - # 5
    frequency:    -0.5950573361
  - # 6
    frequency:    -0.5896873508
  - # 7
    frequency:    -0.4764708427
  - # 8
    frequency:    -0.4645948272
  - # 9
    frequency:     0.3697490384
  - # 10
    frequency:     0.3874401866
  - # 11
    frequency:     0.7386552353
  - # 12
    frequency:     1.0006249206

- q-position: [    0.3437500,    0.0312500,    0.0104167 ]
  weight: 48   
  band:
  - # 1
    frequency:    -0.8186311009
  - # 2
    frequency:    -0.8170198088
  - # 3
    frequency:    -0.6711999374
  - # 4
    frequency:    -0.6643687367
  - # 5
    frequency:    -0.6003889405
  - # 6
    frequency:    -0.5944948777
  - # 7
    frequency:    -0.4970319252
  - # 8
    frequency:    -0.4854706604
  - # 9
    frequency:     0.2626135570
  - # 10
    frequency:     0.2872822709
  - # 11
    frequency:     0.7727157893
  - # 12
    frequency:     1.0019168045

- q-position: [    0.3645833,    0.0312500,    0.0104167 ]
  weight: 48   
  band:
  - # 1
    frequency:    -0.8356678652
  - # 2
    frequency:    -0.8342867988
  - # 3
    frequency:    -0.6720363515
  - # 4
    frequency:    -0.6647060679
  - # 5
    frequency:    -0.6045599199
  - # 6
    frequency:    -0.5981556253
  - # 7
    frequency:    -0.5159381705
  - # 8
    frequency:    -0.5046756823
  - # 9
    frequency:     0.0563050176
  - # 10
    frequency:     0.1298410993
  - # 11
    frequency:     0.8044694877
  - # 12
    frequency:     1.0016403647

- q-position: [    0.3854167,    0.0312500,    0.0104167 ]
  weight: 48   
  band:
  - # 1
    frequency:    -0.8505515199
  - # 2
    frequency:    -0.8493941359
  - # 3
    frequency:    -0.6694365906
  - # 4
    frequency:    -0.6615940450
  - # 5
    frequency:    -0.6074481764
  - # 6
    frequency:    -0.6005510195
  - # 7
    frequency:    -0.5331432444
  - # 8
    frequency:    -0.5221726982
  - # 9
    frequency:    -0.2448702369
  - # 10
    frequency:    -0.2149461250
  - # 11
    frequency:     0.8338607842
  - # 12
    frequency:     0.9996367275

- q-position: [    0.4062500,    0.0312500,    0.0104167 ]
  weight: 48   
  band:
  - # 1
    frequency:    -0.8631435349
  - # 2
    frequency:    -0.8622042456
  - # 3
    frequency:    -0.6630832448
  - # 4
    frequency:    -0.6547084424
  - # 5
    frequency:    -0.6089457032
  - # 6
    frequency:    -0.6015755626
  - # 7
    frequency:    -0.5486107571
  - # 8
    frequency:    -0.5379326231
  - # 9
    frequency:    -0.3460867641
  - # 10
    frequency:    -0.3255799254
  - # 11
    frequency:     0.8608474171
  - # 12
    frequency:     0.9957620587

- q-position: [    0.4270833,    0.0312500,    0.0104167 ]
  weight: 48   
  band:
  - # 1
    frequency:    -0.8733304294
  - # 2
    frequency:    -0.8726046425
  - # 3
    frequency:    -0.6526425220
  - # 4
    frequency:    -0.6437059575
  - # 5
    frequency:    -0.6089583167
  - # 6
    frequency:    -0.6011367393
  - # 7
    frequency:    -0.5623145583
  - # 8
    frequency:    -0.5519351726
  - # 9
    frequency:    -0.4191510367
  - # 10
    frequency:    -0.4024434299
  - # 11
    frequency:     0.8854009868
  - # 12
    frequency:     0.9898881292

- q-position: [    0.4479167,    0.0312500,    0.0104167 ]
  weight: 48   
  band:
  - # 1
    frequency:    -0.8810225944
  - # 2
    frequency:    -0.8805067317
  - # 3
    frequency:    -0.6377485488
  - # 4
    frequency:    -0.6282074123
  - # 5
    frequency:    -0.6074053546
  - # 6
    frequency:    -0.5991548275
  - # 7
    frequency:    -0.5742390489
  - # 8
    frequency:    -0.5641694554
  - # 9
    frequency:    -0.4766390248
  - # 10
    frequency:    -0.4621354978
  - # 11
    frequency:     0.9075074730
  - # 12
    frequency:     0.9819026834

- q-position: [    0.4687500,    0.0312500,    0.0104167 ]
  weight: 48   
  band:
  - # 1
    frequency:    -0.8861534123
  - # 2
    frequency:    -0.8858449171
  - # 3
    frequency:    -0.6179810709
  - # 4
    frequency:    -0.6077746575
  - # 5
    frequency:    -0.6042193543
  - # 6
    frequency:    -0.5955626479
  - # 7
    frequency:    -0.5843795023
  - # 8
    frequency:    -0.5746344943
  - # 9
    frequency:    -0.5232920166
  - # 10
    frequency:    -0.5102931141
  - # 11
    frequency:     0.9271676954
  - # 12
    frequency:     0.9717096455

- q-position: [    0.4895833,    0.0312500,    0.0104167 ]
  weight: 48   
  band:
  - # 1
    frequency:    -0.8886786322
  - # 2
    frequency:    -0.8885759709
  - # 3
    frequency:    -0.5993457208
  - # 4
    frequency:    -0.5928421799
  - # 5
    frequency:    -0.5927423920
  - # 6
    frequency:    -0.5903052711
  - # 7
    frequency:    -0.5833396943
  - # 8
    frequency:    -0.5819247385
  - # 9
    frequency:    -0.5614484434
  - # 10
    frequency:    -0.5496272748
  - # 11
    frequency:     0.9443977176
  - # 12
    frequency:     0.9592291928

- q-position: [    0.0520833,    0.0520833,    0.0104167 ]
  weight: 24   
  band:
  - # 1
    frequency:    -0.5200049018
  - # 2
    frequency:    -0.5080647818
  - # 3
    frequency:    -0.5080647818
  - # 4
    frequency:    -0.5044194632
  - # 5
    frequency:    -0.5029205248
  - # 6
    frequency:    -0.5029205248
  - # 7
    frequency:    -0.1226888803
  - # 8
    frequency:     0.0505442457
  - # 9
    frequency:     0.1366737365
  - # 10
    frequency:     0.9064765858
  - # 11
    frequency:     0.9230865371
  - # 12
    frequency:     0.9230865371

- q-position: [    0.0729167,    0.0520833,    0.0104167 ]
  weight: 48   
  band:
  - # 1
    frequency:    -0.5334837767
  - # 2
    frequency:    -0.5210421699
  - # 3
    frequency:    -0.5119843589
  - # 4
    frequency:    -0.5117490189
  - # 5
    frequency:    -0.5116866219
  - # 6
    frequency:    -0.5072045759
  - # 7
    frequency:    -0.1501592507
  - # 8
    frequency:    -0.0283488258
  - # 9
    frequency:     0.1804025303
  - # 10
    frequency:     0.8936309021
  - # 11
    frequency:     0.9106940044
  - # 12
    frequency:     0.9267429564

- q-position: [    0.0937500,    0.0520833,    0.0104167 ]
  weight: 48   
  band:
  - # 1
    frequency:    -0.5500544981
  - # 2
    frequency:    -0.5375108077
  - # 3
    frequency:    -0.5234745855
  - # 4
    frequency:    -0.5214629606
  - # 5
    frequency:    -0.5165303894
  - # 6
    frequency:    -0.5126749722
  - # 7
    frequency:    -0.1799242984
  - # 8
    frequency:    -0.0956980175
  - # 9
    frequency:     0.2338868519
  - # 10
    frequency:     0.8764838817
  - # 11
    frequency:     0.8941634288
  - # 12
    frequency:     0.9314391239

- q-position: [    0.1145833,    0.0520833,    0.0104167 ]
  weight: 48   
  band:
  - # 1
    frequency:    -0.5692369162
  - # 2
    frequency:    -0.5569013806
  - # 3
    frequency:    -0.5369292651
  - # 4
    frequency:    -0.5332696324
  - # 5
    frequency:    -0.5223397198
  - # 6
    frequency:    -0.5191058537
  - # 7
    frequency:    -0.2106779518
  - # 8
    frequency:    -0.1420031163
  - # 9
    frequency:     0.2874656246
  - # 10
    frequency:     0.8550112476
  - # 11
    frequency:     0.8734825674
  - # 12
    frequency:     0.9370297583

- q-position: [    0.1354167,    0.0520833,    0.0104167 ]
  weight: 48   
  band:
  - # 1
    frequency:    -0.5905158057