<?xml version="1.0" encoding="ISO-8859-1"?>
<modeling>
 <generator>
  <i name="program" type="string">vasp</i>
  <i name="version" type="string">4.6.28 </i>
  <i name="subversion" type="string">25Jul05 complex  parallel</i>
  <i name="platform" type="string">LinuxIFC</i>
  <i name="date" type="string">2017 01 14</i>
  <i name="time" type="string">12:19:49</i>
 </generator>
 <incar>
  <i type="string" name="PREC">accurate</i>
  <i type="int" name="IALGO">    38</i>
  <i type="logical" name="ADDGRID"> T  </i>
  <i name="EDIFF">      0.00000001</i>
  <i type="int" name="IBRION">    -1</i>
  <i name="ENCUT">    750.00000000</i>
  <i type="logical" name="LREAL"> F  </i>
  <i type="int" name="ISMEAR">     0</i>
  <i name="SIGMA">      0.01000000</i>
  <i type="logical" name="LWAVE"> F  </i>
  <i type="logical" name="LCHARG"> F  </i>
 </incar>
 <kpoints>
  <generation param="Gamma">
   <v type="int" name="divisions">      12      12      12</v>
   <v name="usershift">      0.00000000      0.00000000      0.00000000</v>
   <v name="genvec1">      0.08333333      0.00000000      0.00000000</v>
   <v name="genvec2">      0.00000000      0.08333333      0.00000000</v>
   <v name="genvec3">      0.00000000      0.00000000      0.08333333</v>
   <v name="shift">      0.00000000      0.00000000      0.00000000</v>
  </generation>
  <varray name="kpointlist" >
   <v>       0.00000000      0.00000000      0.00000000</v>
   <v>       0.08333333      0.00000000      0.00000000</v>
   <v>       0.16666667      0.00000000      0.00000000</v>
   <v>       0.25000000      0.00000000      0.00000000</v>
   <v>       0.33333333      0.00000000      0.00000000</v>
   <v>       0.41666667      0.00000000      0.00000000</v>
   <v>       0.50000000      0.00000000      0.00000000</v>
   <v>       0.00000000      0.08333333      0.00000000</v>
   <v>       0.08333333      0.08333333      0.00000000</v>
   <v>       0.16666667      0.08333333      0.00000000</v>
   <v>       0.25000000      0.08333333      0.00000000</v>
   <v>       0.33333333      0.08333333      0.00000000</v>
   <v>       0.41666667      0.08333333      0.00000000</v>
   <v>       0.50000000      0.08333333      0.00000000</v>
   <v>       0.00000000      0.16666667      0.00000000</v>
   <v>       0.08333333      0.16666667      0.00000000</v>
   <v>       0.16666667      0.16666667      0.00000000</v>
   <v>       0.25000000      0.16666667      0.00000000</v>
   <v>       0.33333333      0.16666667      0.00000000</v>
   <v>       0.41666667      0.16666667      0.00000000</v>
   <v>       0.50000000      0.16666667      0.00000000</v>
   <v>       0.00000000      0.25000000      0.00000000</v>
   <v>       0.08333333      0.25000000      0.00000000</v>
   <v>       0.16666667      0.25000000      0.00000000</v>
   <v>       0.25000000      0.25000000      0.00000000</v>
   <v>       0.33333333      0.25000000      0.00000000</v>
   <v>       0.41666667      0.25000000      0.00000000</v>
   <v>       0.50000000      0.25000000      0.00000000</v>
   <v>       0.00000000      0.33333333      0.00000000</v>
   <v>       0.08333333      0.33333333      0.00000000</v>
   <v>       0.16666667      0.33333333      0.00000000</v>
   <v>       0.25000000      0.33333333      0.00000000</v>
   <v>       0.33333333      0.33333333      0.00000000</v>
   <v>       0.41666667      0.33333333      0.00000000</v>
   <v>       0.50000000      0.33333333      0.00000000</v>
   <v>       0.00000000      0.41666667      0.00000000</v>
   <v>       0.08333333      0.41666667      0.00000000</v>
   <v>       0.16666667      0.41666667      0.00000000</v>
   <v>       0.25000000      0.41666667      0.00000000</v>
   <v>       0.33333333      0.41666667      0.00000000</v>
   <v>       0.41666667      0.41666667      0.00000000</v>
   <v>       0.50000000      0.41666667      0.00000000</v>
   <v>       0.00000000      0.50000000      0.00000000</v>
   <v>       0.08333333      0.50000000      0.00000000</v>
   <v>       0.16666667      0.50000000      0.00000000</v>
   <v>       0.25000000      0.50000000      0.00000000</v>
   <v>       0.33333333      0.50000000      0.00000000</v>
   <v>       0.41666667      0.50000000      0.00000000</v>
   <v>       0.50000000      0.50000000      0.00000000</v>
   <v>       0.00000000      0.08333333      0.08333333</v>
   <v>       0.08333333      0.08333333      0.08333333</v>
   <v>       0.16666667      0.08333333      0.08333333</v>
   <v>       0.25000000      0.08333333      0.08333333</v>
   <v>       0.33333333      0.08333333      0.08333333</v>
   <v>       0.41666667      0.08333333      0.08333333</v>
   <v>       0.50000000      0.08333333      0.08333333</v>
   <v>       0.00000000      0.16666667      0.08333333</v>
   <v>       0.08333333      0.16666667      0.08333333</v>
   <v>       0.16666667      0.16666667      0.08333333</v>
   <v>       0.25000000      0.16666667      0.08333333</v>
   <v>       0.33333333      0.16666667      0.08333333</v>
   <v>       0.41666667      0.16666667      0.08333333</v>
   <v>       0.50000000      0.16666667      0.08333333</v>
   <v>       0.00000000      0.25000000      0.08333333</v>
   <v>       0.08333333      0.25000000      0.08333333</v>
   <v>       0.16666667      0.25000000      0.08333333</v>
   <v>       0.25000000      0.25000000      0.08333333</v>
   <v>       0.33333333      0.25000000      0.08333333</v>
   <v>       0.41666667      0.25000000      0.08333333</v>
   <v>       0.50000000      0.25000000      0.08333333</v>
   <v>       0.00000000      0.33333333      0.08333333</v>
   <v>       0.08333333      0.33333333      0.08333333</v>
   <v>       0.16666667      0.33333333      0.08333333</v>
   <v>       0.25000000      0.33333333      0.08333333</v>
   <v>       0.33333333      0.33333333      0.08333333</v>
   <v>       0.41666667      0.33333333      0.08333333</v>
   <v>       0.50000000      0.33333333      0.08333333</v>
   <v>       0.00000000      0.41666667      0.08333333</v>
   <v>       0.08333333      0.41666667      0.08333333</v>
   <v>       0.16666667      0.41666667      0.08333333</v>
   <v>       0.25000000      0.41666667      0.08333333</v>
   <v>       0.33333333      0.41666667      0.08333333</v>
   <v>       0.41666667      0.41666667      0.08333333</v>
   <v>       0.50000000      0.41666667      0.08333333</v>
   <v>       0.00000000      0.50000000      0.08333333</v>
   <v>       0.08333333      0.50000000      0.08333333</v>
   <v>       0.16666667      0.50000000      0.08333333</v>
   <v>       0.25000000      0.50000000      0.08333333</v>
   <v>       0.33333333      0.50000000      0.08333333</v>
   <v>       0.41666667      0.50000000      0.08333333</v>
   <v>       0.50000000      0.50000000      0.08333333</v>
   <v>       0.00000000      0.16666667      0.16666667</v>
   <v>       0.08333333      0.16666667      0.16666667</v>
   <v>       0.16666667      0.16666667      0.16666667</v>
   <v>       0.25000000      0.16666667      0.16666667</v>
   <v>       0.33333333      0.16666667      0.16666667</v>
   <v>       0.41666667      0.16666667      0.16666667</v>
   <v>       0.50000000      0.16666667      0.16666667</v>
   <v>       0.00000000      0.25000000      0.16666667</v>
   <v>       0.08333333      0.25000000      0.16666667</v>
   <v>       0.16666667      0.25000000      0.16666667</v>
   <v>       0.25000000      0.25000000      0.16666667</v>
   <v>       0.33333333      0.25000000      0.16666667</v>
   <v>       0.41666667      0.25000000      0.16666667</v>
   <v>       0.50000000      0.25000000      0.16666667</v>
   <v>       0.00000000      0.33333333      0.16666667</v>
   <v>       0.08333333      0.33333333      0.16666667</v>
   <v>       0.16666667      0.33333333      0.16666667</v>
   <v>       0.25000000      0.33333333      0.16666667</v>
   <v>       0.33333333      0.33333333      0.16666667</v>
   <v>       0.41666667      0.33333333      0.16666667</v>
   <v>       0.50000000      0.33333333      0.16666667</v>
   <v>       0.00000000      0.41666667      0.16666667</v>
   <v>       0.08333333      0.41666667      0.16666667</v>
   <v>       0.16666667      0.41666667      0.16666667</v>
   <v>       0.25000000      0.41666667      0.16666667</v>
   <v>       0.33333333      0.41666667      0.16666667</v>
   <v>       0.41666667      0.41666667      0.16666667</v>
   <v>       0.50000000      0.41666667      0.16666667</v>
   <v>       0.00000000      0.50000000      0.16666667</v>
   <v>       0.08333333      0.50000000      0.16666667</v>
   <v>       0.16666667      0.50000000      0.16666667</v>
   <v>       0.25000000      0.50000000      0.16666667</v>
   <v>       0.33333333      0.50000000      0.16666667</v>
   <v>       0.41666667      0.50000000      0.16666667</v>
   <v>       0.50000000      0.50000000      0.16666667</v>
   <v>       0.00000000      0.25000000      0.25000000</v>
   <v>       0.08333333      0.25000000      0.25000000</v>
   <v>       0.16666667      0.25000000      0.25000000</v>
   <v>       0.25000000      0.25000000      0.25000000</v>
   <v>       0.33333333      0.25000000      0.25000000</v>
   <v>       0.41666667      0.25000000      0.25000000</v>
   <v>       0.50000000      0.25000000      0.25000000</v>
   <v>       0.00000000      0.33333333      0.25000000</v>
   <v>       0.08333333      0.33333333      0.25000000</v>
   <v>       0.16666667      0.33333333      0.25000000</v>
   <v>       0.25000000      0.33333333      0.25000000</v>
   <v>       0.33333333      0.33333333      0.25000000</v>
   <v>       0.41666667      0.33333333      0.25000000</v>
   <v>       0.50000000      0.33333333      0.25000000</v>
   <v>       0.00000000      0.41666667      0.25000000</v>
   <v>       0.08333333      0.41666667      0.25000000</v>
   <v>       0.16666667      0.41666667      0.25000000</v>
   <v>       0.25000000      0.41666667      0.25000000</v>
   <v>       0.33333333      0.41666667      0.25000000</v>
   <v>       0.41666667      0.41666667      0.25000000</v>
   <v>       0.50000000      0.41666667      0.25000000</v>
   <v>       0.00000000      0.50000000      0.25000000</v>
   <v>       0.08333333      0.50000000      0.25000000</v>
   <v>       0.16666667      0.50000000      0.25000000</v>
   <v>       0.25000000      0.50000000      0.25000000</v>
   <v>       0.33333333      0.50000000      0.25000000</v>
   <v>       0.41666667      0.50000000      0.25000000</v>
   <v>       0.50000000      0.50000000      0.25000000</v>
   <v>       0.00000000      0.33333333      0.33333333</v>
   <v>       0.08333333      0.33333333      0.33333333</v>
   <v>       0.16666667      0.33333333      0.33333333</v>
   <v>       0.25000000      0.33333333      0.33333333</v>
   <v>       0.33333333      0.33333333      0.33333333</v>
   <v>       0.41666667      0.33333333      0.33333333</v>
   <v>       0.50000000      0.33333333      0.33333333</v>
   <v>       0.00000000      0.41666667      0.33333333</v>
   <v>       0.08333333      0.41666667      0.33333333</v>
   <v>       0.16666667      0.41666667      0.33333333</v>
   <v>       0.25000000      0.41666667      0.33333333</v>
   <v>       0.33333333      0.41666667      0.33333333</v>
   <v>       0.41666667      0.41666667      0.33333333</v>
   <v>       0.50000000      0.41666667      0.33333333</v>
   <v>       0.00000000      0.50000000      0.33333333</v>
   <v>       0.08333333      0.50000000      0.33333333</v>
   <v>       0.16666667      0.50000000      0.33333333</v>
   <v>       0.25000000      0.50000000      0.33333333</v>
   <v>       0.33333333      0.50000000      0.33333333</v>
   <v>       0.41666667      0.50000000      0.33333333</v>
   <v>       0.50000000      0.50000000      0.33333333</v>
   <v>       0.00000000      0.41666667      0.41666667</v>
   <v>       0.08333333      0.41666667      0.41666667</v>
   <v>       0.16666667      0.41666667      0.41666667</v>
   <v>       0.25000000      0.41666667      0.41666667</v>
   <v>       0.33333333      0.41666667      0.41666667</v>
   <v>       0.41666667      0.41666667      0.41666667</v>
   <v>       0.50000000      0.41666667      0.41666667</v>
   <v>       0.00000000      0.50000000      0.41666667</v>
   <v>       0.08333333      0.50000000      0.41666667</v>
   <v>       0.16666667      0.50000000      0.41666667</v>
   <v>       0.25000000      0.50000000      0.41666667</v>
   <v>       0.33333333      0.50000000      0.41666667</v>
   <v>       0.41666667      0.50000000      0.41666667</v>
   <v>       0.50000000      0.50000000      0.41666667</v>
   <v>       0.00000000      0.50000000      0.50000000</v>
   <v>       0.08333333      0.50000000      0.50000000</v>
   <v>       0.16666667      0.50000000      0.50000000</v>
   <v>       0.25000000      0.50000000      0.50000000</v>
   <v>       0.33333333      0.50000000      0.50000000</v>
   <v>       0.41666667      0.50000000      0.50000000</v>
   <v>       0.50000000      0.50000000      0.50000000</v>
  </varray>
  <varray name="weights" >
   <v>       0.00057870</v>
   <v>       0.00115741</v>
   <v>       0.00115741</v>
   <v>       0.00115741</v>
   <v>       0.00115741</v>
   <v>       0.00115741</v>
   <v>       0.00057870</v>
   <v>       0.00231481</v>
   <v>       0.00462963</v>
   <v>       0.00462963</v>
   <v>       0.00462963</v>
   <v>       0.00462963</v>
   <v>       0.00462963</v>
   <v>       0.00231481</v>
   <v>       0.00231481</v>
   <v>       0.00462963</v>
   <v>       0.00462963</v>
   <v>       0.00462963</v>
   <v>       0.00462963</v>
   <v>       0.00462963</v>
   <v>       0.00231481</v>
   <v>       0.00231481</v>
   <v>       0.00462963</v>
   <v>       0.00462963</v>
   <v>       0.00462963</v>
   <v>       0.00462963</v>
   <v>       0.00462963</v>
   <v>       0.00231481</v>
   <v>       0.00231481</v>
   <v>       0.00462963</v>
   <v>       0.00462963</v>
   <v>       0.00462963</v>
   <v>       0.00462963</v>
   <v>       0.00462963</v>
   <v>       0.00231481</v>
   <v>       0.00231481</v>
   <v>       0.00462963</v>
   <v>       0.00462963</v>
   <v>       0.00462963</v>
   <v>       0.00462963</v>
   <v>       0.00462963</v>
   <v>       0.00231481</v>
   <v>       0.00115741</v>
   <v>       0.00231481</v>
   <v>       0.00231481</v>
   <v>       0.00231481</v>
   <v>       0.00231481</v>
   <v>       0.00231481</v>
   <v>       0.00115741</v>
   <v>       0.00231481</v>
   <v>       0.00462963</v>
   <v>       0.00462963</v>
   <v>       0.00462963</v>
   <v>       0.00462963</v>
   <v>       0.00462963</v>
   <v>       0.00231481</v>
   <v>       0.00462963</v>
   <v>       0.00925926</v>
   <v>       0.00925926</v>
   <v>       0.00925926</v>
   <v>       0.00925926</v>
   <v>       0.00925926</v>
   <v>       0.00462963</v>
   <v>       0.00462963</v>
   <v>       0.00925926</v>
   <v>       0.00925926</v>
   <v>       0.00925926</v>
   <v>       0.00925926</v>
   <v>       0.00925926</v>
   <v>       0.00462963</v>
   <v>       0.00462963</v>
   <v>       0.00925926</v>
   <v>       0.00925926</v>
   <v>       0.00925926</v>
   <v>       0.00925926</v>
   <v>       0.00925926</v>
   <v>       0.00462963</v>
   <v>       0.00462963</v>
   <v>       0.00925926</v>
   <v>       0.00925926</v>
   <v>       0.00925926</v>
   <v>       0.00925926</v>
   <v>       0.00925926</v>
   <v>       0.00462963</v>
   <v>       0.00231481</v>
   <v>       0.00462963</v>
   <v>       0.00462963</v>
   <v>       0.00462963</v>
   <v>       0.00462963</v>
   <v>       0.00462963</v>
   <v>       0.00231481</v>
   <v>       0.00231481</v>
   <v>       0.00462963</v>
   <v>       0.00462963</v>
   <v>       0.00462963</v>
   <v>       0.00462963</v>
   <v>       0.00462963</v>
   <v>       0.00231481</v>
   <v>       0.00462963</v>
   <v>       0.00925926</v>
   <v>       0.00925926</v>
   <v>       0.00925926</v>
   <v>       0.00925926</v>
   <v>       0.00925926</v>
   <v>       0.00462963</v>
   <v>       0.00462963</v>
   <v>       0.00925926</v>
   <v>       0.00925926</v>
   <v>       0.00925926</v>
   <v>       0.00925926</v>
   <v>       0.00925926</v>
   <v>       0.00462963</v>
   <v>       0.00462963</v>
   <v>       0.00925926</v>
   <v>       0.00925926</v>
   <v>       0.00925926</v>
   <v>       0.00925926</v>
   <v>       0.00925926</v>
   <v>       0.00462963</v>
   <v>       0.00231481</v>
   <v>       0.00462963</v>
   <v>       0.00462963</v>
   <v>       0.00462963</v>
   <v>       0.00462963</v>
   <v>       0.00462963</v>
   <v>       0.00231481</v>
   <v>       0.00231481</v>
   <v>       0.00462963</v>
   <v>       0.00462963</v>
   <v>       0.00462963</v>
   <v>       0.00462963</v>
   <v>       0.00462963</v>
   <v>       0.00231481</v>
   <v>       0.00462963</v>
   <v>       0.00925926</v>
   <v>       0.00925926</v>
   <v>       0.00925926</v>
   <v>       0.00925926</v>
   <v>       0.00925926</v>
   <v>       0.00462963</v>
   <v>       0.00462963</v>
   <v>       0.00925926</v>
   <v>       0.00925926</v>
   <v>       0.00925926</v>
   <v>       0.00925926</v>
   <v>       0.00925926</v>
   <v>       0.00462963</v>
   <v>       0.00231481</v>
   <v>       0.00462963</v>
   <v>       0.00462963</v>
   <v>       0.00462963</v>
   <v>       0.00462963</v>
   <v>       0.00462963</v>
   <v>       0.00231481</v>
   <v>       0.00231481</v>
   <v>       0.00462963</v>
   <v>       0.00462963</v>
   <v>       0.00462963</v>
   <v>       0.00462963</v>
   <v>       0.00462963</v>
   <v>       0.00231481</v>
   <v>       0.00462963</v>
   <v>       0.00925926</v>
   <v>       0.00925926</v>
   <v>       0.00925926</v>
   <v>       0.00925926</v>
   <v>       0.00925926</v>
   <v>       0.00462963</v>
   <v>       0.00231481</v>
   <v>       0.00462963</v>
   <v>       0.00462963</v>
   <v>       0.00462963</v>
   <v>       0.00462963</v>
   <v>       0.00462963</v>
   <v>       0.00231481</v>
   <v>       0.00231481</v>
   <v>       0.00462963</v>
   <v>       0.00462963</v>
   <v>       0.00462963</v>
   <v>       0.00462963</v>
   <v>       0.00462963</v>
   <v>       0.00231481</v>
   <v>       0.00231481</v>
   <v>       0.00462963</v>
   <v>       0.00462963</v>
   <v>       0.00462963</v>
   <v>       0.00462963</v>
   <v>       0.00462963</v>
   <v>       0.00231481</v>
   <v>       0.00057870</v>
   <v>       0.00115741</v>
   <v>       0.00115741</v>
   <v>       0.00115741</v>
   <v>       0.00115741</v>
   <v>       0.00115741</v>
   <v>       0.00057870</v>
  </varray>
 </kpoints>
 <parameters>
  <separator name="general" >
   <i type="string" name="SYSTEM">unknown system</i>
   <i type="logical" name="LCOMPAT"> F  </i>
  </separator>
  <separator name="electronic" >
   <i type="string" name="PREC">accura</i>
   <i name="ENMAX">    750.00000000</i>
   <i name="ENAUG">    356.67000000</i>
   <i name="EDIFF">      0.00000001</i>
   <i type="int" name="IALGO">    38</i>
   <i type="int" name="IWAVPR">    10</i>
   <i type="int" name="NBANDS">   211</i>
   <i name="NELECT">    352.00000000</i>
   <separator name="electronic smearing" >
    <i type="int" name="ISMEAR">     0</i>
    <i name="SIGMA">      0.01000000</i>
   </separator>
   <separator name="electronic projectors" >
    <i type="logical" name="LREAL"> F  </i>
    <v name="ROPT">      0.00000000</v>
    <i type="int" name="LMAXPAW">  -100</i>
    <i type="int" name="LMAXMIX">     2</i>
   </separator>
   <separator name="electronic startup" >
    <i type="int" name="ISTART">     0</i>
    <i type="int" name="ICHARG">     2</i>
    <i type="int" name="INIWAV">     1</i>
   </separator>
   <separator name="electronic spin" >
    <i type="int" name="ISPIN">     1</i>
    <i type="logical" name="LNONCOLLINEAR"> F  </i>
    <v name="MAGMOM">      1.00000000      1.00000000      1.00000000      1.00000000      1.00000000      1.00000000      1.00000000      1.00000000      1.00000000      1.00000000      1.00000000      1.00000000      1.00000000      1.00000000      1.00000000      1.00000000      1.00000000      1.00000000      1.00000000      1.00000000
      1.00000000      1.00000000      1.00000000      1.00000000      1.00000000      1.00000000      1.00000000      1.00000000      1.00000000      1.00000000      1.00000000      1.00000000</v>
    <i name="NUPDOWN">     -1.00000000</i>
    <i type="logical" name="LSORBIT"> F  </i>
    <v name="SAXIS">      0.00000000      0.00000000      1.00000000</v>
    <i type="logical" name="LSPIRAL"> F  </i>
    <v name="QSPIRAL">      0.00000000      0.00000000      0.00000000</v>
    <i type="logical" name="LZEROZ"> F  </i>
   </separator>
   <separator name="electronic exchange-correlation" >
    <i type="string" name="GGA">--</i>
    <i type="int" name="VOSKOWN">     0</i>
    <i type="logical" name="LASPH"> F  </i>
    <i type="logical" name="LMETAGGA"> F  </i>
    <i type="string" name="GGA2">--</i>
   </separator>
   <separator name="electronic convergence" >
    <i type="int" name="NELM">    60</i>
    <i type="int" name="NELMDL">     0</i>
    <i type="int" name="NELMIN">     2</i>
    <i name="ENINI">    750.00000000</i>
    <separator name="electronic convergence detail" >
     <i type="logical" name="LDIAG"> T  </i>
     <i name="WEIMIN">      0.00000000</i>
     <i name="EBREAK">      0.00000000</i>
     <i name="DEPER">      0.30000000</i>
     <i type="int" name="NRMM">     4</i>
     <i name="TIME">      0.10000000</i>
    </separator>
   </separator>
   <separator name="electronic mixer" >
    <i name="AMIX">      0.40000000</i>
    <i name="BMIX">      1.00000000</i>
    <i name="AMIN">      0.10000000</i>
    <i name="AMIX_MAG">      1.60000000</i>
    <i name="BMIX_MAG">      1.00000000</i>
    <separator name="electronic mixer details" >
     <i type="int" name="IMIX">     4</i>
     <i type="int" name="MAXMIX">   -45</i>
     <i name="WC">    100.00000000</i>
     <i type="int" name="INIMIX">     1</i>
     <i type="int" name="MIXPRE">     1</i>
     <i type="int" name="MREMOVE">     5</i>
    </separator>
   </separator>
   <separator name="electronic dipolcorrection" >
    <i type="int" name="IDIPOL">     0</i>
    <i type="logical" name="LDIPOL"> F  </i>
    <v name="DIPOL">   -100.00000000</v>
    <i name="EFIELD">      0.00000000</i>
   </separator>
  </separator>
  <separator name="grids" >
   <i type="int" name="NGX">    84</i>
   <i type="int" name="NGY">    84</i>
   <i type="int" name="NGZ">    84</i>
   <i type="int" name="NGXF">   168</i>
   <i type="int" name="NGYF">   168</i>
   <i type="int" name="NGZF">   168</i>
   <i type="logical" name="ADDGRID"> T  </i>
  </separator>
  <separator name="ionic" >
   <i type="int" name="NSW">     0</i>
   <i type="int" name="IBRION">    -1</i>
   <i type="int" name="ISIF">     2</i>
   <i name="PSTRESS">      0.00000000</i>
   <i name="EDIFFG">      0.00000010</i>
   <i type="int" name="NFREE">     0</i>
   <i name="POTIM">      0.50000000</i>
   <i name="SMASS">     -3.00000000</i>
  </separator>
  <separator name="ionic md" >
   <i name="TEBEG">      0.00010000</i>
   <i name="TEEND">      0.00010000</i>
   <i type="int" name="NBLOCK">     1</i>
   <i type="int" name="KBLOCK">     1</i>
   <i type="int" name="NPACO">   256</i>
   <i name="APACO">     16.00000000</i>
  </separator>
  <separator name="symmetry" >
   <i type="int" name="ISYM">     2</i>
   <i name="SYMPREC">      0.00001000</i>
  </separator>
  <separator name="dos" >
   <i type="logical" name="LORBIT"> F  </i>
   <v name="RWIGS">     -1.00000000</v>
   <i type="int" name="NEDOS">   301</i>
   <i name="EMIN">     10.00000000</i>
   <i name="EMAX">    -10.00000000</i>
  </separator>
  <separator name="writing" >
   <i type="int" name="NWRITE">     2</i>
   <i type="logical" name="LWAVE"> F  </i>
   <i type="logical" name="LCHARG"> F  </i>
   <i type="logical" name="LPARD"> F  </i>
   <i type="logical" name="LVTOT"> F  </i>
   <i type="logical" name="LELF"> F  </i>
   <i type="logical" name="LOPTICS"> F  </i>
   <i name="STM">      0.00000000</i>
  </separator>
  <separator name="performance" >
   <i type="int" name="NPAR">     8</i>
   <i type="int" name="NSIM">     4</i>
   <i type="int" name="NBLK">   256</i>
   <i type="logical" name="LPLANE"> T  </i>
   <i type="logical" name="LCRITICAL_MEM"> F  </i>
   <i type="logical" name="LSCALAPACK"> F  </i>
   <i type="logical" name="LSCALU"> F  </i>
   <i type="logical" name="LASYNC"> F  </i>
  </separator>
  <separator name="miscellaneous" >
   <i type="int" name="IDIOT">     3</i>
   <i type="logical" name="LMUSIC"> F  </i>
   <v name="POMASS">    196.96600000</v>
   <i type="logical" name="LCORR"> T  </i>
  </separator>
  <i type="logical" name="LREAL_COMPAT"> F  </i>
  <i type="logical" name="GGA_COMPAT"> T  </i>
  <i type="logical" name="LBERRY"> F  </i>
  <i type="int" name="ICORELEVEL">     0</i>
  <i type="logical" name="LDAU"> F  </i>
  <i type="int" name="I_CONSTRAINED_M">     0</i>
 </parameters>
 <atominfo>
  <atoms>      32</atoms>
  <types>       1</types>
  <array name="atoms" >
   <dimension dim="1">ion</dimension>
   <field type="string">element</field>
   <field type="int">atomtype</field>
   <set>
    <rc><c>Au</c><c>   1</c></rc>
    <rc><c>Au</c><c>   1</c></rc>
    <rc><c>Au</c><c>   1</c></rc>
    <rc><c>Au</c><c>   1</c></rc>
    <rc><c>Au</c><c>   1</c></rc>
    <rc><c>Au</c><c>   1</c></rc>
    <rc><c>Au</c><c>   1</c></rc>
    <rc><c>Au</c><c>   1</c></rc>
    <rc><c>Au</c><c>   1</c></rc>
    <rc><c>Au</c><c>   1</c></rc>
    <rc><c>Au</c><c>   1</c></rc>
    <rc><c>Au</c><c>   1</c></rc>
    <rc><c>Au</c><c>   1</c></rc>
    <rc><c>Au</c><c>   1</c></rc>
    <rc><c>Au</c><c>   1</c></rc>
    <rc><c>Au</c><c>   1</c></rc>
    <rc><c>Au</c><c>   1</c></rc>
    <rc><c>Au</c><c>   1</c></rc>
    <rc><c>Au</c><c>   1</c></rc>
    <rc><c>Au</c><c>   1</c></rc>
    <rc><c>Au</c><c>   1</c></rc>
    <rc><c>Au</c><c>   1</c></rc>
    <rc><c>Au</c><c>   1</c></rc>
    <rc><c>Au</c><c>   1</c></rc>
    <rc><c>Au</c><c>   1</c></rc>
    <rc><c>Au</c><c>   1</c></rc>
    <rc><c>Au</c><c>   1</c></rc>
    <rc><c>Au</c><c>   1</c></rc>
    <rc><c>Au</c><c>   1</c></rc>
    <rc><c>Au</c><c>   1</c></rc>
    <rc><c>Au</c><c>   1</c></rc>
    <rc><c>Au</c><c>   1</c></rc>
   </set>
  </array>
  <array name="atomtypes" >
   <dimension dim="1">type</dimension>
   <field type="int">atomspertype</field>
   <field type="string">element</field>
   <field>mass</field>
   <field>valence</field>
   <field type="string">pseudopotential</field>
   <set>
    <rc><c>  32</c><c>Au</c><c>    196.96600000</c><c>     11.00000000</c><c> PAW_PBE Au 06Sep2000                   </c></rc>
   </set>
  </array>
 </atominfo>
 <structure name="initialpos" >
  <crystal>
   <varray name="basis" >
    <v>       9.01336011      0.00000000      0.00000000</v>
    <v>       0.00000000      9.01336011      0.00000000</v>
    <v>       0.00000000      0.00000000      9.01336011</v>
   </varray>
   <i name="volume">    732.25132817</i>
   <varray name="rec_basis" >
    <v>       0.11094642      0.00000000      0.00000000</v>
    <v>       0.00000000      0.11094642      0.00000000</v>
    <v>       0.00000000      0.00000000      0.11094642</v>
   </varray>
  </crystal>
  <varray name="positions" >
   <v>       0.00110946      0.00000000      0.00000000</v>
   <v>       0.50000000      0.00000000      0.00000000</v>
   <v>       0.00000000      0.50000000      0.00000000</v>
   <v>       0.50000000      0.50000000      0.00000000</v>
   <v>       0.00000000      0.00000000      0.50000000</v>
   <v>       0.50000000      0.00000000      0.50000000</v>
   <v>       0.00000000      0.50000000      0.50000000</v>
   <v>       0.50000000      0.50000000      0.50000000</v>
   <v>       0.25000000      0.25000000      0.00000000</v>
   <v>       0.75000000      0.25000000      0.00000000</v>
   <v>       0.25000000      0.75000000      0.00000000</v>
   <v>       0.75000000      0.75000000      0.00000000</v>
   <v>       0.25000000      0.25000000      0.50000000</v>
   <v>       0.75000000      0.25000000      0.50000000</v>
   <v>       0.25000000      0.75000000      0.50000000</v>
   <v>       0.75000000      0.75000000      0.50000000</v>
   <v>       0.25000000      0.00000000      0.25000000</v>
   <v>       0.75000000      0.00000000      0.25000000</v>
   <v>       0.25000000      0.50000000      0.25000000</v>
   <v>       0.75000000      0.50000000      0.25000000</v>
   <v>       0.25000000      0.00000000      0.75000000</v>
   <v>       0.75000000      0.00000000      0.75000000</v>
   <v>       0.25000000      0.50000000      0.75000000</v>
   <v>       0.75000000      0.50000000      0.75000000</v>
   <v>       0.00000000      0.25000000      0.25000000</v>
   <v>       0.50000000      0.25000000      0.25000000</v>
   <v>       0.00000000      0.75000000      0.25000000</v>
   <v>       0.50000000      0.75000000      0.25000000</v>
   <v>       0.00000000      0.25000000      0.75000000</v>
   <v>       0.50000000      0.25000000      0.75000000</v>
   <v>       0.00000000      0.75000000      0.75000000</v>
   <v>       0.50000000      0.75000000      0.75000000</v>
  </varray>
 </structure>
 <calculation>
  <scstep>
   <time name="dav"> 1790.21 1790.34</time>
   <time name="total"> 1791.59 1791.72</time>
   <energy>
    <i name="alphaZ">   2619.00254165</i>
    <i name="ewald"> -28361.60401793</i>
    <i name="hartreedc">  -5241.16052202</i>
    <i name="XCdc">    463.77583196</i>
    <i name="pawpsdc">  23920.39735419</i>
    <i name="pawaedc"> -23172.13309131</i>
    <i name="eentropy">     -0.00084026</i>
    <i name="bandstr">   4452.19470149</i>
    <i name="atom">  29633.78979189</i>
    <i name="e_fr_energy">   4314.26174966</i>
    <i name="e_wo_entrp">   4314.26258992</i>
    <i name="e_0_energy">   4314.26216979</i>
   </energy>
  </scstep>
  <scstep>
   <time name="dav"> 1782.83 1782.51</time>
   <time name="total"> 1782.95 1782.63</time>
   <energy>
    <i name="e_fr_energy">    168.02250304</i>
    <i name="e_wo_entrp">    168.02325444</i>
    <i name="e_0_energy">    168.02287874</i>
   </energy>
  </scstep>
  <scstep>
   <time name="dav"> 1927.99 1927.42</time>
   <time name="total"> 1928.11 1927.54</time>
   <energy>
    <i name="e_fr_energy">    -91.12441539</i>
    <i name="e_wo_entrp">    -91.12388534</i>
    <i name="e_0_energy">    -91.12415037</i>
   </energy>
  </scstep>
  <scstep>
   <time name="dav"> 1857.22 1856.67</time>
   <time name="total"> 1857.34 1856.79</time>
   <energy>
    <i name="e_fr_energy">   -101.12976855</i>
    <i name="e_wo_entrp">   -101.12916423</i>
    <i name="e_0_energy">   -101.12946639</i>
   </energy>
  </scstep>
  <scstep>
   <time name="dav"> 2153.53 2195.08</time>
   <time name="total"> 2241.86 2283.44</time>
   <energy>
    <i name="e_fr_energy">   -101.31731691</i>
    <i name="e_wo_entrp">   -101.31671495</i>
    <i name="e_0_energy">   -101.31701593</i>
   </energy>
  </scstep>
  <scstep>
   <time name="dav"> 2770.36 2769.72</time>
   <time name="total"> 2864.56 2863.90</time>
   <energy>
    <i name="e_fr_energy">    -95.19874636</i>
    <i name="e_wo_entrp">    -95.19806181</i>
    <i name="e_0_energy">    -95.19840409</i>
   </energy>
  </scstep>
  <scstep>
   <time name="dav"> 2737.31 2753.43</time>
   <time name="total"> 2821.99 2842.50</time>
   <energy>
    <i name="e_fr_energy">    -95.07211646</i>
    <i name="e_wo_entrp">    -95.07147769</i>
    <i name="e_0_energy">    -95.07179707</i>
   </energy>
  </scstep>
  <scstep>
   <time name="dav"> 2696.75 2698.59</time>
   <time name="total"> 2781.01 2790.02</time>
   <energy>
    <i name="e_fr_energy">    -95.04803803</i>
    <i name="e_wo_entrp">    -95.04740952</i>
    <i name="e_0_energy">    -95.04772378</i>
   </energy>
  </scstep>
  <scstep>
   <time name="dav"> 2728.74 2759.03</time>
   <time name="total"> 2819.70 2850.17</time>
   <energy>
    <i name="e_fr_energy">    -95.04856935</i>
    <i name="e_wo_entrp">    -95.04796101</i>
    <i name="e_0_energy">    -95.04826518</i>
   </energy>
  </scstep>
  <scstep>
   <time name="dav"> 2726.79 2728.99</time>
   <time name="total"> 2823.28 2825.47</time>
   <energy>
    <i name="e_fr_energy">    -95.04868282</i>
    <i name="e_wo_entrp">    -95.04806997</i>
    <i name="e_0_energy">    -95.04837640</i>
   </energy>
  </scstep>
  <scstep>
   <time name="dav"> 2816.34 2815.91</time>
   <time name="total"> 2909.49 2909.06</time>
   <energy>
    <i name="e_fr_energy">    -95.04869105</i>
    <i name="e_wo_entrp">    -95.04807746</i>
    <i name="e_0_energy">    -95.04838425</i>
   </energy>
  </scstep>
  <scstep>
   <time name="dav"> 2735.98 2736.60</time>
   <time name="total"> 2905.48 2906.16</time>
   <energy>
    <i name="e_fr_energy">    -95.04869269</i>
    <i name="e_wo_entrp">    -95.04807891</i>
    <i name="e_0_energy">    -95.04838580</i>
   </energy>
  </scstep>
  <scstep>
   <time name="dav"> 2813.93 2813.58</time>
   <time name="total"> 3012.38 3012.00</time>
   <energy>
    <i name="e_fr_energy">    -95.04869124</i>
    <i name="e_wo_entrp">    -95.04807749</i>
    <i name="e_0_energy">    -95.04838437</i>
   </energy>
  </scstep>
  <scstep>
   <time name="dav"> 1760.47 1800.15</time>
   <time name="total"> 1928.90 1985.89</time>
   <energy>
    <i name="e_fr_energy">    -95.04869109</i>
    <i name="e_wo_entrp">    -95.04807737</i>
    <i name="e_0_energy">    -95.04838423</i>
   </energy>
  </scstep>
  <scstep>
   <time name="dav"> 1888.71 1919.14</time>
   <time name="total"> 2072.30 2102.90</time>
   <energy>
    <i name="e_fr_energy">    -95.04869115</i>
    <i name="e_wo_entrp">    -95.04807743</i>
    <i name="e_0_energy">    -95.04838429</i>
   </energy>
  </scstep>
  <scstep>
   <time name="dav"> 2018.63 2018.31</time>
   <time name="total"> 2022.76 2022.44</time>
   <energy>
    <i name="alphaZ">   2619.00254165</i>
    <i name="ewald"> -28361.60401793</i>
    <i name="hartreedc">  -4924.14255786</i>
    <i name="XCdc">    449.07310641</i>
    <i name="pawpsdc">  23382.62648251</i>
    <i name="pawaedc"> -22679.50746320</i>
    <i name="eentropy">     -0.00061371</i>
    <i name="bandstr">   -214.28596090</i>
    <i name="atom">  29633.78979189</i>
    <i name="e_fr_energy">    -95.04869114</i>
    <i name="e_wo_entrp">    -95.04807743</i>
    <i name="e_0_energy">    -95.04838428</i>
   </energy>
  </scstep>
  <structure>
   <crystal>
    <varray name="basis" >
     <v>       9.01336011      0.00000000      0.00000000</v>
     <v>       0.00000000      9.01336011      0.00000000</v>
     <v>       0.00000000      0.00000000      9.01336011</v>
    </varray>
    <i name="volume">    732.25132817</i>
    <varray name="rec_basis" >
     <v>       0.11094642      0.00000000      0.00000000</v>
     <v>       0.00000000      0.11094642      0.00000000</v>
     <v>       0.00000000      0.00000000      0.11094642</v>
    </varray>
   </crystal>
   <varray name="positions" >
    <v>       0.00110946      0.00000000      0.00000000</v>
    <v>       0.50000000      0.00000000      0.00000000</v>
    <v>       0.00000000      0.50000000      0.00000000</v>
    <v>       0.50000000      0.50000000      0.00000000</v>
    <v>       0.00000000      0.00000000      0.50000000</v>
    <v>       0.50000000      0.00000000      0.50000000</v>
    <v>       0.00000000      0.50000000      0.50000000</v>
    <v>       0.50000000      0.50000000      0.50000000</v>
    <v>       0.25000000      0.25000000      0.00000000</v>
    <v>       0.75000000      0.25000000      0.00000000</v>
    <v>       0.25000000      0.75000000      0.00000000</v>
    <v>       0.75000000      0.75000000      0.00000000</v>
    <v>       0.25000000      0.25000000      0.50000000</v>
    <v>       0.75000000      0.25000000      0.50000000</v>
    <v>       0.25000000      0.75000000      0.50000000</v>
    <v>       0.75000000      0.75000000      0.50000000</v>
    <v>       0.25000000      0.00000000      0.25000000</v>
    <v>       0.75000000      0.00000000      0.25000000</v>
    <v>       0.25000000      0.50000000      0.25000000</v>
    <v>       0.75000000      0.50000000      0.25000000</v>
    <v>       0.25000000      0.00000000      0.75000000</v>
    <v>       0.75000000      0.00000000      0.75000000</v>
    <v>       0.25000000      0.50000000      0.75000000</v>
    <v>       0.75000000      0.50000000      0.75000000</v>
    <v>       0.00000000      0.25000000      0.25000000</v>
    <v>       0.50000000      0.25000000      0.25000000</v>
    <v>       0.00000000      0.75000000      0.25000000</v>
    <v>       0.50000000      0.75000000      0.25000000</v>
    <v>       0.00000000      0.25000000      0.75000000</v>
    <v>       0.50000000      0.25000000      0.75000000</v>
    <v>       0.00000000      0.75000000      0.75000000</v>
    <v>       0.50000000      0.75000000      0.75000000</v>
   </varray>
  </structure>
  <varray name="forces" >
   <v>       0.00012360      0.00000000     -0.00000000</v>
   <v>       0.00297586      0.00000000      0.00000000</v>
   <v>      -0.00051161      0.00000000     -0.00000000</v>
   <v>      -0.00161535      0.00000000     -0.00000000</v>
   <v>      -0.00051161      0.00000000     -0.00000000</v>
   <v>      -0.00161535      0.00000000      0.00000000</v>
   <v>       0.00028039     -0.00000000     -0.00000000</v>
   <v>       0.00008156      0.00000000     -0.00000000</v>
   <v>       0.00026980      0.00069257      0.00000000</v>
   <v>       0.00018997     -0.00058547      0.00000000</v>
   <v>       0.00026980     -0.00069257      0.00000000</v>
   <v>       0.00018997      0.00058547      0.00000000</v>
   <v>       0.00020812     -0.00003086      0.00000000</v>
   <v>       0.00020889      0.00003465     -0.00000000</v>
   <v>       0.00020812      0.00003086     -0.00000000</v>
   <v>       0.00020889     -0.00003465      0.00000000</v>
   <v>       0.00026980      0.00000000      0.00069257</v>
   <v>       0.00018997      0.00000000     -0.00058547</v>
   <v>       0.00020812      0.00000000     -0.00003086</v>
   <v>       0.00020889     -0.00000000      0.00003465</v>
   <v>       0.00026980     -0.00000000     -0.00069257</v>
   <v>       0.00018997      0.00000000      0.00058547</v>
   <v>       0.00020812     -0.00000000      0.00003086</v>
   <v>       0.00020889     -0.00000000     -0.00003465</v>
   <v>      -0.00119714      0.00000686      0.00000686</v>
   <v>       0.00051848      0.00000465      0.00000465</v>
   <v>      -0.00119714     -0.00000686      0.00000686</v>
   <v>       0.00051848     -0.00000465      0.00000465</v>
   <v>      -0.00119714      0.00000686     -0.00000686</v>
   <v>       0.00051848      0.00000465     -0.00000465</v>
   <v>      -0.00119714     -0.00000686     -0.00000686</v>
   <v>       0.00051848     -0.00000465     -0.00000465</v>
  </varray>
  <varray name="stress" >
   <v>    -155.39021515      0.00000000      0.00000000</v>
   <v>      -0.00000000   -155.39119504      0.00000000</v>
   <v>       0.00000000      0.00000000   -155.39119504</v>
  </varray>
  <energy>
   <i name="e_fr_energy">    -95.04869114</i>
   <i name="e_wo_entrp">    -95.04838428</i>
   <i name="e_0_energy">     -0.00061371</i>
  </energy>
  <eigenvalues>
   <array>
    <dimension dim="1">band</dimension>
    <dimension dim="2">kpoint</dimension>
    <dimension dim="3">spin</dimension>
    <field>eigene</field>
    <field>occ</field>
    <set>
     <set comment="spin 1">
      <set comment="kpoint 1">
       <r>  -4.6110  1.0000</r>
       <r>  -2.6959  1.0000</r>
       <r>  -2.6933  1.0000</r>
       <r>  -2.6932  1.0000</r>
       <r>  -2.6932  1.0000</r>
       <r>  -2.6932  1.0000</r>
       <r>  -2.6906  1.0000</r>
       <r>  -2.5719  1.0000</r>
       <r>  -2.5719  1.0000</r>
       <r>  -2.5719  1.0000</r>
       <r>  -2.5718  1.0000</r>
       <r>  -2.3299  1.0000</r>
       <r>  -2.3299  1.0000</r>
       <r>  -2.3299  1.0000</r>
       <r>  -2.1568  1.0000</r>
       <r>  -2.1568  1.0000</r>
       <r>  -2.1568  1.0000</r>
       <r>  -1.7329  1.0000</r>
       <r>  -1.7318  1.0000</r>
       <r>  -1.7318  1.0000</r>
       <r>  -1.7306  1.0000</r>
       <r>  -1.7304  1.0000</r>
       <r>  -1.7304  1.0000</r>
       <r>  -1.7304  1.0000</r>
       <r>  -1.7304  1.0000</r>
       <r>  -1.7302  1.0000</r>
       <r>  -1.7290  1.0000</r>
       <r>  -1.7290  1.0000</r>
       <r>  -1.7278  1.0000</r>
       <r>  -1.6020  1.0000</r>
       <r>  -1.6006  1.0000</r>
       <r>  -1.6006  1.0000</r>
       <r>  -1.6006  1.0000</r>
       <r>  -1.6006  1.0000</r>
       <r>  -1.5992  1.0000</r>
       <r>  -1.5764  1.0000</r>
       <r>  -1.5750  1.0000</r>
       <r>  -1.5750  1.0000</r>
       <r>  -1.5750  1.0000</r>
       <r>  -1.5750  1.0000</r>
       <r>  -1.5736  1.0000</r>
       <r>  -1.1837  1.0000</r>
       <r>  -1.1820  1.0000</r>
       <r>  -1.1820  1.0000</r>
       <r>  -1.1812  1.0000</r>
       <r>  -1.1812  1.0000</r>
       <r>  -1.1812  1.0000</r>
       <r>  -1.1812  1.0000</r>
       <r>  -1.1812  1.0000</r>
       <r>  -1.1811  1.0000</r>
       <r>  -1.1804  1.0000</r>
       <r>  -1.1804  1.0000</r>
       <r>  -1.1787  1.0000</r>
       <r>  -1.1325  1.0000</r>
       <r>  -1.1325  1.0000</r>
       <r>  -1.1309  1.0000</r>
       <r>  -1.1309  1.0000</r>
       <r>  -1.1309  1.0000</r>
       <r>  -1.1309  1.0000</r>
       <r>  -1.1309  1.0000</r>
       <r>  -1.1309  1.0000</r>
       <r>  -1.1309  1.0000</r>
       <r>  -1.1308  1.0000</r>
       <r>  -1.1292  1.0000</r>
       <r>  -1.1292  1.0000</r>
       <r>  -0.9306  1.0000</r>
       <r>  -0.9303  1.0000</r>
       <r>  -0.9303  1.0000</r>
       <r>  -0.9303  1.0000</r>
       <r>  -0.9302  1.0000</r>
       <r>  -0.9302  1.0000</r>
       <r>  -0.9302  1.0000</r>
       <r>  -0.9302  1.0000</r>
       <r>  -0.9251  1.0000</r>
       <r>  -0.9230  1.0000</r>
       <r>  -0.9229  1.0000</r>
       <r>  -0.9229  1.0000</r>
       <r>  -0.9227  1.0000</r>
       <r>  -0.9227  1.0000</r>
       <r>  -0.9227  1.0000</r>
       <r>  -0.9227  1.0000</r>
       <r>  -0.9225  1.0000</r>
       <r>  -0.9225  1.0000</r>
       <r>  -0.9224  1.0000</r>
       <r>  -0.9200  1.0000</r>
       <r>  -0.9199  1.0000</r>
       <r>  -0.9199  1.0000</r>
       <r>  -0.9199  1.0000</r>
       <r>  -0.4178  1.0000</r>
       <r>  -0.4165  1.0000</r>
       <r>  -0.4164  1.0000</r>
       <r>  -0.4164  1.0000</r>
       <r>  -0.4164  1.0000</r>
       <r>  -0.4151  1.0000</r>
       <r>  -0.3444  1.0000</r>
       <r>  -0.3438  1.0000</r>
       <r>  -0.3431  1.0000</r>
       <r>  -0.3431  1.0000</r>
       <r>  -0.3427  1.0000</r>
       <r>  -0.3427  1.0000</r>
       <r>  -0.3427  1.0000</r>
       <r>  -0.3427  1.0000</r>
       <r>  -0.3423  1.0000</r>
       <r>  -0.3423  1.0000</r>
       <r>  -0.3415  1.0000</r>
       <r>  -0.3410  1.0000</r>
       <r>  -0.1637  1.0000</r>
       <r>  -0.1637  1.0000</r>
       <r>  -0.1620  1.0000</r>
       <r>  -0.1620  1.0000</r>
       <r>  -0.1618  1.0000</r>
       <r>  -0.1618  1.0000</r>
       <r>  -0.1618  1.0000</r>
       <r>  -0.1618  1.0000</r>
       <r>  -0.1617  1.0000</r>
       <r>  -0.1617  1.0000</r>
       <r>  -0.1601  1.0000</r>
       <r>  -0.1601  1.0000</r>
       <r>  -0.0611  1.0000</r>
       <r>  -0.0599  1.0000</r>
       <r>  -0.0599  1.0000</r>
       <r>  -0.0599  1.0000</r>
       <r>  -0.0599  1.0000</r>
       <r>  -0.0588  1.0000</r>
       <r>  -0.0278  1.0000</r>
       <r>  -0.0278  1.0000</r>
       <r>  -0.0102  1.0000</r>
       <r>  -0.0102  1.0000</r>
       <r>  -0.0086  1.0000</r>
       <r>  -0.0084  1.0000</r>
       <r>  -0.0083  1.0000</r>
       <r>  -0.0083  1.0000</r>
       <r>  -0.0083  1.0000</r>
       <r>  -0.0082  1.0000</r>
       <r>  -0.0082  1.0000</r>
       <r>  -0.0080  1.0000</r>
       <r>  -0.0063  1.0000</r>
       <r>  -0.0063  1.0000</r>
       <r>   0.3011  1.0000</r>
       <r>   0.3020  1.0000</r>
       <r>   0.3020  1.0000</r>
       <r>   0.3020  1.0000</r>
       <r>   0.3020  1.0000</r>
       <r>   0.3028  1.0000</r>
       <r>   0.6514  1.0000</r>
       <r>   0.6514  1.0000</r>
       <r>   0.6514  1.0000</r>
       <r>   0.6829  1.0000</r>
       <r>   0.6829  1.0000</r>
       <r>   0.6829  1.0000</r>
       <r>   0.6829  1.0000</r>
       <r>   0.6829  1.0000</r>
       <r>   0.6829  1.0000</r>
       <r>   0.6829  1.0000</r>
       <r>   0.6829  1.0000</r>
       <r>   0.8694  1.0000</r>
       <r>   0.8697  1.0000</r>
       <r>   0.8697  1.0000</r>
       <r>   0.8697  1.0000</r>
       <r>   0.8697  1.0000</r>
       <r>   0.8697  1.0000</r>
       <r>   0.8705  1.0000</r>
       <r>   0.8706  1.0000</r>
       <r>   0.8706  1.0000</r>
       <r>   0.8706  1.0000</r>
       <r>   0.8706  1.0000</r>
       <r>   0.8708  1.0000</r>
       <r>   2.0198  1.0000</r>
       <r>   2.0209  1.0000</r>
       <r>   2.0209  1.0000</r>
       <r>   2.0214  1.0000</r>
       <r>   2.0218  1.0000</r>
       <r>   2.0218  1.0000</r>
       <r>   2.0218  1.0000</r>
       <r>   2.0218  1.0000</r>
       <r>   2.0222  1.0000</r>
       <r>   2.0227  1.0000</r>
       <r>   2.0227  1.0000</r>
       <r>   2.0238  1.0000</r>
       <r>   2.7858  0.0000</r>
       <r>   2.7859  0.0000</r>
       <r>   2.7859  0.0000</r>
       <r>   2.7859  0.0000</r>
       <r>   4.2983  0.0000</r>
       <r>   4.2985  0.0000</r>
       <r>   4.2985  0.0000</r>
       <r>   4.3106  0.0000</r>
       <r>   4.3106  0.0000</r>
       <r>   4.3106  0.0000</r>
       <r>   4.3108  0.0000</r>
       <r>   5.8735  0.0000</r>
       <r>   5.8736  0.0000</r>
       <r>   5.8736  0.0000</r>
       <r>   5.8736  0.0000</r>
       <r>   5.8736  0.0000</r>
       <r>   5.8737  0.0000</r>
       <r>   6.3271  0.0000</r>
       <r>   6.3271  0.0000</r>
       <r>   6.3271  0.0000</r>
       <r>   8.0167  0.0000</r>
       <r>   8.0167  0.0000</r>
       <r>   8.0194  0.0000</r>
       <r>   8.0194  0.0000</r>
       <r>   8.0197  0.0000</r>
       <r>   8.0197  0.0000</r>
       <r>   8.0197  0.0000</r>
       <r>   8.0197  0.0000</r>
       <r>   8.0200  0.0000</r>
       <r>   8.0200  0.0000</r>
       <r>   8.0226  0.0000</r>
       <r>   8.0226  0.0000</r>
       <r>   9.5872  0.0000</r>
       <r>   9.5874  0.0000</r>
       <r>   9.5880  0.0000</r>
       <r>   9.5886  0.0000</r>
       <r>   9.5889  0.0000</r>
      </set>
      <set comment="kpoint 2">
       <r>  -4.5954  1.0000</r>
       <r>  -2.9261  1.0000</r>
       <r>  -2.6821  1.0000</r>
       <r>  -2.6821  1.0000</r>
       <r>  -2.6821  1.0000</r>
       <r>  -2.6821  1.0000</r>
       <r>  -2.5640  1.0000</r>
       <r>  -2.5640  1.0000</r>
       <r>  -2.5640  1.0000</r>
       <r>  -2.5640  1.0000</r>
       <r>  -2.4935  1.0000</r>
       <r>  -2.3255  1.0000</r>
       <r>  -2.3207  1.0000</r>
       <r>  -2.3207  1.0000</r>
       <r>  -2.1520  1.0000</r>
       <r>  -2.1495  1.0000</r>
       <r>  -2.1495  1.0000</r>
       <r>  -1.8022  1.0000</r>
       <r>  -1.8021  1.0000</r>
       <r>  -1.8021  1.0000</r>
       <r>  -1.8021  1.0000</r>
       <r>  -1.7710  1.0000</r>
       <r>  -1.7710  1.0000</r>
       <r>  -1.7710  1.0000</r>
       <r>  -1.7710  1.0000</r>
       <r>  -1.6701  1.0000</r>
       <r>  -1.6701  1.0000</r>
       <r>  -1.6701  1.0000</r>
       <r>  -1.6701  1.0000</r>
       <r>  -1.6547  1.0000</r>
       <r>  -1.6193  1.0000</r>
       <r>  -1.6193  1.0000</r>
       <r>  -1.5947  1.0000</r>
       <r>  -1.5947  1.0000</r>
       <r>  -1.5947  1.0000</r>
       <r>  -1.5947  1.0000</r>
       <r>  -1.5708  1.0000</r>
       <r>  -1.5708  1.0000</r>
       <r>  -1.5708  1.0000</r>
       <r>  -1.5708  1.0000</r>
       <r>  -1.4941  1.0000</r>
       <r>  -1.2915  1.0000</r>
       <r>  -1.2915  1.0000</r>
       <r>  -1.2152  1.0000</r>
       <r>  -1.2152  1.0000</r>
       <r>  -1.2152  1.0000</r>
       <r>  -1.2151  1.0000</r>
       <r>  -1.1561  1.0000</r>
       <r>  -1.1548  1.0000</r>
       <r>  -1.1548  1.0000</r>
       <r>  -1.1548  1.0000</r>
       <r>  -1.1544  1.0000</r>
       <r>  -1.1544  1.0000</r>
       <r>  -1.1544  1.0000</r>
       <r>  -1.1532  1.0000</r>
       <r>  -1.1378  1.0000</r>
       <r>  -1.1378  1.0000</r>
       <r>  -1.1378  1.0000</r>
       <r>  -1.1378  1.0000</r>
       <r>  -1.1302  1.0000</r>
       <r>  -1.1302  1.0000</r>
       <r>  -1.1302  1.0000</r>
       <r>  -1.1300  1.0000</r>
       <r>  -0.9584  1.0000</r>
       <r>  -0.9584  1.0000</r>
       <r>  -0.9556  1.0000</r>
       <r>  -0.9555  1.0000</r>
       <r>  -0.9554  1.0000</r>
       <r>  -0.9554  1.0000</r>
       <r>  -0.9327  1.0000</r>
       <r>  -0.9327  1.0000</r>
       <r>  -0.9327  1.0000</r>
       <r>  -0.9327  1.0000</r>
       <r>  -0.9258  1.0000</r>
       <r>  -0.9245  1.0000</r>
       <r>  -0.9244  1.0000</r>
       <r>  -0.9244  1.0000</r>
       <r>  -0.9244  1.0000</r>
       <r>  -0.9164  1.0000</r>
       <r>  -0.9163  1.0000</r>
       <r>  -0.9163  1.0000</r>
       <r>  -0.9163  1.0000</r>
       <r>  -0.9141  1.0000</r>
       <r>  -0.9141  1.0000</r>
       <r>  -0.8938  1.0000</r>
       <r>  -0.8938  1.0000</r>
       <r>  -0.8938  1.0000</r>
       <r>  -0.8937  1.0000</r>
       <r>  -0.4596  1.0000</r>
       <r>  -0.4596  1.0000</r>
       <r>  -0.4596  1.0000</r>
       <r>  -0.4596  1.0000</r>
       <r>  -0.4486  1.0000</r>
       <r>  -0.3707  1.0000</r>
       <r>  -0.3706  1.0000</r>
       <r>  -0.3706  1.0000</r>
       <r>  -0.3706  1.0000</r>
       <r>  -0.3415  1.0000</r>
       <r>  -0.3413  1.0000</r>
       <r>  -0.3413  1.0000</r>
       <r>  -0.3413  1.0000</r>
       <r>  -0.3202  1.0000</r>
       <r>  -0.3085  1.0000</r>
       <r>  -0.3085  1.0000</r>
       <r>  -0.3085  1.0000</r>
       <r>  -0.3084  1.0000</r>
       <r>  -0.2725  1.0000</r>
       <r>  -0.2725  1.0000</r>
       <r>  -0.1623  1.0000</r>
       <r>  -0.1623  1.0000</r>
       <r>  -0.1622  1.0000</r>
       <r>  -0.1622  1.0000</r>
       <r>  -0.1236  1.0000</r>
       <r>  -0.1236  1.0000</r>
       <r>  -0.1236  1.0000</r>
       <r>  -0.1235  1.0000</r>
       <r>  -0.0610  1.0000</r>
       <r>  -0.0610  1.0000</r>
       <r>  -0.0607  1.0000</r>
       <r>  -0.0607  1.0000</r>
       <r>  -0.0573  1.0000</r>
       <r>  -0.0572  1.0000</r>
       <r>  -0.0571  1.0000</r>
       <r>  -0.0571  1.0000</r>
       <r>  -0.0466  1.0000</r>
       <r>  -0.0466  1.0000</r>
       <r>  -0.0412  1.0000</r>
       <r>  -0.0411  1.0000</r>
       <r>  -0.0340  1.0000</r>
       <r>  -0.0250  1.0000</r>
       <r>   0.0213  1.0000</r>
       <r>   0.0214  1.0000</r>
       <r>   0.0214  1.0000</r>
       <r>   0.0214  1.0000</r>
       <r>   0.0572  1.0000</r>
       <r>   0.0572  1.0000</r>
       <r>   0.0572  1.0000</r>
       <r>   0.0572  1.0000</r>
       <r>   0.2579  1.0000</r>
       <r>   0.3107  1.0000</r>
       <r>   0.3107  1.0000</r>
       <r>   0.3107  1.0000</r>
       <r>   0.3107  1.0000</r>
       <r>   0.3464  1.0000</r>
       <r>   0.6428  1.0000</r>
       <r>   0.6429  1.0000</r>
       <r>   0.6483  1.0000</r>
       <r>   0.6583  1.0000</r>
       <r>   0.6583  1.0000</r>
       <r>   0.6583  1.0000</r>
       <r>   0.6583  1.0000</r>
       <r>   0.6753  1.0000</r>
       <r>   0.6753  1.0000</r>
       <r>   0.6753  1.0000</r>
       <r>   0.6753  1.0000</r>
       <r>   0.8371  1.0000</r>
       <r>   0.8371  1.0000</r>
       <r>   0.8588  1.0000</r>
       <r>   0.8588  1.0000</r>
       <r>   0.8588  1.0000</r>
       <r>   0.8588  1.0000</r>
       <r>   0.8590  1.0000</r>
       <r>   0.8590  1.0000</r>
       <r>   0.8695  1.0000</r>
       <r>   0.8697  1.0000</r>
       <r>   0.8705  1.0000</r>
       <r>   0.8708  1.0000</r>
       <r>   1.7837  1.0000</r>
       <r>   1.7837  1.0000</r>
       <r>   1.7837  1.0000</r>
       <r>   1.7837  1.0000</r>
       <r>   2.0254  1.0000</r>
       <r>   2.0254  1.0000</r>
       <r>   2.0254  1.0000</r>
       <r>   2.0254  1.0000</r>
       <r>   2.2832  1.0000</r>
       <r>   2.2832  1.0000</r>
       <r>   2.2833  1.0000</r>
       <r>   2.2833  1.0000</r>
       <r>   2.7338  0.0000</r>
       <r>   2.7338  0.0000</r>
       <r>   2.7338  0.0000</r>
       <r>   2.7338  0.0000</r>
       <r>   4.0758  0.0000</r>
       <r>   4.3439  0.0000</r>
       <r>   4.3439  0.0000</r>
       <r>   4.4098  0.0000</r>
       <r>   4.4098  0.0000</r>
       <r>   4.4098  0.0000</r>
       <r>   4.4099  0.0000</r>
       <r>   5.7885  0.0000</r>
       <r>   5.7885  0.0000</r>
       <r>   5.7885  0.0000</r>
       <r>   5.7885  0.0000</r>
       <r>   5.8812  0.0000</r>
       <r>   5.8812  0.0000</r>
       <r>   6.3194  0.0000</r>
       <r>   6.3194  0.0000</r>
       <r>   6.5780  0.0000</r>
       <r>   7.5910  0.0000</r>
       <r>   7.5910  0.0000</r>
       <r>   8.0240  0.0000</r>
       <r>   8.0240  0.0000</r>
       <r>   8.0241  0.0000</r>
       <r>   8.0241  0.0000</r>
       <r>   8.0457  0.0000</r>
       <r>   8.0457  0.0000</r>
       <r>   8.0457  0.0000</r>
       <r>   8.0457  0.0000</r>
       <r>   8.4498  0.0000</r>
       <r>   8.4498  0.0000</r>
       <r>   9.3020  0.0000</r>
       <r>   9.3031  0.0000</r>
       <r>   9.3048  0.0000</r>
       <r>   9.3086  0.0000</r>
       <r>   9.3101  0.0000</r>
      </set>
      <set comment="kpoint 3">
       <r>  -4.5484  1.0000</r>
       <r>  -3.1728  1.0000</r>
       <r>  -2.6490  1.0000</r>
       <r>  -2.6490  1.0000</r>
       <r>  -2.6490  1.0000</r>
       <r>  -2.6490  1.0000</r>
       <r>  -2.5405  1.0000</r>
       <r>  -2.5405  1.0000</r>
       <r>  -2.5405  1.0000</r>
       <r>  -2.5405  1.0000</r>
       <r>  -2.3443  1.0000</r>
       <r>  -2.3126  1.0000</r>
       <r>  -2.2935  1.0000</r>
       <r>  -2.2935  1.0000</r>
       <r>  -2.1379  1.0000</r>
       <r>  -2.1278  1.0000</r>
       <r>  -2.1278  1.0000</r>
       <r>  -1.8882  1.0000</r>
       <r>  -1.8882  1.0000</r>
       <r>  -1.8882  1.0000</r>
       <r>  -1.8882  1.0000</r>
       <r>  -1.8660  1.0000</r>
       <r>  -1.8660  1.0000</r>
       <r>  -1.8659  1.0000</r>
       <r>  -1.8659  1.0000</r>
       <r>  -1.7318  1.0000</r>
       <r>  -1.6716  1.0000</r>
       <r>  -1.6716  1.0000</r>
       <r>  -1.6176  1.0000</r>
       <r>  -1.6176  1.0000</r>
       <r>  -1.6176  1.0000</r>
       <r>  -1.6176  1.0000</r>
       <r>  -1.5778  1.0000</r>
       <r>  -1.5778  1.0000</r>
       <r>  -1.5778  1.0000</r>
       <r>  -1.5778  1.0000</r>
       <r>  -1.5585  1.0000</r>
       <r>  -1.5585  1.0000</r>
       <r>  -1.5584  1.0000</r>
       <r>  -1.5584  1.0000</r>
       <r>  -1.4395  1.0000</r>
       <r>  -1.4395  1.0000</r>
       <r>  -1.4133  1.0000</r>
       <r>  -1.2553  1.0000</r>
       <r>  -1.2553  1.0000</r>
       <r>  -1.2553  1.0000</r>
       <r>  -1.2553  1.0000</r>
       <r>  -1.1572  1.0000</r>
       <r>  -1.1572  1.0000</r>
       <r>  -1.1572  1.0000</r>
       <r>  -1.1572  1.0000</r>
       <r>  -1.1354  1.0000</r>
       <r>  -1.1351  1.0000</r>
       <r>  -1.1351  1.0000</r>
       <r>  -1.1350  1.0000</r>
       <r>  -1.1282  1.0000</r>
       <r>  -1.1281  1.0000</r>
       <r>  -1.1281  1.0000</r>
       <r>  -1.1279  1.0000</r>
       <r>  -1.1094  1.0000</r>
       <r>  -1.1094  1.0000</r>
       <r>  -1.1094  1.0000</r>
       <r>  -1.1093  1.0000</r>
       <r>  -1.0106  1.0000</r>
       <r>  -1.0106  1.0000</r>
       <r>  -1.0106  1.0000</r>
       <r>  -1.0106  1.0000</r>
       <r>  -0.9436  1.0000</r>
       <r>  -0.9400  1.0000</r>
       <r>  -0.9399  1.0000</r>
       <r>  -0.9399  1.0000</r>
       <r>  -0.9399  1.0000</r>
       <r>  -0.9257  1.0000</r>
       <r>  -0.9257  1.0000</r>
       <r>  -0.9257  1.0000</r>
       <r>  -0.9256  1.0000</r>
       <r>  -0.9071  1.0000</r>
       <r>  -0.9071  1.0000</r>
       <r>  -0.9071  1.0000</r>
       <r>  -0.9071  1.0000</r>
       <r>  -0.8970  1.0000</r>
       <r>  -0.8970  1.0000</r>
       <r>  -0.8009  1.0000</r>
       <r>  -0.8009  1.0000</r>
       <r>  -0.8009  1.0000</r>
       <r>  -0.8009  1.0000</r>
       <r>  -0.7750  1.0000</r>
       <r>  -0.7750  1.0000</r>
       <r>  -0.5458  1.0000</r>
       <r>  -0.5458  1.0000</r>
       <r>  -0.5458  1.0000</r>
       <r>  -0.5458  1.0000</r>
       <r>  -0.4374  1.0000</r>
       <r>  -0.4350  1.0000</r>
       <r>  -0.4349  1.0000</r>
       <r>  -0.4349  1.0000</r>
       <r>  -0.4349  1.0000</r>
       <r>  -0.3774  1.0000</r>
       <r>  -0.3774  1.0000</r>
       <r>  -0.3074  1.0000</r>
       <r>  -0.3074  1.0000</r>
       <r>  -0.3074  1.0000</r>
       <r>  -0.3074  1.0000</r>
       <r>  -0.2511  1.0000</r>
       <r>  -0.2511  1.0000</r>
       <r>  -0.2511  1.0000</r>
       <r>  -0.2511  1.0000</r>
       <r>  -0.1634  1.0000</r>
       <r>  -0.1634  1.0000</r>
       <r>  -0.1634  1.0000</r>
       <r>  -0.1633  1.0000</r>
       <r>  -0.1413  1.0000</r>
       <r>  -0.1004  1.0000</r>
       <r>  -0.1004  1.0000</r>
       <r>  -0.1004  1.0000</r>
       <r>  -0.1004  1.0000</r>
       <r>  -0.0588  1.0000</r>
       <r>  -0.0587  1.0000</r>
       <r>  -0.0587  1.0000</r>
       <r>  -0.0586  1.0000</r>
       <r>  -0.0524  1.0000</r>
       <r>  -0.0501  1.0000</r>
       <r>  -0.0501  1.0000</r>
       <r>  -0.0501  1.0000</r>
       <r>  -0.0501  1.0000</r>
       <r>  -0.0168  1.0000</r>
       <r>   0.0111  1.0000</r>
       <r>   0.0112  1.0000</r>
       <r>   0.0710  1.0000</r>
       <r>   0.0710  1.0000</r>
       <r>   0.0908  1.0000</r>
       <r>   0.0908  1.0000</r>
       <r>   0.0908  1.0000</r>
       <r>   0.0908  1.0000</r>
       <r>   0.1349  1.0000</r>
       <r>   0.1349  1.0000</r>
       <r>   0.1349  1.0000</r>
       <r>   0.1349  1.0000</r>
       <r>   0.2149  1.0000</r>
       <r>   0.3436  1.0000</r>
       <r>   0.3436  1.0000</r>
       <r>   0.3436  1.0000</r>
       <r>   0.3436  1.0000</r>
       <r>   0.3904  1.0000</r>
       <r>   0.5856  1.0000</r>
       <r>   0.5856  1.0000</r>
       <r>   0.5856  1.0000</r>
       <r>   0.5856  1.0000</r>
       <r>   0.6174  1.0000</r>
       <r>   0.6174  1.0000</r>
       <r>   0.6391  1.0000</r>
       <r>   0.6527  1.0000</r>
       <r>   0.6527  1.0000</r>
       <r>   0.6527  1.0000</r>
       <r>   0.6528  1.0000</r>
       <r>   0.7444  1.0000</r>
       <r>   0.7444  1.0000</r>
       <r>   0.8244  1.0000</r>
       <r>   0.8244  1.0000</r>
       <r>   0.8244  1.0000</r>
       <r>   0.8244  1.0000</r>
       <r>   0.8273  1.0000</r>
       <r>   0.8273  1.0000</r>
       <r>   0.8695  1.0000</r>
       <r>   0.8697  1.0000</r>
       <r>   0.8705  1.0000</r>
       <r>   0.8708  1.0000</r>
       <r>   1.5648  1.0000</r>
       <r>   1.5648  1.0000</r>
       <r>   1.5648  1.0000</r>
       <r>   1.5648  1.0000</r>
       <r>   2.0365  1.0000</r>
       <r>   2.0366  1.0000</r>
       <r>   2.0366  1.0000</r>
       <r>   2.0366  1.0000</r>
       <r>   2.5716  0.0000</r>
       <r>   2.5717  0.0000</r>
       <r>   2.5717  0.0000</r>
       <r>   2.5717  0.0000</r>
       <r>   2.6127  0.0000</r>
       <r>   2.6127  0.0000</r>
       <r>   2.6127  0.0000</r>
       <r>   2.6128  0.0000</r>
       <r>   3.5888  0.0000</r>
       <r>   4.4751  0.0000</r>
       <r>   4.4751  0.0000</r>
       <r>   4.6715  0.0000</r>
       <r>   4.6715  0.0000</r>
       <r>   4.6715  0.0000</r>
       <r>   4.6715  0.0000</r>
       <r>   5.5550  0.0000</r>
       <r>   5.5550  0.0000</r>
       <r>   5.5550  0.0000</r>
       <r>   5.5550  0.0000</r>
       <r>   5.9035  0.0000</r>
       <r>   5.9035  0.0000</r>
       <r>   6.2967  0.0000</r>
       <r>   6.2967  0.0000</r>
       <r>   7.1497  0.0000</r>
       <r>   7.1672  0.0000</r>
       <r>   7.1672  0.0000</r>
       <r>   8.0414  0.0000</r>
       <r>   8.0414  0.0000</r>
       <r>   8.0414  0.0000</r>
       <r>   8.0414  0.0000</r>
       <r>   8.1228  0.0000</r>
       <r>   8.1228  0.0000</r>
       <r>   8.1228  0.0000</r>
       <r>   8.1228  0.0000</r>
       <r>   8.7712  0.0000</r>
       <r>   8.7712  0.0000</r>
       <r>   8.7712  0.0000</r>
       <r>   8.7712  0.0000</r>
       <r>   8.8777  0.0000</r>
       <r>   8.8778  0.0000</r>
       <r>   9.0483  0.0000</r>
      </set>
      <set comment="kpoint 4">
       <r>  -4.4705  1.0000</r>
       <r>  -3.4182  1.0000</r>
       <r>  -2.5948  1.0000</r>
       <r>  -2.5948  1.0000</r>
       <r>  -2.5948  1.0000</r>
       <r>  -2.5948  1.0000</r>
       <r>  -2.5015  1.0000</r>
       <r>  -2.5015  1.0000</r>
       <r>  -2.5015  1.0000</r>
       <r>  -2.5015  1.0000</r>
       <r>  -2.2925  1.0000</r>
       <r>  -2.2521  1.0000</r>
       <r>  -2.2490  1.0000</r>
       <r>  -2.2489  1.0000</r>
       <r>  -2.1146  1.0000</r>
       <r>  -2.0916  1.0000</r>
       <r>  -2.0916  1.0000</r>
       <r>  -1.9886  1.0000</r>
       <r>  -1.9886  1.0000</r>
       <r>  -1.9885  1.0000</r>
       <r>  -1.9885  1.0000</r>
       <r>  -1.9793  1.0000</r>
       <r>  -1.9793  1.0000</r>
       <r>  -1.9792  1.0000</r>
       <r>  -1.9792  1.0000</r>
       <r>  -1.8052  1.0000</r>
       <r>  -1.7484  1.0000</r>
       <r>  -1.7483  1.0000</r>
       <r>  -1.5745  1.0000</r>
       <r>  -1.5745  1.0000</r>
       <r>  -1.5703  1.0000</r>
       <r>  -1.5703  1.0000</r>
       <r>  -1.5702  1.0000</r>
       <r>  -1.5702  1.0000</r>
       <r>  -1.5514  1.0000</r>
       <r>  -1.5514  1.0000</r>
       <r>  -1.5514  1.0000</r>
       <r>  -1.5514  1.0000</r>
       <r>  -1.5381  1.0000</r>
       <r>  -1.5381  1.0000</r>
       <r>  -1.5381  1.0000</r>
       <r>  -1.5381  1.0000</r>
       <r>  -1.3341  1.0000</r>
       <r>  -1.2997  1.0000</r>
       <r>  -1.2997  1.0000</r>
       <r>  -1.2997  1.0000</r>
       <r>  -1.2996  1.0000</r>
       <r>  -1.1854  1.0000</r>
       <r>  -1.1854  1.0000</r>
       <r>  -1.1854  1.0000</r>
       <r>  -1.1854  1.0000</r>
       <r>  -1.1259  1.0000</r>
       <r>  -1.1251  1.0000</r>
       <r>  -1.1251  1.0000</r>
       <r>  -1.1251  1.0000</r>
       <r>  -1.1226  1.0000</r>
       <r>  -1.1225  1.0000</r>
       <r>  -1.1225  1.0000</r>
       <r>  -1.1218  1.0000</r>
       <r>  -1.0778  1.0000</r>
       <r>  -1.0772  1.0000</r>
       <r>  -1.0772  1.0000</r>
       <r>  -1.0772  1.0000</r>
       <r>  -1.0750  1.0000</r>
       <r>  -1.0750  1.0000</r>
       <r>  -1.0750  1.0000</r>
       <r>  -1.0744  1.0000</r>
       <r>  -0.9728  1.0000</r>
       <r>  -0.9515  1.0000</r>
       <r>  -0.9515  1.0000</r>
       <r>  -0.9515  1.0000</r>
       <r>  -0.9515  1.0000</r>
       <r>  -0.9333  1.0000</r>
       <r>  -0.9333  1.0000</r>
       <r>  -0.9333  1.0000</r>
       <r>  -0.9332  1.0000</r>
       <r>  -0.8785  1.0000</r>
       <r>  -0.8785  1.0000</r>
       <r>  -0.8785  1.0000</r>
       <r>  -0.8785  1.0000</r>
       <r>  -0.8685  1.0000</r>
       <r>  -0.8685  1.0000</r>
       <r>  -0.6514  1.0000</r>
       <r>  -0.6514  1.0000</r>
       <r>  -0.6514  1.0000</r>
       <r>  -0.6514  1.0000</r>
       <r>  -0.6378  1.0000</r>
       <r>  -0.6378  1.0000</r>
       <r>  -0.6378  1.0000</r>
       <r>  -0.6378  1.0000</r>
       <r>  -0.5820  1.0000</r>
       <r>  -0.5820  1.0000</r>
       <r>  -0.5115  1.0000</r>
       <r>  -0.5115  1.0000</r>
       <r>  -0.5115  1.0000</r>
       <r>  -0.5115  1.0000</r>
       <r>  -0.4752  1.0000</r>
       <r>  -0.4752  1.0000</r>
       <r>  -0.3995  1.0000</r>
       <r>  -0.2539  1.0000</r>
       <r>  -0.2539  1.0000</r>
       <r>  -0.2539  1.0000</r>
       <r>  -0.2539  1.0000</r>
       <r>  -0.1873  1.0000</r>
       <r>  -0.1873  1.0000</r>
       <r>  -0.1873  1.0000</r>
       <r>  -0.1873  1.0000</r>
       <r>  -0.1649  1.0000</r>
       <r>  -0.1649  1.0000</r>
       <r>  -0.1648  1.0000</r>
       <r>  -0.1648  1.0000</r>
       <r>  -0.1286  1.0000</r>
       <r>  -0.1286  1.0000</r>
       <r>  -0.1286  1.0000</r>
       <r>  -0.1286  1.0000</r>
       <r>  -0.0824  1.0000</r>
       <r>  -0.0421  1.0000</r>
       <r>  -0.0421  1.0000</r>
       <r>  -0.0421  1.0000</r>
       <r>  -0.0421  1.0000</r>
       <r>  -0.0176  1.0000</r>
       <r>  -0.0176  1.0000</r>
       <r>  -0.0176  1.0000</r>
       <r>  -0.0176  1.0000</r>
       <r>  -0.0033  1.0000</r>
       <r>   0.0876  1.0000</r>
       <r>   0.0876  1.0000</r>
       <r>   0.1278  1.0000</r>
       <r>   0.1731  1.0000</r>
       <r>   0.1755  1.0000</r>
       <r>   0.1755  1.0000</r>
       <r>   0.1755  1.0000</r>
       <r>   0.1760  1.0000</r>
       <r>   0.1895  1.0000</r>
       <r>   0.1895  1.0000</r>
       <r>   0.2230  1.0000</r>
       <r>   0.2230  1.0000</r>
       <r>   0.2230  1.0000</r>
       <r>   0.2230  1.0000</r>
       <r>   0.4144  1.0000</r>
       <r>   0.4144  1.0000</r>
       <r>   0.4144  1.0000</r>
       <r>   0.4144  1.0000</r>
       <r>   0.4332  1.0000</r>
       <r>   0.4684  1.0000</r>
       <r>   0.4684  1.0000</r>
       <r>   0.4684  1.0000</r>
       <r>   0.4684  1.0000</r>
       <r>   0.5754  1.0000</r>
       <r>   0.5754  1.0000</r>
       <r>   0.6041  1.0000</r>
       <r>   0.6041  1.0000</r>
       <r>   0.6158  1.0000</r>
       <r>   0.6158  1.0000</r>
       <r>   0.6158  1.0000</r>
       <r>   0.6158  1.0000</r>
       <r>   0.6240  1.0000</r>
       <r>   0.7694  1.0000</r>
       <r>   0.7694  1.0000</r>
       <r>   0.7694  1.0000</r>
       <r>   0.7694  1.0000</r>
       <r>   0.7760  1.0000</r>
       <r>   0.7760  1.0000</r>
       <r>   0.8695  1.0000</r>
       <r>   0.8698  1.0000</r>
       <r>   0.8704  1.0000</r>
       <r>   0.8707  1.0000</r>
       <r>   1.3614  1.0000</r>
       <r>   1.3614  1.0000</r>
       <r>   1.3614  1.0000</r>
       <r>   1.3614  1.0000</r>
       <r>   2.0560  1.0000</r>
       <r>   2.0560  1.0000</r>
       <r>   2.0560  1.0000</r>
       <r>   2.0560  1.0000</r>
       <r>   2.4767  1.0000</r>
       <r>   2.4767  1.0000</r>
       <r>   2.4767  1.0000</r>
       <r>   2.4767  1.0000</r>
       <r>   2.8896  0.0000</r>
       <r>   2.8896  0.0000</r>
       <r>   2.8896  0.0000</r>
       <r>   2.8896  0.0000</r>
       <r>   3.0257  0.0000</r>
       <r>   4.6793  0.0000</r>
       <r>   4.6793  0.0000</r>
       <r>   5.0375  0.0000</r>
       <r>   5.0375  0.0000</r>
       <r>   5.0375  0.0000</r>
       <r>   5.0375  0.0000</r>
       <r>   5.2208  0.0000</r>
       <r>   5.2208  0.0000</r>
       <r>   5.2208  0.0000</r>
       <r>   5.2208  0.0000</r>
       <r>   5.9391  0.0000</r>
       <r>   5.9391  0.0000</r>
       <r>   6.2604  0.0000</r>
       <r>   6.2604  0.0000</r>
       <r>   6.7514  0.0000</r>
       <r>   6.7514  0.0000</r>
       <r>   7.8547  0.0000</r>
       <r>   8.0784  0.0000</r>
       <r>   8.0784  0.0000</r>
       <r>   8.0784  0.0000</r>
       <r>   8.0784  0.0000</r>
       <r>   8.1826  0.0000</r>
       <r>   8.1826  0.0000</r>
       <r>   8.1826  0.0000</r>
       <r>   8.1826  0.0000</r>
       <r>   8.2490  0.0000</r>
       <r>   8.2490  0.0000</r>
       <r>   8.2490  0.0000</r>
       <r>   8.2490  0.0000</r>
       <r>   8.8256  0.0000</r>
       <r>   8.8256  0.0000</r>
       <r>   8.8256  0.0000</r>
      </set>
      <set comment="kpoint 5">
       <r>  -4.3622  1.0000</r>
       <r>  -3.6518  1.0000</r>
       <r>  -2.5212  1.0000</r>
       <r>  -2.5212  1.0000</r>
       <r>  -2.5211  1.0000</r>
       <r>  -2.5211  1.0000</r>
       <r>  -2.4473  1.0000</r>
       <r>  -2.4473  1.0000</r>
       <r>  -2.4473  1.0000</r>
       <r>  -2.4473  1.0000</r>
       <r>  -2.2671  1.0000</r>
       <r>  -2.2093  1.0000</r>
       <r>  -2.1885  1.0000</r>
       <r>  -2.1885  1.0000</r>
       <r>  -2.0994  1.0000</r>
       <r>  -2.0994  1.0000</r>
       <r>  -2.0993  1.0000</r>
       <r>  -2.0993  1.0000</r>
       <r>  -2.0932  1.0000</r>
       <r>  -2.0931  1.0000</r>
       <r>  -2.0931  1.0000</r>
       <r>  -2.0931  1.0000</r>
       <r>  -2.0824  1.0000</r>
       <r>  -2.0410  1.0000</r>
       <r>  -2.0410  1.0000</r>
       <r>  -1.8738  1.0000</r>
       <r>  -1.8391  1.0000</r>
       <r>  -1.8391  1.0000</r>
       <r>  -1.6957  1.0000</r>
       <r>  -1.6957  1.0000</r>
       <r>  -1.5281  1.0000</r>
       <r>  -1.5279  1.0000</r>
       <r>  -1.5279  1.0000</r>
       <r>  -1.5279  1.0000</r>
       <r>  -1.5195  1.0000</r>
       <r>  -1.5195  1.0000</r>
       <r>  -1.5195  1.0000</r>
       <r>  -1.5194  1.0000</r>
       <r>  -1.5104  1.0000</r>
       <r>  -1.5104  1.0000</r>
       <r>  -1.5104  1.0000</r>
       <r>  -1.5104  1.0000</r>
       <r>  -1.3461  1.0000</r>
       <r>  -1.3461  1.0000</r>
       <r>  -1.3461  1.0000</r>
       <r>  -1.3461  1.0000</r>
       <r>  -1.2580  1.0000</r>
       <r>  -1.2161  1.0000</r>
       <r>  -1.2161  1.0000</r>
       <r>  -1.2161  1.0000</r>
       <r>  -1.2160  1.0000</r>
       <r>  -1.1446  1.0000</r>
       <r>  -1.1446  1.0000</r>
       <r>  -1.1446  1.0000</r>
       <r>  -1.1446  1.0000</r>
       <r>  -1.1218  1.0000</r>
       <r>  -1.1213  1.0000</r>
       <r>  -1.1213  1.0000</r>
       <r>  -1.1213  1.0000</r>
       <r>  -1.1160  1.0000</r>
       <r>  -1.1159  1.0000</r>
       <r>  -1.1159  1.0000</r>
       <r>  -1.1155  1.0000</r>
       <r>  -1.0491  1.0000</r>
       <r>  -1.0491  1.0000</r>
       <r>  -1.0491  1.0000</r>
       <r>  -1.0491  1.0000</r>
       <r>  -1.0127  1.0000</r>
       <r>  -0.9668  1.0000</r>
       <r>  -0.9668  1.0000</r>
       <r>  -0.9668  1.0000</r>
       <r>  -0.9668  1.0000</r>
       <r>  -0.9269  1.0000</r>
       <r>  -0.9269  1.0000</r>
       <r>  -0.9269  1.0000</r>
       <r>  -0.9269  1.0000</r>
       <r>  -0.8391  1.0000</r>
       <r>  -0.8391  1.0000</r>
       <r>  -0.8391  1.0000</r>
       <r>  -0.8390  1.0000</r>
       <r>  -0.8288  1.0000</r>
       <r>  -0.8288  1.0000</r>
       <r>  -0.7236  1.0000</r>
       <r>  -0.7236  1.0000</r>
       <r>  -0.7236  1.0000</r>
       <r>  -0.7236  1.0000</r>
       <r>  -0.5892  1.0000</r>
       <r>  -0.5892  1.0000</r>
       <r>  -0.5892  1.0000</r>
       <r>  -0.5892  1.0000</r>
       <r>  -0.5650  1.0000</r>
       <r>  -0.5650  1.0000</r>
       <r>  -0.4686  1.0000</r>
       <r>  -0.4686  1.0000</r>
       <r>  -0.4686  1.0000</r>
       <r>  -0.4686  1.0000</r>
       <r>  -0.3812  1.0000</r>
       <r>  -0.3812  1.0000</r>
       <r>  -0.3469  1.0000</r>
       <r>  -0.1929  1.0000</r>
       <r>  -0.1929  1.0000</r>
       <r>  -0.1929  1.0000</r>
       <r>  -0.1929  1.0000</r>
       <r>  -0.1661  1.0000</r>
       <r>  -0.1661  1.0000</r>
       <r>  -0.1661  1.0000</r>
       <r>  -0.1661  1.0000</r>
       <r>  -0.1473  1.0000</r>
       <r>  -0.1473  1.0000</r>
       <r>  -0.1473  1.0000</r>
       <r>  -0.1473  1.0000</r>
       <r>  -0.1295  1.0000</r>
       <r>  -0.1295  1.0000</r>
       <r>  -0.1295  1.0000</r>
       <r>  -0.1295  1.0000</r>
       <r>  -0.1229  1.0000</r>
       <r>  -0.0373  1.0000</r>
       <r>  -0.0373  1.0000</r>
       <r>  -0.0372  1.0000</r>
       <r>  -0.0372  1.0000</r>
       <r>  -0.0131  1.0000</r>
       <r>  -0.0131  1.0000</r>
       <r>  -0.0130  1.0000</r>
       <r>  -0.0130  1.0000</r>
       <r>   0.0154  1.0000</r>
       <r>   0.1348  1.0000</r>
       <r>   0.1776  1.0000</r>
       <r>   0.1777  1.0000</r>
       <r>   0.2638  1.0000</r>
       <r>   0.2638  1.0000</r>
       <r>   0.2638  1.0000</r>
       <r>   0.2638  1.0000</r>
       <r>   0.3065  1.0000</r>
       <r>   0.3065  1.0000</r>
       <r>   0.3138  1.0000</r>
       <r>   0.3138  1.0000</r>
       <r>   0.3138  1.0000</r>
       <r>   0.3138  1.0000</r>
       <r>   0.3184  1.0000</r>
       <r>   0.3184  1.0000</r>
       <r>   0.3184  1.0000</r>
       <r>   0.3185  1.0000</r>
       <r>   0.4306  1.0000</r>
       <r>   0.4306  1.0000</r>
       <r>   0.4741  1.0000</r>
       <r>   0.4806  1.0000</r>
       <r>   0.5179  1.0000</r>
       <r>   0.5179  1.0000</r>
       <r>   0.5251  1.0000</r>
       <r>   0.5251  1.0000</r>
       <r>   0.5251  1.0000</r>
       <r>   0.5251  1.0000</r>
       <r>   0.5655  1.0000</r>
       <r>   0.5655  1.0000</r>
       <r>   0.5655  1.0000</r>
       <r>   0.5655  1.0000</r>
       <r>   0.6033  1.0000</r>
       <r>   0.6971  1.0000</r>
       <r>   0.6971  1.0000</r>
       <r>   0.6971  1.0000</r>
       <r>   0.6971  1.0000</r>
       <r>   0.7069  1.0000</r>
       <r>   0.7069  1.0000</r>
       <r>   0.8696  1.0000</r>
       <r>   0.8699  1.0000</r>
       <r>   0.8703  1.0000</r>
       <r>   0.8707  1.0000</r>
       <r>   1.1705  1.0000</r>
       <r>   1.1705  1.0000</r>
       <r>   1.1705  1.0000</r>
       <r>   1.1705  1.0000</r>
       <r>   2.0851  1.0000</r>
       <r>   2.0851  1.0000</r>
       <r>   2.0851  1.0000</r>
       <r>   2.0851  1.0000</r>
       <r>   2.3553  1.0000</r>
       <r>   2.3553  1.0000</r>
       <r>   2.3553  1.0000</r>
       <r>   2.3553  1.0000</r>
       <r>   2.4548  1.0000</r>
       <r>   3.2372  0.0000</r>
       <r>   3.2372  0.0000</r>
       <r>   3.2372  0.0000</r>
       <r>   3.2372  0.0000</r>
       <r>   4.8317  0.0000</r>
       <r>   4.8317  0.0000</r>
       <r>   4.8317  0.0000</r>
       <r>   4.8317  0.0000</r>
       <r>   4.9417  0.0000</r>
       <r>   4.9417  0.0000</r>
       <r>   5.4710  0.0000</r>
       <r>   5.4710  0.0000</r>
       <r>   5.4710  0.0000</r>
       <r>   5.4710  0.0000</r>
       <r>   5.9857  0.0000</r>
       <r>   5.9857  0.0000</r>
       <r>   6.2132  0.0000</r>
       <r>   6.2132  0.0000</r>
       <r>   6.3473  0.0000</r>
       <r>   6.3473  0.0000</r>
       <r>   7.5940  0.0000</r>
       <r>   7.5940  0.0000</r>
       <r>   7.5940  0.0000</r>
       <r>   7.5940  0.0000</r>
       <r>   8.1385  0.0000</r>
       <r>   8.1385  0.0000</r>
       <r>   8.1385  0.0000</r>
       <r>   8.1385  0.0000</r>
       <r>   8.4209  0.0000</r>
       <r>   8.4209  0.0000</r>
       <r>   8.4209  0.0000</r>
       <r>   8.4209  0.0000</r>
       <r>   8.6302  0.0000</r>
       <r>   8.6330  0.0000</r>
       <r>   8.6330  0.0000</r>
       <r>   8.6330  0.0000</r>
      </set>
      <set comment="kpoint 6">
       <r>  -4.2245  1.0000</r>
       <r>  -3.8668  1.0000</r>
       <r>  -2.4307  1.0000</r>
       <r>  -2.4306  1.0000</r>
       <r>  -2.4306  1.0000</r>
       <r>  -2.4306  1.0000</r>
       <r>  -2.3784  1.0000</r>
       <r>  -2.3784  1.0000</r>
       <r>  -2.3784  1.0000</r>
       <r>  -2.3784  1.0000</r>
       <r>  -2.2398  1.0000</r>
       <r>  -2.2144  1.0000</r>
       <r>  -2.2144  1.0000</r>
       <r>  -2.2144  1.0000</r>
       <r>  -2.2144  1.0000</r>
       <r>  -2.2020  1.0000</r>
       <r>  -2.1998  1.0000</r>
       <r>  -2.1997  1.0000</r>
       <r>  -2.1997  1.0000</r>
       <r>  -2.1995  1.0000</r>
       <r>  -2.1138  1.0000</r>
       <r>  -2.1138  1.0000</r>
       <r>  -2.0416  1.0000</r>
       <r>  -1.9760  1.0000</r>
       <r>  -1.9760  1.0000</r>
       <r>  -1.9366  1.0000</r>
       <r>  -1.9346  1.0000</r>
       <r>  -1.9346  1.0000</r>
       <r>  -1.8033  1.0000</r>
       <r>  -1.8033  1.0000</r>
       <r>  -1.4948  1.0000</r>
       <r>  -1.4945  1.0000</r>
       <r>  -1.4945  1.0000</r>
       <r>  -1.4945  1.0000</r>
       <r>  -1.4906  1.0000</r>
       <r>  -1.4906  1.0000</r>
       <r>  -1.4906  1.0000</r>
       <r>  -1.4903  1.0000</r>
       <r>  -1.4761  1.0000</r>
       <r>  -1.4761  1.0000</r>
       <r>  -1.4761  1.0000</r>
       <r>  -1.4761  1.0000</r>
       <r>  -1.3923  1.0000</r>
       <r>  -1.3923  1.0000</r>
       <r>  -1.3923  1.0000</r>
       <r>  -1.3923  1.0000</r>
       <r>  -1.2385  1.0000</r>
       <r>  -1.2385  1.0000</r>
       <r>  -1.2385  1.0000</r>
       <r>  -1.2385  1.0000</r>
       <r>  -1.2022  1.0000</r>
       <r>  -1.2022  1.0000</r>
       <r>  -1.2022  1.0000</r>
       <r>  -1.2022  1.0000</r>
       <r>  -1.1864  1.0000</r>
       <r>  -1.1182  1.0000</r>
       <r>  -1.1176  1.0000</r>
       <r>  -1.1176  1.0000</r>
       <r>  -1.1176  1.0000</r>
       <r>  -1.1138  1.0000</r>
       <r>  -1.1138  1.0000</r>
       <r>  -1.1138  1.0000</r>
       <r>  -1.1132  1.0000</r>
       <r>  -1.0624  1.0000</r>
       <r>  -1.0264  1.0000</r>
       <r>  -1.0264  1.0000</r>
       <r>  -1.0264  1.0000</r>
       <r>  -1.0263  1.0000</r>
       <r>  -0.9849  1.0000</r>
       <r>  -0.9849  1.0000</r>
       <r>  -0.9849  1.0000</r>
       <r>  -0.9849  1.0000</r>
       <r>  -0.9021  1.0000</r>
       <r>  -0.9021  1.0000</r>
       <r>  -0.9021  1.0000</r>
       <r>  -0.9021  1.0000</r>
       <r>  -0.7985  1.0000</r>
       <r>  -0.7984  1.0000</r>
       <r>  -0.7984  1.0000</r>
       <r>  -0.7983  1.0000</r>
       <r>  -0.7893  1.0000</r>
       <r>  -0.7893  1.0000</r>
       <r>  -0.7893  1.0000</r>
       <r>  -0.7892  1.0000</r>
       <r>  -0.7782  1.0000</r>
       <r>  -0.7782  1.0000</r>
       <r>  -0.6630  1.0000</r>
       <r>  -0.6630  1.0000</r>
       <r>  -0.6630  1.0000</r>
       <r>  -0.6630  1.0000</r>
       <r>  -0.6458  1.0000</r>
       <r>  -0.6458  1.0000</r>
       <r>  -0.2879  1.0000</r>
       <r>  -0.2696  1.0000</r>
       <r>  -0.2696  1.0000</r>
       <r>  -0.2696  1.0000</r>
       <r>  -0.2696  1.0000</r>
       <r>  -0.1752  1.0000</r>
       <r>  -0.1752  1.0000</r>
       <r>  -0.1723  1.0000</r>
       <r>  -0.1663  1.0000</r>
       <r>  -0.1663  1.0000</r>
       <r>  -0.1663  1.0000</r>
       <r>  -0.1663  1.0000</r>
       <r>  -0.1585  1.0000</r>
       <r>  -0.1585  1.0000</r>
       <r>  -0.1585  1.0000</r>
       <r>  -0.1585  1.0000</r>
       <r>  -0.1326  1.0000</r>
       <r>  -0.1326  1.0000</r>
       <r>  -0.1326  1.0000</r>
       <r>  -0.1326  1.0000</r>
       <r>  -0.0847  1.0000</r>
       <r>  -0.0847  1.0000</r>
       <r>  -0.0847  1.0000</r>
       <r>  -0.0847  1.0000</r>
       <r>  -0.0405  1.0000</r>
       <r>  -0.0404  1.0000</r>
       <r>  -0.0403  1.0000</r>
       <r>  -0.0403  1.0000</r>
       <r>  -0.0368  1.0000</r>
       <r>  -0.0368  1.0000</r>
       <r>  -0.0367  1.0000</r>
       <r>  -0.0366  1.0000</r>
       <r>   0.0389  1.0000</r>
       <r>   0.0991  1.0000</r>
       <r>   0.1320  1.0000</r>
       <r>   0.1320  1.0000</r>
       <r>   0.1320  1.0000</r>
       <r>   0.1320  1.0000</r>
       <r>   0.2368  1.0000</r>
       <r>   0.2368  1.0000</r>
       <r>   0.2719  1.0000</r>
       <r>   0.2719  1.0000</r>
       <r>   0.3501  1.0000</r>
       <r>   0.3501  1.0000</r>
       <r>   0.3501  1.0000</r>
       <r>   0.3501  1.0000</r>
       <r>   0.4177  1.0000</r>
       <r>   0.4177  1.0000</r>
       <r>   0.4177  1.0000</r>
       <r>   0.4177  1.0000</r>
       <r>   0.4195  1.0000</r>
       <r>   0.4195  1.0000</r>
       <r>   0.4464  1.0000</r>
       <r>   0.4464  1.0000</r>
       <r>   0.5032  1.0000</r>
       <r>   0.5032  1.0000</r>
       <r>   0.5033  1.0000</r>
       <r>   0.5033  1.0000</r>
       <r>   0.5122  1.0000</r>
       <r>   0.5774  1.0000</r>
       <r>   0.6114  1.0000</r>
       <r>   0.6114  1.0000</r>
       <r>   0.6114  1.0000</r>
       <r>   0.6114  1.0000</r>
       <r>   0.6226  1.0000</r>
       <r>   0.6226  1.0000</r>
       <r>   0.6641  1.0000</r>
       <r>   0.6641  1.0000</r>
       <r>   0.6641  1.0000</r>
       <r>   0.6641  1.0000</r>
       <r>   0.8696  1.0000</r>
       <r>   0.8700  1.0000</r>
       <r>   0.8702  1.0000</r>
       <r>   0.8706  1.0000</r>
       <r>   0.9032  1.0000</r>
       <r>   0.9904  1.0000</r>
       <r>   0.9904  1.0000</r>
       <r>   0.9904  1.0000</r>
       <r>   0.9904  1.0000</r>
[...]
       <r>  -0.2847  1.0000</r>
       <r>  -0.2847  1.0000</r>
       <r>  -0.2845  1.0000</r>
       <r>  -0.2845  1.0000</r>
       <r>  -0.2845  1.0000</r>
       <r>  -0.2844  1.0000</r>
       <r>  -0.2842  1.0000</r>
       <r>  -0.2842  1.0000</r>
       <r>  -0.0670  1.0000</r>
       <r>  -0.0668  1.0000</r>
       <r>  -0.0668  1.0000</r>
       <r>  -0.0668  1.0000</r>
       <r>  -0.0247  1.0000</r>
       <r>  -0.0247  1.0000</r>
       <r>  -0.0247  1.0000</r>
       <r>  -0.0247  1.0000</r>
       <r>  -0.0193  1.0000</r>
       <r>  -0.0193  1.0000</r>
       <r>  -0.0189  1.0000</r>
       <r>  -0.0189  1.0000</r>
       <r>  -0.0189  1.0000</r>
       <r>  -0.0187  1.0000</r>
       <r>  -0.0185  1.0000</r>
       <r>  -0.0185  1.0000</r>
       <r>   0.1279  1.0000</r>
       <r>   0.1280  1.0000</r>
       <r>   0.1280  1.0000</r>
       <r>   0.1280  1.0000</r>
       <r>   0.1331  1.0000</r>
       <r>   0.1331  1.0000</r>
       <r>   0.1331  1.0000</r>
       <r>   0.1333  1.0000</r>
       <r>   0.2548  1.0000</r>
       <r>   0.2548  1.0000</r>
       <r>   0.2548  1.0000</r>
       <r>   0.2548  1.0000</r>
       <r>   0.6938  1.0000</r>
       <r>   0.6938  1.0000</r>
       <r>   0.6939  1.0000</r>
       <r>   0.6939  1.0000</r>
       <r>   0.6940  1.0000</r>
       <r>   0.6940  1.0000</r>
       <r>   0.6941  1.0000</r>
       <r>   0.6941  1.0000</r>
       <r>   0.7056  1.0000</r>
       <r>   0.7056  1.0000</r>
       <r>   0.7056  1.0000</r>
       <r>   0.7056  1.0000</r>
       <r>   0.7178  1.0000</r>
       <r>   0.7178  1.0000</r>
       <r>   0.7178  1.0000</r>
       <r>   0.7178  1.0000</r>
       <r>   0.7213  1.0000</r>
       <r>   0.7213  1.0000</r>
       <r>   0.7214  1.0000</r>
       <r>   0.7214  1.0000</r>
       <r>   0.7214  1.0000</r>
       <r>   0.7214  1.0000</r>
       <r>   0.7215  1.0000</r>
       <r>   0.7215  1.0000</r>
       <r>   2.3064  1.0000</r>
       <r>   2.3064  1.0000</r>
       <r>   2.3064  1.0000</r>
       <r>   2.3064  1.0000</r>
       <r>   2.8708  0.0000</r>
       <r>   2.8708  0.0000</r>
       <r>   2.8709  0.0000</r>
       <r>   2.8710  0.0000</r>
       <r>   2.8710  0.0000</r>
       <r>   2.8710  0.0000</r>
       <r>   2.8711  0.0000</r>
       <r>   2.8711  0.0000</r>
       <r>   3.6597  0.0000</r>
       <r>   3.6597  0.0000</r>
       <r>   3.6598  0.0000</r>
       <r>   3.6598  0.0000</r>
       <r>   3.6598  0.0000</r>
       <r>   3.6598  0.0000</r>
       <r>   3.6599  0.0000</r>
       <r>   3.6599  0.0000</r>
       <r>   4.2080  0.0000</r>
       <r>   4.2080  0.0000</r>
       <r>   4.2080  0.0000</r>
       <r>   4.2081  0.0000</r>
       <r>   6.2465  0.0000</r>
       <r>   6.2465  0.0000</r>
       <r>   6.2472  0.0000</r>
       <r>   6.2472  0.0000</r>
       <r>   6.2472  0.0000</r>
       <r>   6.2472  0.0000</r>
       <r>   6.2478  0.0000</r>
       <r>   6.2478  0.0000</r>
       <r>   6.6818  0.0000</r>
       <r>   6.6818  0.0000</r>
       <r>   6.6818  0.0000</r>
       <r>   6.6818  0.0000</r>
       <r>   7.6670  0.0000</r>
       <r>   7.6670  0.0000</r>
       <r>   7.6670  0.0000</r>
       <r>   7.6670  0.0000</r>
       <r>   8.0177  0.0000</r>
       <r>   8.0177  0.0000</r>
       <r>   8.0180  0.0000</r>
       <r>   8.0180  0.0000</r>
       <r>   8.0180  0.0000</r>
       <r>   8.0181  0.0000</r>
       <r>   8.0184  0.0000</r>
       <r>   8.0184  0.0000</r>
      </set>
      <set comment="kpoint 195">
       <r>  -3.2988  1.0000</r>
       <r>  -3.2987  1.0000</r>
       <r>  -3.2987  1.0000</r>
       <r>  -3.2987  1.0000</r>
       <r>  -3.0743  1.0000</r>
       <r>  -3.0743  1.0000</r>
       <r>  -3.0743  1.0000</r>
       <r>  -3.0742  1.0000</r>
       <r>  -1.9940  1.0000</r>
       <r>  -1.9939  1.0000</r>
       <r>  -1.9939  1.0000</r>
       <r>  -1.9939  1.0000</r>
       <r>  -1.9704  1.0000</r>
       <r>  -1.9704  1.0000</r>
       <r>  -1.9702  1.0000</r>
       <r>  -1.9702  1.0000</r>
       <r>  -1.9701  1.0000</r>
       <r>  -1.9701  1.0000</r>
       <r>  -1.9699  1.0000</r>
       <r>  -1.9699  1.0000</r>
       <r>  -1.9557  1.0000</r>
       <r>  -1.9555  1.0000</r>
       <r>  -1.9555  1.0000</r>
       <r>  -1.9550  1.0000</r>
       <r>  -1.9550  1.0000</r>
       <r>  -1.9550  1.0000</r>
       <r>  -1.9546  1.0000</r>
       <r>  -1.9546  1.0000</r>
       <r>  -1.9529  1.0000</r>
       <r>  -1.9527  1.0000</r>
       <r>  -1.9527  1.0000</r>
       <r>  -1.9523  1.0000</r>
       <r>  -1.4297  1.0000</r>
       <r>  -1.4297  1.0000</r>
       <r>  -1.4293  1.0000</r>
       <r>  -1.4293  1.0000</r>
       <r>  -1.4293  1.0000</r>
       <r>  -1.4293  1.0000</r>
       <r>  -1.4289  1.0000</r>
       <r>  -1.4289  1.0000</r>
       <r>  -1.4043  1.0000</r>
       <r>  -1.4043  1.0000</r>
       <r>  -1.4043  1.0000</r>
       <r>  -1.4043  1.0000</r>
       <r>  -1.2815  1.0000</r>
       <r>  -1.2814  1.0000</r>
       <r>  -1.2814  1.0000</r>
       <r>  -1.2813  1.0000</r>
       <r>  -1.2805  1.0000</r>
       <r>  -1.2805  1.0000</r>
       <r>  -1.2802  1.0000</r>
       <r>  -1.2802  1.0000</r>
       <r>  -1.2801  1.0000</r>
       <r>  -1.2800  1.0000</r>
       <r>  -1.2798  1.0000</r>
       <r>  -1.2798  1.0000</r>
       <r>  -0.9687  1.0000</r>
       <r>  -0.9687  1.0000</r>
       <r>  -0.9687  1.0000</r>
       <r>  -0.9687  1.0000</r>
       <r>  -0.8622  1.0000</r>
       <r>  -0.8622  1.0000</r>
       <r>  -0.8622  1.0000</r>
       <r>  -0.8622  1.0000</r>
       <r>  -0.7459  1.0000</r>
       <r>  -0.7459  1.0000</r>
       <r>  -0.7457  1.0000</r>
       <r>  -0.7457  1.0000</r>
       <r>  -0.7452  1.0000</r>
       <r>  -0.7451  1.0000</r>
       <r>  -0.7451  1.0000</r>
       <r>  -0.7451  1.0000</r>
       <r>  -0.7347  1.0000</r>
       <r>  -0.7347  1.0000</r>
       <r>  -0.7345  1.0000</r>
       <r>  -0.7345  1.0000</r>
       <r>  -0.7334  1.0000</r>
       <r>  -0.7334  1.0000</r>
       <r>  -0.7332  1.0000</r>
       <r>  -0.7332  1.0000</r>
       <r>  -0.6777  1.0000</r>
       <r>  -0.6777  1.0000</r>
       <r>  -0.6777  1.0000</r>
       <r>  -0.6777  1.0000</r>
       <r>  -0.6344  1.0000</r>
       <r>  -0.6344  1.0000</r>
       <r>  -0.6333  1.0000</r>
       <r>  -0.6333  1.0000</r>
       <r>  -0.6333  1.0000</r>
       <r>  -0.6333  1.0000</r>
       <r>  -0.6321  1.0000</r>
       <r>  -0.6321  1.0000</r>
       <r>  -0.5710  1.0000</r>
       <r>  -0.5710  1.0000</r>
       <r>  -0.5701  1.0000</r>
       <r>  -0.5701  1.0000</r>
       <r>  -0.5701  1.0000</r>
       <r>  -0.5701  1.0000</r>
       <r>  -0.5692  1.0000</r>
       <r>  -0.5692  1.0000</r>
       <r>  -0.5254  1.0000</r>
       <r>  -0.5254  1.0000</r>
       <r>  -0.5254  1.0000</r>
       <r>  -0.5254  1.0000</r>
       <r>  -0.2722  1.0000</r>
       <r>  -0.2722  1.0000</r>
       <r>  -0.2722  1.0000</r>
       <r>  -0.2721  1.0000</r>
       <r>  -0.2447  1.0000</r>
       <r>  -0.2447  1.0000</r>
       <r>  -0.2444  1.0000</r>
       <r>  -0.2444  1.0000</r>
       <r>  -0.2443  1.0000</r>
       <r>  -0.2443  1.0000</r>
       <r>  -0.2440  1.0000</r>
       <r>  -0.2440  1.0000</r>
       <r>  -0.1149  1.0000</r>
       <r>  -0.1149  1.0000</r>
       <r>  -0.1145  1.0000</r>
       <r>  -0.1145  1.0000</r>
       <r>  -0.1145  1.0000</r>
       <r>  -0.1145  1.0000</r>
       <r>  -0.1140  1.0000</r>
       <r>  -0.1140  1.0000</r>
       <r>  -0.1061  1.0000</r>
       <r>  -0.1061  1.0000</r>
       <r>  -0.1061  1.0000</r>
       <r>  -0.1061  1.0000</r>
       <r>   0.0091  1.0000</r>
       <r>   0.0091  1.0000</r>
       <r>   0.0091  1.0000</r>
       <r>   0.0091  1.0000</r>
       <r>   0.0931  1.0000</r>
       <r>   0.0932  1.0000</r>
       <r>   0.0932  1.0000</r>
       <r>   0.0932  1.0000</r>
       <r>   0.1051  1.0000</r>
       <r>   0.1051  1.0000</r>
       <r>   0.1051  1.0000</r>
       <r>   0.1052  1.0000</r>
       <r>   0.1721  1.0000</r>
       <r>   0.1721  1.0000</r>
       <r>   0.1721  1.0000</r>
       <r>   0.1722  1.0000</r>
       <r>   0.7183  1.0000</r>
       <r>   0.7183  1.0000</r>
       <r>   0.7183  1.0000</r>
       <r>   0.7184  1.0000</r>
       <r>   0.7184  1.0000</r>
       <r>   0.7184  1.0000</r>
       <r>   0.7184  1.0000</r>
       <r>   0.7184  1.0000</r>
       <r>   0.7245  1.0000</r>
       <r>   0.7245  1.0000</r>
       <r>   0.7245  1.0000</r>
       <r>   0.7245  1.0000</r>
       <r>   0.7316  1.0000</r>
       <r>   0.7316  1.0000</r>
       <r>   0.7316  1.0000</r>
       <r>   0.7316  1.0000</r>
       <r>   0.7357  1.0000</r>
       <r>   0.7357  1.0000</r>
       <r>   0.7357  1.0000</r>
       <r>   0.7358  1.0000</r>
       <r>   0.7358  1.0000</r>
       <r>   0.7358  1.0000</r>
       <r>   0.7359  1.0000</r>
       <r>   0.7359  1.0000</r>
       <r>   2.7542  0.0000</r>
       <r>   2.7542  0.0000</r>
       <r>   2.7542  0.0000</r>
       <r>   2.7542  0.0000</r>
       <r>   3.0368  0.0000</r>
       <r>   3.0368  0.0000</r>
       <r>   3.0369  0.0000</r>
       <r>   3.0369  0.0000</r>
       <r>   3.0369  0.0000</r>
       <r>   3.0369  0.0000</r>
       <r>   3.0371  0.0000</r>
       <r>   3.0371  0.0000</r>
       <r>   3.4351  0.0000</r>
       <r>   3.4351  0.0000</r>
       <r>   3.4352  0.0000</r>
       <r>   3.4352  0.0000</r>
       <r>   3.4352  0.0000</r>
       <r>   3.4352  0.0000</r>
       <r>   3.4353  0.0000</r>
       <r>   3.4353  0.0000</r>
       <r>   3.7155  0.0000</r>
       <r>   3.7155  0.0000</r>
       <r>   3.7155  0.0000</r>
       <r>   3.7155  0.0000</r>
       <r>   6.6590  0.0000</r>
       <r>   6.6590  0.0000</r>
       <r>   6.6596  0.0000</r>
       <r>   6.6596  0.0000</r>
       <r>   6.6596  0.0000</r>
       <r>   6.6596  0.0000</r>
       <r>   6.6601  0.0000</r>
       <r>   6.6601  0.0000</r>
       <r>   6.8651  0.0000</r>
       <r>   6.8651  0.0000</r>
       <r>   6.8651  0.0000</r>
       <r>   6.8652  0.0000</r>
       <r>   7.3654  0.0000</r>
       <r>   7.3654  0.0000</r>
       <r>   7.3654  0.0000</r>
       <r>   7.3654  0.0000</r>
       <r>   7.5512  0.0000</r>
       <r>   7.5512  0.0000</r>
       <r>   7.5516  0.0000</r>
       <r>   7.5516  0.0000</r>
       <r>   7.5516  0.0000</r>
       <r>   7.5516  0.0000</r>
       <r>   7.5521  0.0000</r>
       <r>   7.5521  0.0000</r>
      </set>
      <set comment="kpoint 196">
       <r>  -3.1962  1.0000</r>
       <r>  -3.1935  1.0000</r>
       <r>  -3.1935  1.0000</r>
       <r>  -3.1931  1.0000</r>
       <r>  -3.1929  1.0000</r>
       <r>  -3.1925  1.0000</r>
       <r>  -3.1925  1.0000</r>
       <r>  -3.1898  1.0000</r>
       <r>  -1.9684  1.0000</r>
       <r>  -1.9684  1.0000</r>
       <r>  -1.9684  1.0000</r>
       <r>  -1.9682  1.0000</r>
       <r>  -1.9680  1.0000</r>
       <r>  -1.9673  1.0000</r>
       <r>  -1.9668  1.0000</r>
       <r>  -1.9667  1.0000</r>
       <r>  -1.9667  1.0000</r>
       <r>  -1.9667  1.0000</r>
       <r>  -1.9667  1.0000</r>
       <r>  -1.9666  1.0000</r>
       <r>  -1.9666  1.0000</r>
       <r>  -1.9665  1.0000</r>
       <r>  -1.9665  1.0000</r>
       <r>  -1.9665  1.0000</r>
       <r>  -1.9665  1.0000</r>
       <r>  -1.9664  1.0000</r>
       <r>  -1.9660  1.0000</r>
       <r>  -1.9652  1.0000</r>
       <r>  -1.9650  1.0000</r>
       <r>  -1.9648  1.0000</r>
       <r>  -1.9648  1.0000</r>
       <r>  -1.9648  1.0000</r>
       <r>  -1.3513  1.0000</r>
       <r>  -1.3487  1.0000</r>
       <r>  -1.3487  1.0000</r>
       <r>  -1.3484  1.0000</r>
       <r>  -1.3484  1.0000</r>
       <r>  -1.3481  1.0000</r>
       <r>  -1.3477  1.0000</r>
       <r>  -1.3477  1.0000</r>
       <r>  -1.3476  1.0000</r>
       <r>  -1.3476  1.0000</r>
       <r>  -1.3476  1.0000</r>
       <r>  -1.3475  1.0000</r>
       <r>  -1.3475  1.0000</r>
       <r>  -1.3475  1.0000</r>
       <r>  -1.3475  1.0000</r>
       <r>  -1.3474  1.0000</r>
       <r>  -1.3473  1.0000</r>
       <r>  -1.3473  1.0000</r>
       <r>  -1.3470  1.0000</r>
       <r>  -1.3466  1.0000</r>
       <r>  -1.3466  1.0000</r>
       <r>  -1.3464  1.0000</r>
       <r>  -1.3464  1.0000</r>
       <r>  -1.3438  1.0000</r>
       <r>  -0.9102  1.0000</r>
       <r>  -0.9093  1.0000</r>
       <r>  -0.9088  1.0000</r>
       <r>  -0.9088  1.0000</r>
       <r>  -0.9085  1.0000</r>
       <r>  -0.9085  1.0000</r>
       <r>  -0.9081  1.0000</r>
       <r>  -0.9071  1.0000</r>
       <r>  -0.7450  1.0000</r>
       <r>  -0.7450  1.0000</r>
       <r>  -0.7448  1.0000</r>
       <r>  -0.7446  1.0000</r>
       <r>  -0.7441  1.0000</r>
       <r>  -0.7441  1.0000</r>
       <r>  -0.7440  1.0000</r>
       <r>  -0.7440  1.0000</r>
       <r>  -0.7438  1.0000</r>
       <r>  -0.7438  1.0000</r>
       <r>  -0.7437  1.0000</r>
       <r>  -0.7437  1.0000</r>
       <r>  -0.7433  1.0000</r>
       <r>  -0.7432  1.0000</r>
       <r>  -0.7429  1.0000</r>
       <r>  -0.7429  1.0000</r>
       <r>  -0.6063  1.0000</r>
       <r>  -0.6063  1.0000</r>
       <r>  -0.6057  1.0000</r>
       <r>  -0.6051  1.0000</r>
       <r>  -0.6039  1.0000</r>
       <r>  -0.6035  1.0000</r>
       <r>  -0.6035  1.0000</r>
       <r>  -0.6035  1.0000</r>
       <r>  -0.6034  1.0000</r>
       <r>  -0.6034  1.0000</r>
       <r>  -0.6034  1.0000</r>
       <r>  -0.6034  1.0000</r>
       <r>  -0.6033  1.0000</r>
       <r>  -0.6033  1.0000</r>
       <r>  -0.6033  1.0000</r>
       <r>  -0.6033  1.0000</r>
       <r>  -0.6032  1.0000</r>
       <r>  -0.6032  1.0000</r>
       <r>  -0.6032  1.0000</r>
       <r>  -0.6027  1.0000</r>
       <r>  -0.6016  1.0000</r>
       <r>  -0.6010  1.0000</r>
       <r>  -0.6004  1.0000</r>
       <r>  -0.6004  1.0000</r>
       <r>  -0.1926  1.0000</r>
       <r>  -0.1916  1.0000</r>
       <r>  -0.1916  1.0000</r>
       <r>  -0.1901  1.0000</r>
       <r>  -0.1900  1.0000</r>
       <r>  -0.1899  1.0000</r>
       <r>  -0.1899  1.0000</r>
       <r>  -0.1897  1.0000</r>
       <r>  -0.1896  1.0000</r>
       <r>  -0.1896  1.0000</r>
       <r>  -0.1896  1.0000</r>
       <r>  -0.1896  1.0000</r>
       <r>  -0.1895  1.0000</r>
       <r>  -0.1895  1.0000</r>
       <r>  -0.1895  1.0000</r>
       <r>  -0.1895  1.0000</r>
       <r>  -0.1894  1.0000</r>
       <r>  -0.1892  1.0000</r>
       <r>  -0.1892  1.0000</r>
       <r>  -0.1891  1.0000</r>
       <r>  -0.1890  1.0000</r>
       <r>  -0.1875  1.0000</r>
       <r>  -0.1875  1.0000</r>
       <r>  -0.1865  1.0000</r>
       <r>   0.0874  1.0000</r>
       <r>   0.0885  1.0000</r>
       <r>   0.0885  1.0000</r>
       <r>   0.0885  1.0000</r>
       <r>   0.0893  1.0000</r>
       <r>   0.0893  1.0000</r>
       <r>   0.0894  1.0000</r>
       <r>   0.0895  1.0000</r>
       <r>   0.0896  1.0000</r>
       <r>   0.0896  1.0000</r>
       <r>   0.0898  1.0000</r>
       <r>   0.0898  1.0000</r>
       <r>   0.0905  1.0000</r>
       <r>   0.0905  1.0000</r>
       <r>   0.0906  1.0000</r>
       <r>   0.0916  1.0000</r>
       <r>   0.7330  1.0000</r>
       <r>   0.7330  1.0000</r>
       <r>   0.7332  1.0000</r>
       <r>   0.7333  1.0000</r>
       <r>   0.7334  1.0000</r>
       <r>   0.7334  1.0000</r>
       <r>   0.7334  1.0000</r>
       <r>   0.7334  1.0000</r>
       <r>   0.7335  1.0000</r>
       <r>   0.7335  1.0000</r>
       <r>   0.7335  1.0000</r>
       <r>   0.7336  1.0000</r>
       <r>   0.7337  1.0000</r>
       <r>   0.7337  1.0000</r>
       <r>   0.7337  1.0000</r>
       <r>   0.7338  1.0000</r>
       <r>   0.7338  1.0000</r>
       <r>   0.7339  1.0000</r>
       <r>   0.7339  1.0000</r>
       <r>   0.7339  1.0000</r>
       <r>   0.7339  1.0000</r>
       <r>   0.7341  1.0000</r>
       <r>   0.7342  1.0000</r>
       <r>   0.7342  1.0000</r>
       <r>   3.2205  0.0000</r>
       <r>   3.2244  0.0000</r>
       <r>   3.2244  0.0000</r>
       <r>   3.2257  0.0000</r>
       <r>   3.2261  0.0000</r>
       <r>   3.2263  0.0000</r>
       <r>   3.2263  0.0000</r>
       <r>   3.2263  0.0000</r>
       <r>   3.2263  0.0000</r>
       <r>   3.2263  0.0000</r>
       <r>   3.2264  0.0000</r>
       <r>   3.2264  0.0000</r>
       <r>   3.2265  0.0000</r>
       <r>   3.2266  0.0000</r>
       <r>   3.2266  0.0000</r>
       <r>   3.2266  0.0000</r>
       <r>   3.2266  0.0000</r>
       <r>   3.2266  0.0000</r>
       <r>   3.2266  0.0000</r>
       <r>   3.2268  0.0000</r>
       <r>   3.2272  0.0000</r>
       <r>   3.2285  0.0000</r>
       <r>   3.2285  0.0000</r>
       <r>   3.2324  0.0000</r>
       <r>   7.0921  0.0000</r>
       <r>   7.0921  0.0000</r>
       <r>   7.0932  0.0000</r>
       <r>   7.0949  0.0000</r>
       <r>   7.0953  0.0000</r>
       <r>   7.0956  0.0000</r>
       <r>   7.0956  0.0000</r>
       <r>   7.0959  0.0000</r>
       <r>   7.0960  0.0000</r>
       <r>   7.0960  0.0000</r>
       <r>   7.0961  0.0000</r>
       <r>   7.0961  0.0000</r>
       <r>   7.0961  0.0000</r>
       <r>   7.0961  0.0000</r>
       <r>   7.0962  0.0000</r>
       <r>   7.0962  0.0000</r>
       <r>   7.0963  0.0000</r>
       <r>   7.0966  0.0000</r>
       <r>   7.0966  0.0000</r>
       <r>   7.0969  0.0000</r>
       <r>   7.0973  0.0000</r>
       <r>   7.0990  0.0000</r>
       <r>   7.1001  0.0000</r>
       <r>   7.1001  0.0000</r>
      </set>
     </set>
    </set>
   </array>
  </eigenvalues>
 </calculation>
 <structure name="finalpos" >
  <crystal>
   <varray name="basis" >
    <v>       9.01336011      0.00000000      0.00000000</v>
    <v>       0.00000000      9.01336011      0.00000000</v>
    <v>       0.00000000      0.00000000      9.01336011</v>
   </varray>
   <i name="volume">    732.25132817</i>
   <varray name="rec_basis" >
    <v>       0.11094642      0.00000000      0.00000000</v>
    <v>       0.00000000      0.11094642      0.00000000</v>
    <v>       0.00000000      0.00000000      0.11094642</v>
   </varray>
  </crystal>
  <varray name="positions" >
   <v>       0.00110946      0.00000000      0.00000000</v>
   <v>       0.50000000      0.00000000      0.00000000</v>
   <v>       0.00000000      0.50000000      0.00000000</v>
   <v>       0.50000000      0.50000000      0.00000000</v>
   <v>       0.00000000      0.00000000      0.50000000</v>
   <v>       0.50000000      0.00000000      0.50000000</v>
   <v>       0.00000000      0.50000000      0.50000000</v>
   <v>       0.50000000      0.50000000      0.50000000</v>
   <v>       0.25000000      0.25000000      0.00000000</v>
   <v>       0.75000000      0.25000000      0.00000000</v>
   <v>       0.25000000      0.75000000      0.00000000</v>
   <v>       0.75000000      0.75000000      0.00000000</v>
   <v>       0.25000000      0.25000000      0.50000000</v>
   <v>       0.75000000      0.25000000      0.50000000</v>
   <v>       0.25000000      0.75000000      0.50000000</v>
   <v>       0.75000000      0.75000000      0.50000000</v>
   <v>       0.25000000      0.00000000      0.25000000</v>
   <v>       0.75000000      0.00000000      0.25000000</v>
   <v>       0.25000000      0.50000000      0.25000000</v>
   <v>       0.75000000      0.50000000      0.25000000</v>
   <v>       0.25000000      0.00000000      0.75000000</v>
   <v>       0.75000000      0.00000000      0.75000000</v>
   <v>       0.25000000      0.50000000      0.75000000</v>
   <v>       0.75000000      0.50000000      0.75000000</v>
   <v>       0.00000000      0.25000000      0.25000000</v>
   <v>       0.50000000      0.25000000      0.25000000</v>
   <v>       0.00000000      0.75000000      0.25000000</v>
   <v>       0.50000000      0.75000000      0.25000000</v>
   <v>       0.00000000      0.25000000      0.75000000</v>
   <v>       0.50000000      0.25000000      0.75000000</v>
   <v>       0.00000000      0.75000000      0.75000000</v>
   <v>       0.50000000      0.75000000      0.75000000</v>
  </varray>
 </structure>
</modeling>
