32   
1    

1    
  0.0100000000000000   0.0000000000000000   0.0000000000000000
  -0.0587285800    0.0000000000    0.0000000000
   0.0037733500   -0.0000000000    0.0000000000
   0.0006791000   -0.0000000000    0.0000000000
   0.0001458900    0.0000000000   -0.0000000000
   0.0006791000    0.0000000000    0.0000000000
   0.0001458900    0.0000000000   -0.0000000000
   0.0010277600   -0.0000000000   -0.0000000000
  -0.0010413800    0.0000000000    0.0000000000
  -0.0017416300    0.0000330800   -0.0000330800
  -0.0012823300    0.0000115900   -0.0000115900
  -0.0017416300   -0.0000330800   -0.0000330800
  -0.0012823300   -0.0000115900   -0.0000115900
  -0.0017416300    0.0000330800    0.0000330800
  -0.0012823300    0.0000115900    0.0000115900
  -0.0017416300   -0.0000330800    0.0000330800
  -0.0012823300   -0.0000115900    0.0000115900
   0.0078728300   -0.0000000000   -0.0088923700
   0.0080581300   -0.0000000000    0.0091259000
   0.0002135400    0.0000000000    0.0002199100
   0.0002091800   -0.0000000000   -0.0002387300
   0.0078728300    0.0000000000    0.0088923700
   0.0080581300   -0.0000000000   -0.0091259000
   0.0002135400   -0.0000000000   -0.0002199100
   0.0002091800   -0.0000000000    0.0002387300
   0.0078728300    0.0088923700    0.0000000000
   0.0080581300   -0.0091259000   -0.0000000000
   0.0078728300   -0.0088923700   -0.0000000000
   0.0080581300    0.0091259000    0.0000000000
   0.0002135400   -0.0002199100   -0.0000000000
   0.0002091800    0.0002387300   -0.0000000000
   0.0002135400    0.0002199100    0.0000000000
   0.0002091800   -0.0002387300    0.0000000000
