 running on    8 nodes
 distr:  one band on    1 nodes,    8 groups
 vasp.4.6.28 25Jul05 complex 
 POSCAR found :  1 types and   32 ions

 ----------------------------------------------------------------------------- 
|                                                                             |
|  ADVICE TO THIS USER RUNNING 'VASP/VAMP'   (HEAR YOUR MASTER'S VOICE ...):  |
|                                                                             |
|      You have a (more or less) 'large supercell' and for larger cells       |
|      it might be more efficient to use real space projection operators      |
|      So try LREAL= Auto  in the INCAR   file.                               |
|      Mind: If you want to do an extremely accurate calculations keep the    |
|      reciprocal projection scheme          (i.e. LREAL=.FALSE.)             |
|                                                                             |
 ----------------------------------------------------------------------------- 

 LDA part: xc-table for Pade appr. of Perdew
 generate k-points for:   6   6   6
 POSCAR, INCAR and KPOINTS ok, starting setup
 FFT: planning ...           1
 reading WAVECAR
 entering main loop
       N       E                     dE             d eps       ncg     rms          rms(c)
DAV:   1     0.131954812124E+03    0.13195E+03   -0.33419E+04  5760   0.105E+03
DAV:   2    -0.105984460503E+03   -0.23794E+03   -0.22146E+03  6760   0.144E+02
DAV:   3    -0.119140706533E+03   -0.13156E+02   -0.12555E+02  7152   0.272E+01
DAV:   4    -0.119376543521E+03   -0.23584E+00   -0.23381E+00  6744   0.380E+00
DAV:   5    -0.119379287808E+03   -0.27443E-02   -0.27428E-02  6712   0.476E-01    0.551E+00
DAV:   6    -0.118916347379E+03    0.46294E+00   -0.38534E-02  6616   0.608E-01    0.342E+00
DAV:   7    -0.118581505441E+03    0.33484E+00   -0.11925E-01  6256   0.990E-01    0.140E-01
DAV:   8    -0.118581704574E+03   -0.19913E-03   -0.11595E-03  6824   0.132E-01    0.505E-02
DAV:   9    -0.118581739416E+03   -0.34842E-04   -0.60466E-05  6576   0.213E-02    0.427E-03
DAV:  10    -0.118581740399E+03   -0.98267E-06   -0.41860E-06  6800   0.629E-03    0.204E-03
DAV:  11    -0.118581738763E+03    0.16359E-05   -0.24682E-07  6696   0.151E-03    0.919E-04
DAV:  12    -0.118581737637E+03    0.11255E-05   -0.15661E-08  4264   0.410E-04    0.171E-04
DAV:  13    -0.118581737428E+03    0.20955E-06   -0.28009E-09  3736   0.189E-04    0.290E-05
DAV:  14    -0.118581737415E+03    0.12733E-07   -0.42828E-10  3656   0.699E-05    0.935E-06
DAV:  15    -0.118581737422E+03   -0.70488E-08   -0.81349E-11  3608   0.327E-05
   1 F= -.11858174E+03 E0= -.11858107E+03  d E =-.132667E-02
