  32  32   0   0
  0.1501517E+02  0.7832374E-09  0.7832374E-09  0.7832374E-09  0.5000000E-15
  1.000000000000000E-004
  CAR 
 unknown system                          
     13.80132053     -3.57240025  301      9.00948291      1.00000000
     -3.572  0.0000E+00  0.0000E+00
     -3.514  0.0000E+00  0.0000E+00
     -3.457  0.0000E+00  0.0000E+00
     -3.399  0.0000E+00  0.0000E+00
     -3.341  0.0000E+00  0.0000E+00
     -3.283  0.0000E+00  0.0000E+00
     -3.225  0.0000E+00  0.0000E+00
     -3.167  0.0000E+00  0.0000E+00
     -3.109  0.0000E+00  0.0000E+00
     -3.051  0.0000E+00  0.0000E+00
     -2.993  0.0000E+00  0.0000E+00
     -2.935  0.0000E+00  0.0000E+00
     -2.877  0.0000E+00  0.0000E+00
     -2.820  0.1495E-07  0.8656E-09
     -2.762  0.1597E+00  0.9246E-02
     -2.704  0.9169E+00  0.6235E-01
     -2.646  0.1315E+01  0.1385E+00
     -2.588  0.8991E+00  0.1906E+00
     -2.530  0.1043E+01  0.2509E+00
     -2.472  0.9443E+00  0.3056E+00
     -2.414  0.3836E+01  0.5278E+00
     -2.356  0.3836E+01  0.7500E+00
     -2.298  0.8613E-12  0.7500E+00
     -2.240  0.1635E+01  0.8447E+00
     -2.183  0.2304E+01  0.9781E+00
     -2.125  0.3071E+01  0.1156E+01
     -2.067  0.3559E+01  0.1362E+01
     -2.009  0.3822E+01  0.1583E+01
     -1.951  0.1279E+01  0.1657E+01
     -1.893  0.3833E+01  0.1879E+01
     -1.835  0.7422E+01  0.2309E+01
     -1.777  0.2564E+00  0.2324E+01
     -1.719  0.2693E+00  0.2340E+01
     -1.661  0.9800E+00  0.2396E+01
     -1.603  0.7393E+01  0.2825E+01
     -1.545  0.5747E+01  0.3157E+01
     -1.488  0.3837E+01  0.3380E+01
     -1.430  0.3827E+01  0.3601E+01
     -1.372  0.7281E+01  0.4023E+01
     -1.314  0.2984E+01  0.4196E+01
     -1.256  0.1257E+01  0.4269E+01
     -1.198  0.1229E+00  0.4276E+01
     -1.140  0.3720E+01  0.4491E+01
     -1.082  0.4791E+01  0.4769E+01
     -1.024  0.1151E+02  0.5435E+01
     -0.966  0.5100E+01  0.5731E+01
     -0.908  0.1600E-01  0.5731E+01
     -0.851  0.8011E+01  0.6195E+01
     -0.793  0.5577E+01  0.6518E+01
     -0.735  0.5598E+01  0.6843E+01
     -0.677  0.3709E-02  0.6843E+01
     -0.619  0.1915E+01  0.6954E+01
     -0.561  0.7674E+01  0.7398E+01
     -0.503  0.7664E+01  0.7842E+01
     -0.445  0.7455E+01  0.8274E+01
     -0.387  0.4012E+01  0.8506E+01
     -0.329  0.2542E+01  0.8653E+01
     -0.271  0.3293E+01  0.8844E+01
     -0.213  0.1053E+02  0.9454E+01
     -0.156  0.1062E-02  0.9454E+01
     -0.098  0.3836E+01  0.9676E+01
     -0.040  0.1534E+02  0.1056E+02
      0.018  0.7614E+01  0.1101E+02
      0.076  0.3541E+01  0.1121E+02
      0.134  0.2739E+01  0.1137E+02
      0.192  0.4044E+01  0.1160E+02
      0.250  0.9210E+01  0.1214E+02
      0.308  0.7387E+01  0.1256E+02
      0.366  0.4419E-04  0.1256E+02
      0.424  0.1279E+01  0.1264E+02
      0.481  0.8626E+01  0.1314E+02
      0.539  0.1321E+02  0.1390E+02
      0.597  0.6847E+01  0.1430E+02
      0.655  0.3088E+01  0.1448E+02
      0.713  0.3902E+01  0.1471E+02
      0.771  0.9854E+01  0.1528E+02
      0.829  0.1491E+02  0.1614E+02
      0.887  0.3289E-03  0.1614E+02
      0.945  0.7674E+01  0.1658E+02
      1.003  0.7668E+01  0.1703E+02
      1.061  0.3791E+01  0.1725E+02
      1.119  0.1014E+02  0.1783E+02
      1.176  0.1421E+01  0.1792E+02
      1.234  0.2394E+01  0.1806E+02
      1.292  0.9737E+01  0.1862E+02
      1.350  0.1473E+02  0.1947E+02
      1.408  0.2500E-03  0.1947E+02
      1.466  0.9591E+00  0.1953E+02
      1.524  0.1534E+02  0.2042E+02
      1.582  0.1526E+02  0.2130E+02
      1.640  0.3699E+01  0.2151E+02
      1.698  0.6033E+01  0.2186E+02
      1.756  0.8399E+01  0.2235E+02
      1.813  0.9566E+01  0.2290E+02
      1.871  0.6927E+01  0.2331E+02
      1.929  0.1158E-01  0.2331E+02
      1.987  0.5745E+01  0.2364E+02
      2.045  0.7674E+01  0.2408E+02
      2.103  0.1917E+02  0.2519E+02
      2.161  0.8828E+01  0.2571E+02
      2.219  0.3587E+01  0.2591E+02
      2.277  0.1130E+02  0.2657E+02
      2.335  0.6961E+01  0.2697E+02
      2.393  0.5137E+01  0.2727E+02
      2.450  0.8291E-01  0.2727E+02
      2.508  0.3796E+01  0.2749E+02
      2.566  0.1627E+02  0.2844E+02
      2.624  0.7671E+01  0.2888E+02
      2.682  0.1151E+02  0.2955E+02
      2.740  0.7639E+01  0.2999E+02
      2.798  0.7421E+01  0.3042E+02
      2.856  0.1651E+02  0.3137E+02
      2.914  0.2966E+01  0.3155E+02
      2.972  0.1012E+01  0.3160E+02
      3.030  0.4568E+01  0.3187E+02
      3.088  0.2159E+02  0.3312E+02
      3.145  0.1892E+02  0.3422E+02
      3.203  0.7633E+01  0.3466E+02
      3.261  0.6059E-05  0.3466E+02
      3.319  0.7671E+01  0.3510E+02
      3.377  0.1530E+02  0.3599E+02
      3.435  0.4365E-01  0.3599E+02
      3.493  0.3475E+01  0.3619E+02
      3.551  0.6896E+01  0.3659E+02
      3.609  0.7902E+01  0.3705E+02
      3.667  0.1412E+02  0.3787E+02
      3.725  0.8526E+01  0.3836E+02
      3.782  0.6568E+01  0.3874E+02
      3.840  0.2488E+02  0.4018E+02
      3.898  0.7251E+01  0.4060E+02
      3.956  0.1232E-01  0.4060E+02
      4.014  0.1150E+02  0.4127E+02
      4.072  0.1599E+02  0.4219E+02
      4.130  0.1133E+02  0.4285E+02
      4.188  0.1464E+02  0.4370E+02
      4.246  0.4704E+01  0.4397E+02
      4.304  0.1083E+02  0.4460E+02
      4.362  0.9680E+01  0.4516E+02
      4.420  0.9487E+01  0.4571E+02
      4.477  0.7266E+00  0.4575E+02
      4.535  0.4958E+01  0.4604E+02
      4.593  0.1487E+02  0.4690E+02
      4.651  0.1164E+02  0.4757E+02
      4.709  0.7547E+01  0.4801E+02
      4.767  0.3835E+01  0.4823E+02
      4.825  0.1914E+02  0.4934E+02
      4.883  0.1155E+02  0.5001E+02
      4.941  0.1152E+02  0.5068E+02
      4.999  0.8600E+01  0.5117E+02
      5.057  0.1496E+02  0.5204E+02
      5.114  0.3498E+01  0.5224E+02
      5.172  0.8433E+01  0.5273E+02
      5.230  0.1408E+01  0.5281E+02
      5.288  0.1594E+02  0.5374E+02
      5.346  0.1073E+02  0.5436E+02
      5.404  0.1838E+02  0.5542E+02
      5.462  0.3450E+01  0.5562E+02
      5.520  0.9779E+01  0.5619E+02
      5.578  0.1514E+02  0.5706E+02
      5.636  0.1531E+02  0.5795E+02
      5.694  0.2307E+02  0.5929E+02
      5.751  0.4131E+00  0.5931E+02
      5.809  0.1109E+02  0.5995E+02
      5.867  0.2733E+00  0.5997E+02
      5.925  0.8576E+01  0.6047E+02
      5.983  0.1236E+02  0.6118E+02
      6.041  0.2391E+02  0.6257E+02
      6.099  0.9109E+01  0.6309E+02
      6.157  0.1337E+02  0.6387E+02
      6.215  0.1785E+02  0.6490E+02
      6.273  0.8699E+01  0.6541E+02
      6.331  0.3431E+00  0.6543E+02
      6.389  0.1726E+02  0.6643E+02
      6.446  0.9240E+01  0.6696E+02
      6.504  0.7147E+01  0.6737E+02
      6.562  0.1030E+02  0.6797E+02
      6.620  0.2353E+02  0.6933E+02
      6.678  0.7257E+01  0.6975E+02
      6.736  0.5849E+01  0.7009E+02
      6.794  0.5146E+01  0.7039E+02
      6.852  0.9521E+01  0.7094E+02
      6.910  0.2091E+02  0.7215E+02
      6.968  0.3819E+01  0.7237E+02
      7.026  0.4188E+01  0.7262E+02
      7.083  0.1845E+02  0.7369E+02
      7.141  0.2280E+02  0.7501E+02
      7.199  0.1591E+02  0.7593E+02
      7.257  0.7801E+01  0.7638E+02
      7.315  0.1700E+00  0.7639E+02
      7.373  0.2925E+00  0.7641E+02
      7.431  0.1371E+02  0.7720E+02
      7.489  0.1141E+02  0.7786E+02
      7.547  0.9705E+01  0.7842E+02
      7.605  0.2006E+02  0.7958E+02
      7.663  0.1261E+02  0.8031E+02
      7.721  0.1136E+02  0.8097E+02
      7.778  0.1344E+01  0.8105E+02
      7.836  0.2353E+02  0.8241E+02
      7.894  0.7670E+01  0.8286E+02
      7.952  0.1921E+02  0.8397E+02
      8.010  0.1093E+02  0.8460E+02
      8.068  0.6605E+01  0.8499E+02
      8.126  0.1457E+02  0.8583E+02
      8.184  0.7750E+01  0.8628E+02
      8.242  0.9749E+01  0.8684E+02
      8.300  0.1963E+02  0.8798E+02
      8.358  0.1297E+02  0.8873E+02
      8.415  0.1086E+02  0.8936E+02
      8.473  0.3865E+01  0.8958E+02
      8.531  0.3837E+01  0.8981E+02
      8.589  0.4770E+00  0.8983E+02
      8.647  0.2447E+02  0.9125E+02
      8.705  0.1342E+02  0.9203E+02
      8.763  0.8826E+01  0.9254E+02
      8.821  0.1800E+02  0.9358E+02
      8.879  0.1717E+02  0.9458E+02
      8.937  0.2013E+02  0.9574E+02
      8.995  0.1179E+01  0.9581E+02
      9.053  0.1997E+02  0.9697E+02
      9.110  0.1551E+02  0.9787E+02
      9.168  0.7802E+01  0.9832E+02
      9.226  0.1482E+02  0.9918E+02
      9.284  0.2442E+01  0.9932E+02
      9.342  0.1013E+02  0.9990E+02
      9.400  0.1359E+02  0.1007E+03
      9.458  0.1124E+01  0.1008E+03
      9.516  0.1568E+02  0.1017E+03
      9.574  0.1042E+02  0.1023E+03
      9.632  0.2248E+02  0.1036E+03
      9.690  0.1518E+02  0.1044E+03
      9.747  0.2950E+01  0.1046E+03
      9.805  0.1414E+02  0.1054E+03
      9.863  0.8591E+01  0.1059E+03
      9.921  0.7661E+01  0.1064E+03
      9.979  0.1946E+02  0.1075E+03
     10.037  0.1697E+02  0.1085E+03
     10.095  0.2234E+02  0.1098E+03
     10.153  0.1067E+02  0.1104E+03
     10.211  0.1257E+02  0.1111E+03
     10.269  0.2496E+02  0.1126E+03
     10.327  0.9106E+01  0.1131E+03
     10.384  0.1509E+02  0.1140E+03
     10.442  0.2712E+00  0.1140E+03
     10.500  0.1168E+02  0.1147E+03
     10.558  0.1831E+02  0.1157E+03
     10.616  0.1220E+02  0.1164E+03
     10.674  0.5398E+00  0.1165E+03
     10.732  0.1065E+02  0.1171E+03
     10.790  0.1496E+02  0.1179E+03
     10.848  0.2102E+02  0.1192E+03
     10.906  0.1104E+02  0.1198E+03
     10.964  0.4163E+01  0.1200E+03
     11.022  0.1557E+02  0.1209E+03
     11.079  0.2876E+02  0.1226E+03
     11.137  0.3632E+01  0.1228E+03
     11.195  0.1293E+02  0.1236E+03
     11.253  0.2488E+02  0.1250E+03
     11.311  0.1974E+02  0.1262E+03
     11.369  0.3934E+01  0.1264E+03
     11.427  0.2792E+01  0.1265E+03
     11.485  0.3833E+01  0.1268E+03
     11.543  0.1393E+02  0.1276E+03
     11.601  0.1910E+02  0.1287E+03
     11.659  0.1301E+02  0.1294E+03
     11.716  0.6819E+01  0.1298E+03
     11.774  0.1544E+02  0.1307E+03
     11.832  0.1877E+02  0.1318E+03
     11.890  0.1660E+02  0.1328E+03
     11.948  0.1188E+02  0.1335E+03
     12.006  0.1799E+02  0.1345E+03
     12.064  0.1436E+02  0.1353E+03
     12.122  0.1182E+02  0.1360E+03
     12.180  0.1478E+02  0.1369E+03
     12.238  0.2259E+02  0.1382E+03
     12.296  0.1940E+01  0.1383E+03
     12.354  0.1357E+02  0.1391E+03
     12.411  0.9450E+01  0.1396E+03
     12.469  0.1274E+02  0.1404E+03
     12.527  0.1120E+02  0.1410E+03
     12.585  0.1719E+01  0.1411E+03
     12.643  0.2172E+02  0.1424E+03
     12.701  0.4743E+01  0.1426E+03
     12.759  0.1124E+02  0.1433E+03
     12.817  0.2193E+01  0.1434E+03
     12.875  0.6118E-06  0.1434E+03
     12.933  0.4385E+01  0.1437E+03
     12.991  0.2699E+01  0.1438E+03
     13.048  0.2828E+01  0.1440E+03
     13.106  0.0000E+00  0.1440E+03
     13.164  0.0000E+00  0.1440E+03
     13.222  0.0000E+00  0.1440E+03
     13.280  0.0000E+00  0.1440E+03
     13.338  0.0000E+00  0.1440E+03
     13.396  0.0000E+00  0.1440E+03
     13.454  0.0000E+00  0.1440E+03
     13.512  0.0000E+00  0.1440E+03
     13.570  0.0000E+00  0.1440E+03
     13.628  0.0000E+00  0.1440E+03
     13.685  0.0000E+00  0.1440E+03
     13.743  0.0000E+00  0.1440E+03
     13.801  0.0000E+00  0.1440E+03
