<?xml version="1.0" encoding="ISO-8859-1"?>
<modeling>
 <generator>
  <i name="program" type="string">vasp</i>
  <i name="version" type="string">4.6.28 </i>
  <i name="subversion" type="string">25Jul05 complex  parallel</i>
  <i name="platform" type="string">LinuxIFC</i>
  <i name="date" type="string">2016 10 19</i>
  <i name="time" type="string">18:00:22</i>
 </generator>
 <incar>
  <i type="string" name="PREC">accurate</i>
  <i type="int" name="IALGO">    38</i>
  <i name="EDIFF">      0.00000001</i>
  <i type="int" name="IBRION">    -1</i>
  <i name="ENCUT">    500.00000000</i>
  <i type="logical" name="LREAL"> F  </i>
  <i type="int" name="ISMEAR">     0</i>
  <i name="SIGMA">      0.01000000</i>
  <i type="logical" name="LWAVE"> F  </i>
  <i type="logical" name="LCHARG"> F  </i>
 </incar>
 <kpoints>
  <generation param="Auto">
   <i name="subdivisionlength">     50.00000000</i>
   <v type="int" name="divisions">       6       6       6</v>
   <v name="usershift">      0.00000000      0.00000000      0.00000000</v>
   <v name="genvec1">      0.16666667      0.00000000      0.00000000</v>
   <v name="genvec2">      0.00000000      0.16666667      0.00000000</v>
   <v name="genvec3">      0.00000000      0.00000000      0.16666667</v>
   <v name="shift">      0.00000000      0.00000000      0.00000000</v>
  </generation>
  <varray name="kpointlist" >
   <v>       0.00000000      0.00000000      0.00000000</v>
   <v>       0.16666667      0.00000000      0.00000000</v>
   <v>       0.33333333      0.00000000      0.00000000</v>
   <v>       0.50000000      0.00000000      0.00000000</v>
   <v>       0.00000000      0.16666667      0.00000000</v>
   <v>       0.16666667      0.16666667      0.00000000</v>
   <v>       0.33333333      0.16666667      0.00000000</v>
   <v>       0.50000000      0.16666667      0.00000000</v>
   <v>       0.00000000      0.33333333      0.00000000</v>
   <v>       0.16666667      0.33333333      0.00000000</v>
   <v>       0.33333333      0.33333333      0.00000000</v>
   <v>       0.50000000      0.33333333      0.00000000</v>
   <v>       0.00000000      0.50000000      0.00000000</v>
   <v>       0.16666667      0.50000000      0.00000000</v>
   <v>       0.33333333      0.50000000      0.00000000</v>
   <v>       0.50000000      0.50000000      0.00000000</v>
   <v>       0.00000000      0.16666667      0.16666667</v>
   <v>       0.16666667      0.16666667      0.16666667</v>
   <v>       0.33333333      0.16666667      0.16666667</v>
   <v>       0.50000000      0.16666667      0.16666667</v>
   <v>       0.00000000      0.33333333      0.16666667</v>
   <v>       0.16666667      0.33333333      0.16666667</v>
   <v>       0.33333333      0.33333333      0.16666667</v>
   <v>       0.50000000      0.33333333      0.16666667</v>
   <v>       0.00000000      0.50000000      0.16666667</v>
   <v>       0.16666667      0.50000000      0.16666667</v>
   <v>       0.33333333      0.50000000      0.16666667</v>
   <v>       0.50000000      0.50000000      0.16666667</v>
   <v>       0.00000000      0.33333333      0.33333333</v>
   <v>       0.16666667      0.33333333      0.33333333</v>
   <v>       0.33333333      0.33333333      0.33333333</v>
   <v>       0.50000000      0.33333333      0.33333333</v>
   <v>       0.00000000      0.50000000      0.33333333</v>
   <v>       0.16666667      0.50000000      0.33333333</v>
   <v>       0.33333333      0.50000000      0.33333333</v>
   <v>       0.50000000      0.50000000      0.33333333</v>
   <v>       0.00000000      0.50000000      0.50000000</v>
   <v>       0.16666667      0.50000000      0.50000000</v>
   <v>       0.33333333      0.50000000      0.50000000</v>
   <v>       0.50000000      0.50000000      0.50000000</v>
  </varray>
  <varray name="weights" >
   <v>       0.00462963</v>
   <v>       0.00925926</v>
   <v>       0.00925926</v>
   <v>       0.00462963</v>
   <v>       0.01851852</v>
   <v>       0.03703704</v>
   <v>       0.03703704</v>
   <v>       0.01851852</v>
   <v>       0.01851852</v>
   <v>       0.03703704</v>
   <v>       0.03703704</v>
   <v>       0.01851852</v>
   <v>       0.00925926</v>
   <v>       0.01851852</v>
   <v>       0.01851852</v>
   <v>       0.00925926</v>
   <v>       0.01851852</v>
   <v>       0.03703704</v>
   <v>       0.03703704</v>
   <v>       0.01851852</v>
   <v>       0.03703704</v>
   <v>       0.07407407</v>
   <v>       0.07407407</v>
   <v>       0.03703704</v>
   <v>       0.01851852</v>
   <v>       0.03703704</v>
   <v>       0.03703704</v>
   <v>       0.01851852</v>
   <v>       0.01851852</v>
   <v>       0.03703704</v>
   <v>       0.03703704</v>
   <v>       0.01851852</v>
   <v>       0.01851852</v>
   <v>       0.03703704</v>
   <v>       0.03703704</v>
   <v>       0.01851852</v>
   <v>       0.00462963</v>
   <v>       0.00925926</v>
   <v>       0.00925926</v>
   <v>       0.00462963</v>
  </varray>
 </kpoints>
 <parameters>
  <separator name="general" >
   <i type="string" name="SYSTEM">unknown system</i>
   <i type="logical" name="LCOMPAT"> F  </i>
  </separator>
  <separator name="electronic" >
   <i type="string" name="PREC">accura</i>
   <i name="ENMAX">    500.00000000</i>
   <i name="ENAUG">    291.05200000</i>
   <i name="EDIFF">      0.00000001</i>
   <i type="int" name="IALGO">    38</i>
   <i type="int" name="IWAVPR">    10</i>
   <i type="int" name="NBANDS">    65</i>
   <i name="NELECT">     96.00000000</i>
   <separator name="electronic smearing" >
    <i type="int" name="ISMEAR">     0</i>
    <i name="SIGMA">      0.01000000</i>
   </separator>
   <separator name="electronic projectors" >
    <i type="logical" name="LREAL"> F  </i>
    <v name="ROPT">      0.00000000</v>
    <i type="int" name="LMAXPAW">  -100</i>
    <i type="int" name="LMAXMIX">     2</i>
   </separator>
   <separator name="electronic startup" >
    <i type="int" name="ISTART">     0</i>
    <i type="int" name="ICHARG">     2</i>
    <i type="int" name="INIWAV">     1</i>
   </separator>
   <separator name="electronic spin" >
    <i type="int" name="ISPIN">     1</i>
    <i type="logical" name="LNONCOLLINEAR"> F  </i>
    <v name="MAGMOM">      1.00000000      1.00000000      1.00000000      1.00000000      1.00000000      1.00000000      1.00000000      1.00000000      1.00000000      1.00000000      1.00000000      1.00000000      1.00000000      1.00000000      1.00000000      1.00000000      1.00000000      1.00000000      1.00000000      1.00000000
      1.00000000      1.00000000      1.00000000      1.00000000      1.00000000      1.00000000      1.00000000      1.00000000      1.00000000      1.00000000      1.00000000      1.00000000</v>
    <i name="NUPDOWN">     -1.00000000</i>
    <i type="logical" name="LSORBIT"> F  </i>
    <v name="SAXIS">      0.00000000      0.00000000      1.00000000</v>
    <i type="logical" name="LSPIRAL"> F  </i>
    <v name="QSPIRAL">      0.00000000      0.00000000      0.00000000</v>
    <i type="logical" name="LZEROZ"> F  </i>
   </separator>
   <separator name="electronic exchange-correlation" >
    <i type="string" name="GGA">--</i>
    <i type="int" name="VOSKOWN">     0</i>
    <i type="logical" name="LASPH"> F  </i>
    <i type="logical" name="LMETAGGA"> F  </i>
    <i type="string" name="GGA2">--</i>
   </separator>
   <separator name="electronic convergence" >
    <i type="int" name="NELM">    60</i>
    <i type="int" name="NELMDL">    -5</i>
    <i type="int" name="NELMIN">     2</i>
    <i name="ENINI">    500.00000000</i>
    <separator name="electronic convergence detail" >
     <i type="logical" name="LDIAG"> T  </i>
     <i name="WEIMIN">      0.00000000</i>
     <i name="EBREAK">      0.00000000</i>
     <i name="DEPER">      0.30000000</i>
     <i type="int" name="NRMM">     4</i>
     <i name="TIME">      0.10000000</i>
    </separator>
   </separator>
   <separator name="electronic mixer" >
    <i name="AMIX">      0.40000000</i>
    <i name="BMIX">      1.00000000</i>
    <i name="AMIN">      0.10000000</i>
    <i name="AMIX_MAG">      1.60000000</i>
    <i name="BMIX_MAG">      1.00000000</i>
    <separator name="electronic mixer details" >
     <i type="int" name="IMIX">     4</i>
     <i type="int" name="MAXMIX">   -45</i>
     <i name="WC">    100.00000000</i>
     <i type="int" name="INIMIX">     1</i>
     <i type="int" name="MIXPRE">     1</i>
     <i type="int" name="MREMOVE">     5</i>
    </separator>
   </separator>
   <separator name="electronic dipolcorrection" >
    <i type="int" name="IDIPOL">     0</i>
    <i type="logical" name="LDIPOL"> F  </i>
    <v name="DIPOL">   -100.00000000</v>
    <i name="EFIELD">      0.00000000</i>
   </separator>
  </separator>
  <separator name="grids" >
   <i type="int" name="NGX">    60</i>
   <i type="int" name="NGY">    60</i>
   <i type="int" name="NGZ">    60</i>
   <i type="int" name="NGXF">   120</i>
   <i type="int" name="NGYF">   120</i>
   <i type="int" name="NGZF">   120</i>
   <i type="logical" name="ADDGRID"> F  </i>
  </separator>
  <separator name="ionic" >
   <i type="int" name="NSW">     0</i>
   <i type="int" name="IBRION">    -1</i>
   <i type="int" name="ISIF">     2</i>
   <i name="PSTRESS">      0.00000000</i>
   <i name="EDIFFG">      0.00000010</i>
   <i type="int" name="NFREE">     0</i>
   <i name="POTIM">      0.50000000</i>
   <i name="SMASS">     -3.00000000</i>
  </separator>
  <separator name="ionic md" >
   <i name="TEBEG">      0.00010000</i>
   <i name="TEEND">      0.00010000</i>
   <i type="int" name="NBLOCK">     1</i>
   <i type="int" name="KBLOCK">     1</i>
   <i type="int" name="NPACO">   256</i>
   <i name="APACO">     16.00000000</i>
  </separator>
  <separator name="symmetry" >
   <i type="int" name="ISYM">     2</i>
   <i name="SYMPREC">      0.00001000</i>
  </separator>
  <separator name="dos" >
   <i type="logical" name="LORBIT"> F  </i>
   <v name="RWIGS">     -1.00000000</v>
   <i type="int" name="NEDOS">   301</i>
   <i name="EMIN">     10.00000000</i>
   <i name="EMAX">    -10.00000000</i>
  </separator>
  <separator name="writing" >
   <i type="int" name="NWRITE">     2</i>
   <i type="logical" name="LWAVE"> F  </i>
   <i type="logical" name="LCHARG"> F  </i>
   <i type="logical" name="LPARD"> F  </i>
   <i type="logical" name="LVTOT"> F  </i>
   <i type="logical" name="LELF"> F  </i>
   <i type="logical" name="LOPTICS"> F  </i>
   <i name="STM">      0.00000000</i>
  </separator>
  <separator name="performance" >
   <i type="int" name="NPAR">     8</i>
   <i type="int" name="NSIM">     4</i>
   <i type="int" name="NBLK">   256</i>
   <i type="logical" name="LPLANE"> T  </i>
   <i type="logical" name="LCRITICAL_MEM"> F  </i>
   <i type="logical" name="LSCALAPACK"> F  </i>
   <i type="logical" name="LSCALU"> F  </i>
   <i type="logical" name="LASYNC"> F  </i>
  </separator>
  <separator name="miscellaneous" >
   <i type="int" name="IDIOT">     3</i>
   <i type="logical" name="LMUSIC"> F  </i>
   <v name="POMASS">     26.98200000</v>
   <i type="logical" name="LCORR"> T  </i>
  </separator>
  <i type="logical" name="LREAL_COMPAT"> F  </i>
  <i type="logical" name="GGA_COMPAT"> T  </i>
  <i type="logical" name="LBERRY"> F  </i>
  <i type="int" name="ICORELEVEL">     0</i>
  <i type="logical" name="LDAU"> F  </i>
  <i type="int" name="I_CONSTRAINED_M">     0</i>
 </parameters>
 <atominfo>
  <atoms>      32</atoms>
  <types>       1</types>
  <array name="atoms" >
   <dimension dim="1">ion</dimension>
   <field type="string">element</field>
   <field type="int">atomtype</field>
   <set>
    <rc><c>Al</c><c>   1</c></rc>
    <rc><c>Al</c><c>   1</c></rc>
    <rc><c>Al</c><c>   1</c></rc>
    <rc><c>Al</c><c>   1</c></rc>
    <rc><c>Al</c><c>   1</c></rc>
    <rc><c>Al</c><c>   1</c></rc>
    <rc><c>Al</c><c>   1</c></rc>
    <rc><c>Al</c><c>   1</c></rc>
    <rc><c>Al</c><c>   1</c></rc>
    <rc><c>Al</c><c>   1</c></rc>
    <rc><c>Al</c><c>   1</c></rc>
    <rc><c>Al</c><c>   1</c></rc>
    <rc><c>Al</c><c>   1</c></rc>
    <rc><c>Al</c><c>   1</c></rc>
    <rc><c>Al</c><c>   1</c></rc>
    <rc><c>Al</c><c>   1</c></rc>
    <rc><c>Al</c><c>   1</c></rc>
    <rc><c>Al</c><c>   1</c></rc>
    <rc><c>Al</c><c>   1</c></rc>
    <rc><c>Al</c><c>   1</c></rc>
    <rc><c>Al</c><c>   1</c></rc>
    <rc><c>Al</c><c>   1</c></rc>
    <rc><c>Al</c><c>   1</c></rc>
    <rc><c>Al</c><c>   1</c></rc>
    <rc><c>Al</c><c>   1</c></rc>
    <rc><c>Al</c><c>   1</c></rc>
    <rc><c>Al</c><c>   1</c></rc>
    <rc><c>Al</c><c>   1</c></rc>
    <rc><c>Al</c><c>   1</c></rc>
    <rc><c>Al</c><c>   1</c></rc>
    <rc><c>Al</c><c>   1</c></rc>
    <rc><c>Al</c><c>   1</c></rc>
   </set>
  </array>
  <array name="atomtypes" >
   <dimension dim="1">type</dimension>
   <field type="int">atomspertype</field>
   <field type="string">element</field>
   <field>mass</field>
   <field>valence</field>
   <field type="string">pseudopotential</field>
   <set>
    <rc><c>  32</c><c>Al</c><c>     26.98200000</c><c>      3.00000000</c><c> PAW_PBE Al 04Jan2001                   </c></rc>
   </set>
  </array>
 </atominfo>
 <structure name="initialpos" >
  <crystal>
   <varray name="basis" >
    <v>       7.83237436      0.00000000      0.00000000</v>
    <v>       0.00000000      7.83237436      0.00000000</v>
    <v>       0.00000000      0.00000000      7.83237436</v>
   </varray>
   <i name="volume">    480.48552712</i>
   <varray name="rec_basis" >
    <v>       0.12767520      0.00000000      0.00000000</v>
    <v>       0.00000000      0.12767520      0.00000000</v>
    <v>       0.00000000      0.00000000      0.12767520</v>
   </varray>
  </crystal>
  <varray name="positions" >
   <v>       0.25127675      0.25000000      0.00000000</v>
   <v>       0.75000000      0.25000000      0.00000000</v>
   <v>       0.25000000      0.75000000      0.00000000</v>
   <v>       0.75000000      0.75000000      0.00000000</v>
   <v>       0.25000000      0.25000000      0.50000000</v>
   <v>       0.75000000      0.25000000      0.50000000</v>
   <v>       0.25000000      0.75000000      0.50000000</v>
   <v>       0.75000000      0.75000000      0.50000000</v>
   <v>       0.25000000      0.00000000      0.25000000</v>
   <v>       0.75000000      0.00000000      0.25000000</v>
   <v>       0.25000000      0.50000000      0.25000000</v>
   <v>       0.75000000      0.50000000      0.25000000</v>
   <v>       0.25000000      0.00000000      0.75000000</v>
   <v>       0.75000000      0.00000000      0.75000000</v>
   <v>       0.25000000      0.50000000      0.75000000</v>
   <v>       0.75000000      0.50000000      0.75000000</v>
   <v>       0.00000000      0.25000000      0.25000000</v>
   <v>       0.50000000      0.25000000      0.25000000</v>
   <v>       0.00000000      0.75000000      0.25000000</v>
   <v>       0.50000000      0.75000000      0.25000000</v>
   <v>       0.00000000      0.25000000      0.75000000</v>
   <v>       0.50000000      0.25000000      0.75000000</v>
   <v>       0.00000000      0.75000000      0.75000000</v>
   <v>       0.50000000      0.75000000      0.75000000</v>
   <v>       0.00000000      0.00000000      0.00000000</v>
   <v>       0.50000000      0.00000000      0.00000000</v>
   <v>       0.00000000      0.50000000      0.00000000</v>
   <v>       0.50000000      0.50000000      0.00000000</v>
   <v>       0.00000000      0.00000000      0.50000000</v>
   <v>       0.50000000      0.00000000      0.50000000</v>
   <v>       0.00000000      0.50000000      0.50000000</v>
   <v>       0.50000000      0.50000000      0.50000000</v>
  </varray>
 </structure>
 <calculation>
  <scstep>
   <time name="dav">   18.68   18.76</time>
   <time name="total">   18.82   18.90</time>
   <energy>
    <i name="alphaZ">     -7.15822495</i>
    <i name="ewald">  -2427.62240689</i>
    <i name="hartreedc">     -2.39603461</i>
    <i name="XCdc">   -834.14650895</i>
    <i name="pawpsdc">   1137.73615723</i>
    <i name="pawaedc">   -115.16745734</i>
    <i name="eentropy">     -0.00085098</i>
    <i name="bandstr">    667.48100642</i>
    <i name="atom">   1713.22913220</i>
    <i name="e_fr_energy">    131.95481212</i>
    <i name="e_wo_entrp">    131.95566310</i>
    <i name="e_0_energy">    131.95523761</i>
   </energy>
  </scstep>
  <scstep>
   <time name="dav">   20.93   20.97</time>
   <time name="total">   20.93   20.97</time>
   <energy>
    <i name="e_fr_energy">   -105.98446050</i>
    <i name="e_wo_entrp">   -105.98396348</i>
    <i name="e_0_energy">   -105.98421199</i>
   </energy>
  </scstep>
  <scstep>
   <time name="dav">   21.79   21.84</time>
   <time name="total">   21.79   21.84</time>
   <energy>
    <i name="e_fr_energy">   -119.14070653</i>
    <i name="e_wo_entrp">   -119.13973968</i>
    <i name="e_0_energy">   -119.14022311</i>
   </energy>
  </scstep>
  <scstep>
   <time name="dav">   20.92   20.95</time>
   <time name="total">   20.92   20.96</time>
   <energy>
    <i name="e_fr_energy">   -119.37654352</i>
    <i name="e_wo_entrp">   -119.37543531</i>
    <i name="e_0_energy">   -119.37598942</i>
   </energy>
  </scstep>
  <scstep>
   <time name="dav">   20.82   20.85</time>
   <time name="total">   22.11   22.14</time>
   <energy>
    <i name="e_fr_energy">   -119.37928781</i>
    <i name="e_wo_entrp">   -119.37817974</i>
    <i name="e_0_energy">   -119.37873378</i>
   </energy>
  </scstep>
  <scstep>
   <time name="dav">   20.81   20.85</time>
   <time name="total">   22.23   22.27</time>
   <energy>
    <i name="e_fr_energy">   -118.91634738</i>
    <i name="e_wo_entrp">   -118.91516700</i>
    <i name="e_0_energy">   -118.91575719</i>
   </energy>
  </scstep>
  <scstep>
   <time name="dav">   19.83   19.88</time>
   <time name="total">   21.30   21.35</time>
   <energy>
    <i name="e_fr_energy">   -118.58150544</i>
    <i name="e_wo_entrp">   -118.58018149</i>
    <i name="e_0_energy">   -118.58084346</i>
   </energy>
  </scstep>
  <scstep>
   <time name="dav">   21.05   21.10</time>
   <time name="total">   22.51   22.56</time>
   <energy>
    <i name="e_fr_energy">   -118.58170457</i>
    <i name="e_wo_entrp">   -118.58037823</i>
    <i name="e_0_energy">   -118.58104140</i>
   </energy>
  </scstep>
  <scstep>
   <time name="dav">   20.47   20.51</time>
   <time name="total">   21.88   21.92</time>
   <energy>
    <i name="e_fr_energy">   -118.58173942</i>
    <i name="e_wo_entrp">   -118.58041288</i>
    <i name="e_0_energy">   -118.58107615</i>
   </energy>
  </scstep>
  <scstep>
   <time name="dav">   20.99   21.03</time>
   <time name="total">   22.47   22.51</time>
   <energy>
    <i name="e_fr_energy">   -118.58174040</i>
    <i name="e_wo_entrp">   -118.58041382</i>
    <i name="e_0_energy">   -118.58107711</i>
   </energy>
  </scstep>
  <scstep>
   <time name="dav">   20.75   20.79</time>
   <time name="total">   22.17   22.21</time>
   <energy>
    <i name="e_fr_energy">   -118.58173876</i>
    <i name="e_wo_entrp">   -118.58041212</i>
    <i name="e_0_energy">   -118.58107544</i>
   </energy>
  </scstep>
  <scstep>
   <time name="dav">   15.33   15.36</time>
   <time name="total">   16.78   16.81</time>
   <energy>
    <i name="e_fr_energy">   -118.58173764</i>
    <i name="e_wo_entrp">   -118.58041097</i>
    <i name="e_0_energy">   -118.58107430</i>
   </energy>
  </scstep>
  <scstep>
   <time name="dav">   14.17   14.20</time>
   <time name="total">   15.61   15.65</time>
   <energy>
    <i name="e_fr_energy">   -118.58173743</i>
    <i name="e_wo_entrp">   -118.58041076</i>
    <i name="e_0_energy">   -118.58107409</i>
   </energy>
  </scstep>
  <scstep>
   <time name="dav">   13.96   13.98</time>
   <time name="total">   15.36   15.39</time>
   <energy>
    <i name="e_fr_energy">   -118.58173741</i>
    <i name="e_wo_entrp">   -118.58041074</i>
    <i name="e_0_energy">   -118.58107408</i>
   </energy>
  </scstep>
  <scstep>
   <time name="dav">   13.84   13.87</time>
   <time name="total">   13.98   14.01</time>
   <energy>
    <i name="alphaZ">     -7.15822495</i>
    <i name="ewald">  -2427.62240689</i>
    <i name="hartreedc">     -3.93467162</i>
    <i name="XCdc">   -829.98172479</i>
    <i name="pawpsdc">   1151.91378233</i>
    <i name="pawaedc">   -130.30064786</i>
    <i name="eentropy">     -0.00132667</i>
    <i name="bandstr">    415.27435084</i>
    <i name="atom">   1713.22913220</i>
    <i name="e_fr_energy">   -118.58173742</i>
    <i name="e_wo_entrp">   -118.58041075</i>
    <i name="e_0_energy">   -118.58107409</i>
   </energy>
  </scstep>
  <structure>
   <crystal>
    <varray name="basis" >
     <v>       7.83237436      0.00000000      0.00000000</v>
     <v>       0.00000000      7.83237436      0.00000000</v>
     <v>       0.00000000      0.00000000      7.83237436</v>
    </varray>
    <i name="volume">    480.48552712</i>
    <varray name="rec_basis" >
     <v>       0.12767520      0.00000000      0.00000000</v>
     <v>       0.00000000      0.12767520      0.00000000</v>
     <v>       0.00000000      0.00000000      0.12767520</v>
    </varray>
   </crystal>
   <varray name="positions" >
    <v>       0.25127675      0.25000000      0.00000000</v>
    <v>       0.75000000      0.25000000      0.00000000</v>
    <v>       0.25000000      0.75000000      0.00000000</v>
    <v>       0.75000000      0.75000000      0.00000000</v>
    <v>       0.25000000      0.25000000      0.50000000</v>
    <v>       0.75000000      0.25000000      0.50000000</v>
    <v>       0.25000000      0.75000000      0.50000000</v>
    <v>       0.75000000      0.75000000      0.50000000</v>
    <v>       0.25000000      0.00000000      0.25000000</v>
    <v>       0.75000000      0.00000000      0.25000000</v>
    <v>       0.25000000      0.50000000      0.25000000</v>
    <v>       0.75000000      0.50000000      0.25000000</v>
    <v>       0.25000000      0.00000000      0.75000000</v>
    <v>       0.75000000      0.00000000      0.75000000</v>
    <v>       0.25000000      0.50000000      0.75000000</v>
    <v>       0.75000000      0.50000000      0.75000000</v>
    <v>       0.00000000      0.25000000      0.25000000</v>
    <v>       0.50000000      0.25000000      0.25000000</v>
    <v>       0.00000000      0.75000000      0.25000000</v>
    <v>       0.50000000      0.75000000      0.25000000</v>
    <v>       0.00000000      0.25000000      0.75000000</v>
    <v>       0.50000000      0.25000000      0.75000000</v>
    <v>       0.00000000      0.75000000      0.75000000</v>
    <v>       0.50000000      0.75000000      0.75000000</v>
    <v>       0.00000000      0.00000000      0.00000000</v>
    <v>       0.50000000      0.00000000      0.00000000</v>
    <v>       0.00000000      0.50000000      0.00000000</v>
    <v>       0.50000000      0.50000000      0.00000000</v>
    <v>       0.00000000      0.00000000      0.50000000</v>
    <v>       0.50000000      0.00000000      0.50000000</v>
    <v>       0.00000000      0.50000000      0.50000000</v>
    <v>       0.50000000      0.50000000      0.50000000</v>
   </varray>
  </structure>
  <varray name="forces" >
   <v>      -0.06459110     -0.00000000     -0.00000000</v>
   <v>       0.00277667      0.00000000      0.00000000</v>
   <v>       0.00075114     -0.00000000      0.00000000</v>
   <v>       0.00039911     -0.00000000      0.00000000</v>
   <v>       0.00075114      0.00000000      0.00000000</v>
   <v>       0.00039911      0.00000000     -0.00000000</v>
   <v>      -0.00013021     -0.00000000     -0.00000000</v>
   <v>       0.00050525     -0.00000000     -0.00000000</v>
   <v>      -0.00184920      0.00003872     -0.00003872</v>
   <v>      -0.00123732      0.00000027     -0.00000027</v>
   <v>      -0.00184920     -0.00003872     -0.00003872</v>
   <v>      -0.00123732     -0.00000027     -0.00000027</v>
   <v>      -0.00184920      0.00003872      0.00003872</v>
   <v>      -0.00123732      0.00000027      0.00000027</v>
   <v>      -0.00184920     -0.00003872      0.00003872</v>
   <v>      -0.00123732     -0.00000027      0.00000027</v>
   <v>       0.00869868      0.00000000     -0.00938886</v>
   <v>       0.00888886     -0.00000000      0.00940242</v>
   <v>       0.00013829      0.00000000      0.00098433</v>
   <v>       0.00014540     -0.00000000     -0.00074004</v>
   <v>       0.00869868      0.00000000      0.00938886</v>
   <v>       0.00888886     -0.00000000     -0.00940242</v>
   <v>       0.00013829     -0.00000000     -0.00098433</v>
   <v>       0.00014540     -0.00000000      0.00074004</v>
   <v>       0.00869868      0.00938886     -0.00000000</v>
   <v>       0.00888886     -0.00940242      0.00000000</v>
   <v>       0.00869868     -0.00938886      0.00000000</v>
   <v>       0.00888886      0.00940242     -0.00000000</v>
   <v>       0.00013829     -0.00098433     -0.00000000</v>
   <v>       0.00014540      0.00074004     -0.00000000</v>
   <v>       0.00013829      0.00098433      0.00000000</v>
   <v>       0.00014540     -0.00074004     -0.00000000</v>
  </varray>
  <varray name="stress" >
   <v>      88.88519753      0.00000000      0.00000000</v>
   <v>       0.00000000     88.89013149      0.00000000</v>
   <v>       0.00000000      0.00000000     88.89013149</v>
  </varray>
  <energy>
   <i name="e_fr_energy">   -118.58173742</i>
   <i name="e_wo_entrp">   -118.58107409</i>
   <i name="e_0_energy">     -0.00132667</i>
  </energy>
  <eigenvalues>
   <array>
    <dimension dim="1">band</dimension>
    <dimension dim="2">kpoint</dimension>
    <dimension dim="3">spin</dimension>
    <field>eigene</field>
    <field>occ</field>
    <set>
     <set comment="spin 1">
      <set comment="kpoint 1">
       <r>  -2.7827  1.0000</r>
       <r>  -0.3970  1.0000</r>
       <r>  -0.3932  1.0000</r>
       <r>  -0.3932  1.0000</r>
       <r>  -0.3932  1.0000</r>
       <r>  -0.3932  1.0000</r>
       <r>  -0.3893  1.0000</r>
       <r>   1.9456  1.0000</r>
       <r>   1.9499  1.0000</r>
       <r>   1.9499  1.0000</r>
       <r>   1.9518  1.0000</r>
       <r>   1.9519  1.0000</r>
       <r>   1.9519  1.0000</r>
       <r>   1.9519  1.0000</r>
       <r>   1.9519  1.0000</r>
       <r>   1.9521  1.0000</r>
       <r>   1.9539  1.0000</r>
       <r>   1.9539  1.0000</r>
       <r>   1.9583  1.0000</r>
       <r>   4.0442  1.0000</r>
       <r>   4.0442  1.0000</r>
       <r>   4.0442  1.0000</r>
       <r>   4.0442  1.0000</r>
       <r>   4.5076  1.0000</r>
       <r>   4.5076  1.0000</r>
       <r>   4.5076  1.0000</r>
       <r>   4.5077  1.0000</r>
       <r>   5.8675  1.0000</r>
       <r>   5.8675  1.0000</r>
       <r>   5.8675  1.0000</r>
       <r>   7.3862  1.0000</r>
       <r>   7.3862  1.0000</r>
       <r>   7.3862  1.0000</r>
       <r>   8.0491  1.0000</r>
       <r>   8.0491  1.0000</r>
       <r>   8.0538  1.0000</r>
       <r>   8.0538  1.0000</r>
       <r>   8.0539  1.0000</r>
       <r>   8.0539  1.0000</r>
       <r>   8.0539  1.0000</r>
       <r>   8.0539  1.0000</r>
       <r>   8.0540  1.0000</r>
       <r>   8.0540  1.0000</r>
       <r>   8.0586  1.0000</r>
       <r>   8.0586  1.0000</r>
       <r>   9.0122  0.3483</r>
       <r>   9.0166  0.1577</r>
       <r>   9.0166  0.1574</r>
       <r>   9.0166  0.1571</r>
       <r>   9.0166  0.1571</r>
       <r>   9.0210  0.0524</r>
       <r>  10.2476  0.0000</r>
       <r>  10.2476  0.0000</r>
       <r>  10.2490  0.0000</r>
       <r>  10.2516  0.0000</r>
       <r>  10.2518  0.0000</r>
       <r>  10.2518  0.0000</r>
       <r>  10.2518  0.0000</r>
       <r>  10.2519  0.0000</r>
       <r>  10.2520  0.0000</r>
       <r>  10.2547  0.0000</r>
       <r>  10.2561  0.0000</r>
       <r>  10.2561  0.0000</r>
       <r>  10.6719  0.0000</r>
       <r>  10.6732  0.0000</r>
       <r>  10.6732  0.0000</r>
       <r>  10.6732  0.0000</r>
       <r>  10.6732  0.0000</r>
       <r>  10.6744  0.0000</r>
       <r>  12.0617  0.0000</r>
       <r>  12.0648  0.0000</r>
       <r>  12.0653  0.0000</r>
      </set>
      <set comment="kpoint 2">
       <r>  -2.7157  1.0000</r>
       <r>  -1.1185  1.0000</r>
       <r>  -0.3274  1.0000</r>
       <r>  -0.3274  1.0000</r>
       <r>  -0.3274  1.0000</r>
       <r>  -0.3274  1.0000</r>
       <r>   0.4583  1.0000</r>
       <r>   1.2402  1.0000</r>
       <r>   1.2402  1.0000</r>
       <r>   1.2402  1.0000</r>
       <r>   1.2402  1.0000</r>
       <r>   2.0164  1.0000</r>
       <r>   2.0164  1.0000</r>
       <r>   2.0164  1.0000</r>
       <r>   2.0164  1.0000</r>
       <r>   2.7871  1.0000</r>
       <r>   2.7871  1.0000</r>
       <r>   2.7871  1.0000</r>
       <r>   2.7871  1.0000</r>
       <r>   3.5379  1.0000</r>
       <r>   3.5379  1.0000</r>
       <r>   3.5379  1.0000</r>
       <r>   3.5379  1.0000</r>
       <r>   4.9842  1.0000</r>
       <r>   5.1368  1.0000</r>
       <r>   5.1368  1.0000</r>
       <r>   5.1368  1.0000</r>
       <r>   5.1368  1.0000</r>
       <r>   5.9281  1.0000</r>
       <r>   5.9281  1.0000</r>
       <r>   7.1888  1.0000</r>
       <r>   7.1888  1.0000</r>
       <r>   7.1888  1.0000</r>
       <r>   7.1889  1.0000</r>
       <r>   7.3847  1.0000</r>
       <r>   7.3847  1.0000</r>
       <r>   7.4488  1.0000</r>
       <r>   7.4488  1.0000</r>
       <r>   8.1148  1.0000</r>
       <r>   8.1148  1.0000</r>
       <r>   8.1148  1.0000</r>
       <r>   8.1148  1.0000</r>
       <r>   8.3830  1.0000</r>
       <r>   8.7738  1.0000</r>
       <r>   8.7738  1.0000</r>
       <r>   8.8457  1.0000</r>
       <r>   8.8457  1.0000</r>
       <r>   9.4720  0.0000</r>
       <r>   9.4720  0.0000</r>
       <r>   9.4720  0.0000</r>
       <r>   9.4721  0.0000</r>
       <r>   9.5441  0.0000</r>
       <r>   9.5441  0.0000</r>
       <r>   9.5442  0.0000</r>
       <r>   9.5443  0.0000</r>
       <r>   9.5795  0.0000</r>
       <r>   9.5795  0.0000</r>
       <r>   9.5796  0.0000</r>
       <r>   9.5796  0.0000</r>
       <r>  11.0285  0.0000</r>
       <r>  11.0286  0.0000</r>
       <r>  11.0470  0.0000</r>
       <r>  11.0470  0.0000</r>
       <r>  11.0471  0.0000</r>
       <r>  11.0471  0.0000</r>
       <r>  11.1869  0.0000</r>
       <r>  11.1869  0.0000</r>
       <r>  11.1870  0.0000</r>
       <r>  11.1870  0.0000</r>
       <r>  11.3816  0.0000</r>
       <r>  11.3816  0.0000</r>
       <r>  11.3816  0.0000</r>
      </set>
      <set comment="kpoint 3">
       <r>  -2.5150  1.0000</r>
       <r>  -1.7151  1.0000</r>
       <r>  -0.1304  1.0000</r>
       <r>  -0.1304  1.0000</r>
       <r>  -0.1304  1.0000</r>
       <r>  -0.1304  1.0000</r>
       <r>   0.6546  1.0000</r>
       <r>   0.6546  1.0000</r>
       <r>   0.6546  1.0000</r>
       <r>   0.6547  1.0000</r>
       <r>   1.4326  1.0000</r>
       <r>   2.2095  1.0000</r>
       <r>   2.2095  1.0000</r>
       <r>   2.2095  1.0000</r>
       <r>   2.2095  1.0000</r>
       <r>   2.9763  1.0000</r>
       <r>   2.9763  1.0000</r>
       <r>   2.9763  1.0000</r>
       <r>   2.9763  1.0000</r>
       <r>   3.7224  1.0000</r>
       <r>   3.7416  1.0000</r>
       <r>   3.7416  1.0000</r>
       <r>   3.7416  1.0000</r>
       <r>   3.7417  1.0000</r>
       <r>   5.9734  1.0000</r>
       <r>   5.9734  1.0000</r>
       <r>   5.9734  1.0000</r>
       <r>   5.9734  1.0000</r>
       <r>   6.0658  1.0000</r>
       <r>   6.0658  1.0000</r>
       <r>   6.0659  1.0000</r>
       <r>   6.0659  1.0000</r>
       <r>   6.1100  1.0000</r>
       <r>   6.1100  1.0000</r>
       <r>   6.8379  1.0000</r>
       <r>   6.8379  1.0000</r>
       <r>   7.6346  1.0000</r>
       <r>   7.6346  1.0000</r>
       <r>   8.2739  1.0000</r>
       <r>   8.2739  1.0000</r>
       <r>   8.2741  1.0000</r>
       <r>   8.2742  1.0000</r>
       <r>   8.2977  1.0000</r>
       <r>   8.2978  1.0000</r>
       <r>   8.2980  1.0000</r>
       <r>   8.2980  1.0000</r>
       <r>   8.3368  1.0000</r>
       <r>   8.3369  1.0000</r>
       <r>   9.0298  0.0020</r>
       <r>   9.0298  0.0020</r>
       <r>   9.0298  0.0020</r>
       <r>   9.0298  0.0020</r>
       <r>   9.7604  0.0000</r>
       <r>   9.7604  0.0000</r>
       <r>   9.9611  0.0000</r>
       <r>   9.9611  0.0000</r>
       <r>   9.9611  0.0000</r>
       <r>   9.9611  0.0000</r>
       <r>   9.9853  0.0000</r>
       <r>  10.8082  0.0000</r>
       <r>  10.8082  0.0000</r>
       <r>  10.8082  0.0000</r>
       <r>  10.8082  0.0000</r>
       <r>  11.7991  0.0000</r>
       <r>  11.7991  0.0000</r>
       <r>  11.9547  0.0000</r>
       <r>  11.9547  0.0000</r>
       <r>  11.9652  0.0000</r>
       <r>  11.9653  0.0000</r>
       <r>  11.9654  0.0000</r>
       <r>  11.9654  0.0000</r>
       <r>  12.5126  0.0000</r>
      </set>
      <set comment="kpoint 4">
       <r>  -2.1826  1.0000</r>
       <r>  -2.1796  1.0000</r>
       <r>   0.1931  1.0000</r>
       <r>   0.1964  1.0000</r>
       <r>   0.1964  1.0000</r>
       <r>   0.1972  1.0000</r>
       <r>   0.1973  1.0000</r>
       <r>   0.1982  1.0000</r>
       <r>   0.1982  1.0000</r>
       <r>   0.2015  1.0000</r>
       <r>   2.5220  1.0000</r>
       <r>   2.5245  1.0000</r>
       <r>   2.5287  1.0000</r>
       <r>   2.5290  1.0000</r>
       <r>   2.5290  1.0000</r>
       <r>   2.5298  1.0000</r>
       <r>   2.5308  1.0000</r>
       <r>   2.5316  1.0000</r>
       <r>   2.5316  1.0000</r>
       <r>   2.5343  1.0000</r>
       <r>   4.8077  1.0000</r>
       <r>   4.8077  1.0000</r>
       <r>   4.8083  1.0000</r>
       <r>   4.8084  1.0000</r>
       <r>   4.8087  1.0000</r>
       <r>   4.8089  1.0000</r>
       <r>   4.8094  1.0000</r>
       <r>   4.8094  1.0000</r>
       <r>   6.4114  1.0000</r>
       <r>   6.4114  1.0000</r>
       <r>   6.4147  1.0000</r>
       <r>   6.4147  1.0000</r>
       <r>   7.1184  1.0000</r>
       <r>   7.1184  1.0000</r>
       <r>   7.1187  1.0000</r>
       <r>   7.1193  1.0000</r>
       <r>   7.1194  1.0000</r>
       <r>   7.1199  1.0000</r>
       <r>   7.1203  1.0000</r>
       <r>   7.1203  1.0000</r>
       <r>   7.9347  1.0000</r>
       <r>   7.9360  1.0000</r>
       <r>   7.9377  1.0000</r>
       <r>   7.9390  1.0000</r>
       <r>   8.6001  1.0000</r>
       <r>   8.6001  1.0000</r>
       <r>   8.6010  1.0000</r>
       <r>   8.6026  1.0000</r>
       <r>   8.6027  1.0000</r>
       <r>   8.6043  1.0000</r>
       <r>   8.6052  1.0000</r>
       <r>   8.6052  1.0000</r>
       <r>  10.3403  0.0000</r>
       <r>  10.3412  0.0000</r>
       <r>  10.3412  0.0000</r>
       <r>  10.3413  0.0000</r>
       <r>  10.3438  0.0000</r>
       <r>  10.3440  0.0000</r>
       <r>  10.3440  0.0000</r>
       <r>  10.3449  0.0000</r>
       <r>  10.7964  0.0000</r>
       <r>  10.7964  0.0000</r>
       <r>  10.7986  0.0000</r>
       <r>  10.7986  0.0000</r>
       <r>  11.7496  0.0000</r>
       <r>  11.7506  0.0000</r>
       <r>  12.7359  0.0000</r>
       <r>  12.7360  0.0000</r>
       <r>  12.7379  0.0000</r>
       <r>  12.7380  0.0000</r>
       <r>  13.0066  0.0000</r>
       <r>  13.0068  0.0000</r>
      </set>
      <set comment="kpoint 5">
       <r>  -2.7157  1.0000</r>
       <r>  -1.1185  1.0000</r>
       <r>  -0.3304  1.0000</r>
       <r>  -0.3274  1.0000</r>
       <r>  -0.3274  1.0000</r>
       <r>  -0.3244  1.0000</r>
       <r>   0.4583  1.0000</r>
       <r>   1.2372  1.0000</r>
       <r>   1.2402  1.0000</r>
       <r>   1.2402  1.0000</r>
       <r>   1.2432  1.0000</r>
       <r>   2.0143  1.0000</r>
       <r>   2.0151  1.0000</r>
       <r>   2.0177  1.0000</r>
       <r>   2.0186  1.0000</r>
       <r>   2.7841  1.0000</r>
       <r>   2.7871  1.0000</r>
       <r>   2.7871  1.0000</r>
       <r>   2.7901  1.0000</r>
       <r>   3.5359  1.0000</r>
       <r>   3.5367  1.0000</r>
       <r>   3.5392  1.0000</r>
       <r>   3.5400  1.0000</r>
       <r>   4.9842  1.0000</r>
       <r>   5.1347  1.0000</r>
       <r>   5.1355  1.0000</r>
       <r>   5.1381  1.0000</r>
       <r>   5.1389  1.0000</r>
       <r>   5.9281  1.0000</r>
       <r>   5.9281  1.0000</r>
       <r>   7.1855  1.0000</r>
       <r>   7.1888  1.0000</r>
       <r>   7.1888  1.0000</r>
       <r>   7.1921  1.0000</r>
       <r>   7.3847  1.0000</r>
       <r>   7.3847  1.0000</r>
       <r>   7.4488  1.0000</r>
       <r>   7.4488  1.0000</r>
       <r>   8.1119  1.0000</r>
       <r>   8.1148  1.0000</r>
       <r>   8.1148  1.0000</r>
       <r>   8.1177  1.0000</r>
       <r>   8.3831  1.0000</r>
       <r>   8.7738  1.0000</r>
       <r>   8.7738  1.0000</r>
       <r>   8.8457  1.0000</r>
       <r>   8.8457  1.0000</r>
       <r>   9.4695  0.0000</r>
       <r>   9.4707  0.0000</r>
       <r>   9.4734  0.0000</r>
       <r>   9.4747  0.0000</r>
       <r>   9.5413  0.0000</r>
       <r>   9.5442  0.0000</r>
       <r>   9.5442  0.0000</r>
       <r>   9.5470  0.0000</r>
       <r>   9.5766  0.0000</r>
       <r>   9.5795  0.0000</r>
       <r>   9.5796  0.0000</r>
       <r>   9.5824  0.0000</r>
       <r>  11.0284  0.0000</r>
       <r>  11.0286  0.0000</r>
       <r>  11.0441  0.0000</r>
       <r>  11.0471  0.0000</r>
       <r>  11.0472  0.0000</r>
       <r>  11.0500  0.0000</r>
       <r>  11.1854  0.0000</r>
       <r>  11.1869  0.0000</r>
       <r>  11.1870  0.0000</r>
       <r>  11.1884  0.0000</r>
       <r>  11.3802  0.0000</r>
       <r>  11.3816  0.0000</r>
       <r>  11.3837  0.0000</r>
      </set>
      <set comment="kpoint 6">
       <r>  -2.6488  1.0000</r>
       <r>  -1.0536  1.0000</r>
       <r>  -1.0511  1.0000</r>
       <r>  -0.2617  1.0000</r>
       <r>  -0.2617  1.0000</r>
       <r>   0.5219  1.0000</r>
       <r>   0.5239  1.0000</r>
       <r>   0.5257  1.0000</r>
       <r>   1.3034  1.0000</r>
       <r>   1.3043  1.0000</r>
       <r>   1.3058  1.0000</r>
       <r>   1.3068  1.0000</r>
       <r>   2.0800  1.0000</r>
       <r>   2.0809  1.0000</r>
       <r>   2.8474  1.0000</r>
       <r>   2.8482  1.0000</r>
       <r>   2.8500  1.0000</r>
       <r>   2.8504  1.0000</r>
       <r>   2.8519  1.0000</r>
       <r>   2.8531  1.0000</r>
       <r>   3.6158  1.0000</r>
       <r>   4.1673  1.0000</r>
       <r>   4.1673  1.0000</r>
       <r>   4.6372  1.0000</r>
       <r>   4.6372  1.0000</r>
       <r>   5.0460  1.0000</r>
       <r>   5.0468  1.0000</r>
       <r>   5.9420  1.0000</r>
       <r>   5.9420  1.0000</r>
       <r>   5.9887  1.0000</r>
       <r>   6.5249  1.0000</r>
       <r>   6.5274  1.0000</r>
       <r>   7.0899  1.0000</r>
       <r>   7.0899  1.0000</r>
       <r>   7.4441  1.0000</r>
       <r>   7.4469  1.0000</r>
       <r>   7.4631  1.0000</r>
       <r>   7.4633  1.0000</r>
       <r>   7.5104  1.0000</r>
       <r>   7.9195  1.0000</r>
       <r>   7.9217  1.0000</r>
       <r>   8.4430  1.0000</r>
       <r>   8.4438  1.0000</r>
       <r>   8.7918  1.0000</r>
       <r>   8.7928  1.0000</r>
       <r>   8.7943  1.0000</r>
       <r>   8.7953  1.0000</r>
       <r>   8.9047  1.0000</r>
       <r>   8.9072  1.0000</r>
       <r>   8.9097  1.0000</r>
       <r>   9.1240  0.0000</r>
       <r>   9.1257  0.0000</r>
       <r>   9.6196  0.0000</r>
       <r>   9.6224  0.0000</r>
       <r>  10.2308  0.0000</r>
       <r>  10.2309  0.0000</r>
       <r>  10.2707  0.0000</r>
       <r>  10.2716  0.0000</r>
       <r>  10.2721  0.0000</r>
       <r>  10.2732  0.0000</r>
       <r>  10.3731  0.0000</r>
       <r>  10.3748  0.0000</r>
       <r>  10.6992  0.0000</r>
       <r>  11.2160  0.0000</r>
       <r>  11.2167  0.0000</r>
       <r>  11.4879  0.0000</r>
       <r>  11.4879  0.0000</r>
       <r>  11.7768  0.0000</r>
       <r>  11.7789  0.0000</r>
       <r>  11.8430  0.0000</r>
       <r>  12.1707  0.0000</r>
       <r>  12.1709  0.0000</r>
      </set>
      <set comment="kpoint 7">
       <r>  -2.4482  1.0000</r>
       <r>  -1.6487  1.0000</r>
       <r>  -0.8542  1.0000</r>
       <r>  -0.0662  1.0000</r>
       <r>  -0.0648  1.0000</r>
       <r>  -0.0633  1.0000</r>
       <r>   0.7181  1.0000</r>
       <r>   0.7198  1.0000</r>
       <r>   0.7211  1.0000</r>
       <r>   1.4961  1.0000</r>
       <r>   1.4990  1.0000</r>
       <r>   1.4995  1.0000</r>
       <r>   1.5008  1.0000</r>
       <r>   2.2735  1.0000</r>
       <r>   2.2735  1.0000</r>
       <r>   3.0410  1.0000</r>
       <r>   3.0420  1.0000</r>
       <r>   3.0424  1.0000</r>
       <r>   3.7854  1.0000</r>
       <r>   3.7903  1.0000</r>
       <r>   3.7906  1.0000</r>
       <r>   3.8044  1.0000</r>
       <r>   3.8046  1.0000</r>
       <r>   4.5619  1.0000</r>
       <r>   5.2327  1.0000</r>
       <r>   5.2935  1.0000</r>
       <r>   5.3883  1.0000</r>
       <r>   5.3883  1.0000</r>
       <r>   5.9747  1.0000</r>
       <r>   6.0234  1.0000</r>
       <r>   6.0234  1.0000</r>
       <r>   6.1705  1.0000</r>
       <r>   6.7590  1.0000</r>
       <r>   6.8775  1.0000</r>
       <r>   6.8776  1.0000</r>
       <r>   6.8987  1.0000</r>
       <r>   7.5066  1.0000</r>
       <r>   7.5066  1.0000</r>
       <r>   7.5909  1.0000</r>
       <r>   7.5910  1.0000</r>
       <r>   7.6282  1.0000</r>
       <r>   7.6921  1.0000</r>
       <r>   8.2378  1.0000</r>
       <r>   8.2378  1.0000</r>
       <r>   8.2738  1.0000</r>
       <r>   8.3591  1.0000</r>
       <r>   8.6223  1.0000</r>
       <r>   9.0792  0.0000</r>
       <r>   9.0794  0.0000</r>
       <r>   9.0903  0.0000</r>
       <r>   9.1823  0.0000</r>
       <r>   9.2832  0.0000</r>
       <r>   9.3540  0.0000</r>
       <r>   9.8205  0.0000</r>
       <r>   9.8245  0.0000</r>
       <r>  10.0422  0.0000</r>
       <r>  10.1316  0.0000</r>
       <r>  10.5519  0.0000</r>
       <r>  10.8311  0.0000</r>
       <r>  10.8311  0.0000</r>
       <r>  11.1907  0.0000</r>
       <r>  11.1907  0.0000</r>
       <r>  11.2035  0.0000</r>
       <r>  11.2914  0.0000</r>
       <r>  11.5879  0.0000</r>
       <r>  11.7100  0.0000</r>
       <r>  11.7101  0.0000</r>
       <r>  11.8918  0.0000</r>
       <r>  12.0165  0.0000</r>
       <r>  12.0464  0.0000</r>
       <r>  12.6136  0.0000</r>
       <r>  12.6202  0.0000</r>
      </set>
      <set comment="kpoint 8">
       <r>  -2.1159  1.0000</r>
       <r>  -2.1129  1.0000</r>
       <r>  -0.5262  1.0000</r>
       <r>  -0.5231  1.0000</r>
       <r>   0.2606  1.0000</r>
       <r>   0.2618  1.0000</r>
       <r>   0.2636  1.0000</r>
       <r>   0.2648  1.0000</r>
       <r>   1.0432  1.0000</r>
       <r>   1.0463  1.0000</r>
       <r>   1.8207  1.0000</r>
       <r>   1.8219  1.0000</r>
       <r>   1.8238  1.0000</r>
       <r>   1.8250  1.0000</r>
       <r>   2.5880  1.0000</r>
       <r>   2.5891  1.0000</r>
       <r>   3.3560  1.0000</r>
       <r>   3.3573  1.0000</r>
       <r>   3.3591  1.0000</r>
       <r>   3.3604  1.0000</r>
       <r>   4.1162  1.0000</r>
       <r>   4.1172  1.0000</r>
       <r>   4.8679  1.0000</r>
       <r>   4.8686  1.0000</r>
       <r>   4.8690  1.0000</r>
       <r>   4.8696  1.0000</r>
       <r>   5.5410  1.0000</r>
       <r>   5.5442  1.0000</r>
       <r>   5.6159  1.0000</r>
       <r>   5.6170  1.0000</r>
       <r>   6.4336  1.0000</r>
       <r>   6.4340  1.0000</r>
       <r>   6.4349  1.0000</r>
       <r>   6.4351  1.0000</r>
       <r>   6.4722  1.0000</r>
       <r>   6.4755  1.0000</r>
       <r>   7.8045  1.0000</r>
       <r>   7.8058  1.0000</r>
       <r>   7.8078  1.0000</r>
       <r>   7.8090  1.0000</r>
       <r>   7.9278  1.0000</r>
       <r>   7.9284  1.0000</r>
       <r>   7.9293  1.0000</r>
       <r>   7.9293  1.0000</r>
       <r>   7.9313  1.0000</r>
       <r>   7.9345  1.0000</r>
       <r>   7.9773  1.0000</r>
       <r>   7.9803  1.0000</r>
       <r>   8.9099  1.0000</r>
       <r>   8.9130  1.0000</r>
       <r>   9.3938  0.0000</r>
       <r>   9.3972  0.0000</r>
       <r>   9.6818  0.0000</r>
       <r>   9.6848  0.0000</r>
       <r>  10.0878  0.0000</r>
       <r>  10.0894  0.0000</r>
       <r>  10.8578  0.0000</r>
       <r>  10.8599  0.0000</r>
       <r>  11.0845  0.0000</r>
       <r>  11.0879  0.0000</r>
       <r>  11.2410  0.0000</r>
       <r>  11.2418  0.0000</r>
       <r>  11.2443  0.0000</r>
       <r>  11.2451  0.0000</r>
       <r>  11.8000  0.0000</r>
       <r>  11.8010  0.0000</r>
       <r>  12.2237  0.0000</r>
       <r>  12.2237  0.0000</r>
       <r>  12.2255  0.0000</r>
       <r>  12.2255  0.0000</r>
       <r>  12.3305  0.0000</r>
       <r>  12.3328  0.0000</r>
      </set>
      <set comment="kpoint 9">
       <r>  -2.5150  1.0000</r>
       <r>  -1.7151  1.0000</r>
       <r>  -0.1334  1.0000</r>
       <r>  -0.1304  1.0000</r>
       <r>  -0.1304  1.0000</r>
       <r>  -0.1274  1.0000</r>
       <r>   0.6516  1.0000</r>
       <r>   0.6546  1.0000</r>
       <r>   0.6546  1.0000</r>
       <r>   0.6576  1.0000</r>
       <r>   1.4326  1.0000</r>
       <r>   2.2074  1.0000</r>
       <r>   2.2083  1.0000</r>
       <r>   2.2108  1.0000</r>
       <r>   2.2117  1.0000</r>
       <r>   2.9741  1.0000</r>
       <r>   2.9750  1.0000</r>
       <r>   2.9775  1.0000</r>
       <r>   2.9784  1.0000</r>
       <r>   3.7224  1.0000</r>
       <r>   3.7385  1.0000</r>
       <r>   3.7416  1.0000</r>
       <r>   3.7416  1.0000</r>
       <r>   3.7447  1.0000</r>
       <r>   5.9702  1.0000</r>
       <r>   5.9734  1.0000</r>
       <r>   5.9734  1.0000</r>
       <r>   5.9766  1.0000</r>
       <r>   6.0637  1.0000</r>
       <r>   6.0646  1.0000</r>
       <r>   6.0672  1.0000</r>
       <r>   6.0681  1.0000</r>
       <r>   6.1100  1.0000</r>
       <r>   6.1100  1.0000</r>
       <r>   6.8379  1.0000</r>
       <r>   6.8379  1.0000</r>
       <r>   7.6346  1.0000</r>
       <r>   7.6346  1.0000</r>
       <r>   8.2718  1.0000</r>
       <r>   8.2728  1.0000</r>
       <r>   8.2755  1.0000</r>
       <r>   8.2766  1.0000</r>
       <r>   8.2948  1.0000</r>
       <r>   8.2977  1.0000</r>
       <r>   8.2977  1.0000</r>
       <r>   8.3006  1.0000</r>
       <r>   8.3368  1.0000</r>
       <r>   8.3370  1.0000</r>
       <r>   9.0269  0.0068</r>
       <r>   9.0298  0.0020</r>
       <r>   9.0299  0.0020</r>
       <r>   9.0328  0.0005</r>
       <r>   9.7603  0.0000</r>
       <r>   9.7604  0.0000</r>
       <r>   9.9585  0.0000</r>
       <r>   9.9611  0.0000</r>
       <r>   9.9611  0.0000</r>
       <r>   9.9637  0.0000</r>
       <r>   9.9853  0.0000</r>
       <r>  10.8057  0.0000</r>
       <r>  10.8082  0.0000</r>
       <r>  10.8082  0.0000</r>
       <r>  10.8107  0.0000</r>
       <r>  11.7990  0.0000</r>
       <r>  11.7991  0.0000</r>
       <r>  11.9548  0.0000</r>
       <r>  11.9549  0.0000</r>
       <r>  11.9622  0.0000</r>
       <r>  11.9653  0.0000</r>
       <r>  11.9653  0.0000</r>
       <r>  11.9683  0.0000</r>
       <r>  12.5128  0.0000</r>
      </set>
      <set comment="kpoint 10">
       <r>  -2.4481  1.0000</r>
       <r>  -1.6487  1.0000</r>
       <r>  -0.8542  1.0000</r>
       <r>  -0.0662  1.0000</r>
       <r>  -0.0648  1.0000</r>
       <r>  -0.0633  1.0000</r>
       <r>   0.7181  1.0000</r>
       <r>   0.7198  1.0000</r>
       <r>   0.7211  1.0000</r>
       <r>   1.4963  1.0000</r>
       <r>   1.4985  1.0000</r>
       <r>   1.4995  1.0000</r>
       <r>   1.5011  1.0000</r>
       <r>   2.2735  1.0000</r>
       <r>   2.2735  1.0000</r>
       <r>   3.0402  1.0000</r>
       <r>   3.0420  1.0000</r>
       <r>   3.0431  1.0000</r>
       <r>   3.7854  1.0000</r>
       <r>   3.7903  1.0000</r>
       <r>   3.7907  1.0000</r>
       <r>   3.8044  1.0000</r>
       <r>   3.8044  1.0000</r>
       <r>   4.5619  1.0000</r>
       <r>   5.2327  1.0000</r>
       <r>   5.2934  1.0000</r>
       <r>   5.3883  1.0000</r>
       <r>   5.3883  1.0000</r>
       <r>   5.9747  1.0000</r>
       <r>   6.0234  1.0000</r>
       <r>   6.0235  1.0000</r>
       <r>   6.1705  1.0000</r>
       <r>   6.7590  1.0000</r>
       <r>   6.8776  1.0000</r>
       <r>   6.8776  1.0000</r>
       <r>   6.8986  1.0000</r>
       <r>   7.5066  1.0000</r>
       <r>   7.5066  1.0000</r>
       <r>   7.5910  1.0000</r>
       <r>   7.5910  1.0000</r>
       <r>   7.6281  1.0000</r>
       <r>   7.6921  1.0000</r>
       <r>   8.2378  1.0000</r>
       <r>   8.2378  1.0000</r>
       <r>   8.2738  1.0000</r>
       <r>   8.3591  1.0000</r>
       <r>   8.6223  1.0000</r>
       <r>   9.0794  0.0000</r>
       <r>   9.0794  0.0000</r>
       <r>   9.0900  0.0000</r>
       <r>   9.1823  0.0000</r>
       <r>   9.2832  0.0000</r>
       <r>   9.3540  0.0000</r>
       <r>   9.8212  0.0000</r>
       <r>   9.8238  0.0000</r>
       <r>  10.0422  0.0000</r>
       <r>  10.1316  0.0000</r>
       <r>  10.5519  0.0000</r>
       <r>  10.8311  0.0000</r>
       <r>  10.8311  0.0000</r>
       <r>  11.1907  0.0000</r>
       <r>  11.1907  0.0000</r>
       <r>  11.2035  0.0000</r>
       <r>  11.2914  0.0000</r>
       <r>  11.5879  0.0000</r>
       <r>  11.7100  0.0000</r>
       <r>  11.7101  0.0000</r>
       <r>  11.8918  0.0000</r>
       <r>  12.0165  0.0000</r>
       <r>  12.0464  0.0000</r>
       <r>  12.6142  0.0000</r>
       <r>  12.6202  0.0000</r>
      </set>
      <set comment="kpoint 11">
       <r>  -2.2478  1.0000</r>
       <r>  -1.4508  1.0000</r>
       <r>  -1.4484  1.0000</r>
       <r>  -0.6564  1.0000</r>
       <r>   0.1318  1.0000</r>
       <r>   0.1318  1.0000</r>
       <r>   0.9136  1.0000</r>
       <r>   0.9145  1.0000</r>
       <r>   0.9160  1.0000</r>
       <r>   0.9170  1.0000</r>
       <r>   1.6899  1.0000</r>
       <r>   1.6921  1.0000</r>
       <r>   1.6936  1.0000</r>
       <r>   1.6946  1.0000</r>
       <r>   2.4644  1.0000</r>
       <r>   2.4652  1.0000</r>
       <r>   3.9751  1.0000</r>
       <r>   3.9759  1.0000</r>
       <r>   3.9897  1.0000</r>
       <r>   3.9905  1.0000</r>
       <r>   3.9921  1.0000</r>
       <r>   3.9931  1.0000</r>
       <r>   4.5363  1.0000</r>
       <r>   4.5363  1.0000</r>
       <r>   4.7299  1.0000</r>
       <r>   4.7324  1.0000</r>
       <r>   5.0228  1.0000</r>
       <r>   5.0228  1.0000</r>
       <r>   5.4954  1.0000</r>
       <r>   6.0076  1.0000</r>
       <r>   6.0076  1.0000</r>
       <r>   6.3524  1.0000</r>
       <r>   6.4992  1.0000</r>
       <r>   6.4992  1.0000</r>
       <r>   7.0317  1.0000</r>
       <r>   7.0327  1.0000</r>
       <r>   7.0342  1.0000</r>
       <r>   7.0354  1.0000</r>
       <r>   7.0796  1.0000</r>
       <r>   7.0824  1.0000</r>
       <r>   7.5911  1.0000</r>
       <r>   7.5934  1.0000</r>
       <r>   7.8102  1.0000</r>
       <r>   7.8108  1.0000</r>
       <r>   7.8116  1.0000</r>
       <r>   7.8530  1.0000</r>
       <r>   8.8990  1.0000</r>
       <r>   8.9003  1.0000</r>
       <r>   9.5728  0.0000</r>
       <r>  10.0018  0.0000</r>
       <r>  10.0019  0.0000</r>
       <r>  10.0031  0.0000</r>
       <r>  10.0043  0.0000</r>
       <r>  10.0046  0.0000</r>
       <r>  10.0072  0.0000</r>
       <r>  10.0593  0.0000</r>
       <r>  10.2080  0.0000</r>
       <r>  10.2092  0.0000</r>
       <r>  10.7075  0.0000</r>
       <r>  10.7102  0.0000</r>
       <r>  10.7392  0.0000</r>
       <r>  10.7410  0.0000</r>
       <r>  12.0624  0.0000</r>
       <r>  12.0624  0.0000</r>
       <r>  12.1758  0.0000</r>
       <r>  12.1759  0.0000</r>
       <r>  12.2005  0.0000</r>
       <r>  12.2024  0.0000</r>
       <r>  12.2362  0.0000</r>
       <r>  12.2369  0.0000</r>
       <r>  12.4421  0.0000</r>
       <r>  12.4426  0.0000</r>
      </set>
      <set comment="kpoint 12">
       <r>  -1.9161  1.0000</r>
       <r>  -1.9131  1.0000</r>
       <r>  -1.1200  1.0000</r>
       <r>  -1.1170  1.0000</r>
       <r>   0.4567  1.0000</r>
       <r>   0.4579  1.0000</r>
       <r>   0.4598  1.0000</r>
       <r>   0.4610  1.0000</r>
       <r>   1.2381  1.0000</r>
       <r>   1.2393  1.0000</r>
       <r>   1.2412  1.0000</r>
       <r>   1.2424  1.0000</r>
       <r>   2.0128  1.0000</r>
       <r>   2.0158  1.0000</r>
       <r>   2.7802  1.0000</r>
       <r>   2.7813  1.0000</r>
       <r>   3.5457  1.0000</r>
       <r>   3.5468  1.0000</r>
       <r>   4.2896  1.0000</r>
       <r>   4.2908  1.0000</r>
       <r>   4.2923  1.0000</r>
       <r>   4.2927  1.0000</r>
       <r>   4.2939  1.0000</r>
       <r>   4.2954  1.0000</r>
       <r>   5.0406  1.0000</r>
       <r>   5.0414  1.0000</r>
       <r>   5.0415  1.0000</r>
       <r>   5.0424  1.0000</r>
       <r>   5.8852  1.0000</r>
       <r>   5.8853  1.0000</r>
       <r>   5.8863  1.0000</r>
       <r>   5.8864  1.0000</r>
       <r>   6.5258  1.0000</r>
       <r>   6.5267  1.0000</r>
       <r>   6.6105  1.0000</r>
       <r>   6.6114  1.0000</r>
       <r>   6.6135  1.0000</r>
       <r>   6.6145  1.0000</r>
       <r>   6.6542  1.0000</r>
       <r>   6.6575  1.0000</r>
       <r>   7.3833  1.0000</r>
       <r>   7.3866  1.0000</r>
       <r>   8.0175  1.0000</r>
       <r>   8.0197  1.0000</r>
       <r>   8.8570  1.0000</r>
       <r>   8.8573  1.0000</r>
       <r>   8.8583  1.0000</r>
       <r>   8.8586  1.0000</r>
       <r>   9.0743  0.0000</r>
       <r>   9.0749  0.0000</r>
       <r>   9.1451  0.0000</r>
       <r>   9.1479  0.0000</r>
       <r>  10.3097  0.0000</r>
       <r>  10.3131  0.0000</r>
       <r>  10.4620  0.0000</r>
       <r>  10.4651  0.0000</r>
       <r>  11.0388  0.0000</r>
       <r>  11.0390  0.0000</r>
       <r>  11.0403  0.0000</r>
       <r>  11.0404  0.0000</r>
       <r>  11.0419  0.0000</r>
       <r>  11.0441  0.0000</r>
       <r>  11.7784  0.0000</r>
       <r>  11.7806  0.0000</r>
       <r>  11.7986  0.0000</r>
       <r>  11.8018  0.0000</r>
       <r>  11.9376  0.0000</r>
       <r>  11.9382  0.0000</r>
       <r>  12.5077  0.0000</r>
       <r>  12.5112  0.0000</r>
       <r>  12.7367  0.0000</r>
       <r>  12.7380  0.0000</r>
      </set>
      <set comment="kpoint 13">
       <r>  -2.1811  1.0000</r>
       <r>  -2.1811  1.0000</r>
       <r>   0.1918  1.0000</r>
       <r>   0.1967  1.0000</r>
       <r>   0.1973  1.0000</r>
       <r>   0.1973  1.0000</r>
       <r>   0.1973  1.0000</r>
       <r>   0.1973  1.0000</r>
       <r>   0.1978  1.0000</r>
       <r>   0.2027  1.0000</r>
       <r>   2.5228  1.0000</r>
       <r>   2.5242  1.0000</r>
       <r>   2.5278  1.0000</r>
       <r>   2.5281  1.0000</r>
       <r>   2.5299  1.0000</r>
       <r>   2.5301  1.0000</r>
       <r>   2.5306  1.0000</r>
       <r>   2.5310  1.0000</r>
       <r>   2.5326  1.0000</r>
       <r>   2.5346  1.0000</r>
       <r>   4.8051  1.0000</r>
       <r>   4.8058  1.0000</r>
       <r>   4.8086  1.0000</r>
       <r>   4.8086  1.0000</r>
       <r>   4.8086  1.0000</r>
       <r>   4.8086  1.0000</r>
       <r>   4.8114  1.0000</r>
       <r>   4.8120  1.0000</r>
       <r>   6.4130  1.0000</r>
       <r>   6.4131  1.0000</r>
       <r>   6.4131  1.0000</r>
       <r>   6.4131  1.0000</r>
       <r>   7.1162  1.0000</r>
       <r>   7.1179  1.0000</r>
       <r>   7.1180  1.0000</r>
       <r>   7.1181  1.0000</r>
       <r>   7.1206  1.0000</r>
       <r>   7.1207  1.0000</r>
       <r>   7.1207  1.0000</r>
       <r>   7.1225  1.0000</r>
       <r>   7.9368  1.0000</r>
       <r>   7.9369  1.0000</r>
       <r>   7.9369  1.0000</r>
       <r>   7.9369  1.0000</r>
       <r>   8.5974  1.0000</r>
       <r>   8.6021  1.0000</r>
       <r>   8.6026  1.0000</r>
       <r>   8.6027  1.0000</r>
       <r>   8.6027  1.0000</r>
       <r>   8.6027  1.0000</r>
       <r>   8.6032  1.0000</r>
       <r>   8.6079  1.0000</r>
       <r>  10.3382  0.0000</r>
       <r>  10.3420  0.0000</r>
       <r>  10.3426  0.0000</r>
       <r>  10.3426  0.0000</r>
       <r>  10.3426  0.0000</r>
       <r>  10.3426  0.0000</r>
       <r>  10.3432  0.0000</r>
       <r>  10.3470  0.0000</r>
       <r>  10.7975  0.0000</r>
       <r>  10.7975  0.0000</r>
       <r>  10.7975  0.0000</r>
       <r>  10.7975  0.0000</r>
       <r>  11.7501  0.0000</r>
       <r>  11.7501  0.0000</r>
       <r>  12.7369  0.0000</r>
       <r>  12.7369  0.0000</r>
       <r>  12.7370  0.0000</r>
       <r>  12.7370  0.0000</r>
       <r>  13.0053  0.0000</r>
       <r>  13.0069  0.0000</r>
      </set>
      <set comment="kpoint 14">
       <r>  -2.1144  1.0000</r>
       <r>  -2.1144  1.0000</r>
       <r>  -0.5247  1.0000</r>
       <r>  -0.5246  1.0000</r>
       <r>   0.2627  1.0000</r>
       <r>   0.2627  1.0000</r>
       <r>   0.2627  1.0000</r>
       <r>   0.2627  1.0000</r>
       <r>   1.0448  1.0000</r>
       <r>   1.0448  1.0000</r>
       <r>   1.8228  1.0000</r>
       <r>   1.8228  1.0000</r>
       <r>   1.8228  1.0000</r>
       <r>   1.8229  1.0000</r>
       <r>   2.5885  1.0000</r>
       <r>   2.5885  1.0000</r>
       <r>   3.3582  1.0000</r>
       <r>   3.3582  1.0000</r>
       <r>   3.3582  1.0000</r>
       <r>   3.3582  1.0000</r>
       <r>   4.1167  1.0000</r>
       <r>   4.1167  1.0000</r>
       <r>   4.8687  1.0000</r>
       <r>   4.8687  1.0000</r>
       <r>   4.8687  1.0000</r>
       <r>   4.8687  1.0000</r>
       <r>   5.5426  1.0000</r>
       <r>   5.5426  1.0000</r>
       <r>   5.6164  1.0000</r>
       <r>   5.6164  1.0000</r>
       <r>   6.4343  1.0000</r>
       <r>   6.4344  1.0000</r>
       <r>   6.4344  1.0000</r>
       <r>   6.4344  1.0000</r>
       <r>   6.4737  1.0000</r>
       <r>   6.4738  1.0000</r>
       <r>   7.8067  1.0000</r>
       <r>   7.8068  1.0000</r>
       <r>   7.8068  1.0000</r>
       <r>   7.8068  1.0000</r>
       <r>   7.9280  1.0000</r>
       <r>   7.9288  1.0000</r>
       <r>   7.9288  1.0000</r>
       <r>   7.9289  1.0000</r>
       <r>   7.9327  1.0000</r>
       <r>   7.9335  1.0000</r>
       <r>   7.9788  1.0000</r>
       <r>   7.9788  1.0000</r>
       <r>   8.9114  1.0000</r>
       <r>   8.9114  1.0000</r>
       <r>   9.3955  0.0000</r>
       <r>   9.3955  0.0000</r>
       <r>   9.6833  0.0000</r>
       <r>   9.6833  0.0000</r>
       <r>  10.0886  0.0000</r>
       <r>  10.0886  0.0000</r>
       <r>  10.8588  0.0000</r>
       <r>  10.8588  0.0000</r>
       <r>  11.0861  0.0000</r>
       <r>  11.0862  0.0000</r>
       <r>  11.2430  0.0000</r>
       <r>  11.2430  0.0000</r>
       <r>  11.2431  0.0000</r>
       <r>  11.2431  0.0000</r>
       <r>  11.8005  0.0000</r>
       <r>  11.8005  0.0000</r>
       <r>  12.2246  0.0000</r>
       <r>  12.2246  0.0000</r>
       <r>  12.2246  0.0000</r>
       <r>  12.2246  0.0000</r>
       <r>  12.3317  0.0000</r>
       <r>  12.3317  0.0000</r>
      </set>
      <set comment="kpoint 15">
       <r>  -1.9146  1.0000</r>
       <r>  -1.9146  1.0000</r>
       <r>  -1.1185  1.0000</r>
       <r>  -1.1185  1.0000</r>
       <r>   0.4588  1.0000</r>
       <r>   0.4588  1.0000</r>
       <r>   0.4588  1.0000</r>
       <r>   0.4588  1.0000</r>
       <r>   1.2402  1.0000</r>
       <r>   1.2403  1.0000</r>
       <r>   1.2403  1.0000</r>
       <r>   1.2403  1.0000</r>
       <r>   2.0143  1.0000</r>
       <r>   2.0143  1.0000</r>
       <r>   2.7807  1.0000</r>
       <r>   2.7807  1.0000</r>
       <r>   3.5463  1.0000</r>
       <r>   3.5463  1.0000</r>
       <r>   4.2910  1.0000</r>
       <r>   4.2911  1.0000</r>
       <r>   4.2931  1.0000</r>
       <r>   4.2931  1.0000</r>
       <r>   4.2932  1.0000</r>
       <r>   4.2932  1.0000</r>
       <r>   5.0415  1.0000</r>
       <r>   5.0415  1.0000</r>
       <r>   5.0415  1.0000</r>
       <r>   5.0415  1.0000</r>
       <r>   5.8858  1.0000</r>
       <r>   5.8858  1.0000</r>
       <r>   5.8858  1.0000</r>
       <r>   5.8858  1.0000</r>
       <r>   6.5262  1.0000</r>
       <r>   6.5262  1.0000</r>
       <r>   6.6123  1.0000</r>
       <r>   6.6125  1.0000</r>
       <r>   6.6125  1.0000</r>
       <r>   6.6125  1.0000</r>
       <r>   6.6558  1.0000</r>
       <r>   6.6560  1.0000</r>
       <r>   7.3850  1.0000</r>
       <r>   7.3850  1.0000</r>
       <r>   8.0186  1.0000</r>
       <r>   8.0186  1.0000</r>
       <r>   8.8578  1.0000</r>
       <r>   8.8578  1.0000</r>
       <r>   8.8578  1.0000</r>
       <r>   8.8578  1.0000</r>
       <r>   9.0746  0.0000</r>
       <r>   9.0746  0.0000</r>
       <r>   9.1465  0.0000</r>
       <r>   9.1465  0.0000</r>
       <r>  10.3114  0.0000</r>
       <r>  10.3114  0.0000</r>
       <r>  10.4635  0.0000</r>
       <r>  10.4636  0.0000</r>
       <r>  11.0388  0.0000</r>
       <r>  11.0390  0.0000</r>
       <r>  11.0396  0.0000</r>
       <r>  11.0396  0.0000</r>
       <r>  11.0436  0.0000</r>
       <r>  11.0438  0.0000</r>
       <r>  11.7795  0.0000</r>
       <r>  11.7795  0.0000</r>
       <r>  11.8002  0.0000</r>
       <r>  11.8002  0.0000</r>
       <r>  11.9379  0.0000</r>
       <r>  11.9379  0.0000</r>
       <r>  12.5094  0.0000</r>
       <r>  12.5095  0.0000</r>
       <r>  12.7375  0.0000</r>
       <r>  12.7375  0.0000</r>
      </set>
      <set comment="kpoint 16">
       <r>  -1.5850  1.0000</r>
       <r>  -1.5826  1.0000</r>
       <r>  -1.5820  1.0000</r>
       <r>  -1.5795  1.0000</r>
       <r>   0.7812  1.0000</r>
       <r>   0.7834  1.0000</r>
       <r>   0.7846  1.0000</r>
       <r>   0.7849  1.0000</r>
       <r>   0.7852  1.0000</r>
       <r>   0.7855  1.0000</r>
       <r>   0.7867  1.0000</r>
       <r>   0.7889  1.0000</r>
       <r>   3.0964  1.0000</r>
       <r>   3.0981  1.0000</r>
       <r>   3.0999  1.0000</r>
       <r>   3.1003  1.0000</r>
       <r>   3.1004  1.0000</r>
       <r>   3.1008  1.0000</r>
       <r>   3.1026  1.0000</r>
       <r>   3.1043  1.0000</r>
       <r>   5.1476  1.0000</r>
       <r>   5.1493  1.0000</r>
       <r>   5.1500  1.0000</r>
       <r>   5.1507  1.0000</r>
       <r>   5.1508  1.0000</r>
       <r>   5.1513  1.0000</r>
       <r>   5.1521  1.0000</r>
       <r>   5.1538  1.0000</r>
       <r>   5.6509  1.0000</r>
       <r>   5.6514  1.0000</r>
       <r>   5.6520  1.0000</r>
       <r>   5.6531  1.0000</r>
       <r>   5.6532  1.0000</r>
       <r>   5.6542  1.0000</r>
       <r>   5.6549  1.0000</r>
       <r>   5.6554  1.0000</r>
       <r>   6.9564  1.0000</r>
       <r>   6.9592  1.0000</r>
       <r>   6.9597  1.0000</r>
       <r>   6.9625  1.0000</r>
       <r>   7.4745  1.0000</r>
       <r>   7.4749  1.0000</r>
       <r>   7.4767  1.0000</r>
       <r>   7.4772  1.0000</r>
       <r>   8.7969  1.0000</r>
       <r>   8.7981  1.0000</r>
       <r>   8.7990  1.0000</r>
       <r>   8.8002  1.0000</r>
       <r>   9.8977  0.0000</r>
       <r>   9.8984  0.0000</r>
       <r>   9.8988  0.0000</r>
       <r>   9.8988  0.0000</r>
       <r>   9.9001  0.0000</r>
       <r>   9.9001  0.0000</r>
       <r>   9.9005  0.0000</r>
       <r>   9.9012  0.0000</r>
       <r>  11.3441  0.0000</r>
       <r>  11.3478  0.0000</r>
       <r>  11.3496  0.0000</r>
       <r>  11.3499  0.0000</r>
       <r>  11.3499  0.0000</r>
       <r>  11.3503  0.0000</r>
       <r>  11.3521  0.0000</r>
       <r>  11.3557  0.0000</r>
       <r>  12.0674  0.0000</r>
       <r>  12.0694  0.0000</r>
       <r>  12.0711  0.0000</r>
       <r>  12.0711  0.0000</r>
       <r>  12.0715  0.0000</r>
       <r>  12.0716  0.0000</r>
       <r>  12.0733  0.0000</r>
       <r>  12.0752  0.0000</r>
      </set>
      <set comment="kpoint 17">
       <r>  -2.6488  1.0000</r>
       <r>  -1.0524  1.0000</r>
       <r>  -1.0524  1.0000</r>
       <r>  -0.2634  1.0000</r>
       <r>  -0.2600  1.0000</r>
       <r>   0.5236  1.0000</r>
       <r>   0.5236  1.0000</r>
       <r>   0.5243  1.0000</r>
       <r>   1.3024  1.0000</r>
       <r>   1.3044  1.0000</r>
       <r>   1.3058  1.0000</r>
       <r>   1.3078  1.0000</r>
       <r>   2.0805  1.0000</r>
       <r>   2.0805  1.0000</r>
       <r>   2.8468  1.0000</r>
       <r>   2.8484  1.0000</r>
       <r>   2.8502  1.0000</r>
       <r>   2.8503  1.0000</r>
       <r>   2.8517  1.0000</r>
       <r>   2.8537  1.0000</r>
       <r>   3.6158  1.0000</r>
       <r>   4.1673  1.0000</r>
       <r>   4.1673  1.0000</r>
       <r>   4.6372  1.0000</r>
       <r>   4.6373  1.0000</r>
       <r>   5.0464  1.0000</r>
       <r>   5.0464  1.0000</r>
       <r>   5.9402  1.0000</r>
       <r>   5.9437  1.0000</r>
       <r>   5.9887  1.0000</r>
       <r>   6.5261  1.0000</r>
       <r>   6.5261  1.0000</r>
       <r>   7.0899  1.0000</r>
       <r>   7.0899  1.0000</r>
       <r>   7.4454  1.0000</r>
       <r>   7.4455  1.0000</r>
       <r>   7.4631  1.0000</r>
       <r>   7.4633  1.0000</r>
       <r>   7.5104  1.0000</r>
       <r>   7.9206  1.0000</r>
       <r>   7.9206  1.0000</r>
       <r>   8.4434  1.0000</r>
       <r>   8.4434  1.0000</r>
       <r>   8.7905  1.0000</r>
       <r>   8.7927  1.0000</r>
       <r>   8.7944  1.0000</r>
       <r>   8.7965  1.0000</r>
       <r>   8.9068  1.0000</r>
       <r>   8.9068  1.0000</r>
       <r>   8.9080  1.0000</r>
       <r>   9.1248  0.0000</r>
       <r>   9.1249  0.0000</r>
       <r>   9.6210  0.0000</r>
       <r>   9.6210  0.0000</r>
       <r>  10.2309  0.0000</r>
       <r>  10.2309  0.0000</r>
       <r>  10.2695  0.0000</r>
       <r>  10.2702  0.0000</r>
       <r>  10.2735  0.0000</r>
       <r>  10.2741  0.0000</r>
       <r>  10.3740  0.0000</r>
       <r>  10.3740  0.0000</r>
       <r>  10.6992  0.0000</r>
       <r>  11.2164  0.0000</r>
       <r>  11.2164  0.0000</r>
       <r>  11.4879  0.0000</r>
       <r>  11.4880  0.0000</r>
       <r>  11.7778  0.0000</r>
       <r>  11.7779  0.0000</r>
       <r>  11.8431  0.0000</r>
       <r>  12.1707  0.0000</r>
       <r>  12.1707  0.0000</r>
      </set>
      <set comment="kpoint 18">
       <r>  -2.5819  1.0000</r>
       <r>  -0.9880  1.0000</r>
       <r>  -0.9863  1.0000</r>
       <r>  -0.9845  1.0000</r>
       <r>   0.5856  1.0000</r>
       <r>   0.5886  1.0000</r>
       <r>   0.5888  1.0000</r>
       <r>   0.5896  1.0000</r>
       <r>   0.5898  1.0000</r>
       <r>   0.5929  1.0000</r>
       <r>   2.1415  1.0000</r>
       <r>   2.1436  1.0000</r>
       <r>   2.1443  1.0000</r>
       <r>   2.1449  1.0000</r>
       <r>   2.1455  1.0000</r>
       <r>   2.1461  1.0000</r>
       <r>   2.1483  1.0000</r>
       <r>   3.6633  1.0000</r>
       <r>   3.6639  1.0000</r>
       <r>   3.6645  1.0000</r>
       <r>   3.6770  1.0000</r>
       <r>   3.6787  1.0000</r>
       <r>   3.6806  1.0000</r>
       <r>   5.1080  1.0000</r>
       <r>   5.1085  1.0000</r>
       <r>   5.1090  1.0000</r>
       <r>   5.2626  1.0000</r>
       <r>   5.2632  1.0000</r>
       <r>   5.2638  1.0000</r>
       <r>   6.5760  1.0000</r>
       <r>   6.5775  1.0000</r>
       <r>   6.5789  1.0000</r>
       <r>   6.5789  1.0000</r>
       <r>   6.5803  1.0000</r>
       <r>   6.5818  1.0000</r>
       <r>   6.7547  1.0000</r>
       <r>   8.0789  1.0000</r>
       <r>   8.0793  1.0000</r>
       <r>   8.0809  1.0000</r>
       <r>   8.0809  1.0000</r>
       <r>   8.0825  1.0000</r>
       <r>   8.0829  1.0000</r>
       <r>   8.1140  1.0000</r>
       <r>   8.1158  1.0000</r>
       <r>   8.1176  1.0000</r>
       <r>   8.5018  1.0000</r>
       <r>   8.5024  1.0000</r>
       <r>   8.5030  1.0000</r>
       <r>   9.5911  0.0000</r>
       <r>   9.5921  0.0000</r>
       <r>   9.5933  0.0000</r>
       <r>   9.5933  0.0000</r>
       <r>   9.5945  0.0000</r>
       <r>   9.5954  0.0000</r>
       <r>   9.9570  0.0000</r>
       <r>   9.9584  0.0000</r>
       <r>   9.9595  0.0000</r>
       <r>   9.9595  0.0000</r>
       <r>   9.9606  0.0000</r>
       <r>   9.9620  0.0000</r>
       <r>  11.0700  0.0000</r>
       <r>  11.0710  0.0000</r>
       <r>  11.0721  0.0000</r>
       <r>  11.6031  0.0000</r>
       <r>  11.6041  0.0000</r>
       <r>  11.6051  0.0000</r>
       <r>  11.8854  0.0000</r>
       <r>  11.8857  0.0000</r>
       <r>  11.8869  0.0000</r>
       <r>  11.8869  0.0000</r>
       <r>  11.8881  0.0000</r>
       <r>  11.8884  0.0000</r>
      </set>
      <set comment="kpoint 19">
       <r>  -2.3813  1.0000</r>
       <r>  -1.5823  1.0000</r>
       <r>  -0.7882  1.0000</r>
       <r>  -0.7882  1.0000</r>
       <r>   0.0009  1.0000</r>
       <r>   0.0009  1.0000</r>
       <r>   0.7845  1.0000</r>
       <r>   0.7845  1.0000</r>
       <r>   0.7852  1.0000</r>
       <r>   1.5607  1.0000</r>
       <r>   1.5637  1.0000</r>
       <r>   1.5642  1.0000</r>
       <r>   1.5653  1.0000</r>
       <r>   2.3378  1.0000</r>
       <r>   2.3378  1.0000</r>
       <r>   3.1024  1.0000</r>
       <r>   3.1029  1.0000</r>
       <r>   3.1055  1.0000</r>
       <r>   3.1060  1.0000</r>
       <r>   3.8490  1.0000</r>
       <r>   3.8660  1.0000</r>
       <r>   4.4133  1.0000</r>
       <r>   4.6222  1.0000</r>
       <r>   4.6223  1.0000</r>
       <r>   4.8948  1.0000</r>
       <r>   5.2946  1.0000</r>
       <r>   5.2946  1.0000</r>
       <r>   5.3533  1.0000</r>
       <r>   5.3533  1.0000</r>
       <r>   6.0345  1.0000</r>
       <r>   6.0345  1.0000</r>
       <r>   6.1909  1.0000</r>
       <r>   6.1909  1.0000</r>
       <r>   6.6092  1.0000</r>
       <r>   6.6093  1.0000</r>
       <r>   6.9098  1.0000</r>
       <r>   7.0431  1.0000</r>
       <r>   7.0431  1.0000</r>
       <r>   7.5627  1.0000</r>
       <r>   7.5627  1.0000</r>
       <r>   7.6890  1.0000</r>
       <r>   8.2869  1.0000</r>
       <r>   8.2869  1.0000</r>
       <r>   8.3964  1.0000</r>
       <r>   8.3965  1.0000</r>
       <r>   8.6748  1.0000</r>
       <r>   8.6748  1.0000</r>
       <r>   8.8635  1.0000</r>
       <r>   8.8636  1.0000</r>
       <r>   9.0364  0.0001</r>
       <r>   9.0364  0.0001</r>
       <r>   9.6194  0.0000</r>
       <r>   9.6194  0.0000</r>
       <r>   9.8833  0.0000</r>
       <r>  10.0953  0.0000</r>
       <r>  10.2525  0.0000</r>
       <r>  10.2526  0.0000</r>
       <r>  10.5123  0.0000</r>
       <r>  10.5123  0.0000</r>
       <r>  11.0427  0.0000</r>
       <r>  11.0427  0.0000</r>
       <r>  11.2090  0.0000</r>
       <r>  11.2090  0.0000</r>
       <r>  11.2708  0.0000</r>
       <r>  11.2708  0.0000</r>
       <r>  11.9888  0.0000</r>
       <r>  11.9888  0.0000</r>
       <r>  12.3679  0.0000</r>
       <r>  12.3679  0.0000</r>
       <r>  12.4764  0.0000</r>
       <r>  12.4764  0.0000</r>
       <r>  12.6595  0.0000</r>
      </set>
      <set comment="kpoint 20">
       <r>  -2.0493  1.0000</r>
       <r>  -2.0463  1.0000</r>
       <r>  -0.4614  1.0000</r>
       <r>  -0.4593  1.0000</r>
       <r>  -0.4584  1.0000</r>
       <r>  -0.4563  1.0000</r>
       <r>   1.1070  1.0000</r>
       <r>   1.1092  1.0000</r>
       <r>   1.1093  1.0000</r>
       <r>   1.1102  1.0000</r>
       <r>   1.1115  1.0000</r>
       <r>   1.1129  1.0000</r>
       <r>   2.6512  1.0000</r>
       <r>   2.6528  1.0000</r>
       <r>   2.6568  1.0000</r>
       <r>   2.6571  1.0000</r>
       <r>   2.6594  1.0000</r>
       <r>   2.6605  1.0000</r>
       <r>   4.1669  1.0000</r>
       <r>   4.1700  1.0000</r>
       <r>   4.1786  1.0000</r>
       <r>   4.1787  1.0000</r>
       <r>   4.1796  1.0000</r>
       <r>   4.1798  1.0000</r>
       <r>   5.6022  1.0000</r>
       <r>   5.6025  1.0000</r>
       <r>   5.6054  1.0000</r>
       <r>   5.6057  1.0000</r>
       <r>   5.6656  1.0000</r>
       <r>   5.6658  1.0000</r>
       <r>   5.6666  1.0000</r>
       <r>   5.6667  1.0000</r>
       <r>   5.7597  1.0000</r>
       <r>   5.7608  1.0000</r>
       <r>   7.1408  1.0000</r>
       <r>   7.1429  1.0000</r>
       <r>   7.1438  1.0000</r>
       <r>   7.1461  1.0000</r>
       <r>   7.2420  1.0000</r>
       <r>   7.2426  1.0000</r>
       <r>   7.2432  1.0000</r>
       <r>   7.2439  1.0000</r>
       <r>   8.5994  1.0000</r>
       <r>   8.6002  1.0000</r>
       <r>   8.6027  1.0000</r>
       <r>   8.6035  1.0000</r>
       <r>   8.7363  1.0000</r>
       <r>   8.7376  1.0000</r>
       <r>   8.9272  1.0000</r>
       <r>   8.9280  1.0000</r>
       <r>   8.9301  1.0000</r>
       <r>   8.9309  1.0000</r>
       <r>  10.1784  0.0000</r>
       <r>  10.1789  0.0000</r>
       <r>  10.1799  0.0000</r>
       <r>  10.1804  0.0000</r>
       <r>  10.5931  0.0000</r>
       <r>  10.5942  0.0000</r>
       <r>  10.5963  0.0000</r>
       <r>  10.5973  0.0000</r>
       <r>  11.5451  0.0000</r>
       <r>  11.5456  0.0000</r>
       <r>  11.5468  0.0000</r>
       <r>  11.5473  0.0000</r>
       <r>  11.8306  0.0000</r>
       <r>  11.8313  0.0000</r>
       <r>  11.9467  0.0000</r>
       <r>  11.9490  0.0000</r>
       <r>  11.9501  0.0000</r>
       <r>  11.9524  0.0000</r>
       <r>  12.9874  0.0000</r>
       <r>  13.0116  0.0000</r>
      </set>
      <set comment="kpoint 21">
       <r>  -2.4481  1.0000</r>
       <r>  -1.6487  1.0000</r>
       <r>  -0.8542  1.0000</r>
       <r>  -0.0670  1.0000</r>
       <r>  -0.0647  1.0000</r>
       <r>  -0.0625  1.0000</r>
       <r>   0.7175  1.0000</r>
       <r>   0.7195  1.0000</r>
       <r>   0.7220  1.0000</r>
       <r>   1.4963  1.0000</r>
       <r>   1.4984  1.0000</r>
       <r>   1.4991  1.0000</r>
       <r>   1.5016  1.0000</r>
       <r>   2.2718  1.0000</r>
       <r>   2.2753  1.0000</r>
       <r>   3.0401  1.0000</r>
       <r>   3.0414  1.0000</r>
       <r>   3.0438  1.0000</r>
       <r>   3.7853  1.0000</r>
       <r>   3.7890  1.0000</r>
       <r>   3.7922  1.0000</r>
       <r>   3.8027  1.0000</r>
       <r>   3.8061  1.0000</r>
       <r>   4.5619  1.0000</r>
       <r>   5.2327  1.0000</r>
       <r>   5.2934  1.0000</r>
       <r>   5.3866  1.0000</r>
       <r>   5.3900  1.0000</r>
       <r>   5.9747  1.0000</r>
       <r>   6.0217  1.0000</r>
       <r>   6.0251  1.0000</r>
       <r>   6.1705  1.0000</r>
       <r>   6.7589  1.0000</r>
       <r>   6.8758  1.0000</r>
       <r>   6.8794  1.0000</r>
       <r>   6.8987  1.0000</r>
       <r>   7.5048  1.0000</r>
       <r>   7.5084  1.0000</r>
       <r>   7.5891  1.0000</r>
       <r>   7.5928  1.0000</r>
       <r>   7.6281  1.0000</r>
       <r>   7.6921  1.0000</r>
       <r>   8.2359  1.0000</r>
       <r>   8.2397  1.0000</r>
       <r>   8.2738  1.0000</r>
       <r>   8.3591  1.0000</r>
       <r>   8.6223  1.0000</r>
       <r>   9.0775  0.0000</r>
       <r>   9.0813  0.0000</r>
       <r>   9.0900  0.0000</r>
       <r>   9.1823  0.0000</r>
       <r>   9.2832  0.0000</r>
       <r>   9.3540  0.0000</r>
       <r>   9.8216  0.0000</r>
       <r>   9.8235  0.0000</r>
       <r>  10.0422  0.0000</r>
       <r>  10.1316  0.0000</r>
       <r>  10.5518  0.0000</r>
       <r>  10.8299  0.0000</r>
       <r>  10.8323  0.0000</r>
       <r>  11.1887  0.0000</r>
       <r>  11.1927  0.0000</r>
       <r>  11.2035  0.0000</r>
       <r>  11.2914  0.0000</r>
       <r>  11.5879  0.0000</r>
       <r>  11.7085  0.0000</r>
       <r>  11.7116  0.0000</r>
       <r>  11.8918  0.0000</r>
       <r>  12.0165  0.0000</r>
       <r>  12.0464  0.0000</r>
       <r>  12.6137  0.0000</r>
       <r>  12.6202  0.0000</r>
      </set>
      <set comment="kpoint 22">
       <r>  -2.3813  1.0000</r>
       <r>  -1.5823  1.0000</r>
       <r>  -0.7895  1.0000</r>
       <r>  -0.7870  1.0000</r>
       <r>  -0.0003  1.0000</r>
       <r>   0.0021  1.0000</r>
       <r>   0.7827  1.0000</r>
       <r>   0.7848  1.0000</r>
       <r>   0.7866  1.0000</r>
       <r>   1.5615  1.0000</r>
       <r>   1.5625  1.0000</r>
       <r>   1.5640  1.0000</r>
       <r>   1.5659  1.0000</r>
       <r>   2.3373  1.0000</r>
       <r>   2.3382  1.0000</r>
       <r>   3.1028  1.0000</r>
       <r>   3.1036  1.0000</r>
       <r>   3.1042  1.0000</r>
       <r>   3.1064  1.0000</r>
       <r>   3.8491  1.0000</r>
       <r>   3.8659  1.0000</r>
       <r>   4.4133  1.0000</r>
       <r>   4.6210  1.0000</r>
       <r>   4.6235  1.0000</r>
       <r>   4.8948  1.0000</r>
       <r>   5.2943  1.0000</r>
       <r>   5.2950  1.0000</r>
       <r>   5.3519  1.0000</r>
       <r>   5.3546  1.0000</r>
       <r>   6.0341  1.0000</r>
       <r>   6.0349  1.0000</r>
       <r>   6.1904  1.0000</r>
       <r>   6.1913  1.0000</r>
       <r>   6.6080  1.0000</r>
       <r>   6.6105  1.0000</r>
       <r>   6.9098  1.0000</r>
       <r>   7.0418  1.0000</r>
       <r>   7.0444  1.0000</r>
       <r>   7.5614  1.0000</r>
       <r>   7.5640  1.0000</r>
       <r>   7.6890  1.0000</r>
       <r>   8.2862  1.0000</r>
       <r>   8.2877  1.0000</r>
       <r>   8.3959  1.0000</r>
       <r>   8.3970  1.0000</r>
       <r>   8.6743  1.0000</r>
       <r>   8.6753  1.0000</r>
       <r>   8.8628  1.0000</r>
       <r>   8.8643  1.0000</r>
       <r>   9.0357  0.0001</r>
       <r>   9.0372  0.0000</r>
       <r>   9.6193  0.0000</r>
       <r>   9.6194  0.0000</r>
       <r>   9.8833  0.0000</r>
       <r>  10.0953  0.0000</r>
       <r>  10.2517  0.0000</r>
       <r>  10.2534  0.0000</r>
       <r>  10.5110  0.0000</r>
       <r>  10.5137  0.0000</r>
       <r>  11.0420  0.0000</r>
       <r>  11.0435  0.0000</r>
       <r>  11.2076  0.0000</r>
       <r>  11.2104  0.0000</r>
       <r>  11.2704  0.0000</r>
       <r>  11.2711  0.0000</r>
       <r>  11.9881  0.0000</r>
       <r>  11.9895  0.0000</r>
       <r>  12.3669  0.0000</r>
       <r>  12.3688  0.0000</r>
       <r>  12.4751  0.0000</r>
       <r>  12.4778  0.0000</r>
       <r>  12.6524  0.0000</r>
      </set>
      <set comment="kpoint 23">
       <r>  -2.1811  1.0000</r>
       <r>  -1.3845  1.0000</r>
       <r>  -1.3821  1.0000</r>
       <r>  -0.5915  1.0000</r>
       <r>  -0.5894  1.0000</r>
       <r>   0.1962  1.0000</r>
       <r>   0.1987  1.0000</r>
       <r>   0.9795  1.0000</r>
       <r>   0.9808  1.0000</r>
       <r>   1.7541  1.0000</r>
       <r>   1.7565  1.0000</r>
       <r>   1.7573  1.0000</r>
       <r>   1.7598  1.0000</r>
       <r>   2.5279  1.0000</r>
       <r>   2.5290  1.0000</r>
       <r>   2.5308  1.0000</r>
       <r>   3.2943  1.0000</r>
       <r>   3.2968  1.0000</r>
       <r>   4.0379  1.0000</r>
       <r>   4.0387  1.0000</r>
       <r>   4.0410  1.0000</r>
       <r>   4.0418  1.0000</r>
       <r>   4.7919  1.0000</r>
       <r>   4.7944  1.0000</r>
       <r>   4.7945  1.0000</r>
       <r>   4.7970  1.0000</r>
       <r>   5.4799  1.0000</r>
       <r>   5.5247  1.0000</r>
       <r>   5.5256  1.0000</r>
       <r>   5.5451  1.0000</r>
       <r>   5.6400  1.0000</r>
       <r>   5.6408  1.0000</r>
       <r>   6.2068  1.0000</r>
       <r>   6.2096  1.0000</r>
       <r>   6.3634  1.0000</r>
       <r>   6.3660  1.0000</r>
       <r>   7.0211  1.0000</r>
       <r>   7.1002  1.0000</r>
       <r>   7.1011  1.0000</r>
       <r>   7.1241  1.0000</r>
       <r>   7.7842  1.0000</r>
       <r>   7.7859  1.0000</r>
       <r>   7.8352  1.0000</r>
       <r>   7.8378  1.0000</r>
       <r>   8.6199  1.0000</r>
       <r>   8.8043  1.0000</r>
       <r>   9.1825  0.0000</r>
       <r>   9.1854  0.0000</r>
       <r>   9.3204  0.0000</r>
       <r>   9.3218  0.0000</r>
       <r>   9.7506  0.0000</r>
       <r>   9.7525  0.0000</r>
       <r>   9.9535  0.0000</r>
       <r>   9.9549  0.0000</r>
       <r>  10.1556  0.0000</r>
       <r>  10.2336  0.0000</r>
       <r>  10.2350  0.0000</r>
       <r>  10.4886  0.0000</r>
       <r>  10.8043  0.0000</r>
       <r>  10.8057  0.0000</r>
       <r>  11.0058  0.0000</r>
       <r>  11.0078  0.0000</r>
       <r>  11.4879  0.0000</r>
       <r>  11.4889  0.0000</r>
       <r>  11.4962  0.0000</r>
       <r>  11.7480  0.0000</r>
       <r>  11.7485  0.0000</r>
       <r>  12.1128  0.0000</r>
       <r>  12.1157  0.0000</r>
       <r>  12.5901  0.0000</r>
       <r>  12.5915  0.0000</r>
       <r>  12.9282  0.0000</r>
      </set>
      <set comment="kpoint 24">
       <r>  -1.8496  1.0000</r>
       <r>  -1.8466  1.0000</r>
       <r>  -1.0539  1.0000</r>
       <r>  -1.0508  1.0000</r>
       <r>  -0.2631  1.0000</r>
       <r>  -0.2601  1.0000</r>
       <r>   0.5228  1.0000</r>
[...]
       <r>   8.0186  1.0000</r>
       <r>   8.8555  1.0000</r>
       <r>   8.8563  1.0000</r>
       <r>   8.8592  1.0000</r>
       <r>   8.8600  1.0000</r>
       <r>   9.0746  0.0000</r>
       <r>   9.0746  0.0000</r>
       <r>   9.1464  0.0000</r>
       <r>   9.1465  0.0000</r>
       <r>  10.3113  0.0000</r>
       <r>  10.3114  0.0000</r>
       <r>  10.4636  0.0000</r>
       <r>  10.4636  0.0000</r>
       <r>  11.0373  0.0000</r>
       <r>  11.0379  0.0000</r>
       <r>  11.0413  0.0000</r>
       <r>  11.0415  0.0000</r>
       <r>  11.0431  0.0000</r>
       <r>  11.0435  0.0000</r>
       <r>  11.7793  0.0000</r>
       <r>  11.7794  0.0000</r>
       <r>  11.8003  0.0000</r>
       <r>  11.8004  0.0000</r>
       <r>  11.9379  0.0000</r>
       <r>  11.9379  0.0000</r>
       <r>  12.5094  0.0000</r>
       <r>  12.5094  0.0000</r>
       <r>  12.7375  0.0000</r>
       <r>  12.7391  0.0000</r>
      </set>
      <set comment="kpoint 34">
       <r>  -1.8481  1.0000</r>
       <r>  -1.8481  1.0000</r>
       <r>  -1.0524  1.0000</r>
       <r>  -1.0524  1.0000</r>
       <r>  -0.2616  1.0000</r>
       <r>  -0.2616  1.0000</r>
       <r>   0.5244  1.0000</r>
       <r>   0.5244  1.0000</r>
       <r>   1.3045  1.0000</r>
       <r>   1.3045  1.0000</r>
       <r>   2.0782  1.0000</r>
       <r>   2.0787  1.0000</r>
       <r>   2.0803  1.0000</r>
       <r>   2.0808  1.0000</r>
       <r>   2.8447  1.0000</r>
       <r>   2.8447  1.0000</r>
       <r>   3.6093  1.0000</r>
       <r>   3.6096  1.0000</r>
       <r>   3.6108  1.0000</r>
       <r>   3.6111  1.0000</r>
       <r>   4.3538  1.0000</r>
       <r>   4.3539  1.0000</r>
       <r>   4.3651  1.0000</r>
       <r>   4.3651  1.0000</r>
       <r>   4.9050  1.0000</r>
       <r>   4.9050  1.0000</r>
       <r>   5.4028  1.0000</r>
       <r>   5.4028  1.0000</r>
       <r>   5.6407  1.0000</r>
       <r>   5.6407  1.0000</r>
       <r>   5.7869  1.0000</r>
       <r>   5.7869  1.0000</r>
       <r>   6.1411  1.0000</r>
       <r>   6.1411  1.0000</r>
       <r>   6.3651  1.0000</r>
       <r>   6.3651  1.0000</r>
       <r>   6.6831  1.0000</r>
       <r>   6.6831  1.0000</r>
       <r>   6.8122  1.0000</r>
       <r>   6.8122  1.0000</r>
       <r>   7.4022  1.0000</r>
       <r>   7.4022  1.0000</r>
       <r>   8.1729  1.0000</r>
       <r>   8.1729  1.0000</r>
       <r>   8.6438  1.0000</r>
       <r>   8.6438  1.0000</r>
       <r>   9.4927  0.0000</r>
       <r>   9.4929  0.0000</r>
       <r>   9.5148  0.0000</r>
       <r>   9.5150  0.0000</r>
       <r>   9.6635  0.0000</r>
       <r>   9.6635  0.0000</r>
       <r>  10.0552  0.0000</r>
       <r>  10.0553  0.0000</r>
       <r>  10.0925  0.0000</r>
       <r>  10.0925  0.0000</r>
       <r>  10.3587  0.0000</r>
       <r>  10.3587  0.0000</r>
       <r>  10.7757  0.0000</r>
       <r>  10.7758  0.0000</r>
       <r>  10.9853  0.0000</r>
       <r>  10.9853  0.0000</r>
       <r>  11.5673  0.0000</r>
       <r>  11.5673  0.0000</r>
       <r>  11.8391  0.0000</r>
       <r>  11.8391  0.0000</r>
       <r>  12.1363  0.0000</r>
       <r>  12.1363  0.0000</r>
       <r>  12.2135  0.0000</r>
       <r>  12.2136  0.0000</r>
       <r>  12.4482  0.0000</r>
       <r>  12.4482  0.0000</r>
      </set>
      <set comment="kpoint 35">
       <r>  -1.6487  1.0000</r>
       <r>  -1.6487  1.0000</r>
       <r>  -0.8565  1.0000</r>
       <r>  -0.8544  1.0000</r>
       <r>  -0.8540  1.0000</r>
       <r>  -0.8519  1.0000</r>
       <r>  -0.0646  1.0000</r>
       <r>  -0.0646  1.0000</r>
       <r>   2.2696  1.0000</r>
       <r>   2.2717  1.0000</r>
       <r>   2.2720  1.0000</r>
       <r>   2.2741  1.0000</r>
       <r>   3.0354  1.0000</r>
       <r>   3.0362  1.0000</r>
       <r>   3.0399  1.0000</r>
       <r>   3.0401  1.0000</r>
       <r>   3.0405  1.0000</r>
       <r>   3.0415  1.0000</r>
       <r>   3.7977  1.0000</r>
       <r>   3.7978  1.0000</r>
       <r>   3.8003  1.0000</r>
       <r>   3.8004  1.0000</r>
       <r>   4.5380  1.0000</r>
       <r>   4.5390  1.0000</r>
       <r>   4.5414  1.0000</r>
       <r>   4.5416  1.0000</r>
       <r>   4.5420  1.0000</r>
       <r>   4.5431  1.0000</r>
       <r>   5.2729  1.0000</r>
       <r>   5.2749  1.0000</r>
       <r>   5.2754  1.0000</r>
       <r>   5.2774  1.0000</r>
       <r>   6.1399  1.0000</r>
       <r>   6.1399  1.0000</r>
       <r>   6.8720  1.0000</r>
       <r>   6.8720  1.0000</r>
       <r>   6.8746  1.0000</r>
       <r>   6.8747  1.0000</r>
       <r>   7.6104  1.0000</r>
       <r>   7.6114  1.0000</r>
       <r>   7.6114  1.0000</r>
       <r>   7.6123  1.0000</r>
       <r>   8.3204  1.0000</r>
       <r>   8.3214  1.0000</r>
       <r>   8.3218  1.0000</r>
       <r>   8.3228  1.0000</r>
       <r>   9.0100  0.4682</r>
       <r>   9.0107  0.4293</r>
       <r>   9.0113  0.3997</r>
       <r>   9.0120  0.3623</r>
       <r>   9.7958  0.0000</r>
       <r>   9.7959  0.0000</r>
       <r>   9.7985  0.0000</r>
       <r>   9.7986  0.0000</r>
       <r>  10.4717  0.0000</r>
       <r>  10.4717  0.0000</r>
       <r>  10.5867  0.0000</r>
       <r>  10.5867  0.0000</r>
       <r>  10.8930  0.0000</r>
       <r>  10.8931  0.0000</r>
       <r>  10.8935  0.0000</r>
       <r>  10.8937  0.0000</r>
       <r>  11.6064  0.0000</r>
       <r>  11.6075  0.0000</r>
       <r>  11.6079  0.0000</r>
       <r>  11.6089  0.0000</r>
       <r>  12.3280  0.0000</r>
       <r>  12.3280  0.0000</r>
       <r>  12.7538  0.0000</r>
       <r>  12.7545  0.0000</r>
       <r>  12.7551  0.0000</r>
       <r>  12.7559  0.0000</r>
      </set>
      <set comment="kpoint 36">
       <r>  -1.3198  1.0000</r>
       <r>  -1.3173  1.0000</r>
       <r>  -1.3168  1.0000</r>
       <r>  -1.3143  1.0000</r>
       <r>  -0.5273  1.0000</r>
       <r>  -0.5249  1.0000</r>
       <r>  -0.5243  1.0000</r>
       <r>  -0.5218  1.0000</r>
       <r>   2.5900  1.0000</r>
       <r>   2.5926  1.0000</r>
       <r>   2.5931  1.0000</r>
       <r>   2.5956  1.0000</r>
       <r>   3.3511  1.0000</r>
       <r>   3.3528  1.0000</r>
       <r>   3.3546  1.0000</r>
       <r>   3.3550  1.0000</r>
       <r>   3.3550  1.0000</r>
       <r>   3.3554  1.0000</r>
       <r>   3.3573  1.0000</r>
       <r>   3.3590  1.0000</r>
       <r>   4.1083  1.0000</r>
       <r>   4.1101  1.0000</r>
       <r>   4.1119  1.0000</r>
       <r>   4.1123  1.0000</r>
       <r>   4.1123  1.0000</r>
       <r>   4.1127  1.0000</r>
       <r>   4.1145  1.0000</r>
       <r>   4.1163  1.0000</r>
       <r>   4.8492  1.0000</r>
       <r>   4.8518  1.0000</r>
       <r>   4.8524  1.0000</r>
       <r>   4.8550  1.0000</r>
       <r>   7.1717  1.0000</r>
       <r>   7.1732  1.0000</r>
       <r>   7.1754  1.0000</r>
       <r>   7.1757  1.0000</r>
       <r>   7.1757  1.0000</r>
       <r>   7.1760  1.0000</r>
       <r>   7.1782  1.0000</r>
       <r>   7.1798  1.0000</r>
       <r>   7.8933  1.0000</r>
       <r>   7.8944  1.0000</r>
       <r>   7.8947  1.0000</r>
       <r>   7.8959  1.0000</r>
       <r>   8.6535  1.0000</r>
       <r>   8.6548  1.0000</r>
       <r>   8.6549  1.0000</r>
       <r>   8.6562  1.0000</r>
       <r>   9.3482  0.0000</r>
       <r>   9.3503  0.0000</r>
       <r>   9.3524  0.0000</r>
       <r>   9.3527  0.0000</r>
       <r>   9.3527  0.0000</r>
       <r>   9.3530  0.0000</r>
       <r>   9.3552  0.0000</r>
       <r>   9.3573  0.0000</r>
       <r>  11.1855  0.0000</r>
       <r>  11.1877  0.0000</r>
       <r>  11.1886  0.0000</r>
       <r>  11.1908  0.0000</r>
       <r>  11.6203  0.0000</r>
       <r>  11.6217  0.0000</r>
       <r>  11.6218  0.0000</r>
       <r>  11.6232  0.0000</r>
       <r>  12.6008  0.0000</r>
       <r>  12.6019  0.0000</r>
       <r>  12.6020  0.0000</r>
       <r>  12.6033  0.0000</r>
       <r>  12.6036  0.0000</r>
       <r>  12.6049  0.0000</r>
       <r>  12.6050  0.0000</r>
       <r>  12.6060  0.0000</r>
      </set>
      <set comment="kpoint 37">
       <r>  -1.5823  1.0000</r>
       <r>  -1.5823  1.0000</r>
       <r>  -1.5823  1.0000</r>
       <r>  -1.5823  1.0000</r>
       <r>   0.7798  1.0000</r>
       <r>   0.7843  1.0000</r>
       <r>   0.7843  1.0000</r>
       <r>   0.7850  1.0000</r>
       <r>   0.7852  1.0000</r>
       <r>   0.7858  1.0000</r>
       <r>   0.7858  1.0000</r>
       <r>   0.7903  1.0000</r>
       <r>   3.1003  1.0000</r>
       <r>   3.1004  1.0000</r>
       <r>   3.1004  1.0000</r>
       <r>   3.1004  1.0000</r>
       <r>   3.1004  1.0000</r>
       <r>   3.1004  1.0000</r>
       <r>   3.1004  1.0000</r>
       <r>   3.1004  1.0000</r>
       <r>   5.1491  1.0000</r>
       <r>   5.1491  1.0000</r>
       <r>   5.1507  1.0000</r>
       <r>   5.1507  1.0000</r>
       <r>   5.1507  1.0000</r>
       <r>   5.1507  1.0000</r>
       <r>   5.1523  1.0000</r>
       <r>   5.1523  1.0000</r>
       <r>   5.6512  1.0000</r>
       <r>   5.6512  1.0000</r>
       <r>   5.6531  1.0000</r>
       <r>   5.6531  1.0000</r>
       <r>   5.6531  1.0000</r>
       <r>   5.6532  1.0000</r>
       <r>   5.6550  1.0000</r>
       <r>   5.6550  1.0000</r>
       <r>   6.9595  1.0000</r>
       <r>   6.9595  1.0000</r>
       <r>   6.9595  1.0000</r>
       <r>   6.9595  1.0000</r>
       <r>   7.4758  1.0000</r>
       <r>   7.4758  1.0000</r>
       <r>   7.4758  1.0000</r>
       <r>   7.4758  1.0000</r>
       <r>   8.7985  1.0000</r>
       <r>   8.7985  1.0000</r>
       <r>   8.7985  1.0000</r>
       <r>   8.7986  1.0000</r>
       <r>   9.8971  0.0000</r>
       <r>   9.8971  0.0000</r>
       <r>   9.8973  0.0000</r>
       <r>   9.8987  0.0000</r>
       <r>   9.9002  0.0000</r>
       <r>   9.9016  0.0000</r>
       <r>   9.9018  0.0000</r>
       <r>   9.9018  0.0000</r>
       <r>  11.3499  0.0000</r>
       <r>  11.3499  0.0000</r>
       <r>  11.3499  0.0000</r>
       <r>  11.3499  0.0000</r>
       <r>  11.3499  0.0000</r>
       <r>  11.3499  0.0000</r>
       <r>  11.3499  0.0000</r>
       <r>  11.3500  0.0000</r>
       <r>  12.0713  0.0000</r>
       <r>  12.0713  0.0000</r>
       <r>  12.0713  0.0000</r>
       <r>  12.0713  0.0000</r>
       <r>  12.0713  0.0000</r>
       <r>  12.0713  0.0000</r>
       <r>  12.0714  0.0000</r>
       <r>  12.0714  0.0000</r>
      </set>
      <set comment="kpoint 38">
       <r>  -1.5159  1.0000</r>
       <r>  -1.5159  1.0000</r>
       <r>  -1.5159  1.0000</r>
       <r>  -1.5159  1.0000</r>
       <r>   0.0665  1.0000</r>
       <r>   0.0665  1.0000</r>
       <r>   0.0665  1.0000</r>
       <r>   0.0665  1.0000</r>
       <r>   1.6284  1.0000</r>
       <r>   1.6284  1.0000</r>
       <r>   1.6284  1.0000</r>
       <r>   1.6284  1.0000</r>
       <r>   3.1641  1.0000</r>
       <r>   3.1641  1.0000</r>
       <r>   3.1641  1.0000</r>
       <r>   3.1641  1.0000</r>
       <r>   3.1641  1.0000</r>
       <r>   3.1641  1.0000</r>
       <r>   3.1641  1.0000</r>
       <r>   3.1641  1.0000</r>
       <r>   4.6646  1.0000</r>
       <r>   4.6646  1.0000</r>
       <r>   4.6650  1.0000</r>
       <r>   4.6650  1.0000</r>
       <r>   4.6650  1.0000</r>
       <r>   4.6650  1.0000</r>
       <r>   4.6654  1.0000</r>
       <r>   4.6654  1.0000</r>
       <r>   6.0843  1.0000</r>
       <r>   6.0843  1.0000</r>
       <r>   6.0844  1.0000</r>
       <r>   6.0844  1.0000</r>
       <r>   6.2595  1.0000</r>
       <r>   6.2595  1.0000</r>
       <r>   6.2602  1.0000</r>
       <r>   6.2602  1.0000</r>
       <r>   6.2603  1.0000</r>
       <r>   6.2603  1.0000</r>
       <r>   6.2610  1.0000</r>
       <r>   6.2610  1.0000</r>
       <r>   7.6751  1.0000</r>
       <r>   7.6751  1.0000</r>
       <r>   7.6751  1.0000</r>
       <r>   7.6751  1.0000</r>
       <r>   9.2165  0.0000</r>
       <r>   9.2165  0.0000</r>
       <r>   9.2165  0.0000</r>
       <r>   9.2165  0.0000</r>
       <r>   9.6498  0.0000</r>
       <r>   9.6498  0.0000</r>
       <r>   9.6498  0.0000</r>
       <r>   9.6498  0.0000</r>
       <r>  10.5325  0.0000</r>
       <r>  10.5325  0.0000</r>
       <r>  10.5332  0.0000</r>
       <r>  10.5332  0.0000</r>
       <r>  10.5333  0.0000</r>
       <r>  10.5333  0.0000</r>
       <r>  10.5340  0.0000</r>
       <r>  10.5340  0.0000</r>
       <r>  10.7022  0.0000</r>
       <r>  10.7022  0.0000</r>
       <r>  10.7022  0.0000</r>
       <r>  10.7022  0.0000</r>
       <r>  12.3474  0.0000</r>
       <r>  12.3474  0.0000</r>
       <r>  12.3487  0.0000</r>
       <r>  12.3487  0.0000</r>
       <r>  12.3487  0.0000</r>
       <r>  12.3487  0.0000</r>
       <r>  12.3500  0.0000</r>
       <r>  12.3500  0.0000</r>
      </set>
      <set comment="kpoint 39">
       <r>  -1.3171  1.0000</r>
       <r>  -1.3171  1.0000</r>
       <r>  -1.3171  1.0000</r>
       <r>  -1.3170  1.0000</r>
       <r>  -0.5246  1.0000</r>
       <r>  -0.5246  1.0000</r>
       <r>  -0.5246  1.0000</r>
       <r>  -0.5246  1.0000</r>
       <r>   2.5928  1.0000</r>
       <r>   2.5928  1.0000</r>
       <r>   2.5928  1.0000</r>
       <r>   2.5929  1.0000</r>
       <r>   3.3550  1.0000</r>
       <r>   3.3550  1.0000</r>
       <r>   3.3550  1.0000</r>
       <r>   3.3550  1.0000</r>
       <r>   3.3550  1.0000</r>
       <r>   3.3550  1.0000</r>
       <r>   3.3551  1.0000</r>
       <r>   3.3551  1.0000</r>
       <r>   4.1121  1.0000</r>
       <r>   4.1121  1.0000</r>
       <r>   4.1123  1.0000</r>
       <r>   4.1123  1.0000</r>
       <r>   4.1123  1.0000</r>
       <r>   4.1123  1.0000</r>
       <r>   4.1125  1.0000</r>
       <r>   4.1125  1.0000</r>
       <r>   4.8521  1.0000</r>
       <r>   4.8521  1.0000</r>
       <r>   4.8521  1.0000</r>
       <r>   4.8522  1.0000</r>
       <r>   7.1752  1.0000</r>
       <r>   7.1752  1.0000</r>
       <r>   7.1757  1.0000</r>
       <r>   7.1757  1.0000</r>
       <r>   7.1757  1.0000</r>
       <r>   7.1757  1.0000</r>
       <r>   7.1762  1.0000</r>
       <r>   7.1762  1.0000</r>
       <r>   7.8946  1.0000</r>
       <r>   7.8946  1.0000</r>
       <r>   7.8946  1.0000</r>
       <r>   7.8946  1.0000</r>
       <r>   8.6549  1.0000</r>
       <r>   8.6549  1.0000</r>
       <r>   8.6549  1.0000</r>
       <r>   8.6549  1.0000</r>
       <r>   9.3522  0.0000</r>
       <r>   9.3522  0.0000</r>
       <r>   9.3527  0.0000</r>
       <r>   9.3527  0.0000</r>
       <r>   9.3527  0.0000</r>
       <r>   9.3528  0.0000</r>
       <r>   9.3533  0.0000</r>
       <r>   9.3533  0.0000</r>
       <r>  11.1882  0.0000</r>
       <r>  11.1882  0.0000</r>
       <r>  11.1882  0.0000</r>
       <r>  11.1882  0.0000</r>
       <r>  11.6218  0.0000</r>
       <r>  11.6218  0.0000</r>
       <r>  11.6218  0.0000</r>
       <r>  11.6218  0.0000</r>
       <r>  12.6025  0.0000</r>
       <r>  12.6025  0.0000</r>
       <r>  12.6034  0.0000</r>
       <r>  12.6034  0.0000</r>
       <r>  12.6034  0.0000</r>
       <r>  12.6034  0.0000</r>
       <r>  12.6043  0.0000</r>
       <r>  12.6043  0.0000</r>
      </set>
      <set comment="kpoint 40">
       <r>  -0.9913  1.0000</r>
       <r>  -0.9868  1.0000</r>
       <r>  -0.9868  1.0000</r>
       <r>  -0.9864  1.0000</r>
       <r>  -0.9862  1.0000</r>
       <r>  -0.9858  1.0000</r>
       <r>  -0.9858  1.0000</r>
       <r>  -0.9813  1.0000</r>
       <r>   3.6617  1.0000</r>
       <r>   3.6676  1.0000</r>
       <r>   3.6676  1.0000</r>
       <r>   3.6711  1.0000</r>
       <r>   3.6714  1.0000</r>
       <r>   3.6715  1.0000</r>
       <r>   3.6719  1.0000</r>
       <r>   3.6719  1.0000</r>
       <r>   3.6719  1.0000</r>
       <r>   3.6720  1.0000</r>
       <r>   3.6720  1.0000</r>
       <r>   3.6720  1.0000</r>
       <r>   3.6720  1.0000</r>
       <r>   3.6721  1.0000</r>
       <r>   3.6721  1.0000</r>
       <r>   3.6721  1.0000</r>
       <r>   3.6721  1.0000</r>
       <r>   3.6721  1.0000</r>
       <r>   3.6725  1.0000</r>
       <r>   3.6727  1.0000</r>
       <r>   3.6730  1.0000</r>
       <r>   3.6764  1.0000</r>
       <r>   3.6764  1.0000</r>
       <r>   3.6824  1.0000</r>
       <r>   8.2086  1.0000</r>
       <r>   8.2086  1.0000</r>
       <r>   8.2110  1.0000</r>
       <r>   8.2125  1.0000</r>
       <r>   8.2142  1.0000</r>
       <r>   8.2146  1.0000</r>
       <r>   8.2147  1.0000</r>
       <r>   8.2147  1.0000</r>
       <r>   8.2150  1.0000</r>
       <r>   8.2150  1.0000</r>
       <r>   8.2150  1.0000</r>
       <r>   8.2150  1.0000</r>
       <r>   8.2150  1.0000</r>
       <r>   8.2150  1.0000</r>
       <r>   8.2150  1.0000</r>
       <r>   8.2150  1.0000</r>
       <r>   8.2153  1.0000</r>
       <r>   8.2153  1.0000</r>
       <r>   8.2154  1.0000</r>
       <r>   8.2158  1.0000</r>
       <r>   8.2176  1.0000</r>
       <r>   8.2190  1.0000</r>
       <r>   8.2214  1.0000</r>
       <r>   8.2214  1.0000</r>
       <r>  12.6508  0.0000</r>
       <r>  12.6514  0.0000</r>
       <r>  12.6514  0.0000</r>
       <r>  12.6515  0.0000</r>
       <r>  12.6535  0.0000</r>
       <r>  12.6537  0.0000</r>
       <r>  12.6537  0.0000</r>
       <r>  12.6543  0.0000</r>
       <r>  12.9178  0.0000</r>
       <r>  12.9186  0.0000</r>
       <r>  12.9193  0.0000</r>
       <r>  12.9199  0.0000</r>
       <r>  12.9207  0.0000</r>
       <r>  12.9210  0.0000</r>
       <r>  12.9212  0.0000</r>
       <r>  12.9223  0.0000</r>
      </set>
     </set>
    </set>
   </array>
  </eigenvalues>
 </calculation>
 <structure name="finalpos" >
  <crystal>
   <varray name="basis" >
    <v>       7.83237436      0.00000000      0.00000000</v>
    <v>       0.00000000      7.83237436      0.00000000</v>
    <v>       0.00000000      0.00000000      7.83237436</v>
   </varray>
   <i name="volume">    480.48552712</i>
   <varray name="rec_basis" >
    <v>       0.12767520      0.00000000      0.00000000</v>
    <v>       0.00000000      0.12767520      0.00000000</v>
    <v>       0.00000000      0.00000000      0.12767520</v>
   </varray>
  </crystal>
  <varray name="positions" >
   <v>       0.25127675      0.25000000      0.00000000</v>
   <v>       0.75000000      0.25000000      0.00000000</v>
   <v>       0.25000000      0.75000000      0.00000000</v>
   <v>       0.75000000      0.75000000      0.00000000</v>
   <v>       0.25000000      0.25000000      0.50000000</v>
   <v>       0.75000000      0.25000000      0.50000000</v>
   <v>       0.25000000      0.75000000      0.50000000</v>
   <v>       0.75000000      0.75000000      0.50000000</v>
   <v>       0.25000000      0.00000000      0.25000000</v>
   <v>       0.75000000      0.00000000      0.25000000</v>
   <v>       0.25000000      0.50000000      0.25000000</v>
   <v>       0.75000000      0.50000000      0.25000000</v>
   <v>       0.25000000      0.00000000      0.75000000</v>
   <v>       0.75000000      0.00000000      0.75000000</v>
   <v>       0.25000000      0.50000000      0.75000000</v>
   <v>       0.75000000      0.50000000      0.75000000</v>
   <v>       0.00000000      0.25000000      0.25000000</v>
   <v>       0.50000000      0.25000000      0.25000000</v>
   <v>       0.00000000      0.75000000      0.25000000</v>
   <v>       0.50000000      0.75000000      0.25000000</v>
   <v>       0.00000000      0.25000000      0.75000000</v>
   <v>       0.50000000      0.25000000      0.75000000</v>
   <v>       0.00000000      0.75000000      0.75000000</v>
   <v>       0.50000000      0.75000000      0.75000000</v>
   <v>       0.00000000      0.00000000      0.00000000</v>
   <v>       0.50000000      0.00000000      0.00000000</v>
   <v>       0.00000000      0.50000000      0.00000000</v>
   <v>       0.50000000      0.50000000      0.00000000</v>
   <v>       0.00000000      0.00000000      0.50000000</v>
   <v>       0.50000000      0.00000000      0.50000000</v>
   <v>       0.00000000      0.50000000      0.50000000</v>
   <v>       0.50000000      0.50000000      0.50000000</v>
  </varray>
 </structure>
</modeling>
