 running on    8 nodes
 distr:  one band on    1 nodes,    8 groups
 vasp.4.6.28 25Jul05 complex 
 POSCAR found :  1 types and   32 ions

 ----------------------------------------------------------------------------- 
|                                                                             |
|  ADVICE TO THIS USER RUNNING 'VASP/VAMP'   (HEAR YOUR MASTER'S VOICE ...):  |
|                                                                             |
|      You have a (more or less) 'large supercell' and for larger cells       |
|      it might be more efficient to use real space projection operators      |
|      So try LREAL= Auto  in the INCAR   file.                               |
|      Mind: If you want to do an extremely accurate calculations keep the    |
|      reciprocal projection scheme          (i.e. LREAL=.FALSE.)             |
|                                                                             |
 ----------------------------------------------------------------------------- 

 LDA part: xc-table for Pade appr. of Perdew
 POSCAR, INCAR and KPOINTS ok, starting setup
 FFT: planning ...           1
 reading WAVECAR
 WARNING: random wavefunctions but no delay for mixing, default for NELMDL
 entering main loop
       N       E                     dE             d eps       ncg     rms          rms(c)
DAV:   1     0.460061377245E+04    0.46006E+04   -0.21171E+05 84672   0.225E+03
DAV:   2     0.172769442686E+03   -0.44278E+04   -0.42250E+04 84680   0.548E+02
DAV:   3    -0.971352193298E+02   -0.26990E+03   -0.24437E+03 94272   0.142E+02
DAV:   4    -0.107197532726E+03   -0.10062E+02   -0.98962E+01 90456   0.264E+01
DAV:   5    -0.107377258477E+03   -0.17973E+00   -0.17924E+00 91224   0.312E+00    0.148E+01
DAV:   6    -0.100622345995E+03    0.67549E+01   -0.20894E+01 89272   0.154E+01    0.354E+00
DAV:   7    -0.100404979362E+03    0.21737E+00   -0.87593E-01 92656   0.245E+00    0.180E+00
DAV:   8    -0.100360004507E+03    0.44975E-01   -0.52682E-02 88520   0.845E-01    0.143E-01
DAV:   9    -0.100360434316E+03   -0.42981E-03   -0.46552E-03 94192   0.207E-01    0.826E-02
DAV:  10    -0.100360506157E+03   -0.71841E-04   -0.49463E-04 87944   0.645E-02    0.154E-02
DAV:  11    -0.100360514137E+03   -0.79803E-05   -0.19563E-05 92088   0.153E-02    0.370E-03
DAV:  12    -0.100360516560E+03   -0.24227E-05   -0.13555E-06 88888   0.397E-03    0.132E-03
DAV:  13    -0.100360515324E+03    0.12360E-05   -0.77691E-08 86904   0.100E-03    0.474E-04
DAV:  14    -0.100360514899E+03    0.42506E-06   -0.91192E-09 47952   0.367E-04    0.892E-05
DAV:  15    -0.100360514922E+03   -0.22934E-07   -0.93479E-10 46856   0.120E-04    0.511E-05
DAV:  16    -0.100360514912E+03    0.97243E-08   -0.68709E-11 46320   0.574E-05
   1 F= -.10036051E+03 E0= -.10036007E+03  d E =-.888235E-03
