  32  32   0   0
  0.2102843E+02  0.8762989E-09  0.8762989E-09  0.8762989E-09  0.5000000E-15
  1.000000000000000E-004
  CAR 
 unknown system                          
     11.87320123     -5.27811023  301      3.33209417      1.00000000
     -5.278  0.0000E+00  0.0000E+00
     -5.221  0.0000E+00  0.0000E+00
     -5.164  0.0000E+00  0.0000E+00
     -5.107  0.0000E+00  0.0000E+00
     -5.049  0.0000E+00  0.0000E+00
     -4.992  0.0000E+00  0.0000E+00
     -4.935  0.0000E+00  0.0000E+00
     -4.878  0.0000E+00  0.0000E+00
     -4.821  0.0000E+00  0.0000E+00
     -4.764  0.0000E+00  0.0000E+00
     -4.706  0.0000E+00  0.0000E+00
     -4.649  0.0000E+00  0.0000E+00
     -4.592  0.0000E+00  0.0000E+00
     -4.535  0.2706E-08  0.1547E-09
     -4.478  0.1148E+00  0.6562E-02
     -4.421  0.6383E+00  0.4305E-01
     -4.363  0.1029E+01  0.1019E+00
     -4.306  0.1640E+01  0.1956E+00
     -4.249  0.1648E+01  0.2899E+00
     -4.192  0.1769E+01  0.3910E+00
     -4.135  0.2255E+01  0.5200E+00
     -4.078  0.1413E+01  0.6008E+00
     -4.020  0.2892E+01  0.7661E+00
     -3.963  0.2023E+01  0.8818E+00
     -3.906  0.3165E+01  0.1063E+01
     -3.849  0.2230E+01  0.1190E+01
     -3.792  0.3796E+01  0.1407E+01
     -3.734  0.2932E+01  0.1575E+01
     -3.677  0.3181E+01  0.1757E+01
     -3.620  0.4365E+01  0.2006E+01
     -3.563  0.2958E+01  0.2175E+01
     -3.506  0.4220E+01  0.2417E+01
     -3.449  0.3754E+01  0.2631E+01
     -3.391  0.4771E+01  0.2904E+01
     -3.334  0.3680E+01  0.3115E+01
     -3.277  0.5125E+01  0.3408E+01
     -3.220  0.4095E+01  0.3642E+01
     -3.163  0.4767E+01  0.3914E+01
     -3.106  0.5742E+01  0.4243E+01
     -3.048  0.5597E+01  0.4563E+01
     -2.991  0.4403E+01  0.4814E+01
     -2.934  0.7496E+01  0.5243E+01
     -2.877  0.6059E+01  0.5589E+01
     -2.820  0.5924E+01  0.5928E+01
     -2.763  0.6365E+01  0.6292E+01
     -2.705  0.8501E+01  0.6778E+01
     -2.648  0.5612E+01  0.7099E+01
     -2.591  0.1016E+02  0.7680E+01
     -2.534  0.9680E+01  0.8233E+01
     -2.477  0.8666E+01  0.8728E+01
     -2.420  0.1163E+02  0.9394E+01
     -2.362  0.1472E+02  0.1024E+02
     -2.305  0.1430E+02  0.1105E+02
     -2.248  0.2833E+02  0.1267E+02
     -2.191  0.2459E+02  0.1408E+02
     -2.134  0.2900E+02  0.1574E+02
     -2.077  0.2494E+02  0.1716E+02
     -2.019  0.2913E+02  0.1883E+02
     -1.962  0.4010E+02  0.2112E+02
     -1.905  0.4796E+02  0.2386E+02
     -1.848  0.4993E+02  0.2672E+02
     -1.791  0.6646E+02  0.3052E+02
     -1.734  0.6846E+02  0.3443E+02
     -1.676  0.8152E+02  0.3909E+02
     -1.619  0.8241E+02  0.4380E+02
     -1.562  0.7836E+02  0.4828E+02
     -1.505  0.8237E+02  0.5299E+02
     -1.448  0.6492E+02  0.5670E+02
     -1.390  0.8018E+02  0.6129E+02
     -1.333  0.6063E+02  0.6475E+02
     -1.276  0.7354E+02  0.6896E+02
     -1.219  0.6326E+02  0.7258E+02
     -1.162  0.6058E+02  0.7604E+02
     -1.105  0.5562E+02  0.7922E+02
     -1.047  0.4802E+02  0.8196E+02
     -0.990  0.5944E+02  0.8536E+02
     -0.933  0.7090E+02  0.8942E+02
     -0.876  0.7819E+02  0.9389E+02
     -0.819  0.8208E+02  0.9858E+02
     -0.762  0.9484E+02  0.1040E+03
     -0.704  0.9519E+02  0.1094E+03
     -0.647  0.9522E+02  0.1149E+03
     -0.590  0.8713E+02  0.1199E+03
     -0.533  0.9172E+02  0.1251E+03
     -0.476  0.9614E+02  0.1306E+03
     -0.419  0.8653E+02  0.1356E+03
     -0.361  0.1047E+03  0.1415E+03
     -0.304  0.1199E+03  0.1484E+03
     -0.247  0.1217E+03  0.1554E+03
     -0.190  0.1625E+03  0.1646E+03
     -0.133  0.1549E+03  0.1735E+03
     -0.076  0.1135E+03  0.1800E+03
     -0.018  0.9888E+02  0.1856E+03
      0.039  0.8124E+02  0.1903E+03
      0.096  0.7613E+02  0.1946E+03
      0.153  0.7243E+02  0.1988E+03
      0.210  0.7926E+02  0.2033E+03
      0.267  0.7477E+02  0.2076E+03
      0.325  0.8083E+02  0.2122E+03
      0.382  0.8791E+02  0.2172E+03
      0.439  0.9343E+02  0.2226E+03
      0.496  0.9676E+02  0.2281E+03
      0.553  0.9417E+02  0.2335E+03
      0.611  0.1091E+03  0.2397E+03
      0.668  0.9883E+02  0.2454E+03
      0.725  0.9304E+02  0.2507E+03
      0.782  0.8243E+02  0.2554E+03
      0.839  0.8247E+02  0.2601E+03
      0.896  0.7696E+02  0.2645E+03
      0.954  0.8138E+02  0.2692E+03
      1.011  0.7936E+02  0.2737E+03
      1.068  0.7455E+02  0.2780E+03
      1.125  0.8149E+02  0.2826E+03
      1.182  0.8369E+02  0.2874E+03
      1.239  0.8337E+02  0.2922E+03
      1.297  0.1046E+03  0.2982E+03
      1.354  0.1075E+03  0.3043E+03
      1.411  0.1587E+03  0.3134E+03
      1.468  0.1403E+03  0.3214E+03
      1.525  0.8687E+02  0.3264E+03
      1.582  0.8117E+02  0.3310E+03
      1.640  0.4924E+02  0.3338E+03
      1.697  0.2425E+02  0.3352E+03
      1.754  0.1367E+02  0.3360E+03
      1.811  0.1568E+02  0.3369E+03
      1.868  0.4746E+01  0.3372E+03
      1.925  0.1023E+02  0.3378E+03
      1.983  0.1383E+02  0.3385E+03
      2.040  0.8704E+01  0.3390E+03
      2.097  0.7968E+01  0.3395E+03
      2.154  0.1170E+02  0.3402E+03
      2.211  0.1312E+02  0.3409E+03
      2.268  0.7562E+01  0.3414E+03
      2.326  0.6553E+01  0.3417E+03
      2.383  0.1294E+02  0.3425E+03
      2.440  0.1358E+02  0.3432E+03
      2.497  0.6861E+01  0.3436E+03
      2.554  0.7702E+01  0.3441E+03
      2.611  0.6221E+01  0.3444E+03
      2.669  0.1637E+02  0.3454E+03
      2.726  0.1102E+02  0.3460E+03
      2.783  0.8884E+01  0.3465E+03
      2.840  0.6334E+01  0.3469E+03
      2.897  0.1195E+02  0.3476E+03
      2.955  0.1086E+02  0.3482E+03
      3.012  0.1008E+02  0.3487E+03
      3.069  0.8928E+01  0.3493E+03
      3.126  0.1010E+02  0.3498E+03
      3.183  0.7907E+01  0.3503E+03
      3.240  0.1399E+02  0.3511E+03
      3.298  0.9464E+01  0.3516E+03
      3.355  0.9963E+01  0.3522E+03
      3.412  0.1028E+02  0.3528E+03
      3.469  0.9880E+01  0.3534E+03
      3.526  0.1171E+02  0.3540E+03
      3.583  0.8626E+01  0.3545E+03
      3.641  0.1071E+02  0.3551E+03
      3.698  0.9422E+01  0.3557E+03
      3.755  0.1118E+02  0.3563E+03
      3.812  0.8950E+01  0.3568E+03
      3.869  0.1086E+02  0.3574E+03
      3.926  0.1172E+02  0.3581E+03
      3.984  0.9702E+01  0.3587E+03
      4.041  0.8621E+01  0.3592E+03
      4.098  0.1050E+02  0.3598E+03
      4.155  0.1165E+02  0.3604E+03
      4.212  0.1050E+02  0.3610E+03
      4.269  0.8787E+01  0.3615E+03
      4.327  0.8659E+01  0.3620E+03
      4.384  0.1028E+02  0.3626E+03
      4.441  0.1142E+02  0.3633E+03
      4.498  0.9979E+01  0.3638E+03
      4.555  0.1184E+02  0.3645E+03
      4.612  0.7650E+01  0.3649E+03
      4.670  0.8491E+01  0.3654E+03
      4.727  0.1249E+02  0.3661E+03
      4.784  0.1056E+02  0.3667E+03
      4.841  0.7557E+01  0.3672E+03
      4.898  0.9305E+01  0.3677E+03
      4.956  0.1222E+02  0.3684E+03
      5.013  0.9595E+01  0.3690E+03
      5.070  0.1279E+02  0.3697E+03
      5.127  0.8256E+01  0.3702E+03
      5.184  0.7825E+01  0.3706E+03
      5.241  0.1173E+02  0.3713E+03
      5.299  0.8893E+01  0.3718E+03
      5.356  0.1065E+02  0.3724E+03
      5.413  0.9233E+01  0.3729E+03
      5.470  0.1428E+02  0.3737E+03
      5.527  0.1555E+02  0.3746E+03
      5.584  0.1715E+02  0.3756E+03
      5.642  0.1321E+02  0.3764E+03
      5.699  0.1415E+02  0.3772E+03
      5.756  0.1414E+02  0.3780E+03
      5.813  0.1590E+02  0.3789E+03
      5.870  0.1098E+02  0.3795E+03
      5.927  0.1381E+02  0.3803E+03
      5.985  0.1127E+02  0.3810E+03
      6.042  0.9478E+01  0.3815E+03
      6.099  0.1383E+02  0.3823E+03
      6.156  0.1208E+02  0.3830E+03
      6.213  0.1276E+02  0.3837E+03
      6.270  0.1010E+02  0.3843E+03
      6.328  0.1158E+02  0.3849E+03
      6.385  0.6384E+01  0.3853E+03
      6.442  0.9377E+01  0.3858E+03
      6.499  0.1210E+02  0.3865E+03
      6.556  0.1185E+02  0.3872E+03
      6.613  0.9081E+01  0.3877E+03
      6.671  0.1169E+02  0.3884E+03
      6.728  0.5733E+01  0.3887E+03
      6.785  0.7232E+01  0.3891E+03
      6.842  0.9943E+01  0.3897E+03
      6.899  0.1068E+02  0.3903E+03
      6.956  0.7096E+01  0.3907E+03
      7.014  0.8003E+01  0.3912E+03
      7.071  0.8212E+01  0.3917E+03
      7.128  0.9170E+01  0.3922E+03
      7.185  0.7864E+01  0.3926E+03
      7.242  0.8456E+01  0.3931E+03
      7.300  0.9236E+01  0.3936E+03
      7.357  0.7508E+01  0.3941E+03
      7.414  0.1227E+02  0.3948E+03
      7.471  0.1140E+02  0.3954E+03
      7.528  0.1345E+02  0.3962E+03
      7.585  0.1310E+02  0.3969E+03
      7.643  0.1199E+02  0.3976E+03
      7.700  0.1438E+02  0.3985E+03
      7.757  0.1764E+02  0.3995E+03
      7.814  0.1617E+02  0.4004E+03
      7.871  0.1212E+02  0.4011E+03
      7.928  0.8723E+01  0.4016E+03
      7.986  0.1622E+02  0.4025E+03
      8.043  0.9971E+01  0.4031E+03
      8.100  0.8635E+01  0.4036E+03
      8.157  0.1331E+02  0.4043E+03
      8.214  0.1353E+02  0.4051E+03
      8.271  0.1532E+02  0.4060E+03
      8.329  0.1658E+02  0.4069E+03
      8.386  0.1397E+02  0.4077E+03
      8.443  0.1146E+02  0.4084E+03
      8.500  0.1115E+02  0.4090E+03
      8.557  0.8541E+01  0.4095E+03
      8.614  0.9433E+01  0.4100E+03
      8.672  0.1095E+02  0.4107E+03
      8.729  0.1391E+02  0.4115E+03
      8.786  0.1192E+02  0.4121E+03
      8.843  0.1230E+02  0.4129E+03
      8.900  0.9325E+01  0.4134E+03
      8.957  0.9774E+01  0.4139E+03
      9.015  0.1237E+02  0.4146E+03
      9.072  0.9555E+01  0.4152E+03
      9.129  0.1236E+02  0.4159E+03
      9.186  0.1137E+02  0.4166E+03
      9.243  0.6624E+01  0.4169E+03
      9.301  0.8231E+01  0.4174E+03
      9.358  0.8547E+01  0.4179E+03
      9.415  0.1507E+02  0.4188E+03
      9.472  0.1133E+02  0.4194E+03
      9.529  0.6692E+01  0.4198E+03
      9.586  0.1273E+02  0.4205E+03
      9.644  0.1162E+02  0.4212E+03
      9.701  0.1107E+02  0.4218E+03
      9.758  0.1230E+02  0.4225E+03
      9.815  0.1092E+02  0.4231E+03
      9.872  0.1338E+02  0.4239E+03
      9.929  0.1782E+02  0.4249E+03
      9.987  0.1227E+02  0.4256E+03
     10.044  0.1085E+02  0.4262E+03
     10.101  0.9486E+01  0.4268E+03
     10.158  0.6727E+01  0.4272E+03
     10.215  0.1222E+02  0.4279E+03
     10.272  0.9441E+01  0.4284E+03
     10.330  0.6668E+01  0.4288E+03
     10.387  0.9043E+01  0.4293E+03
     10.444  0.1352E+02  0.4301E+03
     10.501  0.8794E+01  0.4306E+03
     10.558  0.3134E+01  0.4308E+03
     10.615  0.7051E+01  0.4312E+03
     10.673  0.2969E+01  0.4313E+03
     10.730  0.2651E+01  0.4315E+03
     10.787  0.1938E+01  0.4316E+03
     10.844  0.2297E+01  0.4317E+03
     10.901  0.1063E+01  0.4318E+03
     10.958  0.1201E+01  0.4319E+03
     11.016  0.6020E+00  0.4319E+03
     11.073  0.1434E+01  0.4320E+03
     11.130  0.4852E+00  0.4320E+03
     11.187  0.0000E+00  0.4320E+03
     11.244  0.0000E+00  0.4320E+03
     11.301  0.0000E+00  0.4320E+03
     11.359  0.0000E+00  0.4320E+03
     11.416  0.0000E+00  0.4320E+03
     11.473  0.0000E+00  0.4320E+03
     11.530  0.0000E+00  0.4320E+03
     11.587  0.0000E+00  0.4320E+03
     11.645  0.0000E+00  0.4320E+03
     11.702  0.0000E+00  0.4320E+03
     11.759  0.0000E+00  0.4320E+03
     11.816  0.0000E+00  0.4320E+03
     11.873  0.0000E+00  0.4320E+03
