   32   32    1    1
  0.2102843E+02  0.8762989E-09  0.8762989E-09  0.8762989E-09  0.5000000E-15
  1.000000000000000E-004
  CAR 
 unknown system                          
  352  196  216
 
  0.0000000E+00  0.0000000E+00  0.0000000E+00  0.5787037E-03
   1       -4.4985
   2       -2.4498
   3       -2.4469
   4       -2.4469
   5       -2.4469
   6       -2.4469
   7       -2.4440
   8       -2.3173
   9       -2.3173
  10       -2.3173
  11       -2.3173
  12       -2.0680
  13       -2.0680
  14       -2.0680
  15       -1.8607
  16       -1.8607
  17       -1.8607
  18       -1.3835
  19       -1.3822
  20       -1.3822
  21       -1.3808
  22       -1.3806
  23       -1.3806
  24       -1.3806
  25       -1.3806
  26       -1.3804
  27       -1.3789
  28       -1.3789
  29       -1.3777
  30       -1.2460
  31       -1.2443
  32       -1.2443
  33       -1.2443
  34       -1.2443
  35       -1.2426
  36       -1.1915
  37       -1.1899
  38       -1.1899
  39       -1.1899
  40       -1.1899
  41       -1.1882
  42       -0.7521
  43       -0.7500
  44       -0.7500
  45       -0.7491
  46       -0.7490
  47       -0.7490
  48       -0.7490
  49       -0.7490
  50       -0.7490
  51       -0.7481
  52       -0.7481
  53       -0.7462
  54       -0.6962
  55       -0.6962
  56       -0.6943
  57       -0.6943
  58       -0.6943
  59       -0.6943
  60       -0.6943
  61       -0.6942
  62       -0.6942
  63       -0.6941
  64       -0.6923
  65       -0.6923
  66       -0.4718
  67       -0.4689
  68       -0.4688
  69       -0.4688
  70       -0.4686
  71       -0.4686
  72       -0.4686
  73       -0.4686
  74       -0.4684
  75       -0.4684
  76       -0.4683
  77       -0.4656
  78       -0.4388
  79       -0.4388
  80       -0.4388
  81       -0.4387
  82       -0.4387
  83       -0.4387
  84       -0.4387
  85       -0.4386
  86       -0.4230
  87       -0.4230
  88       -0.4230
  89        0.1289
  90        0.1305
  91        0.1305
  92        0.1305
  93        0.1305
  94        0.1321
  95        0.2374
  96        0.2381
  97        0.2389
  98        0.2389
  99        0.2394
 100        0.2394
 101        0.2394
 102        0.2394
 103        0.2399
 104        0.2399
 105        0.2408
 106        0.2413
 107        0.4491
 108        0.4491
 109        0.4511
 110        0.4511
 111        0.4513
 112        0.4513
 113        0.4513
 114        0.4513
 115        0.4515
 116        0.4515
 117        0.4534
 118        0.4534
 119        0.5636
 120        0.5650
 121        0.5650
 122        0.5650
 123        0.5650
 124        0.5663
 125        0.6187
 126        0.6188
 127        0.6315
 128        0.6315
 129        0.6334
 130        0.6338
 131        0.6338
 132        0.6338
 133        0.6338
 134        0.6339
 135        0.6340
 136        0.6342
 137        0.6362
 138        0.6362
 139        1.0013
 140        1.0023
 141        1.0023
 142        1.0023
 143        1.0023
 144        1.0033
 145        1.4113
 146        1.4113
 147        1.4113
 148        1.4460
 149        1.4461
 150        1.4461
 151        1.4461
 152        1.4461
 153        1.4461
 154        1.4461
 155        1.4461
 156        1.6642
 157        1.6645
 158        1.6645
 159        1.6645
 160        1.6645
 161        1.6645
 162        1.6656
 163        1.6656
 164        1.6656
 165        1.6656
 166        1.6656
 167        1.6659
 168        2.8708
 169        2.8717
 170        2.8717
 171        2.8723
 172        2.8727
 173        2.8727
 174        2.8727
 175        2.8727
 176        2.8731
 177        2.8737
 178        2.8737
 179        2.8746
 180        3.2756
 181        3.2756
 182        3.2756
 183        3.2756
 184        4.9135
 185        4.9135
 186        4.9135
 187        5.4432
 188        5.4432
 189        5.4432
 190        5.4432
 191        7.0736
 192        7.0737
 193        7.0737
 194        7.0737
 195        7.0737
 196        7.0738
 197        7.6459
 198        7.6460
 199        7.6460
 200        9.0307
 201        9.0307
 202        9.0335
 203        9.0335
 204        9.0339
 205        9.0339
 206        9.0339
 207        9.0339
 208        9.0342
 209        9.0342
 210        9.0370
 211        9.0370
 212       10.8122
 213       10.8130
 214       10.8134
 215       10.8135
 216       10.8140
 
  0.8333333E-01  0.0000000E+00  0.0000000E+00  0.1157407E-02
   1       -4.4816
   2       -2.6947
   3       -2.4348
   4       -2.4348
   5       -2.4348
   6       -2.4348
   7       -2.3086
   8       -2.3086
   9       -2.3086
  10       -2.3086
  11       -2.2341
  12       -2.0629
  13       -2.0577
  14       -2.0577
  15       -1.8553
  16       -1.8525
  17       -1.8525
  18       -1.4640
  19       -1.4640
  20       -1.4640
  21       -1.4640
  22       -1.4257
  23       -1.4257
  24       -1.4257
  25       -1.4257
  26       -1.3096
  27       -1.3096
  28       -1.3096
  29       -1.3096
  30       -1.2823
  31       -1.2655
  32       -1.2654
  33       -1.2374
  34       -1.2374
  35       -1.2374
  36       -1.2373
  37       -1.1852
  38       -1.1852
  39       -1.1852
  40       -1.1852
  41       -1.0959
  42       -0.8773
  43       -0.8773
  44       -0.7870
  45       -0.7869
  46       -0.7869
  47       -0.7869
  48       -0.7201
  49       -0.7193
  50       -0.7193
  51       -0.7192
  52       -0.7163
  53       -0.7163
  54       -0.7163
  55       -0.7156
  56       -0.7025
  57       -0.7024
  58       -0.7024
  59       -0.7024
  60       -0.6935
  61       -0.6934
  62       -0.6934
  63       -0.6932
  64       -0.5102
  65       -0.5102
  66       -0.5102
  67       -0.5102
  68       -0.4974
  69       -0.4974
  70       -0.4549
  71       -0.4545
  72       -0.4545
  73       -0.4545
  74       -0.4419
  75       -0.4419
  76       -0.4418
  77       -0.4416
  78       -0.4393
  79       -0.4393
  80       -0.4393
  81       -0.4390
  82       -0.4321
  83       -0.4321
  84       -0.4321
  85       -0.4321
  86       -0.4301
  87       -0.4165
  88       -0.4165
  89        0.0853
  90        0.0854
  91        0.0854
  92        0.0854
  93        0.1040
  94        0.2072
  95        0.2073
  96        0.2073
  97        0.2073
  98        0.2247
  99        0.2402
 100        0.2402
 101        0.2402
 102        0.2404
 103        0.2779
 104        0.2779
 105        0.2779
 106        0.2780
 107        0.3229
 108        0.3229
 109        0.4508
 110        0.4508
 111        0.4508
 112        0.4508
 113        0.4904
 114        0.4904
 115        0.4904
 116        0.4904
 117        0.5680
 118        0.5680
 119        0.5681
 120        0.5682
 121        0.5726
 122        0.5726
 123        0.5726
 124        0.5726
 125        0.5852
 126        0.5852
 127        0.5870
 128        0.5871
 129        0.6115
 130        0.6220
 131        0.6682
 132        0.6682
 133        0.6682
 134        0.6683
 135        0.7102
 136        0.7102
 137        0.7102
 138        0.7102
 139        0.9509
 140        1.0122
 141        1.0122
 142        1.0122
 143        1.0122
 144        1.0542
 145        1.4010
 146        1.4010
 147        1.4077
 148        1.4114
 149        1.4114
 150        1.4114
 151        1.4114
 152        1.4370
 153        1.4371
 154        1.4371
 155        1.4371
 156        1.6227
 157        1.6227
 158        1.6516
 159        1.6516
 160        1.6516
 161        1.6516
 162        1.6517
 163        1.6517
 164        1.6643
 165        1.6645
 166        1.6656
 167        1.6658
 168        2.6205
 169        2.6205
 170        2.6205
 171        2.6205
 172        2.8749
 173        2.8749
 174        2.8750
 175        2.8750
 176        3.1478
 177        3.1478
 178        3.1478
 179        3.1478
 180        3.2514
 181        3.2514
 182        3.2514
 183        3.2514
 184        4.7187
 185        4.9686
 186        4.9686
 187        5.5257
 188        5.5257
 189        5.5257
 190        5.5257
 191        6.9687
 192        6.9687
 193        6.9687
 194        6.9687
 195        7.0830
 196        7.0830
 197        7.6359
 198        7.6359
 199        7.8710
 200        8.5771
 201        8.5771
 202        9.0554
 203        9.0554
 204        9.0555
 205        9.0555
 206        9.0629
 207        9.0629
 208        9.0630
 209        9.0630
 210        9.4892
 211        9.4892
 212       10.5141
 213       10.5144
 214       10.5171
 215       10.5178
 216       10.5183
 
  0.1666667E+00  0.0000000E+00  0.0000000E+00  0.1157407E-02
   1       -4.4311
   2       -2.9574
   3       -2.3989
   4       -2.3988
   5       -2.3988
   6       -2.3988
   7       -2.2824
   8       -2.2824
   9       -2.2824
  10       -2.2824
  11       -2.0743
  12       -2.0482
  13       -2.0270
  14       -2.0270
  15       -1.8391
  16       -1.8278
  17       -1.8278
  18       -1.5625
  19       -1.5625
  20       -1.5625
  21       -1.5624
  22       -1.5314
  23       -1.5314
  24       -1.5314
  25       -1.5314
  26       -1.3715
  27       -1.3246
  28       -1.3246
  29       -1.2475
  30       -1.2475
  31       -1.2475
  32       -1.2475
  33       -1.2172
  34       -1.2172
  35       -1.2172
  36       -1.2172
  37       -1.1713
  38       -1.1713
  39       -1.1713
  40       -1.1712
  41       -1.0458
  42       -1.0458
  43       -1.0019
  44       -0.8316
  45       -0.8316
  46       -0.8316
  47       -0.8316
  48       -0.7256
  49       -0.7256
  50       -0.7256
  51       -0.7256
  52       -0.6983
  53       -0.6978
  54       -0.6978
  55       -0.6978
  56       -0.6911
  57       -0.6911
  58       -0.6911
  59       -0.6906
  60       -0.6589
  61       -0.6589
  62       -0.6589
  63       -0.6588
  64       -0.5753
  65       -0.5753
  66       -0.5753
  67       -0.5752
  68       -0.4573
  69       -0.4571
  70       -0.4571
  71       -0.4571
  72       -0.4511
  73       -0.4507
  74       -0.4507
  75       -0.4507
  76       -0.4505
  77       -0.4121
  78       -0.4121
  79       -0.4121
  80       -0.4121
  81       -0.3968
  82       -0.3968
  83       -0.3408
  84       -0.3408
  85       -0.3408
  86       -0.3408
  87       -0.2875
  88       -0.2875
  89       -0.0086
  90       -0.0086
  91       -0.0086
  92       -0.0086
  93        0.1238
  94        0.1330
  95        0.1331
  96        0.1331
  97        0.1331
  98        0.2016
  99        0.2016
 100        0.2774
 101        0.2775
 102        0.2775
 103        0.2775
 104        0.3427
 105        0.3427
 106        0.3427
 107        0.3427
 108        0.4068
 109        0.4496
 110        0.4496
 111        0.4496
 112        0.4496
 113        0.5259
 114        0.5259
 115        0.5260
 116        0.5260
 117        0.5597
 118        0.5597
 119        0.5597
 120        0.5598
 121        0.5765
 122        0.5765
 123        0.5765
 124        0.5765
 125        0.5895
 126        0.6315
 127        0.6485
 128        0.6485
 129        0.7221
 130        0.7222
 131        0.7490
 132        0.7490
 133        0.7490
 134        0.7490
 135        0.8007
 136        0.8007
 137        0.8007
 138        0.8007
 139        0.9008
 140        1.0487
 141        1.0487
 142        1.0487
 143        1.0487
 144        1.1055
 145        1.3108
 146        1.3108
 147        1.3108
 148        1.3108
 149        1.3704
 150        1.3704
 151        1.3969
 152        1.4103
 153        1.4103
 154        1.4103
 155        1.4103
 156        1.5052
 157        1.5052
 158        1.6105
 159        1.6105
 160        1.6106
 161        1.6106
 162        1.6139
 163        1.6139
 164        1.6643
 165        1.6646
 166        1.6655
 167        1.6658
 168        2.3865
 169        2.3865
 170        2.3865
 171        2.3865
 172        2.8817
 173        2.8817
 174        2.8818
 175        2.8818
 176        3.1920
 177        3.1920
 178        3.1920
 179        3.1920
 180        3.4503
 181        3.4503
 182        3.4503
 183        3.4503
 184        4.2588
 185        5.1258
 186        5.1258
 187        5.7562
 188        5.7562
 189        5.7562
 190        5.7562
 191        6.6894
 192        6.6894
 193        6.6894
 194        6.6894
 195        7.1102
 196        7.1102
 197        7.6064
 198        7.6064
 199        8.1224
 200        8.1224
 201        8.4216
 202        9.1094
 203        9.1094
 204        9.1094
 205        9.1094
 206        9.1490
 207        9.1490
 208        9.1490
 209        9.1490
 210        9.9387
 211        9.9387
 212        9.9498
 213        9.9498
 214        9.9503
 215        9.9503
 216       10.2489
 
  0.2500000E+00  0.0000000E+00  0.0000000E+00  0.1157407E-02
   1       -4.3473
   2       -3.2192
   3       -2.3400
   4       -2.3400
   5       -2.3400
   6       -2.3400
   7       -2.2389
   8       -2.2389
   9       -2.2389
  10       -2.2389
  11       -2.0252
  12       -1.9771
  13       -1.9768
  14       -1.9745
  15       -1.8124
  16       -1.7867
  17       -1.7867
  18       -1.6754
  19       -1.6754
  20       -1.6754
  21       -1.6754
  22       -1.6575
  23       -1.6575
  24       -1.6575
  25       -1.6575
  26       -1.4563
  27       -1.4114
  28       -1.4114
  29       -1.1992
  30       -1.1992
  31       -1.1916
  32       -1.1915
  33       -1.1915
  34       -1.1915
  35       -1.1853
  36       -1.1853
  37       -1.1853
  38       -1.1852
  39       -1.1484
  40       -1.1484
  41       -1.1484
  42       -1.1484
  43       -0.9096
  44       -0.8811
  45       -0.8811
  46       -0.8811
  47       -0.8811
  48       -0.7597
  49       -0.7596
  50       -0.7596
  51       -0.7596
  52       -0.6884
  53       -0.6876
  54       -0.6876
  55       -0.6875
  56       -0.6839
  57       -0.6839
  58       -0.6839
  59       -0.6831
  60       -0.6527
  61       -0.6527
  62       -0.6527
  63       -0.6527
  64       -0.6162
  65       -0.6162
  66       -0.6161
  67       -0.6161
  68       -0.4856
  69       -0.4651
  70       -0.4650
  71       -0.4650
  72       -0.4650
  73       -0.4588
  74       -0.4587
  75       -0.4587
  76       -0.4585
  77       -0.3792
  78       -0.3792
  79       -0.3792
  80       -0.3791
  81       -0.3641
  82       -0.3641
  83       -0.1753
  84       -0.1753
  85       -0.1753
  86       -0.1753
  87       -0.1113
  88       -0.1113
  89       -0.1113
  90       -0.1112
  91       -0.0660
  92       -0.0660
  93        0.0445
  94        0.0446
  95        0.0446
  96        0.0446
  97        0.0886
  98        0.0886
  99        0.1725
 100        0.3376
 101        0.3377
 102        0.3377
 103        0.3377
 104        0.4158
 105        0.4158
 106        0.4158
 107        0.4158
 108        0.4480
 109        0.4480
 110        0.4480
 111        0.4480
 112        0.4926
 113        0.4926
 114        0.4926
 115        0.4926
 116        0.5538
 117        0.5859
 118        0.5860
 119        0.5860
 120        0.5860
 121        0.6057
 122        0.6058
 123        0.6058
 124        0.6058
 125        0.6472
 126        0.6843
 127        0.7387
 128        0.7387
 129        0.8477
 130        0.8480
 131        0.8480
 132        0.8480
 133        0.8531
 134        0.8606
 135        0.8606
 136        0.9032
 137        0.9032
 138        0.9032
 139        0.9032
 140        1.1260
 141        1.1260
 142        1.1260
 143        1.1260
 144        1.1543
 145        1.1543
 146        1.1543
 147        1.1543
 148        1.1556
 149        1.3200
 150        1.3200
 151        1.3309
 152        1.3309
 153        1.3665
 154        1.3665
 155        1.3665
 156        1.3665
 157        1.3792
 158        1.5451
 159        1.5451
 160        1.5451
 161        1.5451
 162        1.5526
 163        1.5526
 164        1.6644
 165        1.6646
 166        1.6654
 167        1.6657
 168        2.1667
 169        2.1667
 170        2.1667
 171        2.1667
 172        2.8934
 173        2.8934
 174        2.8934
 175        2.8934
 176        3.1223
 177        3.1223
 178        3.1223
 179        3.1223
 180        3.6971
 181        3.7838
 182        3.7838
 183        3.7838
 184        3.7838
 185        5.3661
 186        5.3661
 187        6.0999
 188        6.0999
 189        6.0999
 190        6.0999
 191        6.3040
 192        6.3040
 193        6.3040
 194        6.3040
 195        7.1539
 196        7.1539
 197        7.5595
 198        7.5595
 199        7.6735
 200        7.6735
 201        9.1356
 202        9.1814
 203        9.1814
 204        9.1815
 205        9.1816
 206        9.2895
 207        9.2895
 208        9.2895
 209        9.2895
 210        9.3309
 211        9.3309
 212        9.3309
 213        9.3309
 214       10.0160
 215       10.0160
 216       10.0160
 
  0.3333333E+00  0.0000000E+00  0.0000000E+00  0.1157407E-02
   1       -4.2309
   2       -3.4690
   3       -2.2600
   4       -2.2599
   5       -2.2599
   6       -2.2599
   7       -2.1785
   8       -2.1785
   9       -2.1785
  10       -2.1785
  11       -1.9962
  12       -1.9287
  13       -1.9086
  14       -1.9086
  15       -1.7985
  16       -1.7985
  17       -1.7985
  18       -1.7985
  19       -1.7842
  20       -1.7842
  21       -1.7842
  22       -1.7842
  23       -1.7754
  24       -1.7292
  25       -1.7292
  26       -1.5355
  27       -1.5140
  28       -1.5139
  29       -1.3371
  30       -1.3371
  31       -1.1461
  32       -1.1458
  33       -1.1458
  34       -1.1458
  35       -1.1416
  36       -1.1416
  37       -1.1416
  38       -1.1413
  39       -1.1172
  40       -1.1172
  41       -1.1172
  42       -1.1172
  43       -0.9330
  44       -0.9330
  45       -0.9330
  46       -0.9330
  47       -0.8206
  48       -0.7979
  49       -0.7979
  50       -0.7979
  51       -0.7979
  52       -0.7308
  53       -0.7308
  54       -0.7308
  55       -0.7308
  56       -0.6838
  57       -0.6833
  58       -0.6833
  59       -0.6832
  60       -0.6766
  61       -0.6766
  62       -0.6766
  63       -0.6761
  64       -0.5845
  65       -0.5845
  66       -0.5845
  67       -0.5845
  68       -0.5326
  69       -0.4838
  70       -0.4838
  71       -0.4838
  72       -0.4838
  73       -0.4464
  74       -0.4464
  75       -0.4464
  76       -0.4464
  77       -0.3337
  78       -0.3337
  79       -0.3337
  80       -0.3337
  81       -0.3185
  82       -0.3185
  83       -0.2083
  84       -0.2083
  85       -0.2083
  86       -0.2083
  87       -0.0452
  88       -0.0452
  89       -0.0452
  90       -0.0452
  91       -0.0149
  92       -0.0149
  93        0.0312
  94        0.0312
  95        0.0312
  96        0.0312
  97        0.1654
  98        0.1654
  99        0.2369
 100        0.4072
 101        0.4072
 102        0.4072
 103        0.4072
 104        0.4468
 105        0.4468
 106        0.4468
 107        0.4468
 108        0.4704
 109        0.4704
 110        0.4704
 111        0.4704
 112        0.4827
 113        0.4827
 114        0.4827
 115        0.4827
 116        0.5055
 117        0.5915
 118        0.5916
 119        0.5916
 120        0.5916
 121        0.6121
 122        0.6121
 123        0.6121
 124        0.6121
 125        0.6688
 126        0.8076
 127        0.8452
 128        0.8452
 129        0.9515
 130        0.9515
 131        0.9515
 132        0.9515
 133        0.9564
 134        0.9564
 135        0.9564
 136        0.9564
 137        0.9976
 138        0.9976
 139        1.0145
 140        1.0145
 141        1.0145
 142        1.0145
 143        1.0513
 144        1.1197
 145        1.1197
 146        1.2033
 147        1.2468
 148        1.2469
 149        1.2469
 150        1.2469
 151        1.2510
 152        1.2512
 153        1.3070
 154        1.3070
 155        1.3070
 156        1.3070
 157        1.3549
 158        1.4594
 159        1.4594
 160        1.4594
 161        1.4594
 162        1.4704
 163        1.4704
 164        1.6644
 165        1.6648
 166        1.6653
 167        1.6657
 168        1.9585
 169        1.9585
 170        1.9585
 171        1.9585
 172        2.9105
 173        2.9105
 174        2.9105
 175        2.9105
 176        3.0584
 177        3.0584
 178        3.0584
 179        3.0584
 180        3.1120
 181        4.1499
 182        4.1499
 183        4.1499
 184        4.1499
 185        5.6690
 186        5.6690
 187        5.8682
 188        5.8682
 189        5.8682
 190        5.8682
 191        6.5257
 192        6.5257
 193        6.5257
 194        6.5257
 195        7.2116
 196        7.2116
 197        7.2339
 198        7.2339
 199        7.4987
 200        7.4987
 201        8.7136
 202        8.7136
 203        8.7136
 204        8.7136
 205        9.2678
 206        9.2678
 207        9.2679
 208        9.2679
 209        9.4803
 210        9.4803
 211        9.4803
 212        9.4803
 213        9.8140
 214        9.8140
 215        9.8140
 216        9.8155
 
  0.4166667E+00  0.0000000E+00  0.0000000E+00  0.1157407E-02
   1       -4.0829
   2       -3.6992
   3       -2.1615
   4       -2.1615
   5       -2.1615
   6       -2.1615
   7       -2.1018
   8       -2.1018
   9       -2.1018
  10       -2.1018
  11       -1.9650
  12       -1.9254
  13       -1.9252
  14       -1.9252
  15       -1.9251
  16       -1.9209
  17       -1.9029
  18       -1.9028
  19       -1.9028
  20       -1.9028
  21       -1.8244
  22       -1.8244
  23       -1.7286
  24       -1.6554
  25       -1.6554
  26       -1.6220
  27       -1.6220
  28       -1.6078
  29       -1.4592
  30       -1.4592
  31       -1.1079
  32       -1.1075
  33       -1.1074
  34       -1.1074
  35       -1.1028
  36       -1.1028
  37       -1.1028
  38       -1.1024
  39       -1.0787
  40       -1.0787
  41       -1.0787
  42       -1.0787
  43       -0.9847
  44       -0.9847
  45       -0.9847
  46       -0.9847
  47       -0.8289
  48       -0.8289
  49       -0.8289
  50       -0.8289
  51       -0.7968
  52       -0.7968
  53       -0.7968
  54       -0.7968
  55       -0.7367
  56       -0.6797
  57       -0.6790
  58       -0.6790
  59       -0.6789
  60       -0.6743
  61       -0.6743
  62       -0.6743
  63       -0.6736
  64       -0.5911
  65       -0.5568
  66       -0.5568
  67       -0.5568
  68       -0.5568
  69       -0.5060
  70       -0.5060
  71       -0.5060
  72       -0.5060
  73       -0.4148
  74       -0.4148
  75       -0.4148
  76       -0.4148
  77       -0.2937
  78       -0.2937
  79       -0.2937
  80       -0.2936
  81       -0.2763
  82       -0.2763
  83       -0.2763
  84       -0.2763
  85       -0.2604
  86       -0.2604
  87       -0.1305
  88       -0.1305
  89       -0.1305
  90       -0.1305
  91       -0.1081
  92       -0.1081
  93        0.2590
  94        0.2591
  95        0.2591
  96        0.2591
  97        0.3082
  98        0.4041
  99        0.4041
 100        0.4466
 101        0.4469
 102        0.4469
 103        0.4469
 104        0.4469
 105        0.4568
 106        0.4568
 107        0.4568
 108        0.4568
 109        0.4763
 110        0.4763
 111        0.4763
 112        0.4764
 113        0.5352
 114        0.5352
 115        0.5352
 116        0.5352
 117        0.5855
 118        0.5856
 119        0.5859
 120        0.5859
 121        0.5879
 122        0.5879
 123        0.5881
 124        0.5883
 125        0.6961
 126        0.7324
 127        0.7324
 128        0.7324
 129        0.7325
 130        0.7661
 131        0.8878
 132        0.8878
 133        0.9571
 134        0.9571
 135        1.0528
 136        1.0528
 137        1.0528
 138        1.0528
 139        1.1303
 140        1.1303
 141        1.1306
 142        1.1306
 143        1.1307
 144        1.1307
 145        1.1653
 146        1.1653
 147        1.2334
 148        1.2334
 149        1.2334
 150        1.2334
 151        1.2480
 152        1.3245
 153        1.3582
 154        1.3582
 155        1.3582
 156        1.3582
 157        1.3703
 158        1.3703
 159        1.4000
 160        1.4000
 161        1.4000
 162        1.4000
 163        1.4929
 164        1.6645
 165        1.6649
 166        1.6652
 167        1.6656
 168        1.7606
 169        1.7606
 170        1.7606
 171        1.7606
 172        2.5377
 173        2.9340
 174        2.9340
 175        2.9340
 176        2.9340
 177        3.0061
 178        3.0061
 179        3.0062
 180        3.0062
 181        4.5476
 182        4.5476
 183        4.5476
 184        4.5476
 185        5.4173
 186        5.4173
 187        5.4173
 188        5.4173
 189        6.0178
 190        6.0178
 191        6.8079
 192        6.8079
 193        7.0122
 194        7.0122
 195        7.0123
 196        7.0123
 197        7.2796
 198        7.2796
 199        7.4283
 200        7.4283
 201        8.1153
 202        8.1153
 203        8.1153
 204        8.1153
 205        9.3708
 206        9.3708
 207        9.3709
 208        9.3709
 209        9.6408
 210        9.6408
 211        9.6408
 212        9.6408
 213        9.7163
 214        9.7163
 215        9.7163
 216        9.7163
 
  0.5000000E+00  0.0000000E+00  0.0000000E+00  0.5787037E-03
   1       -3.9064
   2       -3.9036
   3       -2.0513
   4       -2.0490
   5       -2.0487
   6       -2.0487
   7       -2.0477
   8       -2.0477
   9       -2.0474
  10       -2.0453
  11       -2.0108
  12       -2.0108
  13       -2.0103
  14       -2.0102
  15       -2.0087
  16       -2.0085
  17       -2.0081
  18       -2.0081
  19       -1.9378
  20       -1.9365
  21       -1.7288
  22       -1.7281
  23       -1.7267
  24       -1.7260
  25       -1.6734
  26       -1.6715
  27       -1.5665
  28       -1.5665
  29       -1.5643
  30       -1.5643
  31       -1.0899
  32       -1.0885
  33       -1.0884
  34       -1.0884
  35       -1.0883
  36       -1.0883
  37       -1.0883
  38       -1.0869
  39       -1.0353
  40       -1.0351
  41       -1.0351
  42       -1.0342
  43       -1.0337
  44       -1.0329
  45       -1.0329
  46       -1.0326
  47       -0.8340
  48       -0.8338
  49       -0.8338
  50       -0.8334
  51       -0.8331
  52       -0.8326
  53       -0.8326
  54       -0.8325
  55       -0.6776
  56       -0.6760
  57       -0.6760
  58       -0.6758
  59       -0.6754
  60       -0.6751
  61       -0.6751
  62       -0.6737
  63       -0.6599
  64       -0.6591
  65       -0.5311
  66       -0.5309
  67       -0.5308
  68       -0.5308
  69       -0.5304
  70       -0.5304
  71       -0.5303
  72       -0.5301
  73       -0.3642
  74       -0.3642
  75       -0.3641
  76       -0.3635
  77       -0.3631
  78       -0.3626
  79       -0.3624
  80       -0.3624
  81       -0.2099
  82       -0.2095
  83       -0.2095
  84       -0.2084
  85       -0.2080
  86       -0.2070
  87       -0.2070
  88       -0.2064
  89       -0.1910
  90       -0.1910
  91       -0.1891
  92       -0.1891
  93        0.3791
  94        0.3803
  95        0.4492
  96        0.4492
  97        0.4494
  98        0.4495
  99        0.4497
 100        0.4499
 101        0.4501
 102        0.4501
 103        0.4954
 104        0.4957
 105        0.4960
 106        0.4960
 107        0.4965
 108        0.4965
 109        0.4966
 110        0.4971
 111        0.5368
 112        0.5376
 113        0.5376
 114        0.5378
 115        0.5383
 116        0.5385
 117        0.5385
 118        0.5393
 119        0.5692
 120        0.5694
 121        0.5700
 122        0.5700
 123        0.5702
 124        0.5702
 125        0.5708
 126        0.5711
 127        0.6460
 128        0.6460
 129        0.6474
 130        0.6474
 131        0.7279
 132        0.7295
 133        1.0656
 134        1.0657
 135        1.0661
 136        1.0662
 137        1.1468
 138        1.1473
 139        1.1473
 140        1.1475
 141        1.1482
 142        1.1484
 143        1.1484
 144        1.1489
 145        1.2456
 146        1.2456
 147        1.2466
 148        1.2467
 149        1.2471
 150        1.2471
 151        1.2481
 152        1.2481
 153        1.2556
 154        1.2556
 155        1.2563
 156        1.2563
 157        1.2885
 158        1.2888
 159        1.5726
 160        1.5730
 161        1.5730
 162        1.5733
 163        1.5737
 164        1.5739
 165        1.5739
 166        1.5744
 167        1.6645
 168        1.6650
 169        1.6651
 170        1.6656
 171        1.9933
 172        1.9933
 173        2.9634
 174        2.9643
 175        2.9648
 176        2.9648
 177        2.9658
 178        2.9658
 179        2.9662
 180        2.9672
 181        4.9710
 182        4.9710
 183        4.9719
 184        4.9724
 185        4.9729
 186        4.9735
 187        4.9744
 188        4.9744
 189        6.3991
 190        6.3991
 191        6.4016
 192        6.4016
 193        7.3533
 194        7.3535
 195        7.3535
 196        7.3537
 197        7.5431
 198        7.5431
 199        7.5449
 200        7.5453
 201        7.5455
 202        7.5459
 203        7.5477
 204        7.5477
 205        9.4919
 206        9.4938
 207        9.4938
 208        9.4939
 209        9.4942
 210        9.4943
 211        9.4943
 212        9.4962
 213        9.9908
 214        9.9920
 215        9.9926
 216        9.9936
 
  0.0000000E+00  0.8333333E-01  0.0000000E+00  0.2314815E-02
   1       -4.4816
   2       -2.6946
   3       -2.4370
   4       -2.4348
   5       -2.4348
   6       -2.4326
   7       -2.3086
   8       -2.3086
   9       -2.3085
  10       -2.3085
  11       -2.2341
  12       -2.0630
  13       -2.0577
  14       -2.0577
  15       -1.8553
  16       -1.8525
  17       -1.8525
  18       -1.4657
  19       -1.4640
  20       -1.4640
  21       -1.4623
  22       -1.4266
  23       -1.4258
  24       -1.4256
  25       -1.4247
  26       -1.3110
  27       -1.3096
  28       -1.3096
  29       -1.3082
  30       -1.2823