 vasp.4.6.28 25Jul05 complex 
 executed on             LinuxIFC date 2017.01.15  09:28:04
 running on    8 nodes
 distr:  one band on    1 nodes,    8 groups


--------------------------------------------------------------------------------------------------------


 INCAR:
 POTCAR:   PAW_PBE Au 06Sep2000                   
 POTCAR:   PAW_PBE Au 06Sep2000                   
   VRHFIN =Au: s1d10                                                            
   LEXCH  = PE                                                                  
   EATOM  =   926.0567 eV,   68.0632 Ry                                         
                                                                                
   TITEL  = PAW_PBE Au 06Sep2000                                                
   LULTRA =        F    use ultrasoft PP ?                                      
   IUNSCR =        1    unscreen: 0-lin 1-nonlin 2-no                           
   RPACOR =    2.330    partial core radius                                     
   POMASS =  196.966; ZVAL   =   11.000    mass and valenz                      
   RCORE  =    2.500    outmost cutoff radius                                   
   RWIGS  =    2.840; RWIGS  =    1.503    wigner-seitz radius (au A)           
   ENMAX  =  229.948; ENMIN  =  172.461 eV                                      
   RCLOC  =    1.964    cutoff for local pot                                    
   LCOR   =        T    correct aug charges                                     
   LPAW   =        T    paw PP                                                  
   EAUG   =  356.670                                                            
   DEXC   =    -.025                                                            
   RMAX   =    3.041    core radius for proj-oper                               
   RAUG   =    1.300    factor for augmentation sphere                          
   RDEP   =    2.598    radius for radial grids                                 
   QCUT   =   -4.111; QGAM   =    8.222    optimization parameters              
                                                                                
   Description                                                                  
     l     E      TYP  RCUT    TYP  RCUT                                        
     2   .000     23  2.500                                                     
     2   .000     23  2.500                                                     
     0   .000     23  2.500                                                     
     0   .000     23  2.500                                                     
     1  -.200     23  2.500                                                     
     1   .000     23  2.500                                                     
     3   .000      7   .000                                                     
  local pseudopotential read in
  partial core-charges read in
  atomic valenz-charges read in
  non local Contribution for L=           2  read in
    real space projection operators read in
  non local Contribution for L=           2  read in
    real space projection operators read in
  non local Contribution for L=           0  read in
    real space projection operators read in
  non local Contribution for L=           0  read in
    real space projection operators read in
  non local Contribution for L=           1  read in
    real space projection operators read in
  non local Contribution for L=           1  read in
    real space projection operators read in
    PAW grid and wavefunctions read in
 
   number of l-projection  operators is LMAX  =           6
   number of lm-projection operators is LMMAX =          18
 

 ----------------------------------------------------------------------------- 
|                                                                             |
|  ADVICE TO THIS USER RUNNING 'VASP/VAMP'   (HEAR YOUR MASTER'S VOICE ...):  |
|                                                                             |
|      You have a (more or less) 'large supercell' and for larger cells       |
|      it might be more efficient to use real space projection operators      |
|      So try LREAL= Auto  in the INCAR   file.                               |
|      Mind: If you want to do an extremely accurate calculations keep the    |
|      reciprocal projection scheme          (i.e. LREAL=.FALSE.)             |
|                                                                             |
 ----------------------------------------------------------------------------- 

 PAW_PBE Au 06Sep2000                   :
 energy of atom  1       EATOM= -926.0567
 kinetic energy error for atom=    0.0005 (will be added to EATOM!!)
 
 EXHCAR: internal setup
 exchange correlation table for  LEXCH =        8
   RHO(1)=    0.500       N(1)  =     2000
   RHO(2)=  100.500       N(2)  =     4000
 
 POSCAR: Au                                      
  positions in direct lattice
  No initial velocities read in
 


--------------------------------------------------------------------------------------------------------


 ion  position               nearest neighbor table
   1  0.001  0.000  0.000-   9 3.09  11 3.09  17 3.09  21 3.09  25 3.10  27 3.10  29 3.10  31 3.10
                            10 3.11  12 3.11  18 3.11  22 3.11
   2  0.500  0.000  0.000-   9 3.10  10 3.10  11 3.10  12 3.10  17 3.10  18 3.10  21 3.10  22 3.10
                            26 3.10  28 3.10  30 3.10  32 3.10
   3  0.000  0.500  0.000-   9 3.10  10 3.10  11 3.10  12 3.10  19 3.10  20 3.10  23 3.10  24 3.10
                            25 3.10  27 3.10  29 3.10  31 3.10
   4  0.500  0.500  0.000-   9 3.10  10 3.10  11 3.10  12 3.10  19 3.10  20 3.10  23 3.10  24 3.10
                            26 3.10  28 3.10  30 3.10  32 3.10
   5  0.000  0.000  0.500-  13 3.10  14 3.10  15 3.10  16 3.10  17 3.10  18 3.10  21 3.10  22 3.10
                            25 3.10  27 3.10  29 3.10  31 3.10
   6  0.500  0.000  0.500-  13 3.10  14 3.10  15 3.10  16 3.10  17 3.10  18 3.10  21 3.10  22 3.10
                            26 3.10  28 3.10  30 3.10  32 3.10
   7  0.000  0.500  0.500-  13 3.10  14 3.10  15 3.10  16 3.10  19 3.10  20 3.10  23 3.10  24 3.10
                            25 3.10  27 3.10  29 3.10  31 3.10
   8  0.500  0.500  0.500-  13 3.10  14 3.10  15 3.10  16 3.10  19 3.10  20 3.10  23 3.10  24 3.10
                            26 3.10  28 3.10  30 3.10  32 3.10
   9  0.250  0.250  0.000-   1 3.09   2 3.10   3 3.10   4 3.10  17 3.10  19 3.10  21 3.10  23 3.10
                            25 3.10  26 3.10  29 3.10  30 3.10
  10  0.750  0.250  0.000-   2 3.10   3 3.10   4 3.10  18 3.10  20 3.10  22 3.10  24 3.10  25 3.10
                            26 3.10  29 3.10  30 3.10   1 3.11
  11  0.250  0.750  0.000-   1 3.09   2 3.10   3 3.10   4 3.10  17 3.10  19 3.10  21 3.10  23 3.10
                            27 3.10  28 3.10  31 3.10  32 3.10
  12  0.750  0.750  0.000-   2 3.10   3 3.10   4 3.10  18 3.10  20 3.10  22 3.10  24 3.10  27 3.10
                            28 3.10  31 3.10  32 3.10   1 3.11
  13  0.250  0.250  0.500-   5 3.10   6 3.10   7 3.10   8 3.10  17 3.10  19 3.10  21 3.10  23 3.10
                            25 3.10  26 3.10  29 3.10  30 3.10
  14  0.750  0.250  0.500-   5 3.10   6 3.10   7 3.10   8 3.10  18 3.10  20 3.10  22 3.10  24 3.10
                            25 3.10  26 3.10  29 3.10  30 3.10
  15  0.250  0.750  0.500-   5 3.10   6 3.10   7 3.10   8 3.10  17 3.10  19 3.10  21 3.10  23 3.10
                            27 3.10  28 3.10  31 3.10  32 3.10
  16  0.750  0.750  0.500-   5 3.10   6 3.10   7 3.10   8 3.10  18 3.10  20 3.10  22 3.10  24 3.10
                            27 3.10  28 3.10  31 3.10  32 3.10
  17  0.250  0.000  0.250-   1 3.09   2 3.10   5 3.10   6 3.10   9 3.10  11 3.10  13 3.10  15 3.10
                            25 3.10  26 3.10  27 3.10  28 3.10
  18  0.750  0.000  0.250-   2 3.10   5 3.10   6 3.10  10 3.10  12 3.10  14 3.10  16 3.10  25 3.10
                            26 3.10  27 3.10  28 3.10   1 3.11
  19  0.250  0.500  0.250-   3 3.10   4 3.10   7 3.10   8 3.10   9 3.10  11 3.10  13 3.10  15 3.10
                            25 3.10  26 3.10  27 3.10  28 3.10
  20  0.750  0.500  0.250-   3 3.10   4 3.10   7 3.10   8 3.10  10 3.10  12 3.10  14 3.10  16 3.10
                            25 3.10  26 3.10  27 3.10  28 3.10
  21  0.250  0.000  0.750-   1 3.09   2 3.10   5 3.10   6 3.10   9 3.10  11 3.10  13 3.10  15 3.10
                            29 3.10  30 3.10  31 3.10  32 3.10
  22  0.750  0.000  0.750-   2 3.10   5 3.10   6 3.10  10 3.10  12 3.10  14 3.10  16 3.10  29 3.10
                            30 3.10  31 3.10  32 3.10   1 3.11
  23  0.250  0.500  0.750-   3 3.10   4 3.10   7 3.10   8 3.10   9 3.10  11 3.10  13 3.10  15 3.10
                            29 3.10  30 3.10  31 3.10  32 3.10
  24  0.750  0.500  0.750-   3 3.10   4 3.10   7 3.10   8 3.10  10 3.10  12 3.10  14 3.10  16 3.10
                            29 3.10  30 3.10  31 3.10  32 3.10
  25  0.000  0.250  0.250-   3 3.10   5 3.10   7 3.10   9 3.10  10 3.10  13 3.10  14 3.10  17 3.10
                            18 3.10  19 3.10  20 3.10   1 3.10
  26  0.500  0.250  0.250-   2 3.10   4 3.10   6 3.10   8 3.10   9 3.10  10 3.10  13 3.10  14 3.10
                            17 3.10  18 3.10  19 3.10  20 3.10
  27  0.000  0.750  0.250-   3 3.10   5 3.10   7 3.10  11 3.10  12 3.10  15 3.10  16 3.10  17 3.10
                            18 3.10  19 3.10  20 3.10   1 3.10
  28  0.500  0.750  0.250-   2 3.10   4 3.10   6 3.10   8 3.10  11 3.10  12 3.10  15 3.10  16 3.10
                            17 3.10  18 3.10  19 3.10  20 3.10
  29  0.000  0.250  0.750-   3 3.10   5 3.10   7 3.10   9 3.10  10 3.10  13 3.10  14 3.10  21 3.10
                            22 3.10  23 3.10  24 3.10   1 3.10
  30  0.500  0.250  0.750-   2 3.10   4 3.10   6 3.10   8 3.10   9 3.10  10 3.10  13 3.10  14 3.10
                            21 3.10  22 3.10  23 3.10  24 3.10
  31  0.000  0.750  0.750-   3 3.10   5 3.10   7 3.10  11 3.10  12 3.10  15 3.10  16 3.10  21 3.10
                            22 3.10  23 3.10  24 3.10   1 3.10
  32  0.500  0.750  0.750-   2 3.10   4 3.10   6 3.10   8 3.10  11 3.10  12 3.10  15 3.10  16 3.10
                            21 3.10  22 3.10  23 3.10  24 3.10
 
  LATTYP: Found a simple cubic cell.
 ALAT       =     8.7629889949
  
  Lattice vectors:
  
 A1 = (   8.7629889949,   0.0000000000,   0.0000000000)
 A2 = (   0.0000000000,   8.7629889949,   0.0000000000)
 A3 = (   0.0000000000,   0.0000000000,   8.7629889949)
 Subroutine PRICEL returns:
 Original cell was already a primitive cell.
 

Analysis of symmetry for initial positions (statically):

 Routine SETGRP: Setting up the symmetry group for a 
 simple cubic supercell.


 Subroutine GETGRP returns: Found  8 space group operations
 (whereof  8 operations were pure point group operations)
 out of a pool of 48 trial point group operations.


The static configuration has the point symmetry C_4v.

Analysis of symmetry for dynamics (positions and initial velocities):

 Subroutine DYNSYM returns: Found  8 space group operations
 (whereof  8 operations were pure point group operations)
 out of a pool of  8 trial space group operations
 (whereof  8 operations were pure point group operations)
 and found also     1 'primitive' translations


The dynamic configuration has the point symmetry C_4v.
 
 
 KPOINTS: Automatic mesh                          

Automatic generation of k-mesh.
 
 Subroutine IBZKPT returns following result:
 ===========================================
 
 Found    196 irreducible k-points:
 
 Following reciprocal coordinates:
            Coordinates               Weight
  0.000000  0.000000  0.000000      1.000000
  0.083333  0.000000  0.000000      2.000000
  0.166667  0.000000  0.000000      2.000000
  0.250000  0.000000  0.000000      2.000000
  0.333333  0.000000  0.000000      2.000000
  0.416667  0.000000  0.000000      2.000000
  0.500000  0.000000  0.000000      1.000000
  0.000000  0.083333  0.000000      4.000000
  0.083333  0.083333  0.000000      8.000000
  0.166667  0.083333  0.000000      8.000000
  0.250000  0.083333  0.000000      8.000000
  0.333333  0.083333  0.000000      8.000000
  0.416667  0.083333  0.000000      8.000000
  0.500000  0.083333  0.000000      4.000000
  0.000000  0.166667  0.000000      4.000000
  0.083333  0.166667  0.000000      8.000000
  0.166667  0.166667  0.000000      8.000000
  0.250000  0.166667  0.000000      8.000000
  0.333333  0.166667  0.000000      8.000000
  0.416667  0.166667  0.000000      8.000000
  0.500000  0.166667  0.000000      4.000000
  0.000000  0.250000  0.000000      4.000000
  0.083333  0.250000  0.000000      8.000000
  0.166667  0.250000  0.000000      8.000000
  0.250000  0.250000  0.000000      8.000000
  0.333333  0.250000  0.000000      8.000000
  0.416667  0.250000  0.000000      8.000000
  0.500000  0.250000  0.000000      4.000000
  0.000000  0.333333  0.000000      4.000000
  0.083333  0.333333  0.000000      8.000000
  0.166667  0.333333  0.000000      8.000000
  0.250000  0.333333  0.000000      8.000000
  0.333333  0.333333  0.000000      8.000000
  0.416667  0.333333  0.000000      8.000000
  0.500000  0.333333  0.000000      4.000000
  0.000000  0.416667  0.000000      4.000000
  0.083333  0.416667  0.000000      8.000000
  0.166667  0.416667  0.000000      8.000000
  0.250000  0.416667  0.000000      8.000000
  0.333333  0.416667  0.000000      8.000000
  0.416667  0.416667  0.000000      8.000000
  0.500000  0.416667  0.000000      4.000000
  0.000000  0.500000  0.000000      2.000000
  0.083333  0.500000  0.000000      4.000000
  0.166667  0.500000  0.000000      4.000000
  0.250000  0.500000  0.000000      4.000000
  0.333333  0.500000  0.000000      4.000000
  0.416667  0.500000  0.000000      4.000000
  0.500000  0.500000  0.000000      2.000000
  0.000000  0.083333  0.083333      4.000000
  0.083333  0.083333  0.083333      8.000000
  0.166667  0.083333  0.083333      8.000000
  0.250000  0.083333  0.083333      8.000000
  0.333333  0.083333  0.083333      8.000000
  0.416667  0.083333  0.083333      8.000000
  0.500000  0.083333  0.083333      4.000000
  0.000000  0.166667  0.083333      8.000000
  0.083333  0.166667  0.083333     16.000000
  0.166667  0.166667  0.083333     16.000000
  0.250000  0.166667  0.083333     16.000000
  0.333333  0.166667  0.083333     16.000000
  0.416667  0.166667  0.083333     16.000000
  0.500000  0.166667  0.083333      8.000000
  0.000000  0.250000  0.083333      8.000000
  0.083333  0.250000  0.083333     16.000000
  0.166667  0.250000  0.083333     16.000000
  0.250000  0.250000  0.083333     16.000000
  0.333333  0.250000  0.083333     16.000000
  0.416667  0.250000  0.083333     16.000000
  0.500000  0.250000  0.083333      8.000000
  0.000000  0.333333  0.083333      8.000000
  0.083333  0.333333  0.083333     16.000000
  0.166667  0.333333  0.083333     16.000000
  0.250000  0.333333  0.083333     16.000000
  0.333333  0.333333  0.083333     16.000000
  0.416667  0.333333  0.083333     16.000000
  0.500000  0.333333  0.083333      8.000000
  0.000000  0.416667  0.083333      8.000000
  0.083333  0.416667  0.083333     16.000000
  0.166667  0.416667  0.083333     16.000000
  0.250000  0.416667  0.083333     16.000000
  0.333333  0.416667  0.083333     16.000000
  0.416667  0.416667  0.083333     16.000000
  0.500000  0.416667  0.083333      8.000000
  0.000000  0.500000  0.083333      4.000000
  0.083333  0.500000  0.083333      8.000000
  0.166667  0.500000  0.083333      8.000000
  0.250000  0.500000  0.083333      8.000000
  0.333333  0.500000  0.083333      8.000000
  0.416667  0.500000  0.083333      8.000000
  0.500000  0.500000  0.083333      4.000000
  0.000000  0.166667  0.166667      4.000000
  0.083333  0.166667  0.166667      8.000000
  0.166667  0.166667  0.166667      8.000000
  0.250000  0.166667  0.166667      8.000000
  0.333333  0.166667  0.166667      8.000000
  0.416667  0.166667  0.166667      8.000000
  0.500000  0.166667  0.166667      4.000000
  0.000000  0.250000  0.166667      8.000000
  0.083333  0.250000  0.166667     16.000000
  0.166667  0.250000  0.166667     16.000000
  0.250000  0.250000  0.166667     16.000000
  0.333333  0.250000  0.166667     16.000000
  0.416667  0.250000  0.166667     16.000000
  0.500000  0.250000  0.166667      8.000000
  0.000000  0.333333  0.166667      8.000000
  0.083333  0.333333  0.166667     16.000000
  0.166667  0.333333  0.166667     16.000000
  0.250000  0.333333  0.166667     16.000000
  0.333333  0.333333  0.166667     16.000000
  0.416667  0.333333  0.166667     16.000000
  0.500000  0.333333  0.166667      8.000000
  0.000000  0.416667  0.166667      8.000000
  0.083333  0.416667  0.166667     16.000000
  0.166667  0.416667  0.166667     16.000000
  0.250000  0.416667  0.166667     16.000000
  0.333333  0.416667  0.166667     16.000000
  0.416667  0.416667  0.166667     16.000000
  0.500000  0.416667  0.166667      8.000000
  0.000000  0.500000  0.166667      4.000000
  0.083333  0.500000  0.166667      8.000000
  0.166667  0.500000  0.166667      8.000000
  0.250000  0.500000  0.166667      8.000000
  0.333333  0.500000  0.166667      8.000000
  0.416667  0.500000  0.166667      8.000000
  0.500000  0.500000  0.166667      4.000000
  0.000000  0.250000  0.250000      4.000000
  0.083333  0.250000  0.250000      8.000000
  0.166667  0.250000  0.250000      8.000000
  0.250000  0.250000  0.250000      8.000000
  0.333333  0.250000  0.250000      8.000000
  0.416667  0.250000  0.250000      8.000000
  0.500000  0.250000  0.250000      4.000000
  0.000000  0.333333  0.250000      8.000000
  0.083333  0.333333  0.250000     16.000000
  0.166667  0.333333  0.250000     16.000000
  0.250000  0.333333  0.250000     16.000000
  0.333333  0.333333  0.250000     16.000000
  0.416667  0.333333  0.250000     16.000000
  0.500000  0.333333  0.250000      8.000000
  0.000000  0.416667  0.250000      8.000000
  0.083333  0.416667  0.250000     16.000000
  0.166667  0.416667  0.250000     16.000000
  0.250000  0.416667  0.250000     16.000000
  0.333333  0.416667  0.250000     16.000000
  0.416667  0.416667  0.250000     16.000000
  0.500000  0.416667  0.250000      8.000000
  0.000000  0.500000  0.250000      4.000000
  0.083333  0.500000  0.250000      8.000000
  0.166667  0.500000  0.250000      8.000000
  0.250000  0.500000  0.250000      8.000000
  0.333333  0.500000  0.250000      8.000000
  0.416667  0.500000  0.250000      8.000000
  0.500000  0.500000  0.250000      4.000000
  0.000000  0.333333  0.333333      4.000000
  0.083333  0.333333  0.333333      8.000000
  0.166667  0.333333  0.333333      8.000000
  0.250000  0.333333  0.333333      8.000000
  0.333333  0.333333  0.333333      8.000000
  0.416667  0.333333  0.333333      8.000000
  0.500000  0.333333  0.333333      4.000000
  0.000000  0.416667  0.333333      8.000000
  0.083333  0.416667  0.333333     16.000000
  0.166667  0.416667  0.333333     16.000000
  0.250000  0.416667  0.333333     16.000000
  0.333333  0.416667  0.333333     16.000000
  0.416667  0.416667  0.333333     16.000000
  0.500000  0.416667  0.333333      8.000000
  0.000000  0.500000  0.333333      4.000000
  0.083333  0.500000  0.333333      8.000000
  0.166667  0.500000  0.333333      8.000000
  0.250000  0.500000  0.333333      8.000000
  0.333333  0.500000  0.333333      8.000000
  0.416667  0.500000  0.333333      8.000000
  0.500000  0.500000  0.333333      4.000000
  0.000000  0.416667  0.416667      4.000000
  0.083333  0.416667  0.416667      8.000000
  0.166667  0.416667  0.416667      8.000000
  0.250000  0.416667  0.416667      8.000000
  0.333333  0.416667  0.416667      8.000000
  0.416667  0.416667  0.416667      8.000000
  0.500000  0.416667  0.416667      4.000000
  0.000000  0.500000  0.416667      4.000000
  0.083333  0.500000  0.416667      8.000000
  0.166667  0.500000  0.416667      8.000000
  0.250000  0.500000  0.416667      8.000000
  0.333333  0.500000  0.416667      8.000000
  0.416667  0.500000  0.416667      8.000000
  0.500000  0.500000  0.416667      4.000000
  0.000000  0.500000  0.500000      1.000000
  0.083333  0.500000  0.500000      2.000000
  0.166667  0.500000  0.500000      2.000000
  0.250000  0.500000  0.500000      2.000000
  0.333333  0.500000  0.500000      2.000000
  0.416667  0.500000  0.500000      2.000000
  0.500000  0.500000  0.500000      1.000000
 
 Following cartesian coordinates:
            Coordinates               Weight
  0.000000  0.000000  0.000000      1.000000
  0.009510  0.000000  0.000000      2.000000
  0.019019  0.000000  0.000000      2.000000
  0.028529  0.000000  0.000000      2.000000
  0.038039  0.000000  0.000000      2.000000
  0.047548  0.000000  0.000000      2.000000
  0.057058  0.000000  0.000000      1.000000
  0.000000  0.009510  0.000000      4.000000
  0.009510  0.009510  0.000000      8.000000
  0.019019  0.009510  0.000000      8.000000
  0.028529  0.009510  0.000000      8.000000
  0.038039  0.009510  0.000000      8.000000
  0.047548  0.009510  0.000000      8.000000
  0.057058  0.009510  0.000000      4.000000
  0.000000  0.019019  0.000000      4.000000
  0.009510  0.019019  0.000000      8.000000
  0.019019  0.019019  0.000000      8.000000
  0.028529  0.019019  0.000000      8.000000
  0.038039  0.019019  0.000000      8.000000
  0.047548  0.019019  0.000000      8.000000
  0.057058  0.019019  0.000000      4.000000
  0.000000  0.028529  0.000000      4.000000
  0.009510  0.028529  0.000000      8.000000
  0.019019  0.028529  0.000000      8.000000
  0.028529  0.028529  0.000000      8.000000
  0.038039  0.028529  0.000000      8.000000
  0.047548  0.028529  0.000000      8.000000
  0.057058  0.028529  0.000000      4.000000
  0.000000  0.038039  0.000000      4.000000
  0.009510  0.038039  0.000000      8.000000
  0.019019  0.038039  0.000000      8.000000
  0.028529  0.038039  0.000000      8.000000
  0.038039  0.038039  0.000000      8.000000
  0.047548  0.038039  0.000000      8.000000
  0.057058  0.038039  0.000000      4.000000
  0.000000  0.047548  0.000000      4.000000
  0.009510  0.047548  0.000000      8.000000
  0.019019  0.047548  0.000000      8.000000
  0.028529  0.047548  0.000000      8.000000
  0.038039  0.047548  0.000000      8.000000
  0.047548  0.047548  0.000000      8.000000
  0.057058  0.047548  0.000000      4.000000
  0.000000  0.057058  0.000000      2.000000
  0.009510  0.057058  0.000000      4.000000
  0.019019  0.057058  0.000000      4.000000
  0.028529  0.057058  0.000000      4.000000
  0.038039  0.057058  0.000000      4.000000
  0.047548  0.057058  0.000000      4.000000
  0.057058  0.057058  0.000000      2.000000
  0.000000  0.009510  0.009510      4.000000
  0.009510  0.009510  0.009510      8.000000
  0.019019  0.009510  0.009510      8.000000
  0.028529  0.009510  0.009510      8.000000
  0.038039  0.009510  0.009510      8.000000
  0.047548  0.009510  0.009510      8.000000
  0.057058  0.009510  0.009510      4.000000
  0.000000  0.019019  0.009510      8.000000
  0.009510  0.019019  0.009510     16.000000
  0.019019  0.019019  0.009510     16.000000
  0.028529  0.019019  0.009510     16.000000
  0.038039  0.019019  0.009510     16.000000
  0.047548  0.019019  0.009510     16.000000
  0.057058  0.019019  0.009510      8.000000
  0.000000  0.028529  0.009510      8.000000
  0.009510  0.028529  0.009510     16.000000
  0.019019  0.028529  0.009510     16.000000
  0.028529  0.028529  0.009510     16.000000
  0.038039  0.028529  0.009510     16.000000
  0.047548  0.028529  0.009510     16.000000
  0.057058  0.028529  0.009510      8.000000
  0.000000  0.038039  0.009510      8.000000
  0.009510  0.038039  0.009510     16.000000
  0.019019  0.038039  0.009510     16.000000
  0.028529  0.038039  0.009510     16.000000
  0.038039  0.038039  0.009510     16.000000
  0.047548  0.038039  0.009510     16.000000
  0.057058  0.038039  0.009510      8.000000
  0.000000  0.047548  0.009510      8.000000
  0.009510  0.047548  0.009510     16.000000
  0.019019  0.047548  0.009510     16.000000
  0.028529  0.047548  0.009510     16.000000
  0.038039  0.047548  0.009510     16.000000
  0.047548  0.047548  0.009510     16.000000
  0.057058  0.047548  0.009510      8.000000
  0.000000  0.057058  0.009510      4.000000
  0.009510  0.057058  0.009510      8.000000
  0.019019  0.057058  0.009510      8.000000
  0.028529  0.057058  0.009510      8.000000
  0.038039  0.057058  0.009510      8.000000
  0.047548  0.057058  0.009510      8.000000
  0.057058  0.057058  0.009510      4.000000
  0.000000  0.019019  0.019019      4.000000
  0.009510  0.019019  0.019019      8.000000
  0.019019  0.019019  0.019019      8.000000
  0.028529  0.019019  0.019019      8.000000
  0.038039  0.019019  0.019019      8.000000
  0.047548  0.019019  0.019019      8.000000
  0.057058  0.019019  0.019019      4.000000
  0.000000  0.028529  0.019019      8.000000
  0.009510  0.028529  0.019019     16.000000
  0.019019  0.028529  0.019019     16.000000
  0.028529  0.028529  0.019019     16.000000
  0.038039  0.028529  0.019019     16.000000
  0.047548  0.028529  0.019019     16.000000
  0.057058  0.028529  0.019019      8.000000
  0.000000  0.038039  0.019019      8.000000
  0.009510  0.038039  0.019019     16.000000
  0.019019  0.038039  0.019019     16.000000
  0.028529  0.038039  0.019019     16.000000
  0.038039  0.038039  0.019019     16.000000
  0.047548  0.038039  0.019019     16.000000
  0.057058  0.038039  0.019019      8.000000
  0.000000  0.047548  0.019019      8.000000
  0.009510  0.047548  0.019019     16.000000
  0.019019  0.047548  0.019019     16.000000
  0.028529  0.047548  0.019019     16.000000
  0.038039  0.047548  0.019019     16.000000
  0.047548  0.047548  0.019019     16.000000
  0.057058  0.047548  0.019019      8.000000
  0.000000  0.057058  0.019019      4.000000
  0.009510  0.057058  0.019019      8.000000
  0.019019  0.057058  0.019019      8.000000
  0.028529  0.057058  0.019019      8.000000
  0.038039  0.057058  0.019019      8.000000
  0.047548  0.057058  0.019019      8.000000
  0.057058  0.057058  0.019019      4.000000
  0.000000  0.028529  0.028529      4.000000
  0.009510  0.028529  0.028529      8.000000
  0.019019  0.028529  0.028529      8.000000
  0.028529  0.028529  0.028529      8.000000
  0.038039  0.028529  0.028529      8.000000
  0.047548  0.028529  0.028529      8.000000
  0.057058  0.028529  0.028529      4.000000
  0.000000  0.038039  0.028529      8.000000
  0.009510  0.038039  0.028529     16.000000
  0.019019  0.038039  0.028529     16.000000
  0.028529  0.038039  0.028529     16.000000
  0.038039  0.038039  0.028529     16.000000
  0.047548  0.038039  0.028529     16.000000
  0.057058  0.038039  0.028529      8.000000
  0.000000  0.047548  0.028529      8.000000
  0.009510  0.047548  0.028529     16.000000
  0.019019  0.047548  0.028529     16.000000
  0.028529  0.047548  0.028529     16.000000
  0.038039  0.047548  0.028529     16.000000
  0.047548  0.047548  0.028529     16.000000
  0.057058  0.047548  0.028529      8.000000
  0.000000  0.057058  0.028529      4.000000
  0.009510  0.057058  0.028529      8.000000
  0.019019  0.057058  0.028529      8.000000
  0.028529  0.057058  0.028529      8.000000
  0.038039  0.057058  0.028529      8.000000
  0.047548  0.057058  0.028529      8.000000
  0.057058  0.057058  0.028529      4.000000
  0.000000  0.038039  0.038039      4.000000
  0.009510  0.038039  0.038039      8.000000
  0.019019  0.038039  0.038039      8.000000
  0.028529  0.038039  0.038039      8.000000
  0.038039  0.038039  0.038039      8.000000
  0.047548  0.038039  0.038039      8.000000
  0.057058  0.038039  0.038039      4.000000
  0.000000  0.047548  0.038039      8.000000
  0.009510  0.047548  0.038039     16.000000
  0.019019  0.047548  0.038039     16.000000
  0.028529  0.047548  0.038039     16.000000
  0.038039  0.047548  0.038039     16.000000
  0.047548  0.047548  0.038039     16.000000
  0.057058  0.047548  0.038039      8.000000
  0.000000  0.057058  0.038039      4.000000
  0.009510  0.057058  0.038039      8.000000
  0.019019  0.057058  0.038039      8.000000
  0.028529  0.057058  0.038039      8.000000
  0.038039  0.057058  0.038039      8.000000
  0.047548  0.057058  0.038039      8.000000
  0.057058  0.057058  0.038039      4.000000
  0.000000  0.047548  0.047548      4.000000
  0.009510  0.047548  0.047548      8.000000
  0.019019  0.047548  0.047548      8.000000
  0.028529  0.047548  0.047548      8.000000
  0.038039  0.047548  0.047548      8.000000
  0.047548  0.047548  0.047548      8.000000
  0.057058  0.047548  0.047548      4.000000
  0.000000  0.057058  0.047548      4.000000
  0.009510  0.057058  0.047548      8.000000
  0.019019  0.057058  0.047548      8.000000
  0.028529  0.057058  0.047548      8.000000
  0.038039  0.057058  0.047548      8.000000
  0.047548  0.057058  0.047548      8.000000
  0.057058  0.057058  0.047548      4.000000
  0.000000  0.057058  0.057058      1.000000
  0.009510  0.057058  0.057058      2.000000
  0.019019  0.057058  0.057058      2.000000
  0.028529  0.057058  0.057058      2.000000
  0.038039  0.057058  0.057058      2.000000
  0.047548  0.057058  0.057058      2.000000
  0.057058  0.057058  0.057058      1.000000
 


--------------------------------------------------------------------------------------------------------




 Dimension of arrays:
   k-Points           NKPTS =    196   number of bands    NBANDS=    216
   number of dos      NEDOS =    301   number of ions     NIONS =     32
   non local maximal  LDIM  =      6   non local SUM 2l+1 LMDIM =     18
   total plane-waves  NPLWV = 592704
   max r-space proj   IRMAX =      1   max aug-charges    IRDMAX= 431062
   dimension x,y,z NGX =    84 NGY =   84 NGZ =   84
   dimension x,y,z NGXF=   168 NGYF=  168 NGZF=  168
   support grid    NGXF=   336 NGYF=  336 NGZF=  336
   ions per type =              32
 NGX,Y,Z   is equivalent  to a cutoff of  15.94, 15.94, 15.94 a.u.
 NGXF,Y,Z  is equivalent  to a cutoff of  31.87, 31.87, 31.87 a.u.


 I would recommend the setting:
   dimension x,y,z NGX =    81 NGY =   81 NGZ =   81
 SYSTEM =  unknown system                          
 POSCAR =  Au                                      

 Startparameter for this run:
   NWRITE =      2    write-flag & timer
   PREC   = accura    medium, high low
   ISTART =      0    job   : 0-new  1-cont  2-samecut
   ICHARG =      2    charge: 1-file 2-atom 10-const
   ISPIN  =      1    spin polarized calculation?
   LNONCOLLINEAR =      F non collinear calculations
   LSORBIT =      F    spin-orbit coupling
   INIWAV =      1    electr: 0-lowe 1-rand  2-diag
   LASPH  =      F    aspherical Exc in radial PAW
   METAGGA=      F    non-selfconsistent MetaGGA calc.

 Electronic Relaxation 1
   ENCUT  =  800.0 eV  58.80 Ry    7.67 a.u.  20.21 20.21 20.21*2*pi/ulx,y,z
   ENINI  =  800.0     initial cutoff
   ENAUG  =  356.7 eV  augmentation charge cutoff
   NELM   =     60;   NELMIN=  2; NELMDL=  0     # of ELM steps 
   EDIFF  = 0.1E-07   stopping-criterion for ELM
   LREAL  =      F    real-space projection
   LCOMPAT=      F    compatible to vasp.4.4
   LREAL_COMPAT= F    compatible to vasp.4.5.1-3
   GGA_COMPAT  = T    GGA compatible to vasp.4.4-vasp.4.6
   LMAXPAW     = -100 max onsite density
   LMAXMIX     =    2 max onsite mixed and CHGCAR
   VOSKOWN=      0    Vosko Wilk Nusair interpolation
   ROPT   =    0.00000
 Ionic relaxation
   EDIFFG = 0.1E-06   stopping-criterion for IOM
   NSW    =      0    number of steps for IOM
   NBLOCK =      1;   KBLOCK =      1    inner block; outer block 
   IBRION =     -1    ionic relax: 0-MD 1-quasi-New 2-CG
   NFREE  =      0    steps in history (QN), initial steepest desc. (CG)
   ISIF   =      2    stress and relaxation
   IWAVPR =     10    prediction:  0-non 1-charg 2-wave 3-comb
   ISYM   =      2    0-nonsym 1-usesym 2-fastsym
   LCORR  =      T    Harris-Foulkes like correction to forces

   POTIM  =   0.50    time-step for ionic-motion
   TEIN   =    0.0    initial temperature
   TEBEG  =    0.0;   TEEND  =   0.0 temperature during run
   SMASS  =  -3.00    Nose mass-parameter (am)
   estimated Nose-frequenzy (Omega)   =  0.10E-29 period in steps =****** mass=  -0.175E-26a.u.
   NPACO  =    256;   APACO  = 16.0  distance and # of slots for P.C.
   PSTRESS=    0.0 pullay stress

  Mass of Ions in am
   POMASS = 196.97
  Ionic Valenz
   ZVAL   =  11.00
  Atomic Wigner-Seitz radii
   RWIGS  =  -1.00
   NELECT =     352.0000    total number of electrons
   NUPDOWN=      -1.0000    fix difference up-down

 DOS related values:
   EMIN   =  10.00;   EMAX   =-10.00  energy-range for DOS
   ISMEAR =     0;   SIGMA  =   0.01  broadening in eV -4-tet -1-fermi 0-gaus

 Electronic relaxation 2 (details)
   IALGO  =     38    algorithm
   LDIAG  =      T    sub-space diagonalisation
   IMIX   =      4    mixing-type and parameters
     AMIX     =   0.40;   BMIX     =  1.00
     AMIX_MAG =   1.60;   BMIX_MAG =  1.00
     AMIN     =   0.10
     WC   =   100.;   INIMIX=   1;  MIXPRE=   1

 Intra band minimization:
   WEIMIN = 0.0000     energy-eigenvalue tresh-hold
   EBREAK =  0.12E-10  absolut break condition
   DEPER  =   0.30     relativ break condition  

   TIME   =   0.10     timestep for ELM

  volume/ion in A,a.u.               =      21.03       141.91
  Fermi-wavevector in a.u.,eV,Ry     =   1.319077 23.673646  1.739964

 Second variation
   LSECVAR=     F    do a second variation
 
 Write flags
   LWAVE  =      F    write WAVECAR
   LCHARG =      F    write CHGCAR
   LVTOT  =      F    write LOCPOT, local potential
   LELF   =      F    write electronic localiz. function (ELF)
   LORBIT =      0    0 simple, 1 ext, 2 COOP (PROOUT)


 Dipole corrections
   IDIPOL =      0    1-x, 2-y, 3-z
   LDIPOL =      F    correct potential



--------------------------------------------------------------------------------------------------------


 Static calculation
 charge density will be updated during run
 non-spin polarized calculation
 Variant of blocked Davidson
 Davidson routine will perform the subspace rotation
 performe sub-space diagonalisation
    after iterative eigenvector-optimisation
 modified Broyden-mixing scheme, WC =      100.0
 initial mixing is a Kerker type mixing with AMIX =  0.4000 and BMIX =      1.0000
 Hartree-type preconditioning will be used
 using additional bands           40
 reciprocal scheme for non local part
 use partial core corrections
 calculate Harris-corrections to forces 
   (improved forces if not selfconsistent)
 use gradient corrections 
 use of overlap-Matrix (Vanderbilt PP)
 Gauss-broadening in eV      SIGMA  =   0.01


--------------------------------------------------------------------------------------------------------


  energy-cutoff  :      800.00
  volume of cell :      672.91
      direct lattice vectors                 reciprocal lattice vectors
     8.762988995  0.000000000  0.000000000     0.114116314  0.000000000  0.000000000
     0.000000000  8.762988995  0.000000000     0.000000000  0.114116314  0.000000000
     0.000000000  0.000000000  8.762988995     0.000000000  0.000000000  0.114116314

  length of vectors
     8.762988995  8.762988995  8.762988995     0.114116314  0.114116314  0.114116314


 
 k-points in units of 2pi/SCALE and weight: Automatic mesh                          
   0.00000000  0.00000000  0.00000000       0.001
   0.00950969  0.00000000  0.00000000       0.001
   0.01901939  0.00000000  0.00000000       0.001
   0.02852908  0.00000000  0.00000000       0.001
   0.03803877  0.00000000  0.00000000       0.001
   0.04754846  0.00000000  0.00000000       0.001
   0.05705816  0.00000000  0.00000000       0.001
   0.00000000  0.00950969  0.00000000       0.002
   0.00950969  0.00950969  0.00000000       0.005
   0.01901939  0.00950969  0.00000000       0.005
   0.02852908  0.00950969  0.00000000       0.005
   0.03803877  0.00950969  0.00000000       0.005
   0.04754846  0.00950969  0.00000000       0.005
   0.05705816  0.00950969  0.00000000       0.002
   0.00000000  0.01901939  0.00000000       0.002
   0.00950969  0.01901939  0.00000000       0.005
   0.01901939  0.01901939  0.00000000       0.005
   0.02852908  0.01901939  0.00000000       0.005
   0.03803877  0.01901939  0.00000000       0.005
   0.04754846  0.01901939  0.00000000       0.005
   0.05705816  0.01901939  0.00000000       0.002
   0.00000000  0.02852908  0.00000000       0.002
   0.00950969  0.02852908  0.00000000       0.005
   0.01901939  0.02852908  0.00000000       0.005
   0.02852908  0.02852908  0.00000000       0.005
   0.03803877  0.02852908  0.00000000       0.005
   0.04754846  0.02852908  0.00000000       0.005
   0.05705816  0.02852908  0.00000000       0.002
   0.00000000  0.03803877  0.00000000       0.002
   0.00950969  0.03803877  0.00000000       0.005
   0.01901939  0.03803877  0.00000000       0.005
   0.02852908  0.03803877  0.00000000       0.005
   0.03803877  0.03803877  0.00000000       0.005
   0.04754846  0.03803877  0.00000000       0.005
   0.05705816  0.03803877  0.00000000       0.002
   0.00000000  0.04754846  0.00000000       0.002
   0.00950969  0.04754846  0.00000000       0.005
   0.01901939  0.04754846  0.00000000       0.005
   0.02852908  0.04754846  0.00000000       0.005
   0.03803877  0.04754846  0.00000000       0.005
   0.04754846  0.04754846  0.00000000       0.005
   0.05705816  0.04754846  0.00000000       0.002
   0.00000000  0.05705816  0.00000000       0.001
   0.00950969  0.05705816  0.00000000       0.002
   0.01901939  0.05705816  0.00000000       0.002
   0.02852908  0.05705816  0.00000000       0.002
   0.03803877  0.05705816  0.00000000       0.002
   0.04754846  0.05705816  0.00000000       0.002
   0.05705816  0.05705816  0.00000000       0.001
   0.00000000  0.00950969  0.00950969       0.002
   0.00950969  0.00950969  0.00950969       0.005
   0.01901939  0.00950969  0.00950969       0.005
   0.02852908  0.00950969  0.00950969       0.005
   0.03803877  0.00950969  0.00950969       0.005
   0.04754846  0.00950969  0.00950969       0.005
   0.05705816  0.00950969  0.00950969       0.002
   0.00000000  0.01901939  0.00950969       0.005
   0.00950969  0.01901939  0.00950969       0.009
   0.01901939  0.01901939  0.00950969       0.009
   0.02852908  0.01901939  0.00950969       0.009
   0.03803877  0.01901939  0.00950969       0.009
   0.04754846  0.01901939  0.00950969       0.009
   0.05705816  0.01901939  0.00950969       0.005
   0.00000000  0.02852908  0.00950969       0.005
   0.00950969  0.02852908  0.00950969       0.009
   0.01901939  0.02852908  0.00950969       0.009
   0.02852908  0.02852908  0.00950969       0.009
   0.03803877  0.02852908  0.00950969       0.009
   0.04754846  0.02852908  0.00950969       0.009
   0.05705816  0.02852908  0.00950969       0.005
   0.00000000  0.03803877  0.00950969       0.005
   0.00950969  0.03803877  0.00950969       0.009
   0.01901939  0.03803877  0.00950969       0.009
   0.02852908  0.03803877  0.00950969       0.009
   0.03803877  0.03803877  0.00950969       0.009
   0.04754846  0.03803877  0.00950969       0.009
   0.05705816  0.03803877  0.00950969       0.005
   0.00000000  0.04754846  0.00950969       0.005
   0.00950969  0.04754846  0.00950969       0.009
   0.01901939  0.04754846  0.00950969       0.009
   0.02852908  0.04754846  0.00950969       0.009
   0.03803877  0.04754846  0.00950969       0.009
   0.04754846  0.04754846  0.00950969       0.009
   0.05705816  0.04754846  0.00950969       0.005
   0.00000000  0.05705816  0.00950969       0.002
   0.00950969  0.05705816  0.00950969       0.005
   0.01901939  0.05705816  0.00950969       0.005
   0.02852908  0.05705816  0.00950969       0.005
   0.03803877  0.05705816  0.00950969       0.005
   0.04754846  0.05705816  0.00950969       0.005
   0.05705816  0.05705816  0.00950969       0.002
   0.00000000  0.01901939  0.01901939       0.002
   0.00950969  0.01901939  0.01901939       0.005
   0.01901939  0.01901939  0.01901939       0.005
   0.02852908  0.01901939  0.01901939       0.005
   0.03803877  0.01901939  0.01901939       0.005
   0.04754846  0.01901939  0.01901939       0.005
   0.05705816  0.01901939  0.01901939       0.002
   0.00000000  0.02852908  0.01901939       0.005
   0.00950969  0.02852908  0.01901939       0.009
   0.01901939  0.02852908  0.01901939       0.009
   0.02852908  0.02852908  0.01901939       0.009
   0.03803877  0.02852908  0.01901939       0.009
   0.04754846  0.02852908  0.01901939       0.009
   0.05705816  0.02852908  0.01901939       0.005
   0.00000000  0.03803877  0.01901939       0.005
   0.00950969  0.03803877  0.01901939       0.009
   0.01901939  0.03803877  0.01901939       0.009
   0.02852908  0.03803877  0.01901939       0.009
   0.03803877  0.03803877  0.01901939       0.009
   0.04754846  0.03803877  0.01901939       0.009
   0.05705816  0.03803877  0.01901939       0.005
   0.00000000  0.04754846  0.01901939       0.005
   0.00950969  0.04754846  0.01901939       0.009
   0.01901939  0.04754846  0.01901939       0.009
   0.02852908  0.04754846  0.01901939       0.009
   0.03803877  0.04754846  0.01901939       0.009
   0.04754846  0.04754846  0.01901939       0.009
   0.05705816  0.04754846  0.01901939       0.005
   0.00000000  0.05705816  0.01901939       0.002
   0.00950969  0.05705816  0.01901939       0.005
   0.01901939  0.05705816  0.01901939       0.005
   0.02852908  0.05705816  0.01901939       0.005
   0.03803877  0.05705816  0.01901939       0.005
   0.04754846  0.05705816  0.01901939       0.005
   0.05705816  0.05705816  0.01901939       0.002
   0.00000000  0.02852908  0.02852908       0.002
   0.00950969  0.02852908  0.02852908       0.005
   0.01901939  0.02852908  0.02852908       0.005
   0.02852908  0.02852908  0.02852908       0.005
   0.03803877  0.02852908  0.02852908       0.005
   0.04754846  0.02852908  0.02852908       0.005
   0.05705816  0.02852908  0.02852908       0.002
   0.00000000  0.03803877  0.02852908       0.005
   0.00950969  0.03803877  0.02852908       0.009
   0.01901939  0.03803877  0.02852908       0.009
   0.02852908  0.03803877  0.02852908       0.009
   0.03803877  0.03803877  0.02852908       0.009
   0.04754846  0.03803877  0.02852908       0.009
   0.05705816  0.03803877  0.02852908       0.005
   0.00000000  0.04754846  0.02852908       0.005
   0.00950969  0.04754846  0.02852908       0.009
   0.01901939  0.04754846  0.02852908       0.009
   0.02852908  0.04754846  0.02852908       0.009
   0.03803877  0.04754846  0.02852908       0.009
   0.04754846  0.04754846  0.02852908       0.009
   0.05705816  0.04754846  0.02852908       0.005
   0.00000000  0.05705816  0.02852908       0.002
   0.00950969  0.05705816  0.02852908       0.005
   0.01901939  0.05705816  0.02852908       0.005
   0.02852908  0.05705816  0.02852908       0.005
   0.03803877  0.05705816  0.02852908       0.005
   0.04754846  0.05705816  0.02852908       0.005
   0.05705816  0.05705816  0.02852908       0.002
   0.00000000  0.03803877  0.03803877       0.002
   0.00950969  0.03803877  0.03803877       0.005
   0.01901939  0.03803877  0.03803877       0.005
   0.02852908  0.03803877  0.03803877       0.005
   0.03803877  0.03803877  0.03803877       0.005
   0.04754846  0.03803877  0.03803877       0.005
   0.05705816  0.03803877  0.03803877       0.002
   0.00000000  0.04754846  0.03803877       0.005
   0.00950969  0.04754846  0.03803877       0.009
   0.01901939  0.04754846  0.03803877       0.009
   0.02852908  0.04754846  0.03803877       0.009
   0.03803877  0.04754846  0.03803877       0.009
   0.04754846  0.04754846  0.03803877       0.009
   0.05705816  0.04754846  0.03803877       0.005
   0.00000000  0.05705816  0.03803877       0.002
   0.00950969  0.05705816  0.03803877       0.005
   0.01901939  0.05705816  0.03803877       0.005
   0.02852908  0.05705816  0.03803877       0.005
   0.03803877  0.05705816  0.03803877       0.005
   0.04754846  0.05705816  0.03803877       0.005
   0.05705816  0.05705816  0.03803877       0.002
   0.00000000  0.04754846  0.04754846       0.002
   0.00950969  0.04754846  0.04754846       0.005
   0.01901939  0.04754846  0.04754846       0.005
   0.02852908  0.04754846  0.04754846       0.005
   0.03803877  0.04754846  0.04754846       0.005
   0.04754846  0.04754846  0.04754846       0.005
   0.05705816  0.04754846  0.04754846       0.002
   0.00000000  0.05705816  0.04754846       0.002
   0.00950969  0.05705816  0.04754846       0.005
   0.01901939  0.05705816  0.04754846       0.005
   0.02852908  0.05705816  0.04754846       0.005
   0.03803877  0.05705816  0.04754846       0.005
   0.04754846  0.05705816  0.04754846       0.005
   0.05705816  0.05705816  0.04754846       0.002
   0.00000000  0.05705816  0.05705816       0.001
   0.00950969  0.05705816  0.05705816       0.001
   0.01901939  0.05705816  0.05705816       0.001
   0.02852908  0.05705816  0.05705816       0.001
   0.03803877  0.05705816  0.05705816       0.001
   0.04754846  0.05705816  0.05705816       0.001
   0.05705816  0.05705816  0.05705816       0.001
 
 k-points in reciprocal lattice and weights: Automatic mesh                          
   0.00000000  0.00000000  0.00000000       0.001
   0.08333333  0.00000000  0.00000000       0.001
   0.16666667  0.00000000  0.00000000       0.001
   0.25000000  0.00000000  0.00000000       0.001
   0.33333333  0.00000000  0.00000000       0.001
   0.41666667  0.00000000  0.00000000       0.001
   0.50000000  0.00000000  0.00000000       0.001
   0.00000000  0.08333333  0.00000000       0.002
   0.08333333  0.08333333  0.00000000       0.005
   0.16666667  0.08333333  0.00000000       0.005
   0.25000000  0.08333333  0.00000000       0.005
   0.33333333  0.08333333  0.00000000       0.005
   0.41666667  0.08333333  0.00000000       0.005
   0.50000000  0.08333333  0.00000000       0.002
   0.00000000  0.16666667  0.00000000       0.002
   0.08333333  0.16666667  0.00000000       0.005
   0.16666667  0.16666667  0.00000000       0.005
   0.25000000  0.16666667  0.00000000       0.005
   0.33333333  0.16666667  0.00000000       0.005
   0.41666667  0.16666667  0.00000000       0.005
   0.50000000  0.16666667  0.00000000       0.002
   0.00000000  0.25000000  0.00000000       0.002
   0.08333333  0.25000000  0.00000000       0.005
   0.16666667  0.25000000  0.00000000       0.005
   0.25000000  0.25000000  0.00000000       0.005
   0.33333333  0.25000000  0.00000000       0.005
   0.41666667  0.25000000  0.00000000       0.005
   0.50000000  0.25000000  0.00000000       0.002
   0.00000000  0.33333333  0.00000000       0.002
   0.08333333  0.33333333  0.00000000       0.005
   0.16666667  0.33333333  0.00000000       0.005
   0.25000000  0.33333333  0.00000000       0.005
   0.33333333  0.33333333  0.00000000       0.005
   0.41666667  0.33333333  0.00000000       0.005
   0.50000000  0.33333333  0.00000000       0.002
   0.00000000  0.41666667  0.00000000       0.002
   0.08333333  0.41666667  0.00000000       0.005
   0.16666667  0.41666667  0.00000000       0.005
   0.25000000  0.41666667  0.00000000       0.005
   0.33333333  0.41666667  0.00000000       0.005
   0.41666667  0.41666667  0.00000000       0.005
   0.50000000  0.41666667  0.00000000       0.002
   0.00000000  0.50000000  0.00000000       0.001
   0.08333333  0.50000000  0.00000000       0.002
   0.16666667  0.50000000  0.00000000       0.002
   0.25000000  0.50000000  0.00000000       0.002
   0.33333333  0.50000000  0.00000000       0.002
   0.41666667  0.50000000  0.00000000       0.002
   0.50000000  0.50000000  0.00000000       0.001
   0.00000000  0.08333333  0.08333333       0.002
   0.08333333  0.08333333  0.08333333       0.005
   0.16666667  0.08333333  0.08333333       0.005
   0.25000000  0.08333333  0.08333333       0.005
   0.33333333  0.08333333  0.08333333       0.005
   0.41666667  0.08333333  0.08333333       0.005
   0.50000000  0.08333333  0.08333333       0.002
   0.00000000  0.16666667  0.08333333       0.005
   0.08333333  0.16666667  0.08333333       0.009
   0.16666667  0.16666667  0.08333333       0.009
   0.25000000  0.16666667  0.08333333       0.009
   0.33333333  0.16666667  0.08333333       0.009
   0.41666667  0.16666667  0.08333333       0.009
   0.50000000  0.16666667  0.08333333       0.005
   0.00000000  0.25000000  0.08333333       0.005
   0.08333333  0.25000000  0.08333333       0.009
   0.16666667  0.25000000  0.08333333       0.009
   0.25000000  0.25000000  0.08333333       0.009
   0.33333333  0.25000000  0.08333333       0.009
   0.41666667  0.25000000  0.08333333       0.009
   0.50000000  0.25000000  0.08333333       0.005
   0.00000000  0.33333333  0.08333333       0.005
   0.08333333  0.33333333  0.08333333       0.009
   0.16666667  0.33333333  0.08333333       0.009
   0.25000000  0.33333333  0.08333333       0.009
   0.33333333  0.33333333  0.08333333       0.009
   0.41666667  0.33333333  0.08333333       0.009
   0.50000000  0.33333333  0.08333333       0.005
   0.00000000  0.41666667  0.08333333       0.005
   0.08333333  0.41666667  0.08333333       0.009
   0.16666667  0.41666667  0.08333333       0.009
   0.25000000  0.41666667  0.08333333       0.009
   0.33333333  0.41666667  0.08333333       0.009
   0.41666667  0.41666667  0.08333333       0.009
   0.50000000  0.41666667  0.08333333       0.005
   0.00000000  0.50000000  0.08333333       0.002
   0.08333333  0.50000000  0.08333333       0.005
   0.16666667  0.50000000  0.08333333       0.005
   0.25000000  0.50000000  0.08333333       0.005
   0.33333333  0.50000000  0.08333333       0.005
   0.41666667  0.50000000  0.08333333       0.005
   0.50000000  0.50000000  0.08333333       0.002
   0.00000000  0.16666667  0.16666667       0.002
   0.08333333  0.16666667  0.16666667       0.005
   0.16666667  0.16666667  0.16666667       0.005
   0.25000000  0.16666667  0.16666667       0.005
   0.33333333  0.16666667  0.16666667       0.005
   0.41666667  0.16666667  0.16666667       0.005
   0.50000000  0.16666667  0.16666667       0.002
   0.00000000  0.25000000  0.16666667       0.005
   0.08333333  0.25000000  0.16666667       0.009
   0.16666667  0.25000000  0.16666667       0.009
   0.25000000  0.25000000  0.16666667       0.009
   0.33333333  0.25000000  0.16666667       0.009
   0.41666667  0.25000000  0.16666667       0.009
   0.50000000  0.25000000  0.16666667       0.005
   0.00000000  0.33333333  0.16666667       0.005
   0.08333333  0.33333333  0.16666667       0.009
   0.16666667  0.33333333  0.16666667       0.009
   0.25000000  0.33333333  0.16666667       0.009
   0.33333333  0.33333333  0.16666667       0.009
   0.41666667  0.33333333  0.16666667       0.009
   0.50000000  0.33333333  0.16666667       0.005
   0.00000000  0.41666667  0.16666667       0.005
   0.08333333  0.41666667  0.16666667       0.009
   0.16666667  0.41666667  0.16666667       0.009
   0.25000000  0.41666667  0.16666667       0.009
   0.33333333  0.41666667  0.16666667       0.009
   0.41666667  0.41666667  0.16666667       0.009
   0.50000000  0.41666667  0.16666667       0.005
   0.00000000  0.50000000  0.16666667       0.002
   0.08333333  0.50000000  0.16666667       0.005
   0.16666667  0.50000000  0.16666667       0.005
   0.25000000  0.50000000  0.16666667       0.005
   0.33333333  0.50000000  0.16666667       0.005
   0.41666667  0.50000000  0.16666667       0.005
   0.50000000  0.50000000  0.16666667       0.002
   0.00000000  0.25000000  0.25000000       0.002
   0.08333333  0.25000000  0.25000000       0.005
   0.16666667  0.25000000  0.25000000       0.005
   0.25000000  0.25000000  0.25000000       0.005
   0.33333333  0.25000000  0.25000000       0.005
   0.41666667  0.25000000  0.25000000       0.005
   0.50000000  0.25000000  0.25000000       0.002
   0.00000000  0.33333333  0.25000000       0.005
   0.08333333  0.33333333  0.25000000       0.009
   0.16666667  0.33333333  0.25000000       0.009
   0.25000000  0.33333333  0.25000000       0.009
   0.33333333  0.33333333  0.25000000       0.009
   0.41666667  0.33333333  0.25000000       0.009
   0.50000000  0.33333333  0.25000000       0.005
   0.00000000  0.41666667  0.25000000       0.005
   0.08333333  0.41666667  0.25000000       0.009
   0.16666667  0.41666667  0.25000000       0.009
   0.25000000  0.41666667  0.25000000       0.009
   0.33333333  0.41666667  0.25000000       0.009
   0.41666667  0.41666667  0.25000000       0.009
   0.50000000  0.41666667  0.25000000       0.005
   0.00000000  0.50000000  0.25000000       0.002
   0.08333333  0.50000000  0.25000000       0.005
   0.16666667  0.50000000  0.25000000       0.005
   0.25000000  0.50000000  0.25000000       0.005
   0.33333333  0.50000000  0.25000000       0.005
   0.41666667  0.50000000  0.25000000       0.005
   0.50000000  0.50000000  0.25000000       0.002
   0.00000000  0.33333333  0.33333333       0.002
   0.08333333  0.33333333  0.33333333       0.005
   0.16666667  0.33333333  0.33333333       0.005
   0.25000000  0.33333333  0.33333333       0.005
   0.33333333  0.33333333  0.33333333       0.005
   0.41666667  0.33333333  0.33333333       0.005
   0.50000000  0.33333333  0.33333333       0.002
   0.00000000  0.41666667  0.33333333       0.005
   0.08333333  0.41666667  0.33333333       0.009
   0.16666667  0.41666667  0.33333333       0.009
   0.25000000  0.41666667  0.33333333       0.009
   0.33333333  0.41666667  0.33333333       0.009
   0.41666667  0.41666667  0.33333333       0.009
   0.50000000  0.41666667  0.33333333       0.005
   0.00000000  0.50000000  0.33333333       0.002
   0.08333333  0.50000000  0.33333333       0.005
   0.16666667  0.50000000  0.33333333       0.005
   0.25000000  0.50000000  0.33333333       0.005
   0.33333333  0.50000000  0.33333333       0.005
   0.41666667  0.50000000  0.33333333       0.005
   0.50000000  0.50000000  0.33333333       0.002
   0.00000000  0.41666667  0.41666667       0.002
   0.08333333  0.41666667  0.41666667       0.005
   0.16666667  0.41666667  0.41666667       0.005
   0.25000000  0.41666667  0.41666667       0.005
   0.33333333  0.41666667  0.41666667       0.005
   0.41666667  0.41666667  0.41666667       0.005
   0.50000000  0.41666667  0.41666667       0.002
   0.00000000  0.50000000  0.41666667       0.002
   0.08333333  0.50000000  0.41666667       0.005
   0.16666667  0.50000000  0.41666667       0.005
   0.25000000  0.50000000  0.41666667       0.005
   0.33333333  0.50000000  0.41666667       0.005
   0.41666667  0.50000000  0.41666667       0.005
   0.50000000  0.50000000  0.41666667       0.002
   0.00000000  0.50000000  0.50000000       0.001
   0.08333333  0.50000000  0.50000000       0.001
   0.16666667  0.50000000  0.50000000       0.001
   0.25000000  0.50000000  0.50000000       0.001
   0.33333333  0.50000000  0.50000000       0.001
   0.41666667  0.50000000  0.50000000       0.001
   0.50000000  0.50000000  0.50000000       0.001
 
 position of ions in fractional coordinates (direct lattice) 
   0.00114116  0.00000000  0.00000000
   0.50000000  0.00000000  0.00000000
   0.00000000  0.50000000  0.00000000
   0.50000000  0.50000000  0.00000000
   0.00000000  0.00000000  0.50000000
   0.50000000  0.00000000  0.50000000
   0.00000000  0.50000000  0.50000000
   0.50000000  0.50000000  0.50000000
   0.25000000  0.25000000  0.00000000
   0.75000000  0.25000000  0.00000000
   0.25000000  0.75000000  0.00000000
   0.75000000  0.75000000  0.00000000
   0.25000000  0.25000000  0.50000000
   0.75000000  0.25000000  0.50000000
   0.25000000  0.75000000  0.50000000
   0.75000000  0.75000000  0.50000000
   0.25000000  0.00000000  0.25000000
   0.75000000  0.00000000  0.25000000
   0.25000000  0.50000000  0.25000000
   0.75000000  0.50000000  0.25000000
   0.25000000  0.00000000  0.75000000
   0.75000000  0.00000000  0.75000000
   0.25000000  0.50000000  0.75000000
   0.75000000  0.50000000  0.75000000
   0.00000000  0.25000000  0.25000000
   0.50000000  0.25000000  0.25000000
   0.00000000  0.75000000  0.25000000
   0.50000000  0.75000000  0.25000000
   0.00000000  0.25000000  0.75000000
   0.50000000  0.25000000  0.75000000
   0.00000000  0.75000000  0.75000000
   0.50000000  0.75000000  0.75000000
 
 position of ions in cartesian coordinates  (Angst):
   0.01000000  0.00000000  0.00000000
   4.38149450  0.00000000  0.00000000
   0.00000000  4.38149450  0.00000000
   4.38149450  4.38149450  0.00000000
   0.00000000  0.00000000  4.38149450
   4.38149450  0.00000000  4.38149450
   0.00000000  4.38149450  4.38149450
   4.38149450  4.38149450  4.38149450
   2.19074725  2.19074725  0.00000000
   6.57224175  2.19074725  0.00000000
   2.19074725  6.57224175  0.00000000
   6.57224175  6.57224175  0.00000000
   2.19074725  2.19074725  4.38149450
   6.57224175  2.19074725  4.38149450
   2.19074725  6.57224175  4.38149450
   6.57224175  6.57224175  4.38149450
   2.19074725  0.00000000  2.19074725
   6.57224175  0.00000000  2.19074725
   2.19074725  4.38149450  2.19074725
   6.57224175  4.38149450  2.19074725
   2.19074725  0.00000000  6.57224175
   6.57224175  0.00000000  6.57224175
   2.19074725  4.38149450  6.57224175
   6.57224175  4.38149450  6.57224175
   0.00000000  2.19074725  2.19074725
   4.38149450  2.19074725  2.19074725
   0.00000000  6.57224175  2.19074725
   4.38149450  6.57224175  2.19074725
   0.00000000  2.19074725  6.57224175
   4.38149450  2.19074725  6.57224175
   0.00000000  6.57224175  6.57224175
   4.38149450  6.57224175  6.57224175
 


--------------------------------------------------------------------------------------------------------


 k-point  1 :  0.00000.00000.0000  plane waves:  34505
 k-point  2 :  0.08330.00000.0000  plane waves:  34601
 k-point  3 :  0.16670.00000.0000  plane waves:  34601
 k-point  4 :  0.25000.00000.0000  plane waves:  34552
 k-point  5 :  0.33330.00000.0000  plane waves:  34568
 k-point  6 :  0.41670.00000.0000  plane waves:  34580
 k-point  7 :  0.50000.00000.0000  plane waves:  34608
 k-point  8 :  0.00000.08330.0000  plane waves:  34601
 k-point  9 :  0.08330.08330.0000  plane waves:  34577
 k-point 10 :  0.16670.08330.0000  plane waves:  34592
 k-point 11 :  0.25000.08330.0000  plane waves:  34572
 k-point 12 :  0.33330.08330.0000  plane waves:  34548
 k-point 13 :  0.41670.08330.0000  plane waves:  34564
 k-point 14 :  0.50000.08330.0000  plane waves:  34560
 k-point 15 :  0.00000.16670.0000  plane waves:  34601
 k-point 16 :  0.08330.16670.0000  plane waves:  34592
 k-point 17 :  0.16670.16670.0000  plane waves:  34567
 k-point 18 :  0.25000.16670.0000  plane waves:  34564
 k-point 19 :  0.33330.16670.0000  plane waves:  34561
 k-point 20 :  0.41670.16670.0000  plane waves:  34589
 k-point 21 :  0.50000.16670.0000  plane waves:  34602
 k-point 22 :  0.00000.25000.0000  plane waves:  34552
 k-point 23 :  0.08330.25000.0000  plane waves:  34572
 k-point 24 :  0.16670.25000.0000  plane waves:  34564
 k-point 25 :  0.25000.25000.0000  plane waves:  34605
 k-point 26 :  0.33330.25000.0000  plane waves:  34577
 k-point 27 :  0.41670.25000.0000  plane waves:  34594
 k-point 28 :  0.50000.25000.0000  plane waves:  34626
 k-point 29 :  0.00000.33330.0000  plane waves:  34568
 k-point 30 :  0.08330.33330.0000  plane waves:  34548
 k-point 31 :  0.16670.33330.0000  plane waves:  34561
 k-point 32 :  0.25000.33330.0000  plane waves:  34577
 k-point 33 :  0.33330.33330.0000  plane waves:  34592
 k-point 34 :  0.41670.33330.0000  plane waves:  34558
 k-point 35 :  0.50000.33330.0000  plane waves:  34590
 k-point 36 :  0.00000.41670.0000  plane waves:  34580
 k-point 37 :  0.08330.41670.0000  plane waves:  34564
 k-point 38 :  0.16670.41670.0000  plane waves:  34589
 k-point 39 :  0.25000.41670.0000  plane waves:  34594
 k-point 40 :  0.33330.41670.0000  plane waves:  34558
 k-point 41 :  0.41670.41670.0000  plane waves:  34534
 k-point 42 :  0.50000.41670.0000  plane waves:  34518
 k-point 43 :  0.00000.50000.0000  plane waves:  34608
 k-point 44 :  0.08330.50000.0000  plane waves:  34560
 k-point 45 :  0.16670.50000.0000  plane waves:  34602
 k-point 46 :  0.25000.50000.0000  plane waves:  34626
 k-point 47 :  0.33330.50000.0000  plane waves:  34590
 k-point 48 :  0.41670.50000.0000  plane waves:  34518
 k-point 49 :  0.50000.50000.0000  plane waves:  34408
 k-point 50 :  0.00000.08330.0833  plane waves:  34577
 k-point 51 :  0.08330.08330.0833  plane waves:  34589
 k-point 52 :  0.16670.08330.0833  plane waves:  34587
 k-point 53 :  0.25000.08330.0833  plane waves:  34598
 k-point 54 :  0.33330.08330.0833  plane waves:  34566
 k-point 55 :  0.41670.08330.0833  plane waves:  34574
 k-point 56 :  0.50000.08330.0833  plane waves:  34592
 k-point 57 :  0.00000.16670.0833  plane waves:  34592
 k-point 58 :  0.08330.16670.0833  plane waves:  34587
 k-point 59 :  0.16670.16670.0833  plane waves:  34585
 k-point 60 :  0.25000.16670.0833  plane waves:  34577
 k-point 61 :  0.33330.16670.0833  plane waves:  34561
 k-point 62 :  0.41670.16670.0833  plane waves:  34579
 k-point 63 :  0.50000.16670.0833  plane waves:  34552
 k-point 64 :  0.00000.25000.0833  plane waves:  34572
 k-point 65 :  0.08330.25000.0833  plane waves:  34598
 k-point 66 :  0.16670.25000.0833  plane waves:  34577
 k-point 67 :  0.25000.25000.0833  plane waves:  34565
 k-point 68 :  0.33330.25000.0833  plane waves:  34546
 k-point 69 :  0.41670.25000.0833  plane waves:  34584
 k-point 70 :  0.50000.25000.0833  plane waves:  34572
 k-point 71 :  0.00000.33330.0833  plane waves:  34548
 k-point 72 :  0.08330.33330.0833  plane waves:  34566
 k-point 73 :  0.16670.33330.0833  plane waves:  34561
 k-point 74 :  0.25000.33330.0833  plane waves:  34546
 k-point 75 :  0.33330.33330.0833  plane waves:  34583
 k-point 76 :  0.41670.33330.0833  plane waves:  34571
 k-point 77 :  0.50000.33330.0833  plane waves:  34578
 k-point 78 :  0.00000.41670.0833  plane waves:  34564
 k-point 79 :  0.08330.41670.0833  plane waves:  34574
 k-point 80 :  0.16670.41670.0833  plane waves:  34579
 k-point 81 :  0.25000.41670.0833  plane waves:  34584
 k-point 82 :  0.33330.41670.0833  plane waves:  34571
 k-point 83 :  0.41670.41670.0833  plane waves:  34568
 k-point 84 :  0.50000.41670.0833  plane waves:  34546
 k-point 85 :  0.00000.50000.0833  plane waves:  34560
 k-point 86 :  0.08330.50000.0833  plane waves:  34592
 k-point 87 :  0.16670.50000.0833  plane waves:  34552
 k-point 88 :  0.25000.50000.0833  plane waves:  34572
 k-point 89 :  0.33330.50000.0833  plane waves:  34578
 k-point 90 :  0.41670.50000.0833  plane waves:  34546
 k-point 91 :  0.50000.50000.0833  plane waves:  34552
 k-point 92 :  0.00000.16670.1667  plane waves:  34567
 k-point 93 :  0.08330.16670.1667  plane waves:  34585
 k-point 94 :  0.16670.16670.1667  plane waves:  34589
 k-point 95 :  0.25000.16670.1667  plane waves:  34555
 k-point 96 :  0.33330.16670.1667  plane waves:  34545
 k-point 97 :  0.41670.16670.1667  plane waves:  34582
 k-point 98 :  0.50000.16670.1667  plane waves:  34622
 k-point 99 :  0.00000.25000.1667  plane waves:  34564
 k-point ** :  0.08330.25000.1667  plane waves:  34577
 k-point ** :  0.16670.25000.1667  plane waves:  34555
 k-point ** :  0.25000.25000.1667  plane waves:  34557
 k-point ** :  0.33330.25000.1667  plane waves:  34571
 k-point ** :  0.41670.25000.1667  plane waves:  34554
 k-point ** :  0.50000.25000.1667  plane waves:  34568
 k-point ** :  0.00000.33330.1667  plane waves:  34561
 k-point ** :  0.08330.33330.1667  plane waves:  34561
 k-point ** :  0.16670.33330.1667  plane waves:  34545
 k-point ** :  0.25000.33330.1667  plane waves:  34571
 k-point ** :  0.33330.33330.1667  plane waves:  34560
 k-point ** :  0.41670.33330.1667  plane waves:  34556
 k-point ** :  0.50000.33330.1667  plane waves:  34558
 k-point ** :  0.00000.41670.1667  plane waves:  34589
 k-point ** :  0.08330.41670.1667  plane waves:  34579
 k-point ** :  0.16670.41670.1667  plane waves:  34582
 k-point ** :  0.25000.41670.1667  plane waves:  34554
 k-point ** :  0.33330.41670.1667  plane waves:  34556
 k-point ** :  0.41670.41670.1667  plane waves:  34579
 k-point ** :  0.50000.41670.1667  plane waves:  34554
 k-point ** :  0.00000.50000.1667  plane waves:  34602
 k-point ** :  0.08330.50000.1667  plane waves:  34552
 k-point ** :  0.16670.50000.1667  plane waves:  34622
 k-point ** :  0.25000.50000.1667  plane waves:  34568
 k-point ** :  0.33330.50000.1667  plane waves:  34558
 k-point ** :  0.41670.50000.1667  plane waves:  34554
 k-point ** :  0.50000.50000.1667  plane waves:  34524
 k-point ** :  0.00000.25000.2500  plane waves:  34605
 k-point ** :  0.08330.25000.2500  plane waves:  34565
 k-point ** :  0.16670.25000.2500  plane waves:  34557
 k-point ** :  0.25000.25000.2500  plane waves:  34556
 k-point ** :  0.33330.25000.2500  plane waves:  34571
 k-point ** :  0.41670.25000.2500  plane waves:  34552
 k-point ** :  0.50000.25000.2500  plane waves:  34586
 k-point ** :  0.00000.33330.2500  plane waves:  34577
 k-point ** :  0.08330.33330.2500  plane waves:  34546
 k-point ** :  0.16670.33330.2500  plane waves:  34571
 k-point ** :  0.25000.33330.2500  plane waves:  34571
 k-point ** :  0.33330.33330.2500  plane waves:  34555
 k-point ** :  0.41670.33330.2500  plane waves:  34568
 k-point ** :  0.50000.33330.2500  plane waves:  34574
 k-point ** :  0.00000.41670.2500  plane waves:  34594
 k-point ** :  0.08330.41670.2500  plane waves:  34584
 k-point ** :  0.16670.41670.2500  plane waves:  34554
 k-point ** :  0.25000.41670.2500  plane waves:  34552
 k-point ** :  0.33330.41670.2500  plane waves:  34568
 k-point ** :  0.41670.41670.2500  plane waves:  34593
 k-point ** :  0.50000.41670.2500  plane waves:  34592
 k-point ** :  0.00000.50000.2500  plane waves:  34626
 k-point ** :  0.08330.50000.2500  plane waves:  34572
 k-point ** :  0.16670.50000.2500  plane waves:  34568
 k-point ** :  0.25000.50000.2500  plane waves:  34586
 k-point ** :  0.33330.50000.2500  plane waves:  34574
 k-point ** :  0.41670.50000.2500  plane waves:  34592
 k-point ** :  0.50000.50000.2500  plane waves:  34592
 k-point ** :  0.00000.33330.3333  plane waves:  34592
 k-point ** :  0.08330.33330.3333  plane waves:  34583
 k-point ** :  0.16670.33330.3333  plane waves:  34560
 k-point ** :  0.25000.33330.3333  plane waves:  34555
 k-point ** :  0.33330.33330.3333  plane waves:  34605
 k-point ** :  0.41670.33330.3333  plane waves:  34624
 k-point ** :  0.50000.33330.3333  plane waves:  34582
 k-point ** :  0.00000.41670.3333  plane waves:  34558
 k-point ** :  0.08330.41670.3333  plane waves:  34571
 k-point ** :  0.16670.41670.3333  plane waves:  34556
 k-point ** :  0.25000.41670.3333  plane waves:  34568
 k-point ** :  0.33330.41670.3333  plane waves:  34624
 k-point ** :  0.41670.41670.3333  plane waves:  34601
 k-point ** :  0.50000.41670.3333  plane waves:  34602
 k-point ** :  0.00000.50000.3333  plane waves:  34590
 k-point ** :  0.08330.50000.3333  plane waves:  34578
 k-point ** :  0.16670.50000.3333  plane waves:  34558
 k-point ** :  0.25000.50000.3333  plane waves:  34574
 k-point ** :  0.33330.50000.3333  plane waves:  34582
 k-point ** :  0.41670.50000.3333  plane waves:  34602
 k-point ** :  0.50000.50000.3333  plane waves:  34644
 k-point ** :  0.00000.41670.4167  plane waves:  34534
 k-point ** :  0.08330.41670.4167  plane waves:  34568
 k-point ** :  0.16670.41670.4167  plane waves:  34579
 k-point ** :  0.25000.41670.4167  plane waves:  34593
 k-point ** :  0.33330.41670.4167  plane waves:  34601
 k-point ** :  0.41670.41670.4167  plane waves:  34641
 k-point ** :  0.50000.41670.4167  plane waves:  34638
 k-point ** :  0.00000.50000.4167  plane waves:  34518
 k-point ** :  0.08330.50000.4167  plane waves:  34546
 k-point ** :  0.16670.50000.4167  plane waves:  34554
 k-point ** :  0.25000.50000.4167  plane waves:  34592
 k-point ** :  0.33330.50000.4167  plane waves:  34602
 k-point ** :  0.41670.50000.4167  plane waves:  34638
 k-point ** :  0.50000.50000.4167  plane waves:  34664
 k-point ** :  0.00000.50000.5000  plane waves:  34408
 k-point ** :  0.08330.50000.5000  plane waves:  34552
 k-point ** :  0.16670.50000.5000  plane waves:  34524
 k-point ** :  0.25000.50000.5000  plane waves:  34592
 k-point ** :  0.33330.50000.5000  plane waves:  34644
 k-point ** :  0.41670.50000.5000  plane waves:  34664
 k-point ** :  0.50000.50000.5000  plane waves:  34584

 maximum and minimum number of plane-waves per node :  34664 34408

 maximum number of plane-waves:  34664
 maximal index in each direction: 
   IXMAX= 20   IYMAX= 20   IZMAX= 20
   IXMIN=-20   IYMIN=-20   IZMIN=-20

 NGX is ok and might be reduce to  82
 NGY is ok and might be reduce to  82
 NGZ is ok and might be reduce to  82

 parallel 3dFFT wavefunction:
    minimum data exchange during FFTs selected (reduces bandwidth)
 parallel 3dFFT charge:
    minimum data exchange during FFTs selected (reduces bandwidth)

 For storing wavefunctions ******* MBYTES are necessary
 For predicting wavefunctions  250.64 MBYTES are necessary
Broyden mixing: mesh for mixing (old mesh)
   NGX = 41   NGY = 41   NGZ = 41
  (NGX  =168   NGY  =168   NGZ  =168)
 gives a total of  68921 points
 initial charge density was supplied:
 charge density of overlapping atoms calculated
 number of electron  352.0000000 magnetization 
 keeping initial charge density in first step


--------------------------------------------------------------------------------------------------------


 Maximum index for augmentation-charges        52364 (set IRDMAX)


--------------------------------------------------------------------------------------------------------


 First call to EWALD:  gamma=   0.202
 Maximum number of real-space cells 3x 3x 3
 Maximum number of reciprocal cells 3x 3x 3

    FEWALD:  VPU time    0.00: CPU time    0.00


----------------------------------------- Iteration    1(   1)  ---------------------------------------


    POTLOK:  VPU time    0.45: CPU time    0.45
    SETDIJ:  VPU time    0.78: CPU time    0.78
    EDDAV :  VPU time 2277.78: CPU time 2281.67
    DOS   :  VPU time   -0.00: CPU time   -0.00
    ------------------------------------------
      LOOP:  VPU time 2279.10: CPU time 2283.00

 eigenvalue-minimisations  : 84672
 total energy-change (2. order) : 0.4600614E+04  (-0.2117103E+05)
 number of electron  352.0000000 magnetization 
 augmentation part   352.0000000 magnetization 

 Free energy of the ion-electron system (eV)
  ---------------------------------------------------
  alpha Z        PSCENC =      2849.96344217
  Ewald energy   TEWEN  =    -29171.93464031
  -1/2 Hartree   DENC   =     -4863.06058569
  -V(xc)+E(xc)   XCENC  =       470.60677088
  PAW double counting   =     23920.39735419   -23172.13309131
  entropy T*S    EENTRO =        -0.00058355
  eigenvalues    EBANDS =      4932.97674730
  atomic energy  EATOM  =     29633.79835877
  ---------------------------------------------------
  free energy    TOTEN  =      4600.61377245 eV

  energy without entropy =     4600.61435600  energy(sigma->0) =     4600.61406423


--------------------------------------------------------------------------------------------------------




----------------------------------------- Iteration    1(   2)  ---------------------------------------


    EDDAV :  VPU time 2276.64: CPU time 2281.52
    DOS   :  VPU time   -0.00: CPU time   -0.00
    ------------------------------------------
      LOOP:  VPU time 2276.74: CPU time 2281.62

 eigenvalue-minimisations  : 84680
 total energy-change (2. order) :-0.4427844E+04  (-0.4225000E+04)
 number of electron  352.0000000 magnetization 
 augmentation part   352.0000000 magnetization 

 Free energy of the ion-electron system (eV)
  ---------------------------------------------------
  alpha Z        PSCENC =      2849.96344217
  Ewald energy   TEWEN  =    -29171.93464031
  -1/2 Hartree   DENC   =     -4863.06058569
  -V(xc)+E(xc)   XCENC  =       470.60677088
  PAW double counting   =     23920.39735419   -23172.13309131
  entropy T*S    EENTRO =        -0.00041664
  eigenvalues    EBANDS =       505.13225063
  atomic energy  EATOM  =     29633.79835877
  ---------------------------------------------------
  free energy    TOTEN  =       172.76944269 eV

  energy without entropy =      172.76985933  energy(sigma->0) =      172.76965101


--------------------------------------------------------------------------------------------------------




----------------------------------------- Iteration    1(   3)  ---------------------------------------


    EDDAV :  VPU time 2474.24: CPU time 2479.20
    DOS   :  VPU time    0.00: CPU time   -0.00
    ------------------------------------------
      LOOP:  VPU time 2474.34: CPU time 2479.30

 eigenvalue-minimisations  : 94272
 total energy-change (2. order) :-0.2699047E+03  (-0.2443737E+03)
 number of electron  352.0000000 magnetization 
 augmentation part   352.0000000 magnetization 

 Free energy of the ion-electron system (eV)
  ---------------------------------------------------
  alpha Z        PSCENC =      2849.96344217
  Ewald energy   TEWEN  =    -29171.93464031
  -1/2 Hartree   DENC   =     -4863.06058569
  -V(xc)+E(xc)   XCENC  =       470.60677088
  PAW double counting   =     23920.39735419   -23172.13309131
  entropy T*S    EENTRO =        -0.00069565
  eigenvalues    EBANDS =       235.22786762
  atomic energy  EATOM  =     29633.79835877
  ---------------------------------------------------
  free energy    TOTEN  =       -97.13521933 eV

  energy without entropy =      -97.13452368  energy(sigma->0) =      -97.13487150


--------------------------------------------------------------------------------------------------------




----------------------------------------- Iteration    1(   4)  ---------------------------------------


    EDDAV :  VPU time 2393.34: CPU time 2399.09
    DOS   :  VPU time    0.00: CPU time   -0.00
    ------------------------------------------
      LOOP:  VPU time 2393.44: CPU time 2399.19

 eigenvalue-minimisations  : 90456
 total energy-change (2. order) :-0.1006231E+02  (-0.9896214E+01)
 number of electron  352.0000000 magnetization 
 augmentation part   352.0000000 magnetization 

 Free energy of the ion-electron system (eV)
  ---------------------------------------------------
  alpha Z        PSCENC =      2849.96344217
  Ewald energy   TEWEN  =    -29171.93464031
  -1/2 Hartree   DENC   =     -4863.06058569
  -V(xc)+E(xc)   XCENC  =       470.60677088
  PAW double counting   =     23920.39735419   -23172.13309131
  entropy T*S    EENTRO =        -0.00101336
  eigenvalues    EBANDS =       225.16587194
  atomic energy  EATOM  =     29633.79835877
  ---------------------------------------------------
  free energy    TOTEN  =      -107.19753273 eV

  energy without entropy =     -107.19651936  energy(sigma->0) =     -107.19702604


--------------------------------------------------------------------------------------------------------




----------------------------------------- Iteration    1(   5)  ---------------------------------------


    EDDAV :  VPU time 2411.41: CPU time 2417.09
    DOS   :  VPU time    0.00: CPU time   -0.00
    CHARGE:  VPU time   72.47: CPU time   72.60
    MIXING:  VPU time    0.01: CPU time    0.01
    ------------------------------------------
      LOOP:  VPU time 2483.98: CPU time 2489.82

 eigenvalue-minimisations  : 91224
 total energy-change (2. order) :-0.1797258E+00  (-0.1792445E+00)
 number of electron  352.0000007 magnetization 
 augmentation part   125.0578925 magnetization 

 Broyden mixing:
  rms(total) = 0.14835E+01    rms(broyden)= 0.14835E+01
  rms(prec ) = 0.22655E+01
  weight for this iteration     100.00

 Free energy of the ion-electron system (eV)
  ---------------------------------------------------
  alpha Z        PSCENC =      2849.96344217
  Ewald energy   TEWEN  =    -29171.93464031
  -1/2 Hartree   DENC   =     -4863.06058569
  -V(xc)+E(xc)   XCENC  =       470.60677088
  PAW double counting   =     23920.39735419   -23172.13309131
  entropy T*S    EENTRO =        -0.00102061
  eigenvalues    EBANDS =       224.98615343
  atomic energy  EATOM  =     29633.79835877
  ---------------------------------------------------
  free energy    TOTEN  =      -107.37725848 eV

  energy without entropy =     -107.37623787  energy(sigma->0) =     -107.37674817


--------------------------------------------------------------------------------------------------------




----------------------------------------- Iteration    1(   6)  ---------------------------------------


    POTLOK:  VPU time    0.45: CPU time    0.45
    SETDIJ:  VPU time    0.78: CPU time    0.78
    EDDAV :  VPU time 2370.71: CPU time 2374.94
    DOS   :  VPU time    0.00: CPU time   -0.00
    CHARGE:  VPU time   72.13: CPU time   72.25
    MIXING:  VPU time    0.01: CPU time    0.01
    ------------------------------------------
      LOOP:  VPU time 2444.17: CPU time 2448.52

 eigenvalue-minimisations  : 89272
 total energy-change (2. order) : 0.6754912E+01  (-0.2089399E+01)
 number of electron  352.0000007 magnetization 
 augmentation part   129.5293905 magnetization 

 Broyden mixing:
  rms(total) = 0.35426E+00    rms(broyden)= 0.35426E+00
  rms(prec ) = 0.49966E+00
  weight for this iteration     100.00

 eigenvalues of (default mixing * dielectric matrix)
  average eigenvalue GAMMA=   1.1313
  1.1313

 Free energy of the ion-electron system (eV)
  ---------------------------------------------------
  alpha Z        PSCENC =      2849.96344217
  Ewald energy   TEWEN  =    -29171.93464031
  -1/2 Hartree   DENC   =     -4613.53215575
  -V(xc)+E(xc)   XCENC  =       459.50284523
  PAW double counting   =     23481.24323589   -22760.56479272
  entropy T*S    EENTRO =        -0.00073985
  eigenvalues    EBANDS =        20.90210058
  atomic energy  EATOM  =     29633.79835877
  ---------------------------------------------------
  free energy    TOTEN  =      -100.62234600 eV

  energy without entropy =     -100.62160615  energy(sigma->0) =     -100.62197607


--------------------------------------------------------------------------------------------------------




----------------------------------------- Iteration    1(   7)  ---------------------------------------


    POTLOK:  VPU time    0.47: CPU time    0.47
    SETDIJ:  VPU time    0.79: CPU time    0.79
    EDDAV :  VPU time 2441.12: CPU time 2445.23
    DOS   :  VPU time    0.00: CPU time   -0.00
    CHARGE:  VPU time   72.18: CPU time   72.29
    MIXING:  VPU time    0.01: CPU time    0.01
    ------------------------------------------
      LOOP:  VPU time 2514.67: CPU time 2518.90

 eigenvalue-minimisations  : 92656
 total energy-change (2. order) : 0.2173666E+00  (-0.8759251E-01)
 number of electron  352.0000007 magnetization 
 augmentation part   130.3101761 magnetization 

 Broyden mixing:
  rms(total) = 0.18038E+00    rms(broyden)= 0.18038E+00
  rms(prec ) = 0.21236E+00
  weight for this iteration     100.00

 eigenvalues of (default mixing * dielectric matrix)
  average eigenvalue GAMMA=   1.8158
  1.1505  2.4811

 Free energy of the ion-electron system (eV)
  ---------------------------------------------------
  alpha Z        PSCENC =      2849.96344217
  Ewald energy   TEWEN  =    -29171.93464031
  -1/2 Hartree   DENC   =     -4558.24710824
  -V(xc)+E(xc)   XCENC  =       456.87756982
  PAW double counting   =     23439.84867904   -22733.80968930
  entropy T*S    EENTRO =        -0.00090142
  eigenvalues    EBANDS =       -16.90068990
  atomic energy  EATOM  =     29633.79835877
[...]
     72      -0.2212      2.00000
     73      -0.2209      2.00000
     74      -0.2209      2.00000
     75      -0.2208      2.00000
     76      -0.2208      2.00000
     77      -0.2202      2.00000
     78      -0.2201      2.00000
     79      -0.2198      2.00000
     80      -0.2198      2.00000
     81      -0.0975      2.00000
     82      -0.0975      2.00000
     83      -0.0967      2.00000
     84      -0.0962      2.00000
     85      -0.0949      2.00000
     86      -0.0943      2.00000
     87      -0.0942      2.00000
     88      -0.0942      2.00000
     89      -0.0942      2.00000
     90      -0.0942      2.00000
     91      -0.0942      2.00000
     92      -0.0942      2.00000
     93      -0.0941      2.00000
     94      -0.0941      2.00000
     95      -0.0941      2.00000
     96      -0.0941      2.00000
     97      -0.0940      2.00000
     98      -0.0940      2.00000
     99      -0.0939      2.00000
    100      -0.0934      2.00000
    101      -0.0920      2.00000
    102      -0.0915      2.00000
    103      -0.0907      2.00000
    104      -0.0907      2.00000
    105       0.4151      2.00000
    106       0.4163      2.00000
    107       0.4163      2.00000
    108       0.4181      2.00000
    109       0.4182      2.00000
    110       0.4183      2.00000
    111       0.4183      2.00000
    112       0.4186      2.00000
    113       0.4187      2.00000
    114       0.4187      2.00000
    115       0.4187      2.00000
    116       0.4187      2.00000
    117       0.4188      2.00000
    118       0.4188      2.00000
    119       0.4188      2.00000
    120       0.4188      2.00000
    121       0.4189      2.00000
    122       0.4191      2.00000
    123       0.4191      2.00000
    124       0.4192      2.00000
    125       0.4194      2.00000
    126       0.4212      2.00000
    127       0.4212      2.00000
    128       0.4223      2.00000
    129       0.7473      2.00000
    130       0.7486      2.00000
    131       0.7486      2.00000
    132       0.7486      2.00000
    133       0.7495      2.00000
    134       0.7495      2.00000
    135       0.7497      2.00000
    136       0.7497      2.00000
    137       0.7498      2.00000
    138       0.7499      2.00000
    139       0.7501      2.00000
    140       0.7501      2.00000
    141       0.7510      2.00000
    142       0.7510      2.00000
    143       0.7511      2.00000
    144       0.7523      2.00000
    145       1.5050      2.00000
    146       1.5050      2.00000
    147       1.5053      2.00000
    148       1.5054      2.00000
    149       1.5055      2.00000
    150       1.5055      2.00000
    151       1.5055      2.00000
    152       1.5055      2.00000
    153       1.5056      2.00000
    154       1.5057      2.00000
    155       1.5057      2.00000
    156       1.5057      2.00000
    157       1.5058      2.00000
    158       1.5059      2.00000
    159       1.5059      2.00000
    160       1.5059      2.00000
    161       1.5060      2.00000
    162       1.5061      2.00000
    163       1.5061      2.00000
    164       1.5061      2.00000
    165       1.5061      2.00000
    166       1.5063      2.00000
    167       1.5065      2.00000
    168       1.5065      2.00000
    169       4.1104      0.00000
    170       4.1139      0.00000
    171       4.1139      0.00000
    172       4.1154      0.00000
    173       4.1158      0.00000
    174       4.1161      0.00000
    175       4.1161      0.00000
    176       4.1161      0.00000
    177       4.1161      0.00000
    178       4.1161      0.00000
    179       4.1161      0.00000
    180       4.1163      0.00000
    181       4.1163      0.00000
    182       4.1164      0.00000
    183       4.1164      0.00000
    184       4.1164      0.00000
    185       4.1164      0.00000
    186       4.1165      0.00000
    187       4.1165      0.00000
    188       4.1167      0.00000
    189       4.1171      0.00000
    190       4.1186      0.00000
    191       4.1186      0.00000
    192       4.1222      0.00000
    193       8.1262      0.00000
    194       8.1262      0.00000
    195       8.1281      0.00000
    196       8.1291      0.00000
    197       8.1297      0.00000
    198       8.1300      0.00000
    199       8.1300      0.00000
    200       8.1304      0.00000
    201       8.1305      0.00000
    202       8.1305      0.00000
    203       8.1306      0.00000
    204       8.1306      0.00000
    205       8.1306      0.00000
    206       8.1307      0.00000
    207       8.1307      0.00000
    208       8.1307      0.00000
    209       8.1308      0.00000
    210       8.1312      0.00000
    211       8.1312      0.00000
    212       8.1315      0.00000
    213       8.1321      0.00000
    214       8.1331      0.00000
    215       8.1351      0.00000
    216       8.1351      0.00000


--------------------------------------------------------------------------------------------------------


 soft charge-density along one line, spin component           1
         0         1         2         3         4         5         6         7         8         9
 total charge-density along one line
 
 pseudopotential strength for first ion, spin component:           1
-10.567  -0.000   0.000  -0.000   0.000   0.006   0.000  -0.000
 -0.000 -10.567   0.000  -0.000   0.000   0.000   0.006  -0.000
  0.000   0.000 -10.555   0.000  -0.000  -0.000  -0.000   0.005
 -0.000  -0.000   0.000 -10.567  -0.000   0.000   0.000  -0.000
  0.000   0.000  -0.000  -0.000 -10.555  -0.000  -0.000   0.000
  0.006   0.000  -0.000   0.000  -0.000   0.269  -0.000   0.000
  0.000   0.006  -0.000   0.000  -0.000  -0.000   0.269   0.000
 -0.000  -0.000   0.005  -0.000   0.000   0.000   0.000   0.270
  0.000   0.000  -0.000   0.006   0.000  -0.000  -0.000   0.000
 -0.000  -0.000   0.000   0.000   0.005   0.000   0.000  -0.000
  0.000   0.000   0.000   0.000  -0.000   0.000   0.000  -0.000
 -0.000  -0.000  -0.000  -0.000   0.000   0.000   0.000   0.000
 -0.000  -0.000   0.000  -0.000  -0.000   0.000   0.000  -0.000
 -0.000  -0.000   0.000  -0.000  -0.000   0.000   0.000   0.000
 -0.000  -0.000   0.000  -0.000  -0.000   0.000   0.000  -0.000
  0.000   0.000  -0.000   0.000   0.000  -0.000  -0.000   0.000
  0.000   0.000  -0.000   0.000   0.000  -0.000  -0.000   0.000
  0.000   0.000  -0.000   0.000   0.000  -0.000  -0.000   0.000
 total augmentation occupancy for first ion, spin component:           1
  1.909  -0.000  -0.002  -0.001  -0.001  -0.070   0.000  -0.000   0.000   0.000   0.004  -0.000   0.000   0.000  -0.000  -0.000
 -0.000   1.915  -0.001  -0.001  -0.002   0.000  -0.075   0.002   0.001   0.000   0.004  -0.000   0.000   0.000  -0.000  -0.000
 -0.002  -0.001   1.962  -0.000  -0.003  -0.000   0.002  -0.109   0.001   0.002   0.013   0.003   0.000  -0.000   0.000  -0.000
 -0.001  -0.001  -0.000   1.921   0.001   0.000   0.001   0.001  -0.080   0.001   0.003  -0.001   0.000   0.000  -0.000  -0.000
 -0.001  -0.002  -0.003   0.001   1.950   0.001   0.000   0.002   0.001  -0.101   0.007   0.002   0.000   0.000  -0.000  -0.000
 -0.070   0.000  -0.000   0.000   0.001   0.111   0.000   0.002  -0.000  -0.000  -0.001   0.001   0.001  -0.000   0.000  -0.000
  0.000  -0.075   0.002   0.001   0.000   0.000   0.114  -0.002  -0.000   0.001   0.000   0.001  -0.000  -0.000   0.000   0.000
 -0.000   0.002  -0.109   0.001   0.002   0.002  -0.002   0.092  -0.002  -0.001  -0.008  -0.001   0.000   0.000  -0.000   0.000
  0.000   0.001   0.001  -0.080   0.001  -0.000  -0.000  -0.002   0.118  -0.002   0.001   0.002  -0.000   0.001   0.000   0.000
  0.000   0.000   0.002   0.001  -0.101  -0.000   0.001  -0.001  -0.002   0.088  -0.005  -0.001  -0.000  -0.000   0.000   0.000
  0.004   0.004   0.013   0.003   0.007  -0.001   0.000  -0.008   0.001  -0.005   0.989  -0.268   0.000  -0.000   0.002  -0.000
 -0.000  -0.000   0.003  -0.001   0.002   0.001   0.001  -0.001   0.002  -0.001  -0.268   0.146   0.000   0.000  -0.001  -0.000
  0.000   0.000   0.000   0.000   0.000   0.001  -0.000   0.000  -0.000  -0.000   0.000   0.000   0.100   0.001   0.002  -0.007
  0.000   0.000  -0.000   0.000   0.000  -0.000  -0.000   0.000   0.001  -0.000  -0.000   0.000   0.001   0.101  -0.000  -0.000
 -0.000  -0.000   0.000  -0.000  -0.000   0.000   0.000  -0.000   0.000   0.000   0.002  -0.001   0.002  -0.000   0.100  -0.000
 -0.000  -0.000  -0.000  -0.000  -0.000  -0.000   0.000   0.000   0.000   0.000  -0.000  -0.000  -0.007  -0.000  -0.000   0.001
 -0.000  -0.000   0.000  -0.000   0.000   0.000   0.000  -0.000  -0.000   0.000   0.000   0.000  -0.000  -0.007  -0.000   0.000
  0.000   0.000   0.000   0.000  -0.000  -0.000  -0.000   0.000  -0.000  -0.000  -0.000   0.000  -0.000  -0.000  -0.007   0.000


------------------------ aborting loop because EDIFF is reached ----------------------------------------




--------------------------------------------------------------------------------------------------------


    CHARGE:  VPU time   73.44: CPU time   73.62
    FORLOC:  VPU time    0.07: CPU time    0.07
    FORNL :  VPU time  464.80: CPU time  465.64
    STRESS:  VPU time 2808.94: CPU time 2814.05
    FORCOR:  VPU time    0.49: CPU time    0.49
    FORHAR:  VPU time    0.15: CPU time    0.15
    MIXING:  VPU time    0.01: CPU time    0.01


--------------------------------------------------------------------------------------------------------



  FREE ENERGIE OF THE ION-ELECTRON SYSTEM (eV)
  ---------------------------------------------------
  free  energy   TOTEN  =      -100.360515 eV

  energy  without entropy=     -100.359627  energy(sigma->0) =     -100.360071
 

  FORCE on cell =-STRESS in cart. coord.  units (eV/reduce length):
  Direction    X        Y        Z        XY       YZ       ZX
  --------------------------------------------------------------------------------------
  Alpha Z   2849.96   2849.96   2849.96
  Ewald    -9724.04  -9724.01  -9724.01      0.00      0.00      0.00
  Hartree   1510.99   1511.01   1511.01     -0.00     -0.00     -0.00
  E(xc)    -1574.29  -1574.29  -1574.29      0.00      0.00     -0.00
  Local     2314.38   2314.32   2314.32      0.00      0.00     -0.00
  n-local  -1688.12  -1694.36  -1681.88      3.33      2.33      1.34
  augment   1377.11   1377.11   1377.11     -0.00     -0.00     -0.00
  Kinetic   4880.40   4874.32   4886.48      0.70     -0.39     -1.49
  -------------------------------------------------------------------------------------
  Total      -53.61    -53.61    -53.61      0.00      0.00      0.00
  in kB     -127.65   -127.65   -127.65      0.00      0.00      0.00
  external pressure =     -127.65 kB  Pullay stress =        0.00 kB


 VOLUME and BASIS-vectors are now :
 -----------------------------------------------------------------------------
  energy-cutoff  :      800.00
  volume of cell :      672.91
      direct lattice vectors                 reciprocal lattice vectors
     8.762988995  0.000000000  0.000000000     0.114116314  0.000000000  0.000000000
     0.000000000  8.762988995  0.000000000     0.000000000  0.114116314  0.000000000
     0.000000000  0.000000000  8.762988995     0.000000000  0.000000000  0.114116314

  length of vectors
     8.762988995  8.762988995  8.762988995     0.114116314  0.114116314  0.114116314


 FORCES acting on ions
    electron-ion (+dipol)            ewald-force                    non-local-force                 convergence-correction
 -----------------------------------------------------------------------------------------------
   0.338E+01 -.591E-13 0.129E-07   -.336E+01 -.462E-13 0.497E-13   -.360E-01 -.171E-19 0.127E-19   -.377E-04 -.194E-12 -.351E-12
   -.878E+00 -.389E-13 -.130E-07   0.887E+00 -.142E-13 -.142E-13   -.570E-02 -.874E-20 0.906E-20   -.959E-05 -.236E-12 -.519E-12
   0.280E+00 0.400E-12 0.420E-11   -.281E+00 -.426E-13 -.142E-13   0.451E-03 0.124E-20 -.191E-20   -.254E-05 0.194E-12 -.262E-12
   -.226E+00 -.915E-12 0.553E-11   0.221E+00 -.426E-13 0.142E-13   0.318E-02 0.124E-19 0.170E-20   0.389E-05 0.229E-12 -.361E-12
   0.280E+00 -.537E-13 0.170E-10   -.281E+00 -.178E-13 -.711E-13   0.451E-03 -.995E-20 0.563E-21   -.220E-05 -.232E-12 0.411E-12
   -.226E+00 -.604E-13 0.137E-10   0.221E+00 -.142E-13 0.142E-13   0.318E-02 0.204E-20 0.342E-20   0.381E-05 -.300E-12 0.580E-12
   0.117E+00 0.393E-12 0.491E-11   -.116E+00 -.426E-13 0.142E-13   -.113E-02 -.411E-20 -.525E-20   -.147E-05 0.235E-12 0.330E-12
   -.108E+00 -.128E-11 0.143E-10   0.108E+00 -.142E-13 -.142E-13   -.164E-03 -.707E-20 0.119E-20   0.152E-05 0.295E-12 0.420E-12
   -.428E+00 -.818E+00 -.222E-11   0.426E+00 0.819E+00 -.639E-13   0.381E-02 0.206E-02 0.738E-20   0.823E-05 0.216E-05 -.410E-12
   -.431E+00 0.812E+00 -.865E-12   0.429E+00 -.813E+00 -.711E-14   0.373E-02 -.198E-02 -.277E-20   0.538E-05 -.464E-05 -.307E-12
   -.428E+00 0.818E+00 0.114E-11   0.426E+00 -.819E+00 0.000E+00   0.381E-02 -.206E-02 -.593E-20   0.823E-05 -.216E-05 -.408E-12
   -.431E+00 -.812E+00 -.137E-11   0.429E+00 0.813E+00 0.000E+00   0.373E-02 0.198E-02 -.257E-20   0.538E-05 0.464E-05 -.347E-12
   -.125E-01 -.674E-01 -.760E-12   0.130E-01 0.673E-01 0.355E-14   -.333E-03 0.843E-04 0.390E-22   -.121E-05 -.688E-06 0.479E-12
   -.137E-01 0.673E-01 0.360E-11   0.143E-01 -.673E-01 -.107E-13   -.332E-03 -.830E-04 0.993E-21   -.109E-05 -.200E-05 0.387E-12
   -.125E-01 0.674E-01 -.884E-12   0.130E-01 -.673E-01 -.128E-12   -.333E-03 -.843E-04 0.108E-20   -.121E-05 0.688E-06 0.472E-12
   -.137E-01 -.673E-01 0.372E-11   0.143E-01 0.673E-01 -.142E-13   -.332E-03 0.830E-04 -.222E-21   -.109E-05 0.200E-05 0.414E-12
   -.428E+00 -.667E-13 -.818E+00   0.426E+00 0.711E-13 0.819E+00   0.381E-02 0.164E-20 0.206E-02   0.816E-05 -.228E-12 0.222E-05
   -.431E+00 -.238E-14 0.812E+00   0.429E+00 0.711E-13 -.813E+00   0.373E-02 0.275E-20 -.198E-02   0.531E-05 -.246E-12 -.470E-05
   -.125E-01 0.553E-12 -.674E-01   0.130E-01 0.568E-13 0.673E-01   -.333E-03 0.784E-21 0.843E-04   -.119E-05 0.213E-12 -.625E-06
   -.137E-01 -.131E-11 0.673E-01   0.143E-01 0.284E-13 -.673E-01   -.332E-03 -.228E-20 -.830E-04   -.107E-05 0.244E-12 -.206E-05
   -.428E+00 -.700E-13 0.818E+00   0.426E+00 0.426E-13 -.819E+00   0.381E-02 0.117E-19 -.206E-02   0.816E-05 -.223E-12 -.222E-05
   -.431E+00 -.607E-13 -.812E+00   0.429E+00 0.142E-13 0.813E+00   0.373E-02 0.505E-20 0.198E-02   0.531E-05 -.280E-12 0.470E-05
   -.125E-01 0.359E-12 0.674E-01   0.130E-01 0.284E-13 -.673E-01   -.333E-03 0.154E-20 -.843E-04   -.119E-05 0.209E-12 0.625E-06
   -.137E-01 -.130E-11 -.673E-01   0.143E-01 0.284E-13 0.673E-01   -.332E-03 -.403E-20 0.830E-04   -.107E-05 0.277E-12 0.206E-05
   0.526E+00 0.190E-02 0.190E-02   -.530E+00 -.190E-02 -.190E-02   0.235E-02 0.475E-05 0.475E-05   -.628E-06 -.995E-06 -.995E-06
   -.297E+00 -.558E-03 -.558E-03   0.298E+00 0.570E-03 0.570E-03   -.292E-03 -.728E-05 -.728E-05   0.219E-06 -.239E-05 -.239E-05
   0.526E+00 -.190E-02 0.190E-02   -.530E+00 0.190E-02 -.190E-02   0.235E-02 -.475E-05 0.475E-05   -.628E-06 0.995E-06 -.995E-06
   -.297E+00 0.558E-03 -.558E-03   0.298E+00 -.570E-03 0.570E-03   -.292E-03 0.728E-05 -.728E-05   0.219E-06 0.239E-05 -.239E-05
   0.526E+00 0.190E-02 -.190E-02   -.530E+00 -.190E-02 0.190E-02   0.235E-02 0.475E-05 -.475E-05   -.628E-06 -.995E-06 0.995E-06
   -.297E+00 -.558E-03 0.558E-03   0.298E+00 0.570E-03 -.570E-03   -.292E-03 -.728E-05 0.728E-05   0.219E-06 -.239E-05 0.239E-05
   0.526E+00 -.190E-02 -.190E-02   -.530E+00 0.190E-02 0.190E-02   0.235E-02 -.475E-05 -.475E-05   -.628E-06 0.995E-06 0.995E-06
   -.297E+00 0.558E-03 0.558E-03   0.298E+00 -.570E-03 -.570E-03   -.292E-03 0.728E-05 0.728E-05   0.219E-06 0.239E-05 0.239E-05
 -----------------------------------------------------------------------------------------------
   -.176E-05 -.221E-10 -.211E-10   -.483E-14 -.160E-12 0.208E-12   0.229E-05 -.815E-18 0.593E-19   -.831E-06 -.152E-12 0.539E-12
 
 
 POSITION                                       TOTAL-FORCE (eV/Angst)
 -----------------------------------------------------------------------------------
      0.01000      0.00000      0.00000        -0.013371     -0.000000     -0.000000
      4.38149      0.00000      0.00000         0.003460     -0.000000      0.000000
      0.00000      4.38149      0.00000        -0.000488     -0.000000      0.000000
      4.38149      4.38149      0.00000        -0.001822      0.000000     -0.000000
      0.00000      0.00000      4.38149        -0.000488     -0.000000      0.000000
      4.38149      0.00000      4.38149        -0.001822      0.000000     -0.000000
      0.00000      4.38149      4.38149         0.000268     -0.000000      0.000000
      4.38149      4.38149      4.38149        -0.000134      0.000000     -0.000000
      2.19075      2.19075      0.00000         0.002185      0.003079     -0.000000
      6.57224      2.19075      0.00000         0.002052     -0.002904     -0.000000
      2.19075      6.57224      0.00000         0.002185     -0.003079      0.000000
      6.57224      6.57224      0.00000         0.002052      0.002904      0.000000
      2.19075      2.19075      4.38149         0.000242      0.000013      0.000000
      6.57224      2.19075      4.38149         0.000241     -0.000012      0.000000
      2.19075      6.57224      4.38149         0.000242     -0.000013      0.000000
      6.57224      6.57224      4.38149         0.000241      0.000012     -0.000000
      2.19075      0.00000      2.19075         0.002185      0.000000      0.003079
      6.57224      0.00000      2.19075         0.002052      0.000000     -0.002904
      2.19075      4.38149      2.19075         0.000242      0.000000      0.000013
      6.57224      4.38149      2.19075         0.000241     -0.000000     -0.000012
      2.19075      0.00000      6.57224         0.002185     -0.000000     -0.003079
      6.57224      0.00000      6.57224         0.002052      0.000000      0.002904
      2.19075      4.38149      6.57224         0.000242     -0.000000     -0.000013
      6.57224      4.38149      6.57224         0.000241      0.000000      0.000012
      0.00000      2.19075      2.19075        -0.001797      0.000004      0.000004
      4.38149      2.19075      2.19075         0.000675      0.000003      0.000003
      0.00000      6.57224      2.19075        -0.001797     -0.000004      0.000004
      4.38149      6.57224      2.19075         0.000675     -0.000003      0.000003
      0.00000      2.19075      6.57224        -0.001797      0.000004     -0.000004
      4.38149      2.19075      6.57224         0.000675      0.000003     -0.000003
      0.00000      6.57224      6.57224        -0.001797     -0.000004     -0.000004
      4.38149      6.57224      6.57224         0.000675     -0.000003     -0.000003
 -----------------------------------------------------------------------------------
    total drift:                               -0.000000     -0.000000     -0.000000


--------------------------------------------------------------------------------------------------------



 mean value of Nose-termostat <S>:     1.000 mean value of <T> :     0.000
 mean temperature <T/S>/<1/S>  :     0.000

     LOOP+:  VPU time39600.09: CPU time39682.13
  
  
 General timing and accounting informations for this job:
 ========================================================
  
                  Total CPU time used (sec):    39998.744
                            User time (sec):    39574.991
                          System time (sec):      423.754
                         Elapsed time (sec):    40081.523
  
                   Maximum memory used (kb):     9732968.
                   Average memory used (kb):           0.
  
                          Minor page faults:      1395945
                          Major page faults:            0
                 Voluntary context switches:          976
