<?xml version="1.0" encoding="ISO-8859-1"?>
<modeling>
 <generator>
  <i name="program" type="string">vasp</i>
  <i name="version" type="string">4.6.28 </i>
  <i name="subversion" type="string">25Jul05 complex  parallel</i>
  <i name="platform" type="string">LinuxIFC</i>
  <i name="date" type="string">2017 01 15</i>
  <i name="time" type="string">09:28:04</i>
 </generator>
 <incar>
  <i type="string" name="PREC">accurate</i>
  <i type="int" name="IALGO">    38</i>
  <i type="logical" name="ADDGRID"> T  </i>
  <i name="EDIFF">      0.00000001</i>
  <i type="int" name="IBRION">    -1</i>
  <i name="ENCUT">    800.00000000</i>
  <i type="logical" name="LREAL"> F  </i>
  <i type="int" name="ISMEAR">     0</i>
  <i name="SIGMA">      0.01000000</i>
  <i type="logical" name="LWAVE"> F  </i>
  <i type="logical" name="LCHARG"> F  </i>
 </incar>
 <kpoints>
  <generation param="Gamma">
   <v type="int" name="divisions">      12      12      12</v>
   <v name="usershift">      0.00000000      0.00000000      0.00000000</v>
   <v name="genvec1">      0.08333333      0.00000000      0.00000000</v>
   <v name="genvec2">      0.00000000      0.08333333      0.00000000</v>
   <v name="genvec3">      0.00000000      0.00000000      0.08333333</v>
   <v name="shift">      0.00000000      0.00000000      0.00000000</v>
  </generation>
  <varray name="kpointlist" >
   <v>       0.00000000      0.00000000      0.00000000</v>
   <v>       0.08333333      0.00000000      0.00000000</v>
   <v>       0.16666667      0.00000000      0.00000000</v>
   <v>       0.25000000      0.00000000      0.00000000</v>
   <v>       0.33333333      0.00000000      0.00000000</v>
   <v>       0.41666667      0.00000000      0.00000000</v>
   <v>       0.50000000      0.00000000      0.00000000</v>
   <v>       0.00000000      0.08333333      0.00000000</v>
   <v>       0.08333333      0.08333333      0.00000000</v>
   <v>       0.16666667      0.08333333      0.00000000</v>
   <v>       0.25000000      0.08333333      0.00000000</v>
   <v>       0.33333333      0.08333333      0.00000000</v>
   <v>       0.41666667      0.08333333      0.00000000</v>
   <v>       0.50000000      0.08333333      0.00000000</v>
   <v>       0.00000000      0.16666667      0.00000000</v>
   <v>       0.08333333      0.16666667      0.00000000</v>
   <v>       0.16666667      0.16666667      0.00000000</v>
   <v>       0.25000000      0.16666667      0.00000000</v>
   <v>       0.33333333      0.16666667      0.00000000</v>
   <v>       0.41666667      0.16666667      0.00000000</v>
   <v>       0.50000000      0.16666667      0.00000000</v>
   <v>       0.00000000      0.25000000      0.00000000</v>
   <v>       0.08333333      0.25000000      0.00000000</v>
   <v>       0.16666667      0.25000000      0.00000000</v>
   <v>       0.25000000      0.25000000      0.00000000</v>
   <v>       0.33333333      0.25000000      0.00000000</v>
   <v>       0.41666667      0.25000000      0.00000000</v>
   <v>       0.50000000      0.25000000      0.00000000</v>
   <v>       0.00000000      0.33333333      0.00000000</v>
   <v>       0.08333333      0.33333333      0.00000000</v>
   <v>       0.16666667      0.33333333      0.00000000</v>
   <v>       0.25000000      0.33333333      0.00000000</v>
   <v>       0.33333333      0.33333333      0.00000000</v>
   <v>       0.41666667      0.33333333      0.00000000</v>
   <v>       0.50000000      0.33333333      0.00000000</v>
   <v>       0.00000000      0.41666667      0.00000000</v>
   <v>       0.08333333      0.41666667      0.00000000</v>
   <v>       0.16666667      0.41666667      0.00000000</v>
   <v>       0.25000000      0.41666667      0.00000000</v>
   <v>       0.33333333      0.41666667      0.00000000</v>
   <v>       0.41666667      0.41666667      0.00000000</v>
   <v>       0.50000000      0.41666667      0.00000000</v>
   <v>       0.00000000      0.50000000      0.00000000</v>
   <v>       0.08333333      0.50000000      0.00000000</v>
   <v>       0.16666667      0.50000000      0.00000000</v>
   <v>       0.25000000      0.50000000      0.00000000</v>
   <v>       0.33333333      0.50000000      0.00000000</v>
   <v>       0.41666667      0.50000000      0.00000000</v>
   <v>       0.50000000      0.50000000      0.00000000</v>
   <v>       0.00000000      0.08333333      0.08333333</v>
   <v>       0.08333333      0.08333333      0.08333333</v>
   <v>       0.16666667      0.08333333      0.08333333</v>
   <v>       0.25000000      0.08333333      0.08333333</v>
   <v>       0.33333333      0.08333333      0.08333333</v>
   <v>       0.41666667      0.08333333      0.08333333</v>
   <v>       0.50000000      0.08333333      0.08333333</v>
   <v>       0.00000000      0.16666667      0.08333333</v>
   <v>       0.08333333      0.16666667      0.08333333</v>
   <v>       0.16666667      0.16666667      0.08333333</v>
   <v>       0.25000000      0.16666667      0.08333333</v>
   <v>       0.33333333      0.16666667      0.08333333</v>
   <v>       0.41666667      0.16666667      0.08333333</v>
   <v>       0.50000000      0.16666667      0.08333333</v>
   <v>       0.00000000      0.25000000      0.08333333</v>
   <v>       0.08333333      0.25000000      0.08333333</v>
   <v>       0.16666667      0.25000000      0.08333333</v>
   <v>       0.25000000      0.25000000      0.08333333</v>
   <v>       0.33333333      0.25000000      0.08333333</v>
   <v>       0.41666667      0.25000000      0.08333333</v>
   <v>       0.50000000      0.25000000      0.08333333</v>
   <v>       0.00000000      0.33333333      0.08333333</v>
   <v>       0.08333333      0.33333333      0.08333333</v>
   <v>       0.16666667      0.33333333      0.08333333</v>
   <v>       0.25000000      0.33333333      0.08333333</v>
   <v>       0.33333333      0.33333333      0.08333333</v>
   <v>       0.41666667      0.33333333      0.08333333</v>
   <v>       0.50000000      0.33333333      0.08333333</v>
   <v>       0.00000000      0.41666667      0.08333333</v>
   <v>       0.08333333      0.41666667      0.08333333</v>
   <v>       0.16666667      0.41666667      0.08333333</v>
   <v>       0.25000000      0.41666667      0.08333333</v>
   <v>       0.33333333      0.41666667      0.08333333</v>
   <v>       0.41666667      0.41666667      0.08333333</v>
   <v>       0.50000000      0.41666667      0.08333333</v>
   <v>       0.00000000      0.50000000      0.08333333</v>
   <v>       0.08333333      0.50000000      0.08333333</v>
   <v>       0.16666667      0.50000000      0.08333333</v>
   <v>       0.25000000      0.50000000      0.08333333</v>
   <v>       0.33333333      0.50000000      0.08333333</v>
   <v>       0.41666667      0.50000000      0.08333333</v>
   <v>       0.50000000      0.50000000      0.08333333</v>
   <v>       0.00000000      0.16666667      0.16666667</v>
   <v>       0.08333333      0.16666667      0.16666667</v>
   <v>       0.16666667      0.16666667      0.16666667</v>
   <v>       0.25000000      0.16666667      0.16666667</v>
   <v>       0.33333333      0.16666667      0.16666667</v>
   <v>       0.41666667      0.16666667      0.16666667</v>
   <v>       0.50000000      0.16666667      0.16666667</v>
   <v>       0.00000000      0.25000000      0.16666667</v>
   <v>       0.08333333      0.25000000      0.16666667</v>
   <v>       0.16666667      0.25000000      0.16666667</v>
   <v>       0.25000000      0.25000000      0.16666667</v>
   <v>       0.33333333      0.25000000      0.16666667</v>
   <v>       0.41666667      0.25000000      0.16666667</v>
   <v>       0.50000000      0.25000000      0.16666667</v>
   <v>       0.00000000      0.33333333      0.16666667</v>
   <v>       0.08333333      0.33333333      0.16666667</v>
   <v>       0.16666667      0.33333333      0.16666667</v>
   <v>       0.25000000      0.33333333      0.16666667</v>
   <v>       0.33333333      0.33333333      0.16666667</v>
   <v>       0.41666667      0.33333333      0.16666667</v>
   <v>       0.50000000      0.33333333      0.16666667</v>
   <v>       0.00000000      0.41666667      0.16666667</v>
   <v>       0.08333333      0.41666667      0.16666667</v>
   <v>       0.16666667      0.41666667      0.16666667</v>
   <v>       0.25000000      0.41666667      0.16666667</v>
   <v>       0.33333333      0.41666667      0.16666667</v>
   <v>       0.41666667      0.41666667      0.16666667</v>
   <v>       0.50000000      0.41666667      0.16666667</v>
   <v>       0.00000000      0.50000000      0.16666667</v>
   <v>       0.08333333      0.50000000      0.16666667</v>
   <v>       0.16666667      0.50000000      0.16666667</v>
   <v>       0.25000000      0.50000000      0.16666667</v>
   <v>       0.33333333      0.50000000      0.16666667</v>
   <v>       0.41666667      0.50000000      0.16666667</v>
   <v>       0.50000000      0.50000000      0.16666667</v>
   <v>       0.00000000      0.25000000      0.25000000</v>
   <v>       0.08333333      0.25000000      0.25000000</v>
   <v>       0.16666667      0.25000000      0.25000000</v>
   <v>       0.25000000      0.25000000      0.25000000</v>
   <v>       0.33333333      0.25000000      0.25000000</v>
   <v>       0.41666667      0.25000000      0.25000000</v>
   <v>       0.50000000      0.25000000      0.25000000</v>
   <v>       0.00000000      0.33333333      0.25000000</v>
   <v>       0.08333333      0.33333333      0.25000000</v>
   <v>       0.16666667      0.33333333      0.25000000</v>
   <v>       0.25000000      0.33333333      0.25000000</v>
   <v>       0.33333333      0.33333333      0.25000000</v>
   <v>       0.41666667      0.33333333      0.25000000</v>
   <v>       0.50000000      0.33333333      0.25000000</v>
   <v>       0.00000000      0.41666667      0.25000000</v>
   <v>       0.08333333      0.41666667      0.25000000</v>
   <v>       0.16666667      0.41666667      0.25000000</v>
   <v>       0.25000000      0.41666667      0.25000000</v>
   <v>       0.33333333      0.41666667      0.25000000</v>
   <v>       0.41666667      0.41666667      0.25000000</v>
   <v>       0.50000000      0.41666667      0.25000000</v>
   <v>       0.00000000      0.50000000      0.25000000</v>
   <v>       0.08333333      0.50000000      0.25000000</v>
   <v>       0.16666667      0.50000000      0.25000000</v>
   <v>       0.25000000      0.50000000      0.25000000</v>
   <v>       0.33333333      0.50000000      0.25000000</v>
   <v>       0.41666667      0.50000000      0.25000000</v>
   <v>       0.50000000      0.50000000      0.25000000</v>
   <v>       0.00000000      0.33333333      0.33333333</v>
   <v>       0.08333333      0.33333333      0.33333333</v>
   <v>       0.16666667      0.33333333      0.33333333</v>
   <v>       0.25000000      0.33333333      0.33333333</v>
   <v>       0.33333333      0.33333333      0.33333333</v>
   <v>       0.41666667      0.33333333      0.33333333</v>
   <v>       0.50000000      0.33333333      0.33333333</v>
   <v>       0.00000000      0.41666667      0.33333333</v>
   <v>       0.08333333      0.41666667      0.33333333</v>
   <v>       0.16666667      0.41666667      0.33333333</v>
   <v>       0.25000000      0.41666667      0.33333333</v>
   <v>       0.33333333      0.41666667      0.33333333</v>
   <v>       0.41666667      0.41666667      0.33333333</v>
   <v>       0.50000000      0.41666667      0.33333333</v>
   <v>       0.00000000      0.50000000      0.33333333</v>
   <v>       0.08333333      0.50000000      0.33333333</v>
   <v>       0.16666667      0.50000000      0.33333333</v>
   <v>       0.25000000      0.50000000      0.33333333</v>
   <v>       0.33333333      0.50000000      0.33333333</v>
   <v>       0.41666667      0.50000000      0.33333333</v>
   <v>       0.50000000      0.50000000      0.33333333</v>
   <v>       0.00000000      0.41666667      0.41666667</v>
   <v>       0.08333333      0.41666667      0.41666667</v>
   <v>       0.16666667      0.41666667      0.41666667</v>
   <v>       0.25000000      0.41666667      0.41666667</v>
   <v>       0.33333333      0.41666667      0.41666667</v>
   <v>       0.41666667      0.41666667      0.41666667</v>
   <v>       0.50000000      0.41666667      0.41666667</v>
   <v>       0.00000000      0.50000000      0.41666667</v>
   <v>       0.08333333      0.50000000      0.41666667</v>
   <v>       0.16666667      0.50000000      0.41666667</v>
   <v>       0.25000000      0.50000000      0.41666667</v>
   <v>       0.33333333      0.50000000      0.41666667</v>
   <v>       0.41666667      0.50000000      0.41666667</v>
   <v>       0.50000000      0.50000000      0.41666667</v>
   <v>       0.00000000      0.50000000      0.50000000</v>
   <v>       0.08333333      0.50000000      0.50000000</v>
   <v>       0.16666667      0.50000000      0.50000000</v>
   <v>       0.25000000      0.50000000      0.50000000</v>
   <v>       0.33333333      0.50000000      0.50000000</v>
   <v>       0.41666667      0.50000000      0.50000000</v>
   <v>       0.50000000      0.50000000      0.50000000</v>
  </varray>
  <varray name="weights" >
   <v>       0.00057870</v>
   <v>       0.00115741</v>
   <v>       0.00115741</v>
   <v>       0.00115741</v>
   <v>       0.00115741</v>
   <v>       0.00115741</v>
   <v>       0.00057870</v>
   <v>       0.00231481</v>
   <v>       0.00462963</v>
   <v>       0.00462963</v>
   <v>       0.00462963</v>
   <v>       0.00462963</v>
   <v>       0.00462963</v>
   <v>       0.00231481</v>
   <v>       0.00231481</v>
   <v>       0.00462963</v>
   <v>       0.00462963</v>
   <v>       0.00462963</v>
   <v>       0.00462963</v>
   <v>       0.00462963</v>
   <v>       0.00231481</v>
   <v>       0.00231481</v>
   <v>       0.00462963</v>
   <v>       0.00462963</v>
   <v>       0.00462963</v>
   <v>       0.00462963</v>
   <v>       0.00462963</v>
   <v>       0.00231481</v>
   <v>       0.00231481</v>
   <v>       0.00462963</v>
   <v>       0.00462963</v>
   <v>       0.00462963</v>
   <v>       0.00462963</v>
   <v>       0.00462963</v>
   <v>       0.00231481</v>
   <v>       0.00231481</v>
   <v>       0.00462963</v>
   <v>       0.00462963</v>
   <v>       0.00462963</v>
   <v>       0.00462963</v>
   <v>       0.00462963</v>
   <v>       0.00231481</v>
   <v>       0.00115741</v>
   <v>       0.00231481</v>
   <v>       0.00231481</v>
   <v>       0.00231481</v>
   <v>       0.00231481</v>
   <v>       0.00231481</v>
   <v>       0.00115741</v>
   <v>       0.00231481</v>
   <v>       0.00462963</v>
   <v>       0.00462963</v>
   <v>       0.00462963</v>
   <v>       0.00462963</v>
   <v>       0.00462963</v>
   <v>       0.00231481</v>
   <v>       0.00462963</v>
   <v>       0.00925926</v>
   <v>       0.00925926</v>
   <v>       0.00925926</v>
   <v>       0.00925926</v>
   <v>       0.00925926</v>
   <v>       0.00462963</v>
   <v>       0.00462963</v>
   <v>       0.00925926</v>
   <v>       0.00925926</v>
   <v>       0.00925926</v>
   <v>       0.00925926</v>
   <v>       0.00925926</v>
   <v>       0.00462963</v>
   <v>       0.00462963</v>
   <v>       0.00925926</v>
   <v>       0.00925926</v>
   <v>       0.00925926</v>
   <v>       0.00925926</v>
   <v>       0.00925926</v>
   <v>       0.00462963</v>
   <v>       0.00462963</v>
   <v>       0.00925926</v>
   <v>       0.00925926</v>
   <v>       0.00925926</v>
   <v>       0.00925926</v>
   <v>       0.00925926</v>
   <v>       0.00462963</v>
   <v>       0.00231481</v>
   <v>       0.00462963</v>
   <v>       0.00462963</v>
   <v>       0.00462963</v>
   <v>       0.00462963</v>
   <v>       0.00462963</v>
   <v>       0.00231481</v>
   <v>       0.00231481</v>
   <v>       0.00462963</v>
   <v>       0.00462963</v>
   <v>       0.00462963</v>
   <v>       0.00462963</v>
   <v>       0.00462963</v>
   <v>       0.00231481</v>
   <v>       0.00462963</v>
   <v>       0.00925926</v>
   <v>       0.00925926</v>
   <v>       0.00925926</v>
   <v>       0.00925926</v>
   <v>       0.00925926</v>
   <v>       0.00462963</v>
   <v>       0.00462963</v>
   <v>       0.00925926</v>
   <v>       0.00925926</v>
   <v>       0.00925926</v>
   <v>       0.00925926</v>
   <v>       0.00925926</v>
   <v>       0.00462963</v>
   <v>       0.00462963</v>
   <v>       0.00925926</v>
   <v>       0.00925926</v>
   <v>       0.00925926</v>
   <v>       0.00925926</v>
   <v>       0.00925926</v>
   <v>       0.00462963</v>
   <v>       0.00231481</v>
   <v>       0.00462963</v>
   <v>       0.00462963</v>
   <v>       0.00462963</v>
   <v>       0.00462963</v>
   <v>       0.00462963</v>
   <v>       0.00231481</v>
   <v>       0.00231481</v>
   <v>       0.00462963</v>
   <v>       0.00462963</v>
   <v>       0.00462963</v>
   <v>       0.00462963</v>
   <v>       0.00462963</v>
   <v>       0.00231481</v>
   <v>       0.00462963</v>
   <v>       0.00925926</v>
   <v>       0.00925926</v>
   <v>       0.00925926</v>
   <v>       0.00925926</v>
   <v>       0.00925926</v>
   <v>       0.00462963</v>
   <v>       0.00462963</v>
   <v>       0.00925926</v>
   <v>       0.00925926</v>
   <v>       0.00925926</v>
   <v>       0.00925926</v>
   <v>       0.00925926</v>
   <v>       0.00462963</v>
   <v>       0.00231481</v>
   <v>       0.00462963</v>
   <v>       0.00462963</v>
   <v>       0.00462963</v>
   <v>       0.00462963</v>
   <v>       0.00462963</v>
   <v>       0.00231481</v>
   <v>       0.00231481</v>
   <v>       0.00462963</v>
   <v>       0.00462963</v>
   <v>       0.00462963</v>
   <v>       0.00462963</v>
   <v>       0.00462963</v>
   <v>       0.00231481</v>
   <v>       0.00462963</v>
   <v>       0.00925926</v>
   <v>       0.00925926</v>
   <v>       0.00925926</v>
   <v>       0.00925926</v>
   <v>       0.00925926</v>
   <v>       0.00462963</v>
   <v>       0.00231481</v>
   <v>       0.00462963</v>
   <v>       0.00462963</v>
   <v>       0.00462963</v>
   <v>       0.00462963</v>
   <v>       0.00462963</v>
   <v>       0.00231481</v>
   <v>       0.00231481</v>
   <v>       0.00462963</v>
   <v>       0.00462963</v>
   <v>       0.00462963</v>
   <v>       0.00462963</v>
   <v>       0.00462963</v>
   <v>       0.00231481</v>
   <v>       0.00231481</v>
   <v>       0.00462963</v>
   <v>       0.00462963</v>
   <v>       0.00462963</v>
   <v>       0.00462963</v>
   <v>       0.00462963</v>
   <v>       0.00231481</v>
   <v>       0.00057870</v>
   <v>       0.00115741</v>
   <v>       0.00115741</v>
   <v>       0.00115741</v>
   <v>       0.00115741</v>
   <v>       0.00115741</v>
   <v>       0.00057870</v>
  </varray>
 </kpoints>
 <parameters>
  <separator name="general" >
   <i type="string" name="SYSTEM">unknown system</i>
   <i type="logical" name="LCOMPAT"> F  </i>
  </separator>
  <separator name="electronic" >
   <i type="string" name="PREC">accura</i>
   <i name="ENMAX">    800.00000000</i>
   <i name="ENAUG">    356.67000000</i>
   <i name="EDIFF">      0.00000001</i>
   <i type="int" name="IALGO">    38</i>
   <i type="int" name="IWAVPR">    10</i>
   <i type="int" name="NBANDS">   211</i>
   <i name="NELECT">    352.00000000</i>
   <separator name="electronic smearing" >
    <i type="int" name="ISMEAR">     0</i>
    <i name="SIGMA">      0.01000000</i>
   </separator>
   <separator name="electronic projectors" >
    <i type="logical" name="LREAL"> F  </i>
    <v name="ROPT">      0.00000000</v>
    <i type="int" name="LMAXPAW">  -100</i>
    <i type="int" name="LMAXMIX">     2</i>
   </separator>
   <separator name="electronic startup" >
    <i type="int" name="ISTART">     0</i>
    <i type="int" name="ICHARG">     2</i>
    <i type="int" name="INIWAV">     1</i>
   </separator>
   <separator name="electronic spin" >
    <i type="int" name="ISPIN">     1</i>
    <i type="logical" name="LNONCOLLINEAR"> F  </i>
    <v name="MAGMOM">      1.00000000      1.00000000      1.00000000      1.00000000      1.00000000      1.00000000      1.00000000      1.00000000      1.00000000      1.00000000      1.00000000      1.00000000      1.00000000      1.00000000      1.00000000      1.00000000      1.00000000      1.00000000      1.00000000      1.00000000
      1.00000000      1.00000000      1.00000000      1.00000000      1.00000000      1.00000000      1.00000000      1.00000000      1.00000000      1.00000000      1.00000000      1.00000000</v>
    <i name="NUPDOWN">     -1.00000000</i>
    <i type="logical" name="LSORBIT"> F  </i>
    <v name="SAXIS">      0.00000000      0.00000000      1.00000000</v>
    <i type="logical" name="LSPIRAL"> F  </i>
    <v name="QSPIRAL">      0.00000000      0.00000000      0.00000000</v>
    <i type="logical" name="LZEROZ"> F  </i>
   </separator>
   <separator name="electronic exchange-correlation" >
    <i type="string" name="GGA">--</i>
    <i type="int" name="VOSKOWN">     0</i>
    <i type="logical" name="LASPH"> F  </i>
    <i type="logical" name="LMETAGGA"> F  </i>
    <i type="string" name="GGA2">--</i>
   </separator>
   <separator name="electronic convergence" >
    <i type="int" name="NELM">    60</i>
    <i type="int" name="NELMDL">     0</i>
    <i type="int" name="NELMIN">     2</i>
    <i name="ENINI">    800.00000000</i>
    <separator name="electronic convergence detail" >
     <i type="logical" name="LDIAG"> T  </i>
     <i name="WEIMIN">      0.00000000</i>
     <i name="EBREAK">      0.00000000</i>
     <i name="DEPER">      0.30000000</i>
     <i type="int" name="NRMM">     4</i>
     <i name="TIME">      0.10000000</i>
    </separator>
   </separator>
   <separator name="electronic mixer" >
    <i name="AMIX">      0.40000000</i>
    <i name="BMIX">      1.00000000</i>
    <i name="AMIN">      0.10000000</i>
    <i name="AMIX_MAG">      1.60000000</i>
    <i name="BMIX_MAG">      1.00000000</i>
    <separator name="electronic mixer details" >
     <i type="int" name="IMIX">     4</i>
     <i type="int" name="MAXMIX">   -45</i>
     <i name="WC">    100.00000000</i>
     <i type="int" name="INIMIX">     1</i>
     <i type="int" name="MIXPRE">     1</i>
     <i type="int" name="MREMOVE">     5</i>
    </separator>
   </separator>
   <separator name="electronic dipolcorrection" >
    <i type="int" name="IDIPOL">     0</i>
    <i type="logical" name="LDIPOL"> F  </i>
    <v name="DIPOL">   -100.00000000</v>
    <i name="EFIELD">      0.00000000</i>
   </separator>
  </separator>
  <separator name="grids" >
   <i type="int" name="NGX">    84</i>
   <i type="int" name="NGY">    84</i>
   <i type="int" name="NGZ">    84</i>
   <i type="int" name="NGXF">   168</i>
   <i type="int" name="NGYF">   168</i>
   <i type="int" name="NGZF">   168</i>
   <i type="logical" name="ADDGRID"> T  </i>
  </separator>
  <separator name="ionic" >
   <i type="int" name="NSW">     0</i>
   <i type="int" name="IBRION">    -1</i>
   <i type="int" name="ISIF">     2</i>
   <i name="PSTRESS">      0.00000000</i>
   <i name="EDIFFG">      0.00000010</i>
   <i type="int" name="NFREE">     0</i>
   <i name="POTIM">      0.50000000</i>
   <i name="SMASS">     -3.00000000</i>
  </separator>
  <separator name="ionic md" >
   <i name="TEBEG">      0.00010000</i>
   <i name="TEEND">      0.00010000</i>
   <i type="int" name="NBLOCK">     1</i>
   <i type="int" name="KBLOCK">     1</i>
   <i type="int" name="NPACO">   256</i>
   <i name="APACO">     16.00000000</i>
  </separator>
  <separator name="symmetry" >
   <i type="int" name="ISYM">     2</i>
   <i name="SYMPREC">      0.00001000</i>
  </separator>
  <separator name="dos" >
   <i type="logical" name="LORBIT"> F  </i>
   <v name="RWIGS">     -1.00000000</v>
   <i type="int" name="NEDOS">   301</i>
   <i name="EMIN">     10.00000000</i>
   <i name="EMAX">    -10.00000000</i>
  </separator>
  <separator name="writing" >
   <i type="int" name="NWRITE">     2</i>
   <i type="logical" name="LWAVE"> F  </i>
   <i type="logical" name="LCHARG"> F  </i>
   <i type="logical" name="LPARD"> F  </i>
   <i type="logical" name="LVTOT"> F  </i>
   <i type="logical" name="LELF"> F  </i>
   <i type="logical" name="LOPTICS"> F  </i>
   <i name="STM">      0.00000000</i>
  </separator>
  <separator name="performance" >
   <i type="int" name="NPAR">     8</i>
   <i type="int" name="NSIM">     4</i>
   <i type="int" name="NBLK">   256</i>
   <i type="logical" name="LPLANE"> T  </i>
   <i type="logical" name="LCRITICAL_MEM"> F  </i>
   <i type="logical" name="LSCALAPACK"> F  </i>
   <i type="logical" name="LSCALU"> F  </i>
   <i type="logical" name="LASYNC"> F  </i>
  </separator>
  <separator name="miscellaneous" >
   <i type="int" name="IDIOT">     3</i>
   <i type="logical" name="LMUSIC"> F  </i>
   <v name="POMASS">    196.96600000</v>
   <i type="logical" name="LCORR"> T  </i>
  </separator>
  <i type="logical" name="LREAL_COMPAT"> F  </i>
  <i type="logical" name="GGA_COMPAT"> T  </i>
  <i type="logical" name="LBERRY"> F  </i>
  <i type="int" name="ICORELEVEL">     0</i>
  <i type="logical" name="LDAU"> F  </i>
  <i type="int" name="I_CONSTRAINED_M">     0</i>
 </parameters>
 <atominfo>
  <atoms>      32</atoms>
  <types>       1</types>
  <array name="atoms" >
   <dimension dim="1">ion</dimension>
   <field type="string">element</field>
   <field type="int">atomtype</field>
   <set>
    <rc><c>Au</c><c>   1</c></rc>
    <rc><c>Au</c><c>   1</c></rc>
    <rc><c>Au</c><c>   1</c></rc>
    <rc><c>Au</c><c>   1</c></rc>
    <rc><c>Au</c><c>   1</c></rc>
    <rc><c>Au</c><c>   1</c></rc>
    <rc><c>Au</c><c>   1</c></rc>
    <rc><c>Au</c><c>   1</c></rc>
    <rc><c>Au</c><c>   1</c></rc>
    <rc><c>Au</c><c>   1</c></rc>
    <rc><c>Au</c><c>   1</c></rc>
    <rc><c>Au</c><c>   1</c></rc>
    <rc><c>Au</c><c>   1</c></rc>
    <rc><c>Au</c><c>   1</c></rc>
    <rc><c>Au</c><c>   1</c></rc>
    <rc><c>Au</c><c>   1</c></rc>
    <rc><c>Au</c><c>   1</c></rc>
    <rc><c>Au</c><c>   1</c></rc>
    <rc><c>Au</c><c>   1</c></rc>
    <rc><c>Au</c><c>   1</c></rc>
    <rc><c>Au</c><c>   1</c></rc>
    <rc><c>Au</c><c>   1</c></rc>
    <rc><c>Au</c><c>   1</c></rc>
    <rc><c>Au</c><c>   1</c></rc>
    <rc><c>Au</c><c>   1</c></rc>
    <rc><c>Au</c><c>   1</c></rc>
    <rc><c>Au</c><c>   1</c></rc>
    <rc><c>Au</c><c>   1</c></rc>
    <rc><c>Au</c><c>   1</c></rc>
    <rc><c>Au</c><c>   1</c></rc>
    <rc><c>Au</c><c>   1</c></rc>
    <rc><c>Au</c><c>   1</c></rc>
   </set>
  </array>
  <array name="atomtypes" >
   <dimension dim="1">type</dimension>
   <field type="int">atomspertype</field>
   <field type="string">element</field>
   <field>mass</field>
   <field>valence</field>
   <field type="string">pseudopotential</field>
   <set>
    <rc><c>  32</c><c>Au</c><c>    196.96600000</c><c>     11.00000000</c><c> PAW_PBE Au 06Sep2000                   </c></rc>
   </set>
  </array>
 </atominfo>
 <structure name="initialpos" >
  <crystal>
   <varray name="basis" >
    <v>       8.76298899      0.00000000      0.00000000</v>
    <v>       0.00000000      8.76298899      0.00000000</v>
    <v>       0.00000000      0.00000000      8.76298899</v>
   </varray>
   <i name="volume">    672.90971569</i>
   <varray name="rec_basis" >
    <v>       0.11411631      0.00000000      0.00000000</v>
    <v>       0.00000000      0.11411631      0.00000000</v>
    <v>       0.00000000      0.00000000      0.11411631</v>
   </varray>
  </crystal>
  <varray name="positions" >
   <v>       0.00114116      0.00000000      0.00000000</v>
   <v>       0.50000000      0.00000000      0.00000000</v>
   <v>       0.00000000      0.50000000      0.00000000</v>
   <v>       0.50000000      0.50000000      0.00000000</v>
   <v>       0.00000000      0.00000000      0.50000000</v>
   <v>       0.50000000      0.00000000      0.50000000</v>
   <v>       0.00000000      0.50000000      0.50000000</v>
   <v>       0.50000000      0.50000000      0.50000000</v>
   <v>       0.25000000      0.25000000      0.00000000</v>
   <v>       0.75000000      0.25000000      0.00000000</v>
   <v>       0.25000000      0.75000000      0.00000000</v>
   <v>       0.75000000      0.75000000      0.00000000</v>
   <v>       0.25000000      0.25000000      0.50000000</v>
   <v>       0.75000000      0.25000000      0.50000000</v>
   <v>       0.25000000      0.75000000      0.50000000</v>
   <v>       0.75000000      0.75000000      0.50000000</v>
   <v>       0.25000000      0.00000000      0.25000000</v>
   <v>       0.75000000      0.00000000      0.25000000</v>
   <v>       0.25000000      0.50000000      0.25000000</v>
   <v>       0.75000000      0.50000000      0.25000000</v>
   <v>       0.25000000      0.00000000      0.75000000</v>
   <v>       0.75000000      0.00000000      0.75000000</v>
   <v>       0.25000000      0.50000000      0.75000000</v>
   <v>       0.75000000      0.50000000      0.75000000</v>
   <v>       0.00000000      0.25000000      0.25000000</v>
   <v>       0.50000000      0.25000000      0.25000000</v>
   <v>       0.00000000      0.75000000      0.25000000</v>
   <v>       0.50000000      0.75000000      0.25000000</v>
   <v>       0.00000000      0.25000000      0.75000000</v>
   <v>       0.50000000      0.25000000      0.75000000</v>
   <v>       0.00000000      0.75000000      0.75000000</v>
   <v>       0.50000000      0.75000000      0.75000000</v>
  </varray>
 </structure>
 <calculation>
  <scstep>
   <time name="dav"> 2277.78 2281.67</time>
   <time name="total"> 2279.10 2283.00</time>
   <energy>
    <i name="alphaZ">   2849.96344217</i>
    <i name="ewald"> -29171.93464031</i>
    <i name="hartreedc">  -4863.06058569</i>
    <i name="XCdc">    470.60677088</i>
    <i name="pawpsdc">  23920.39735419</i>
    <i name="pawaedc"> -23172.13309131</i>
    <i name="eentropy">     -0.00058355</i>
    <i name="bandstr">   4932.97674730</i>
    <i name="atom">  29633.79835877</i>
    <i name="e_fr_energy">   4600.61377245</i>
    <i name="e_wo_entrp">   4600.61435600</i>
    <i name="e_0_energy">   4600.61406423</i>
   </energy>
  </scstep>
  <scstep>
   <time name="dav"> 2276.64 2281.52</time>
   <time name="total"> 2276.74 2281.62</time>
   <energy>
    <i name="e_fr_energy">    172.76944269</i>
    <i name="e_wo_entrp">    172.76985933</i>
    <i name="e_0_energy">    172.76965101</i>
   </energy>
  </scstep>
  <scstep>
   <time name="dav"> 2474.24 2479.20</time>
   <time name="total"> 2474.34 2479.30</time>
   <energy>
    <i name="e_fr_energy">    -97.13521933</i>
    <i name="e_wo_entrp">    -97.13452368</i>
    <i name="e_0_energy">    -97.13487150</i>
   </energy>
  </scstep>
  <scstep>
   <time name="dav"> 2393.34 2399.09</time>
   <time name="total"> 2393.44 2399.19</time>
   <energy>
    <i name="e_fr_energy">   -107.19753273</i>
    <i name="e_wo_entrp">   -107.19651936</i>
    <i name="e_0_energy">   -107.19702604</i>
   </energy>
  </scstep>
  <scstep>
   <time name="dav"> 2411.41 2417.09</time>
   <time name="total"> 2483.98 2489.82</time>
   <energy>
    <i name="e_fr_energy">   -107.37725848</i>
    <i name="e_wo_entrp">   -107.37623787</i>
    <i name="e_0_energy">   -107.37674817</i>
   </energy>
  </scstep>
  <scstep>
   <time name="dav"> 2370.71 2374.94</time>
   <time name="total"> 2444.17 2448.52</time>
   <energy>
    <i name="e_fr_energy">   -100.62234600</i>
    <i name="e_wo_entrp">   -100.62160615</i>
    <i name="e_0_energy">   -100.62197607</i>
   </energy>
  </scstep>
  <scstep>
   <time name="dav"> 2441.12 2445.23</time>
   <time name="total"> 2514.67 2518.90</time>
   <energy>
    <i name="e_fr_energy">   -100.40497936</i>
    <i name="e_wo_entrp">   -100.40407794</i>
    <i name="e_0_energy">   -100.40452865</i>
   </energy>
  </scstep>
  <scstep>
   <time name="dav"> 2354.62 2360.85</time>
   <time name="total"> 2428.92 2435.30</time>
   <energy>
    <i name="e_fr_energy">   -100.36000451</i>
    <i name="e_wo_entrp">   -100.35910967</i>
    <i name="e_0_energy">   -100.35955709</i>
   </energy>
  </scstep>
  <scstep>
   <time name="dav"> 2470.19 2475.81</time>
   <time name="total"> 2544.07 2549.84</time>
   <energy>
    <i name="e_fr_energy">   -100.36043432</i>
    <i name="e_wo_entrp">   -100.35954953</i>
    <i name="e_0_energy">   -100.35999192</i>
   </energy>
  </scstep>
  <scstep>
   <time name="dav"> 2344.48 2348.99</time>
   <time name="total"> 2418.04 2422.70</time>
   <energy>
    <i name="e_fr_energy">   -100.36050616</i>
    <i name="e_wo_entrp">   -100.35961848</i>
    <i name="e_0_energy">   -100.36006232</i>
   </energy>
  </scstep>
  <scstep>
   <time name="dav"> 2426.61 2431.30</time>
   <time name="total"> 2500.51 2505.33</time>
   <energy>
    <i name="e_fr_energy">   -100.36051414</i>
    <i name="e_wo_entrp">   -100.35962601</i>
    <i name="e_0_energy">   -100.36007007</i>
   </energy>
  </scstep>
  <scstep>
   <time name="dav"> 2357.32 2363.31</time>
   <time name="total"> 2430.79 2436.96</time>
   <energy>
    <i name="e_fr_energy">   -100.36051656</i>
    <i name="e_wo_entrp">   -100.35962833</i>
    <i name="e_0_energy">   -100.36007245</i>
   </energy>
  </scstep>
  <scstep>
   <time name="dav"> 2320.35 2324.96</time>
   <time name="total"> 2394.71 2399.47</time>
   <energy>
    <i name="e_fr_energy">   -100.36051532</i>
    <i name="e_wo_entrp">   -100.35962708</i>
    <i name="e_0_energy">   -100.36007120</i>
   </energy>
  </scstep>
  <scstep>
   <time name="dav"> 1524.57 1527.13</time>
   <time name="total"> 1598.38 1601.05</time>
   <energy>
    <i name="e_fr_energy">   -100.36051490</i>
    <i name="e_wo_entrp">   -100.35962666</i>
    <i name="e_0_energy">   -100.36007078</i>
   </energy>
  </scstep>
  <scstep>
   <time name="dav"> 1501.94 1504.79</time>
   <time name="total"> 1576.37 1579.36</time>
   <energy>
    <i name="e_fr_energy">   -100.36051492</i>
    <i name="e_wo_entrp">   -100.35962668</i>
    <i name="e_0_energy">   -100.36007080</i>
   </energy>
  </scstep>
  <scstep>
   <time name="dav"> 1492.47 1496.23</time>
   <time name="total"> 1493.80 1497.56</time>
   <energy>
    <i name="alphaZ">   2849.96344217</i>
    <i name="ewald"> -29171.93464031</i>
    <i name="hartreedc">  -4533.01211310</i>
    <i name="XCdc">    455.47036531</i>
    <i name="pawpsdc">  23519.56963739</i>
    <i name="pawaedc"> -22826.72320558</i>
    <i name="eentropy">     -0.00088824</i>
    <i name="bandstr">    -27.49147132</i>
    <i name="atom">  29633.79835877</i>
    <i name="e_fr_energy">   -100.36051491</i>
    <i name="e_wo_entrp">   -100.35962668</i>
    <i name="e_0_energy">   -100.36007079</i>
   </energy>
  </scstep>
  <structure>
   <crystal>
    <varray name="basis" >
     <v>       8.76298899      0.00000000      0.00000000</v>
     <v>       0.00000000      8.76298899      0.00000000</v>
     <v>       0.00000000      0.00000000      8.76298899</v>
    </varray>
    <i name="volume">    672.90971569</i>
    <varray name="rec_basis" >
     <v>       0.11411631      0.00000000      0.00000000</v>
     <v>       0.00000000      0.11411631      0.00000000</v>
     <v>       0.00000000      0.00000000      0.11411631</v>
    </varray>
   </crystal>
   <varray name="positions" >
    <v>       0.00114116      0.00000000      0.00000000</v>
    <v>       0.50000000      0.00000000      0.00000000</v>
    <v>       0.00000000      0.50000000      0.00000000</v>
    <v>       0.50000000      0.50000000      0.00000000</v>
    <v>       0.00000000      0.00000000      0.50000000</v>
    <v>       0.50000000      0.00000000      0.50000000</v>
    <v>       0.00000000      0.50000000      0.50000000</v>
    <v>       0.50000000      0.50000000      0.50000000</v>
    <v>       0.25000000      0.25000000      0.00000000</v>
    <v>       0.75000000      0.25000000      0.00000000</v>
    <v>       0.25000000      0.75000000      0.00000000</v>
    <v>       0.75000000      0.75000000      0.00000000</v>
    <v>       0.25000000      0.25000000      0.50000000</v>
    <v>       0.75000000      0.25000000      0.50000000</v>
    <v>       0.25000000      0.75000000      0.50000000</v>
    <v>       0.75000000      0.75000000      0.50000000</v>
    <v>       0.25000000      0.00000000      0.25000000</v>
    <v>       0.75000000      0.00000000      0.25000000</v>
    <v>       0.25000000      0.50000000      0.25000000</v>
    <v>       0.75000000      0.50000000      0.25000000</v>
    <v>       0.25000000      0.00000000      0.75000000</v>
    <v>       0.75000000      0.00000000      0.75000000</v>
    <v>       0.25000000      0.50000000      0.75000000</v>
    <v>       0.75000000      0.50000000      0.75000000</v>
    <v>       0.00000000      0.25000000      0.25000000</v>
    <v>       0.50000000      0.25000000      0.25000000</v>
    <v>       0.00000000      0.75000000      0.25000000</v>
    <v>       0.50000000      0.75000000      0.25000000</v>
    <v>       0.00000000      0.25000000      0.75000000</v>
    <v>       0.50000000      0.25000000      0.75000000</v>
    <v>       0.00000000      0.75000000      0.75000000</v>
    <v>       0.50000000      0.75000000      0.75000000</v>
   </varray>
  </structure>
  <varray name="forces" >
   <v>      -0.01337100     -0.00000000     -0.00000000</v>
   <v>       0.00345963     -0.00000000      0.00000000</v>
   <v>      -0.00048848     -0.00000000      0.00000000</v>
   <v>      -0.00182186      0.00000000     -0.00000000</v>
   <v>      -0.00048848     -0.00000000      0.00000000</v>
   <v>      -0.00182186      0.00000000     -0.00000000</v>
   <v>       0.00026787     -0.00000000      0.00000000</v>
   <v>      -0.00013376      0.00000000     -0.00000000</v>
   <v>       0.00218530      0.00307905     -0.00000000</v>
   <v>       0.00205246     -0.00290384     -0.00000000</v>
   <v>       0.00218530     -0.00307905      0.00000000</v>
   <v>       0.00205246      0.00290384      0.00000000</v>
   <v>       0.00024202      0.00001290      0.00000000</v>
   <v>       0.00024146     -0.00001163      0.00000000</v>
   <v>       0.00024202     -0.00001290      0.00000000</v>
   <v>       0.00024146      0.00001163     -0.00000000</v>
   <v>       0.00218530      0.00000000      0.00307905</v>
   <v>       0.00205246      0.00000000     -0.00290384</v>
   <v>       0.00024202      0.00000000      0.00001290</v>
   <v>       0.00024146     -0.00000000     -0.00001163</v>
   <v>       0.00218530     -0.00000000     -0.00307905</v>
   <v>       0.00205246      0.00000000      0.00290384</v>
   <v>       0.00024202     -0.00000000     -0.00001290</v>
   <v>       0.00024146      0.00000000      0.00001163</v>
   <v>      -0.00179717      0.00000359      0.00000359</v>
   <v>       0.00067542      0.00000255      0.00000255</v>
   <v>      -0.00179717     -0.00000359      0.00000359</v>
   <v>       0.00067542     -0.00000255      0.00000255</v>
   <v>      -0.00179717      0.00000359     -0.00000359</v>
   <v>       0.00067542      0.00000255     -0.00000255</v>
   <v>      -0.00179717     -0.00000359     -0.00000359</v>
   <v>       0.00067542     -0.00000255     -0.00000255</v>
  </varray>
  <varray name="stress" >
   <v>    -127.65144263     -0.00000000      0.00000000</v>
   <v>       0.00000000   -127.65213901      0.00000000</v>
   <v>       0.00000000      0.00000000   -127.65213901</v>
  </varray>
  <energy>
   <i name="e_fr_energy">   -100.36051491</i>
   <i name="e_wo_entrp">   -100.36007079</i>
   <i name="e_0_energy">     -0.00088824</i>
  </energy>
  <eigenvalues>
   <array>
    <dimension dim="1">band</dimension>
    <dimension dim="2">kpoint</dimension>
    <dimension dim="3">spin</dimension>
    <field>eigene</field>
    <field>occ</field>
    <set>
     <set comment="spin 1">
      <set comment="kpoint 1">
       <r>  -4.4985  1.0000</r>
       <r>  -2.4498  1.0000</r>
       <r>  -2.4469  1.0000</r>
       <r>  -2.4469  1.0000</r>
       <r>  -2.4469  1.0000</r>
       <r>  -2.4469  1.0000</r>
       <r>  -2.4440  1.0000</r>
       <r>  -2.3173  1.0000</r>
       <r>  -2.3173  1.0000</r>
       <r>  -2.3173  1.0000</r>
       <r>  -2.3173  1.0000</r>
       <r>  -2.0680  1.0000</r>
       <r>  -2.0680  1.0000</r>
       <r>  -2.0680  1.0000</r>
       <r>  -1.8607  1.0000</r>
       <r>  -1.8607  1.0000</r>
       <r>  -1.8607  1.0000</r>
       <r>  -1.3835  1.0000</r>
       <r>  -1.3822  1.0000</r>
       <r>  -1.3822  1.0000</r>
       <r>  -1.3808  1.0000</r>
       <r>  -1.3806  1.0000</r>
       <r>  -1.3806  1.0000</r>
       <r>  -1.3806  1.0000</r>
       <r>  -1.3806  1.0000</r>
       <r>  -1.3804  1.0000</r>
       <r>  -1.3789  1.0000</r>
       <r>  -1.3789  1.0000</r>
       <r>  -1.3777  1.0000</r>
       <r>  -1.2460  1.0000</r>
       <r>  -1.2443  1.0000</r>
       <r>  -1.2443  1.0000</r>
       <r>  -1.2443  1.0000</r>
       <r>  -1.2443  1.0000</r>
       <r>  -1.2426  1.0000</r>
       <r>  -1.1915  1.0000</r>
       <r>  -1.1899  1.0000</r>
       <r>  -1.1899  1.0000</r>
       <r>  -1.1899  1.0000</r>
       <r>  -1.1899  1.0000</r>
       <r>  -1.1882  1.0000</r>
       <r>  -0.7521  1.0000</r>
       <r>  -0.7500  1.0000</r>
       <r>  -0.7500  1.0000</r>
       <r>  -0.7491  1.0000</r>
       <r>  -0.7490  1.0000</r>
       <r>  -0.7490  1.0000</r>
       <r>  -0.7490  1.0000</r>
       <r>  -0.7490  1.0000</r>
       <r>  -0.7490  1.0000</r>
       <r>  -0.7481  1.0000</r>
       <r>  -0.7481  1.0000</r>
       <r>  -0.7462  1.0000</r>
       <r>  -0.6962  1.0000</r>
       <r>  -0.6962  1.0000</r>
       <r>  -0.6943  1.0000</r>
       <r>  -0.6943  1.0000</r>
       <r>  -0.6943  1.0000</r>
       <r>  -0.6943  1.0000</r>
       <r>  -0.6943  1.0000</r>
       <r>  -0.6942  1.0000</r>
       <r>  -0.6942  1.0000</r>
       <r>  -0.6941  1.0000</r>
       <r>  -0.6923  1.0000</r>
       <r>  -0.6923  1.0000</r>
       <r>  -0.4718  1.0000</r>
       <r>  -0.4689  1.0000</r>
       <r>  -0.4688  1.0000</r>
       <r>  -0.4688  1.0000</r>
       <r>  -0.4686  1.0000</r>
       <r>  -0.4686  1.0000</r>
       <r>  -0.4686  1.0000</r>
       <r>  -0.4686  1.0000</r>
       <r>  -0.4684  1.0000</r>
       <r>  -0.4684  1.0000</r>
       <r>  -0.4683  1.0000</r>
       <r>  -0.4656  1.0000</r>
       <r>  -0.4388  1.0000</r>
       <r>  -0.4388  1.0000</r>
       <r>  -0.4388  1.0000</r>
       <r>  -0.4387  1.0000</r>
       <r>  -0.4387  1.0000</r>
       <r>  -0.4387  1.0000</r>
       <r>  -0.4387  1.0000</r>
       <r>  -0.4386  1.0000</r>
       <r>  -0.4230  1.0000</r>
       <r>  -0.4230  1.0000</r>
       <r>  -0.4230  1.0000</r>
       <r>   0.1289  1.0000</r>
       <r>   0.1305  1.0000</r>
       <r>   0.1305  1.0000</r>
       <r>   0.1305  1.0000</r>
       <r>   0.1305  1.0000</r>
       <r>   0.1321  1.0000</r>
       <r>   0.2374  1.0000</r>
       <r>   0.2381  1.0000</r>
       <r>   0.2389  1.0000</r>
       <r>   0.2389  1.0000</r>
       <r>   0.2394  1.0000</r>
       <r>   0.2394  1.0000</r>
       <r>   0.2394  1.0000</r>
       <r>   0.2394  1.0000</r>
       <r>   0.2399  1.0000</r>
       <r>   0.2399  1.0000</r>
       <r>   0.2408  1.0000</r>
       <r>   0.2413  1.0000</r>
       <r>   0.4491  1.0000</r>
       <r>   0.4491  1.0000</r>
       <r>   0.4511  1.0000</r>
       <r>   0.4511  1.0000</r>
       <r>   0.4513  1.0000</r>
       <r>   0.4513  1.0000</r>
       <r>   0.4513  1.0000</r>
       <r>   0.4513  1.0000</r>
       <r>   0.4515  1.0000</r>
       <r>   0.4515  1.0000</r>
       <r>   0.4534  1.0000</r>
       <r>   0.4534  1.0000</r>
       <r>   0.5636  1.0000</r>
       <r>   0.5650  1.0000</r>
       <r>   0.5650  1.0000</r>
       <r>   0.5650  1.0000</r>
       <r>   0.5650  1.0000</r>
       <r>   0.5663  1.0000</r>
       <r>   0.6187  1.0000</r>
       <r>   0.6188  1.0000</r>
       <r>   0.6315  1.0000</r>
       <r>   0.6315  1.0000</r>
       <r>   0.6334  1.0000</r>
       <r>   0.6338  1.0000</r>
       <r>   0.6338  1.0000</r>
       <r>   0.6338  1.0000</r>
       <r>   0.6338  1.0000</r>
       <r>   0.6339  1.0000</r>
       <r>   0.6340  1.0000</r>
       <r>   0.6342  1.0000</r>
       <r>   0.6362  1.0000</r>
       <r>   0.6362  1.0000</r>
       <r>   1.0013  1.0000</r>
       <r>   1.0023  1.0000</r>
       <r>   1.0023  1.0000</r>
       <r>   1.0023  1.0000</r>
       <r>   1.0023  1.0000</r>
       <r>   1.0033  1.0000</r>
       <r>   1.4113  1.0000</r>
       <r>   1.4113  1.0000</r>
       <r>   1.4113  1.0000</r>
       <r>   1.4460  1.0000</r>
       <r>   1.4461  1.0000</r>
       <r>   1.4461  1.0000</r>
       <r>   1.4461  1.0000</r>
       <r>   1.4461  1.0000</r>
       <r>   1.4461  1.0000</r>
       <r>   1.4461  1.0000</r>
       <r>   1.4461  1.0000</r>
       <r>   1.6642  1.0000</r>
       <r>   1.6645  1.0000</r>
       <r>   1.6645  1.0000</r>
       <r>   1.6645  1.0000</r>
       <r>   1.6645  1.0000</r>
       <r>   1.6645  1.0000</r>
       <r>   1.6656  1.0000</r>
       <r>   1.6656  1.0000</r>
       <r>   1.6656  1.0000</r>
       <r>   1.6656  1.0000</r>
       <r>   1.6656  1.0000</r>
       <r>   1.6659  1.0000</r>
       <r>   2.8708  1.0000</r>
       <r>   2.8717  1.0000</r>
       <r>   2.8717  1.0000</r>
       <r>   2.8723  1.0000</r>
       <r>   2.8727  1.0000</r>
       <r>   2.8727  1.0000</r>
       <r>   2.8727  1.0000</r>
       <r>   2.8727  1.0000</r>
       <r>   2.8731  1.0000</r>
       <r>   2.8737  1.0000</r>
       <r>   2.8737  1.0000</r>
       <r>   2.8746  1.0000</r>
       <r>   3.2756  1.0000</r>
       <r>   3.2756  1.0000</r>
       <r>   3.2756  1.0000</r>
       <r>   3.2756  1.0000</r>
       <r>   4.9135  0.0000</r>
       <r>   4.9135  0.0000</r>
       <r>   4.9135  0.0000</r>
       <r>   5.4432  0.0000</r>
       <r>   5.4432  0.0000</r>
       <r>   5.4432  0.0000</r>
       <r>   5.4432  0.0000</r>
       <r>   7.0736  0.0000</r>
       <r>   7.0737  0.0000</r>
       <r>   7.0737  0.0000</r>
       <r>   7.0737  0.0000</r>
       <r>   7.0737  0.0000</r>
       <r>   7.0738  0.0000</r>
       <r>   7.6459  0.0000</r>
       <r>   7.6460  0.0000</r>
       <r>   7.6460  0.0000</r>
       <r>   9.0307  0.0000</r>
       <r>   9.0307  0.0000</r>
       <r>   9.0335  0.0000</r>
       <r>   9.0335  0.0000</r>
       <r>   9.0339  0.0000</r>
       <r>   9.0339  0.0000</r>
       <r>   9.0339  0.0000</r>
       <r>   9.0339  0.0000</r>
       <r>   9.0342  0.0000</r>
       <r>   9.0342  0.0000</r>
       <r>   9.0370  0.0000</r>
       <r>   9.0370  0.0000</r>
       <r>  10.8122  0.0000</r>
       <r>  10.8130  0.0000</r>
       <r>  10.8134  0.0000</r>
       <r>  10.8135  0.0000</r>
       <r>  10.8140  0.0000</r>
      </set>
      <set comment="kpoint 2">
       <r>  -4.4816  1.0000</r>
       <r>  -2.6947  1.0000</r>
       <r>  -2.4348  1.0000</r>
       <r>  -2.4348  1.0000</r>
       <r>  -2.4348  1.0000</r>
       <r>  -2.4348  1.0000</r>
       <r>  -2.3086  1.0000</r>
       <r>  -2.3086  1.0000</r>
       <r>  -2.3086  1.0000</r>
       <r>  -2.3086  1.0000</r>
       <r>  -2.2341  1.0000</r>
       <r>  -2.0629  1.0000</r>
       <r>  -2.0577  1.0000</r>
       <r>  -2.0577  1.0000</r>
       <r>  -1.8553  1.0000</r>
       <r>  -1.8525  1.0000</r>
       <r>  -1.8525  1.0000</r>
       <r>  -1.4640  1.0000</r>
       <r>  -1.4640  1.0000</r>
       <r>  -1.4640  1.0000</r>
       <r>  -1.4640  1.0000</r>
       <r>  -1.4257  1.0000</r>
       <r>  -1.4257  1.0000</r>
       <r>  -1.4257  1.0000</r>
       <r>  -1.4257  1.0000</r>
       <r>  -1.3096  1.0000</r>
       <r>  -1.3096  1.0000</r>
       <r>  -1.3096  1.0000</r>
       <r>  -1.3096  1.0000</r>
       <r>  -1.2823  1.0000</r>
       <r>  -1.2655  1.0000</r>
       <r>  -1.2654  1.0000</r>
       <r>  -1.2374  1.0000</r>
       <r>  -1.2374  1.0000</r>
       <r>  -1.2374  1.0000</r>
       <r>  -1.2373  1.0000</r>
       <r>  -1.1852  1.0000</r>
       <r>  -1.1852  1.0000</r>
       <r>  -1.1852  1.0000</r>
       <r>  -1.1852  1.0000</r>
       <r>  -1.0959  1.0000</r>
       <r>  -0.8773  1.0000</r>
       <r>  -0.8773  1.0000</r>
       <r>  -0.7870  1.0000</r>
       <r>  -0.7869  1.0000</r>
       <r>  -0.7869  1.0000</r>
       <r>  -0.7869  1.0000</r>
       <r>  -0.7201  1.0000</r>
       <r>  -0.7193  1.0000</r>
       <r>  -0.7193  1.0000</r>
       <r>  -0.7192  1.0000</r>
       <r>  -0.7163  1.0000</r>
       <r>  -0.7163  1.0000</r>
       <r>  -0.7163  1.0000</r>
       <r>  -0.7156  1.0000</r>
       <r>  -0.7025  1.0000</r>
       <r>  -0.7024  1.0000</r>
       <r>  -0.7024  1.0000</r>
       <r>  -0.7024  1.0000</r>
       <r>  -0.6935  1.0000</r>
       <r>  -0.6934  1.0000</r>
       <r>  -0.6934  1.0000</r>
       <r>  -0.6932  1.0000</r>
       <r>  -0.5102  1.0000</r>
       <r>  -0.5102  1.0000</r>
       <r>  -0.5102  1.0000</r>
       <r>  -0.5102  1.0000</r>
       <r>  -0.4974  1.0000</r>
       <r>  -0.4974  1.0000</r>
       <r>  -0.4549  1.0000</r>
       <r>  -0.4545  1.0000</r>
       <r>  -0.4545  1.0000</r>
       <r>  -0.4545  1.0000</r>
       <r>  -0.4419  1.0000</r>
       <r>  -0.4419  1.0000</r>
       <r>  -0.4418  1.0000</r>
       <r>  -0.4416  1.0000</r>
       <r>  -0.4393  1.0000</r>
       <r>  -0.4393  1.0000</r>
       <r>  -0.4393  1.0000</r>
       <r>  -0.4390  1.0000</r>
       <r>  -0.4321  1.0000</r>
       <r>  -0.4321  1.0000</r>
       <r>  -0.4321  1.0000</r>
       <r>  -0.4321  1.0000</r>
       <r>  -0.4301  1.0000</r>
       <r>  -0.4165  1.0000</r>
       <r>  -0.4165  1.0000</r>
       <r>   0.0853  1.0000</r>
       <r>   0.0854  1.0000</r>
       <r>   0.0854  1.0000</r>
       <r>   0.0854  1.0000</r>
       <r>   0.1040  1.0000</r>
       <r>   0.2072  1.0000</r>
       <r>   0.2073  1.0000</r>
       <r>   0.2073  1.0000</r>
       <r>   0.2073  1.0000</r>
       <r>   0.2247  1.0000</r>
       <r>   0.2402  1.0000</r>
       <r>   0.2402  1.0000</r>
       <r>   0.2402  1.0000</r>
       <r>   0.2404  1.0000</r>
       <r>   0.2779  1.0000</r>
       <r>   0.2779  1.0000</r>
       <r>   0.2779  1.0000</r>
       <r>   0.2780  1.0000</r>
       <r>   0.3229  1.0000</r>
       <r>   0.3229  1.0000</r>
       <r>   0.4508  1.0000</r>
       <r>   0.4508  1.0000</r>
       <r>   0.4508  1.0000</r>
       <r>   0.4508  1.0000</r>
       <r>   0.4904  1.0000</r>
       <r>   0.4904  1.0000</r>
       <r>   0.4904  1.0000</r>
       <r>   0.4904  1.0000</r>
       <r>   0.5680  1.0000</r>
       <r>   0.5680  1.0000</r>
       <r>   0.5681  1.0000</r>
       <r>   0.5682  1.0000</r>
       <r>   0.5726  1.0000</r>
       <r>   0.5726  1.0000</r>
       <r>   0.5726  1.0000</r>
       <r>   0.5726  1.0000</r>
       <r>   0.5852  1.0000</r>
       <r>   0.5852  1.0000</r>
       <r>   0.5870  1.0000</r>
       <r>   0.5871  1.0000</r>
       <r>   0.6115  1.0000</r>
       <r>   0.6220  1.0000</r>
       <r>   0.6682  1.0000</r>
       <r>   0.6682  1.0000</r>
       <r>   0.6682  1.0000</r>
       <r>   0.6683  1.0000</r>
       <r>   0.7102  1.0000</r>
       <r>   0.7102  1.0000</r>
       <r>   0.7102  1.0000</r>
       <r>   0.7102  1.0000</r>
       <r>   0.9509  1.0000</r>
       <r>   1.0122  1.0000</r>
       <r>   1.0122  1.0000</r>
       <r>   1.0122  1.0000</r>
       <r>   1.0122  1.0000</r>
       <r>   1.0542  1.0000</r>
       <r>   1.4010  1.0000</r>
       <r>   1.4010  1.0000</r>
       <r>   1.4077  1.0000</r>
       <r>   1.4114  1.0000</r>
       <r>   1.4114  1.0000</r>
       <r>   1.4114  1.0000</r>
       <r>   1.4114  1.0000</r>
       <r>   1.4370  1.0000</r>
       <r>   1.4371  1.0000</r>
       <r>   1.4371  1.0000</r>
       <r>   1.4371  1.0000</r>
       <r>   1.6227  1.0000</r>
       <r>   1.6227  1.0000</r>
       <r>   1.6516  1.0000</r>
       <r>   1.6516  1.0000</r>
       <r>   1.6516  1.0000</r>
       <r>   1.6516  1.0000</r>
       <r>   1.6517  1.0000</r>
       <r>   1.6517  1.0000</r>
       <r>   1.6643  1.0000</r>
       <r>   1.6645  1.0000</r>
       <r>   1.6656  1.0000</r>
       <r>   1.6658  1.0000</r>
       <r>   2.6205  1.0000</r>
       <r>   2.6205  1.0000</r>
       <r>   2.6205  1.0000</r>
       <r>   2.6205  1.0000</r>
       <r>   2.8749  1.0000</r>
       <r>   2.8749  1.0000</r>
       <r>   2.8750  1.0000</r>
       <r>   2.8750  1.0000</r>
       <r>   3.1478  1.0000</r>
       <r>   3.1478  1.0000</r>
       <r>   3.1478  1.0000</r>
       <r>   3.1478  1.0000</r>
       <r>   3.2514  1.0000</r>
       <r>   3.2514  1.0000</r>
       <r>   3.2514  1.0000</r>
       <r>   3.2514  1.0000</r>
       <r>   4.7187  0.0000</r>
       <r>   4.9686  0.0000</r>
       <r>   4.9686  0.0000</r>
       <r>   5.5257  0.0000</r>
       <r>   5.5257  0.0000</r>
       <r>   5.5257  0.0000</r>
       <r>   5.5257  0.0000</r>
       <r>   6.9687  0.0000</r>
       <r>   6.9687  0.0000</r>
       <r>   6.9687  0.0000</r>
       <r>   6.9687  0.0000</r>
       <r>   7.0830  0.0000</r>
       <r>   7.0830  0.0000</r>
       <r>   7.6359  0.0000</r>
       <r>   7.6359  0.0000</r>
       <r>   7.8710  0.0000</r>
       <r>   8.5771  0.0000</r>
       <r>   8.5771  0.0000</r>
       <r>   9.0554  0.0000</r>
       <r>   9.0554  0.0000</r>
       <r>   9.0555  0.0000</r>
       <r>   9.0555  0.0000</r>
       <r>   9.0629  0.0000</r>
       <r>   9.0629  0.0000</r>
       <r>   9.0630  0.0000</r>
       <r>   9.0630  0.0000</r>
       <r>   9.4892  0.0000</r>
       <r>   9.4892  0.0000</r>
       <r>  10.5141  0.0000</r>
       <r>  10.5144  0.0000</r>
       <r>  10.5171  0.0000</r>
       <r>  10.5178  0.0000</r>
       <r>  10.5183  0.0000</r>
      </set>
      <set comment="kpoint 3">
       <r>  -4.4311  1.0000</r>
       <r>  -2.9574  1.0000</r>
       <r>  -2.3989  1.0000</r>
       <r>  -2.3988  1.0000</r>
       <r>  -2.3988  1.0000</r>
       <r>  -2.3988  1.0000</r>
       <r>  -2.2824  1.0000</r>
       <r>  -2.2824  1.0000</r>
       <r>  -2.2824  1.0000</r>
       <r>  -2.2824  1.0000</r>
       <r>  -2.0743  1.0000</r>
       <r>  -2.0482  1.0000</r>
       <r>  -2.0270  1.0000</r>
       <r>  -2.0270  1.0000</r>
       <r>  -1.8391  1.0000</r>
       <r>  -1.8278  1.0000</r>
       <r>  -1.8278  1.0000</r>
       <r>  -1.5625  1.0000</r>
       <r>  -1.5625  1.0000</r>
       <r>  -1.5625  1.0000</r>
       <r>  -1.5624  1.0000</r>
       <r>  -1.5314  1.0000</r>
       <r>  -1.5314  1.0000</r>
       <r>  -1.5314  1.0000</r>
       <r>  -1.5314  1.0000</r>
       <r>  -1.3715  1.0000</r>
       <r>  -1.3246  1.0000</r>
       <r>  -1.3246  1.0000</r>
       <r>  -1.2475  1.0000</r>
       <r>  -1.2475  1.0000</r>
       <r>  -1.2475  1.0000</r>
       <r>  -1.2475  1.0000</r>
       <r>  -1.2172  1.0000</r>
       <r>  -1.2172  1.0000</r>
       <r>  -1.2172  1.0000</r>
       <r>  -1.2172  1.0000</r>
       <r>  -1.1713  1.0000</r>
       <r>  -1.1713  1.0000</r>
       <r>  -1.1713  1.0000</r>
       <r>  -1.1712  1.0000</r>
       <r>  -1.0458  1.0000</r>
       <r>  -1.0458  1.0000</r>
       <r>  -1.0019  1.0000</r>
       <r>  -0.8316  1.0000</r>
       <r>  -0.8316  1.0000</r>
       <r>  -0.8316  1.0000</r>
       <r>  -0.8316  1.0000</r>
       <r>  -0.7256  1.0000</r>
       <r>  -0.7256  1.0000</r>
       <r>  -0.7256  1.0000</r>
       <r>  -0.7256  1.0000</r>
       <r>  -0.6983  1.0000</r>
       <r>  -0.6978  1.0000</r>
       <r>  -0.6978  1.0000</r>
       <r>  -0.6978  1.0000</r>
       <r>  -0.6911  1.0000</r>
       <r>  -0.6911  1.0000</r>
       <r>  -0.6911  1.0000</r>
       <r>  -0.6906  1.0000</r>
       <r>  -0.6589  1.0000</r>
       <r>  -0.6589  1.0000</r>
       <r>  -0.6589  1.0000</r>
       <r>  -0.6588  1.0000</r>
       <r>  -0.5753  1.0000</r>
       <r>  -0.5753  1.0000</r>
       <r>  -0.5753  1.0000</r>
       <r>  -0.5752  1.0000</r>
       <r>  -0.4573  1.0000</r>
       <r>  -0.4571  1.0000</r>
       <r>  -0.4571  1.0000</r>
       <r>  -0.4571  1.0000</r>
       <r>  -0.4511  1.0000</r>
       <r>  -0.4507  1.0000</r>
       <r>  -0.4507  1.0000</r>
       <r>  -0.4507  1.0000</r>
       <r>  -0.4505  1.0000</r>
       <r>  -0.4121  1.0000</r>
       <r>  -0.4121  1.0000</r>
       <r>  -0.4121  1.0000</r>
       <r>  -0.4121  1.0000</r>
       <r>  -0.3968  1.0000</r>
       <r>  -0.3968  1.0000</r>
       <r>  -0.3408  1.0000</r>
       <r>  -0.3408  1.0000</r>
       <r>  -0.3408  1.0000</r>
       <r>  -0.3408  1.0000</r>
       <r>  -0.2875  1.0000</r>
       <r>  -0.2875  1.0000</r>
       <r>  -0.0086  1.0000</r>
       <r>  -0.0086  1.0000</r>
       <r>  -0.0086  1.0000</r>
       <r>  -0.0086  1.0000</r>
       <r>   0.1238  1.0000</r>
       <r>   0.1330  1.0000</r>
       <r>   0.1331  1.0000</r>
       <r>   0.1331  1.0000</r>
       <r>   0.1331  1.0000</r>
       <r>   0.2016  1.0000</r>
       <r>   0.2016  1.0000</r>
       <r>   0.2774  1.0000</r>
       <r>   0.2775  1.0000</r>
       <r>   0.2775  1.0000</r>
       <r>   0.2775  1.0000</r>
       <r>   0.3427  1.0000</r>
       <r>   0.3427  1.0000</r>
       <r>   0.3427  1.0000</r>
       <r>   0.3427  1.0000</r>
       <r>   0.4068  1.0000</r>
       <r>   0.4496  1.0000</r>
       <r>   0.4496  1.0000</r>
       <r>   0.4496  1.0000</r>
       <r>   0.4496  1.0000</r>
       <r>   0.5259  1.0000</r>
       <r>   0.5259  1.0000</r>
       <r>   0.5260  1.0000</r>
       <r>   0.5260  1.0000</r>
       <r>   0.5597  1.0000</r>
       <r>   0.5597  1.0000</r>
       <r>   0.5597  1.0000</r>
       <r>   0.5598  1.0000</r>
       <r>   0.5765  1.0000</r>
       <r>   0.5765  1.0000</r>
       <r>   0.5765  1.0000</r>
       <r>   0.5765  1.0000</r>
       <r>   0.5895  1.0000</r>
       <r>   0.6315  1.0000</r>
       <r>   0.6485  1.0000</r>
       <r>   0.6485  1.0000</r>
       <r>   0.7221  1.0000</r>
       <r>   0.7222  1.0000</r>
       <r>   0.7490  1.0000</r>
       <r>   0.7490  1.0000</r>
       <r>   0.7490  1.0000</r>
       <r>   0.7490  1.0000</r>
       <r>   0.8007  1.0000</r>
       <r>   0.8007  1.0000</r>
       <r>   0.8007  1.0000</r>
       <r>   0.8007  1.0000</r>
       <r>   0.9008  1.0000</r>
       <r>   1.0487  1.0000</r>
       <r>   1.0487  1.0000</r>
       <r>   1.0487  1.0000</r>
       <r>   1.0487  1.0000</r>
       <r>   1.1055  1.0000</r>
       <r>   1.3108  1.0000</r>
       <r>   1.3108  1.0000</r>
       <r>   1.3108  1.0000</r>
       <r>   1.3108  1.0000</r>
       <r>   1.3704  1.0000</r>
       <r>   1.3704  1.0000</r>
       <r>   1.3969  1.0000</r>
       <r>   1.4103  1.0000</r>
       <r>   1.4103  1.0000</r>
       <r>   1.4103  1.0000</r>
       <r>   1.4103  1.0000</r>
       <r>   1.5052  1.0000</r>
       <r>   1.5052  1.0000</r>
       <r>   1.6105  1.0000</r>
       <r>   1.6105  1.0000</r>
       <r>   1.6106  1.0000</r>
       <r>   1.6106  1.0000</r>
       <r>   1.6139  1.0000</r>
       <r>   1.6139  1.0000</r>
       <r>   1.6643  1.0000</r>
       <r>   1.6646  1.0000</r>
       <r>   1.6655  1.0000</r>
       <r>   1.6658  1.0000</r>
       <r>   2.3865  1.0000</r>
       <r>   2.3865  1.0000</r>
       <r>   2.3865  1.0000</r>
       <r>   2.3865  1.0000</r>
       <r>   2.8817  1.0000</r>
       <r>   2.8817  1.0000</r>
       <r>   2.8818  1.0000</r>
       <r>   2.8818  1.0000</r>
       <r>   3.1920  1.0000</r>
       <r>   3.1920  1.0000</r>
       <r>   3.1920  1.0000</r>
       <r>   3.1920  1.0000</r>
       <r>   3.4503  0.0000</r>
       <r>   3.4503  0.0000</r>
       <r>   3.4503  0.0000</r>
       <r>   3.4503  0.0000</r>
       <r>   4.2588  0.0000</r>
       <r>   5.1258  0.0000</r>
       <r>   5.1258  0.0000</r>
       <r>   5.7562  0.0000</r>
       <r>   5.7562  0.0000</r>
       <r>   5.7562  0.0000</r>
       <r>   5.7562  0.0000</r>
       <r>   6.6894  0.0000</r>
       <r>   6.6894  0.0000</r>
       <r>   6.6894  0.0000</r>
       <r>   6.6894  0.0000</r>
       <r>   7.1102  0.0000</r>
       <r>   7.1102  0.0000</r>
       <r>   7.6064  0.0000</r>
       <r>   7.6064  0.0000</r>
       <r>   8.1224  0.0000</r>
       <r>   8.1224  0.0000</r>
       <r>   8.4216  0.0000</r>
       <r>   9.1094  0.0000</r>
       <r>   9.1094  0.0000</r>
       <r>   9.1094  0.0000</r>
       <r>   9.1094  0.0000</r>
       <r>   9.1490  0.0000</r>
       <r>   9.1490  0.0000</r>
       <r>   9.1490  0.0000</r>
       <r>   9.1490  0.0000</r>
       <r>   9.9387  0.0000</r>
       <r>   9.9387  0.0000</r>
       <r>   9.9498  0.0000</r>
       <r>   9.9498  0.0000</r>
       <r>   9.9503  0.0000</r>
       <r>   9.9503  0.0000</r>
       <r>  10.2489  0.0000</r>
      </set>
      <set comment="kpoint 4">
       <r>  -4.3473  1.0000</r>
       <r>  -3.2192  1.0000</r>
       <r>  -2.3400  1.0000</r>
       <r>  -2.3400  1.0000</r>
       <r>  -2.3400  1.0000</r>
       <r>  -2.3400  1.0000</r>
       <r>  -2.2389  1.0000</r>
       <r>  -2.2389  1.0000</r>
       <r>  -2.2389  1.0000</r>
       <r>  -2.2389  1.0000</r>
       <r>  -2.0252  1.0000</r>
       <r>  -1.9771  1.0000</r>
       <r>  -1.9768  1.0000</r>
       <r>  -1.9745  1.0000</r>
       <r>  -1.8124  1.0000</r>
       <r>  -1.7867  1.0000</r>
       <r>  -1.7867  1.0000</r>
       <r>  -1.6754  1.0000</r>
       <r>  -1.6754  1.0000</r>
       <r>  -1.6754  1.0000</r>
       <r>  -1.6754  1.0000</r>
       <r>  -1.6575  1.0000</r>
       <r>  -1.6575  1.0000</r>
       <r>  -1.6575  1.0000</r>
       <r>  -1.6575  1.0000</r>
       <r>  -1.4563  1.0000</r>
       <r>  -1.4114  1.0000</r>
       <r>  -1.4114  1.0000</r>
       <r>  -1.1992  1.0000</r>
       <r>  -1.1992  1.0000</r>
       <r>  -1.1916  1.0000</r>
       <r>  -1.1915  1.0000</r>
       <r>  -1.1915  1.0000</r>
       <r>  -1.1915  1.0000</r>
       <r>  -1.1853  1.0000</r>
       <r>  -1.1853  1.0000</r>
       <r>  -1.1853  1.0000</r>
       <r>  -1.1852  1.0000</r>
       <r>  -1.1484  1.0000</r>
       <r>  -1.1484  1.0000</r>
       <r>  -1.1484  1.0000</r>
       <r>  -1.1484  1.0000</r>
       <r>  -0.9096  1.0000</r>
       <r>  -0.8811  1.0000</r>
       <r>  -0.8811  1.0000</r>
       <r>  -0.8811  1.0000</r>
       <r>  -0.8811  1.0000</r>
       <r>  -0.7597  1.0000</r>
       <r>  -0.7596  1.0000</r>
       <r>  -0.7596  1.0000</r>
       <r>  -0.7596  1.0000</r>
       <r>  -0.6884  1.0000</r>
       <r>  -0.6876  1.0000</r>
       <r>  -0.6876  1.0000</r>
       <r>  -0.6875  1.0000</r>
       <r>  -0.6839  1.0000</r>
       <r>  -0.6839  1.0000</r>
       <r>  -0.6839  1.0000</r>
       <r>  -0.6831  1.0000</r>
       <r>  -0.6527  1.0000</r>
       <r>  -0.6527  1.0000</r>
       <r>  -0.6527  1.0000</r>
       <r>  -0.6527  1.0000</r>
       <r>  -0.6162  1.0000</r>
       <r>  -0.6162  1.0000</r>
       <r>  -0.6161  1.0000</r>
       <r>  -0.6161  1.0000</r>
       <r>  -0.4856  1.0000</r>
       <r>  -0.4651  1.0000</r>
       <r>  -0.4650  1.0000</r>
       <r>  -0.4650  1.0000</r>
       <r>  -0.4650  1.0000</r>
       <r>  -0.4588  1.0000</r>
       <r>  -0.4587  1.0000</r>
       <r>  -0.4587  1.0000</r>
       <r>  -0.4585  1.0000</r>
       <r>  -0.3792  1.0000</r>
       <r>  -0.3792  1.0000</r>
       <r>  -0.3792  1.0000</r>
       <r>  -0.3791  1.0000</r>
       <r>  -0.3641  1.0000</r>
       <r>  -0.3641  1.0000</r>
       <r>  -0.1753  1.0000</r>
       <r>  -0.1753  1.0000</r>
       <r>  -0.1753  1.0000</r>
       <r>  -0.1753  1.0000</r>
       <r>  -0.1113  1.0000</r>
       <r>  -0.1113  1.0000</r>
       <r>  -0.1113  1.0000</r>
       <r>  -0.1112  1.0000</r>
       <r>  -0.0660  1.0000</r>
       <r>  -0.0660  1.0000</r>
       <r>   0.0445  1.0000</r>
       <r>   0.0446  1.0000</r>
       <r>   0.0446  1.0000</r>
       <r>   0.0446  1.0000</r>
       <r>   0.0886  1.0000</r>
       <r>   0.0886  1.0000</r>
       <r>   0.1725  1.0000</r>
       <r>   0.3376  1.0000</r>
       <r>   0.3377  1.0000</r>
       <r>   0.3377  1.0000</r>
       <r>   0.3377  1.0000</r>
       <r>   0.4158  1.0000</r>
       <r>   0.4158  1.0000</r>
       <r>   0.4158  1.0000</r>
       <r>   0.4158  1.0000</r>
       <r>   0.4480  1.0000</r>
       <r>   0.4480  1.0000</r>
       <r>   0.4480  1.0000</r>
       <r>   0.4480  1.0000</r>
       <r>   0.4926  1.0000</r>
       <r>   0.4926  1.0000</r>
       <r>   0.4926  1.0000</r>
       <r>   0.4926  1.0000</r>
       <r>   0.5538  1.0000</r>
       <r>   0.5859  1.0000</r>
       <r>   0.5860  1.0000</r>
       <r>   0.5860  1.0000</r>
       <r>   0.5860  1.0000</r>
       <r>   0.6057  1.0000</r>
       <r>   0.6058  1.0000</r>
       <r>   0.6058  1.0000</r>
       <r>   0.6058  1.0000</r>
       <r>   0.6472  1.0000</r>
       <r>   0.6843  1.0000</r>
       <r>   0.7387  1.0000</r>
       <r>   0.7387  1.0000</r>
       <r>   0.8477  1.0000</r>
       <r>   0.8480  1.0000</r>
       <r>   0.8480  1.0000</r>
       <r>   0.8480  1.0000</r>
       <r>   0.8531  1.0000</r>
       <r>   0.8606  1.0000</r>
       <r>   0.8606  1.0000</r>
       <r>   0.9032  1.0000</r>
       <r>   0.9032  1.0000</r>
       <r>   0.9032  1.0000</r>
       <r>   0.9032  1.0000</r>
       <r>   1.1260  1.0000</r>
       <r>   1.1260  1.0000</r>
       <r>   1.1260  1.0000</r>
       <r>   1.1260  1.0000</r>
       <r>   1.1543  1.0000</r>
       <r>   1.1543  1.0000</r>
       <r>   1.1543  1.0000</r>
       <r>   1.1543  1.0000</r>
       <r>   1.1556  1.0000</r>
       <r>   1.3200  1.0000</r>
       <r>   1.3200  1.0000</r>
       <r>   1.3309  1.0000</r>
       <r>   1.3309  1.0000</r>
       <r>   1.3665  1.0000</r>
       <r>   1.3665  1.0000</r>
       <r>   1.3665  1.0000</r>
       <r>   1.3665  1.0000</r>
       <r>   1.3792  1.0000</r>
       <r>   1.5451  1.0000</r>
       <r>   1.5451  1.0000</r>
       <r>   1.5451  1.0000</r>
       <r>   1.5451  1.0000</r>
       <r>   1.5526  1.0000</r>
       <r>   1.5526  1.0000</r>
       <r>   1.6644  1.0000</r>
       <r>   1.6646  1.0000</r>
       <r>   1.6654  1.0000</r>
       <r>   1.6657  1.0000</r>
       <r>   2.1667  1.0000</r>
       <r>   2.1667  1.0000</r>
       <r>   2.1667  1.0000</r>
       <r>   2.1667  1.0000</r>
       <r>   2.8934  1.0000</r>
       <r>   2.8934  1.0000</r>
       <r>   2.8934  1.0000</r>
       <r>   2.8934  1.0000</r>
       <r>   3.1223  1.0000</r>
       <r>   3.1223  1.0000</r>
       <r>   3.1223  1.0000</r>
       <r>   3.1223  1.0000</r>
       <r>   3.6971  0.0000</r>
       <r>   3.7838  0.0000</r>
       <r>   3.7838  0.0000</r>
       <r>   3.7838  0.0000</r>
       <r>   3.7838  0.0000</r>
       <r>   5.3661  0.0000</r>
       <r>   5.3661  0.0000</r>
       <r>   6.0999  0.0000</r>
       <r>   6.0999  0.0000</r>
       <r>   6.0999  0.0000</r>
       <r>   6.0999  0.0000</r>
       <r>   6.3040  0.0000</r>
       <r>   6.3040  0.0000</r>
       <r>   6.3040  0.0000</r>
       <r>   6.3040  0.0000</r>
       <r>   7.1539  0.0000</r>
       <r>   7.1539  0.0000</r>
       <r>   7.5595  0.0000</r>
       <r>   7.5595  0.0000</r>
       <r>   7.6735  0.0000</r>
       <r>   7.6735  0.0000</r>
       <r>   9.1356  0.0000</r>
       <r>   9.1814  0.0000</r>
       <r>   9.1814  0.0000</r>
       <r>   9.1815  0.0000</r>
       <r>   9.1816  0.0000</r>
       <r>   9.2895  0.0000</r>
       <r>   9.2895  0.0000</r>
       <r>   9.2895  0.0000</r>
       <r>   9.2895  0.0000</r>
       <r>   9.3309  0.0000</r>
       <r>   9.3309  0.0000</r>
       <r>   9.3309  0.0000</r>
       <r>   9.3309  0.0000</r>
       <r>  10.0160  0.0000</r>
       <r>  10.0160  0.0000</r>
       <r>  10.0160  0.0000</r>
      </set>
      <set comment="kpoint 5">
       <r>  -4.2309  1.0000</r>
       <r>  -3.4690  1.0000</r>
       <r>  -2.2600  1.0000</r>
       <r>  -2.2599  1.0000</r>
       <r>  -2.2599  1.0000</r>
       <r>  -2.2599  1.0000</r>
       <r>  -2.1785  1.0000</r>
       <r>  -2.1785  1.0000</r>
       <r>  -2.1785  1.0000</r>
       <r>  -2.1785  1.0000</r>
       <r>  -1.9962  1.0000</r>
       <r>  -1.9287  1.0000</r>
       <r>  -1.9086  1.0000</r>
       <r>  -1.9086  1.0000</r>
       <r>  -1.7985  1.0000</r>
       <r>  -1.7985  1.0000</r>
       <r>  -1.7985  1.0000</r>
       <r>  -1.7985  1.0000</r>
       <r>  -1.7842  1.0000</r>
       <r>  -1.7842  1.0000</r>
       <r>  -1.7842  1.0000</r>
       <r>  -1.7842  1.0000</r>
       <r>  -1.7754  1.0000</r>
       <r>  -1.7292  1.0000</r>
       <r>  -1.7292  1.0000</r>
       <r>  -1.5355  1.0000</r>
       <r>  -1.5140  1.0000</r>
       <r>  -1.5139  1.0000</r>
       <r>  -1.3371  1.0000</r>
       <r>  -1.3371  1.0000</r>
       <r>  -1.1461  1.0000</r>
       <r>  -1.1458  1.0000</r>
       <r>  -1.1458  1.0000</r>
       <r>  -1.1458  1.0000</r>
       <r>  -1.1416  1.0000</r>
       <r>  -1.1416  1.0000</r>
       <r>  -1.1416  1.0000</r>
       <r>  -1.1413  1.0000</r>
       <r>  -1.1172  1.0000</r>
       <r>  -1.1172  1.0000</r>
       <r>  -1.1172  1.0000</r>
       <r>  -1.1172  1.0000</r>
       <r>  -0.9330  1.0000</r>
       <r>  -0.9330  1.0000</r>
       <r>  -0.9330  1.0000</r>
       <r>  -0.9330  1.0000</r>
       <r>  -0.8206  1.0000</r>
       <r>  -0.7979  1.0000</r>
       <r>  -0.7979  1.0000</r>
       <r>  -0.7979  1.0000</r>
       <r>  -0.7979  1.0000</r>
       <r>  -0.7308  1.0000</r>
       <r>  -0.7308  1.0000</r>
       <r>  -0.7308  1.0000</r>
       <r>  -0.7308  1.0000</r>
       <r>  -0.6838  1.0000</r>
       <r>  -0.6833  1.0000</r>
       <r>  -0.6833  1.0000</r>
       <r>  -0.6832  1.0000</r>
       <r>  -0.6766  1.0000</r>
       <r>  -0.6766  1.0000</r>
       <r>  -0.6766  1.0000</r>
       <r>  -0.6761  1.0000</r>
       <r>  -0.5845  1.0000</r>
       <r>  -0.5845  1.0000</r>
       <r>  -0.5845  1.0000</r>
       <r>  -0.5845  1.0000</r>
       <r>  -0.5326  1.0000</r>
       <r>  -0.4838  1.0000</r>
       <r>  -0.4838  1.0000</r>
       <r>  -0.4838  1.0000</r>
       <r>  -0.4838  1.0000</r>
       <r>  -0.4464  1.0000</r>
       <r>  -0.4464  1.0000</r>
       <r>  -0.4464  1.0000</r>
       <r>  -0.4464  1.0000</r>
       <r>  -0.3337  1.0000</r>
       <r>  -0.3337  1.0000</r>
       <r>  -0.3337  1.0000</r>
       <r>  -0.3337  1.0000</r>
       <r>  -0.3185  1.0000</r>
       <r>  -0.3185  1.0000</r>
       <r>  -0.2083  1.0000</r>
       <r>  -0.2083  1.0000</r>
       <r>  -0.2083  1.0000</r>
       <r>  -0.2083  1.0000</r>
       <r>  -0.0452  1.0000</r>
       <r>  -0.0452  1.0000</r>
       <r>  -0.0452  1.0000</r>
       <r>  -0.0452  1.0000</r>
       <r>  -0.0149  1.0000</r>
       <r>  -0.0149  1.0000</r>
       <r>   0.0312  1.0000</r>
       <r>   0.0312  1.0000</r>
       <r>   0.0312  1.0000</r>
       <r>   0.0312  1.0000</r>
       <r>   0.1654  1.0000</r>
       <r>   0.1654  1.0000</r>
       <r>   0.2369  1.0000</r>
       <r>   0.4072  1.0000</r>
       <r>   0.4072  1.0000</r>
       <r>   0.4072  1.0000</r>
       <r>   0.4072  1.0000</r>
       <r>   0.4468  1.0000</r>
       <r>   0.4468  1.0000</r>
       <r>   0.4468  1.0000</r>
       <r>   0.4468  1.0000</r>
       <r>   0.4704  1.0000</r>
       <r>   0.4704  1.0000</r>
       <r>   0.4704  1.0000</r>
       <r>   0.4704  1.0000</r>
       <r>   0.4827  1.0000</r>
       <r>   0.4827  1.0000</r>
       <r>   0.4827  1.0000</r>
       <r>   0.4827  1.0000</r>
       <r>   0.5055  1.0000</r>
       <r>   0.5915  1.0000</r>
       <r>   0.5916  1.0000</r>
       <r>   0.5916  1.0000</r>
       <r>   0.5916  1.0000</r>
       <r>   0.6121  1.0000</r>
       <r>   0.6121  1.0000</r>
       <r>   0.6121  1.0000</r>
       <r>   0.6121  1.0000</r>
       <r>   0.6688  1.0000</r>
       <r>   0.8076  1.0000</r>
       <r>   0.8452  1.0000</r>
       <r>   0.8452  1.0000</r>
       <r>   0.9515  1.0000</r>
       <r>   0.9515  1.0000</r>
       <r>   0.9515  1.0000</r>
       <r>   0.9515  1.0000</r>
       <r>   0.9564  1.0000</r>
       <r>   0.9564  1.0000</r>
       <r>   0.9564  1.0000</r>
       <r>   0.9564  1.0000</r>
       <r>   0.9976  1.0000</r>
       <r>   0.9976  1.0000</r>
       <r>   1.0145  1.0000</r>
       <r>   1.0145  1.0000</r>
       <r>   1.0145  1.0000</r>
       <r>   1.0145  1.0000</r>
       <r>   1.0513  1.0000</r>
       <r>   1.1197  1.0000</r>
       <r>   1.1197  1.0000</r>
       <r>   1.2033  1.0000</r>
       <r>   1.2468  1.0000</r>
       <r>   1.2469  1.0000</r>
       <r>   1.2469  1.0000</r>
       <r>   1.2469  1.0000</r>
       <r>   1.2510  1.0000</r>
       <r>   1.2512  1.0000</r>
       <r>   1.3070  1.0000</r>
       <r>   1.3070  1.0000</r>
       <r>   1.3070  1.0000</r>
       <r>   1.3070  1.0000</r>
       <r>   1.3549  1.0000</r>
       <r>   1.4594  1.0000</r>
       <r>   1.4594  1.0000</r>
       <r>   1.4594  1.0000</r>
       <r>   1.4594  1.0000</r>
       <r>   1.4704  1.0000</r>
       <r>   1.4704  1.0000</r>
       <r>   1.6644  1.0000</r>
       <r>   1.6648  1.0000</r>
       <r>   1.6653  1.0000</r>
       <r>   1.6657  1.0000</r>
       <r>   1.9585  1.0000</r>
       <r>   1.9585  1.0000</r>
       <r>   1.9585  1.0000</r>
       <r>   1.9585  1.0000</r>
       <r>   2.9105  1.0000</r>
       <r>   2.9105  1.0000</r>
       <r>   2.9105  1.0000</r>
       <r>   2.9105  1.0000</r>
       <r>   3.0584  1.0000</r>
       <r>   3.0584  1.0000</r>
       <r>   3.0584  1.0000</r>
       <r>   3.0584  1.0000</r>
       <r>   3.1120  1.0000</r>
       <r>   4.1499  0.0000</r>
       <r>   4.1499  0.0000</r>
       <r>   4.1499  0.0000</r>
       <r>   4.1499  0.0000</r>
       <r>   5.6690  0.0000</r>
       <r>   5.6690  0.0000</r>
       <r>   5.8682  0.0000</r>
       <r>   5.8682  0.0000</r>
       <r>   5.8682  0.0000</r>
       <r>   5.8682  0.0000</r>
       <r>   6.5257  0.0000</r>
       <r>   6.5257  0.0000</r>
       <r>   6.5257  0.0000</r>
       <r>   6.5257  0.0000</r>
       <r>   7.2116  0.0000</r>
       <r>   7.2116  0.0000</r>
       <r>   7.2339  0.0000</r>
       <r>   7.2339  0.0000</r>
       <r>   7.4987  0.0000</r>
       <r>   7.4987  0.0000</r>
       <r>   8.7136  0.0000</r>
       <r>   8.7136  0.0000</r>
       <r>   8.7136  0.0000</r>
       <r>   8.7136  0.0000</r>
       <r>   9.2678  0.0000</r>
       <r>   9.2678  0.0000</r>
       <r>   9.2679  0.0000</r>
       <r>   9.2679  0.0000</r>
       <r>   9.4803  0.0000</r>
       <r>   9.4803  0.0000</r>
       <r>   9.4803  0.0000</r>
       <r>   9.4803  0.0000</r>
       <r>   9.8140  0.0000</r>
       <r>   9.8140  0.0000</r>
       <r>   9.8140  0.0000</r>
       <r>   9.8155  0.0000</r>
      </set>
      <set comment="kpoint 6">
       <r>  -4.0829  1.0000</r>
       <r>  -3.6992  1.0000</r>
       <r>  -2.1615  1.0000</r>
       <r>  -2.1615  1.0000</r>
       <r>  -2.1615  1.0000</r>
       <r>  -2.1615  1.0000</r>
       <r>  -2.1018  1.0000</r>
       <r>  -2.1018  1.0000</r>
       <r>  -2.1018  1.0000</r>
       <r>  -2.1018  1.0000</r>
       <r>  -1.9650  1.0000</r>
       <r>  -1.9254  1.0000</r>
       <r>  -1.9252  1.0000</r>
       <r>  -1.9252  1.0000</r>
       <r>  -1.9251  1.0000</r>
       <r>  -1.9209  1.0000</r>
       <r>  -1.9029  1.0000</r>
       <r>  -1.9028  1.0000</r>
       <r>  -1.9028  1.0000</r>
       <r>  -1.9028  1.0000</r>
       <r>  -1.8244  1.0000</r>
       <r>  -1.8244  1.0000</r>
       <r>  -1.7286  1.0000</r>
       <r>  -1.6554  1.0000</r>
       <r>  -1.6554  1.0000</r>
       <r>  -1.6220  1.0000</r>
       <r>  -1.6220  1.0000</r>
       <r>  -1.6078  1.0000</r>
       <r>  -1.4592  1.0000</r>
       <r>  -1.4592  1.0000</r>
       <r>  -1.1079  1.0000</r>
       <r>  -1.1075  1.0000</r>
       <r>  -1.1074  1.0000</r>
       <r>  -1.1074  1.0000</r>
       <r>  -1.1028  1.0000</r>
       <r>  -1.1028  1.0000</r>
       <r>  -1.1028  1.0000</r>
       <r>  -1.1024  1.0000</r>
       <r>  -1.0787  1.0000</r>
       <r>  -1.0787  1.0000</r>
       <r>  -1.0787  1.0000</r>
       <r>  -1.0787  1.0000</r>
       <r>  -0.9847  1.0000</r>
       <r>  -0.9847  1.0000</r>
       <r>  -0.9847  1.0000</r>
       <r>  -0.9847  1.0000</r>
       <r>  -0.8289  1.0000</r>
       <r>  -0.8289  1.0000</r>
       <r>  -0.8289  1.0000</r>
       <r>  -0.8289  1.0000</r>
       <r>  -0.7968  1.0000</r>
       <r>  -0.7968  1.0000</r>
       <r>  -0.7968  1.0000</r>
       <r>  -0.7968  1.0000</r>
       <r>  -0.7367  1.0000</r>
       <r>  -0.6797  1.0000</r>
       <r>  -0.6790  1.0000</r>
       <r>  -0.6790  1.0000</r>
       <r>  -0.6789  1.0000</r>
       <r>  -0.6743  1.0000</r>
       <r>  -0.6743  1.0000</r>
       <r>  -0.6743  1.0000</r>
       <r>  -0.6736  1.0000</r>
       <r>  -0.5911  1.0000</r>
       <r>  -0.5568  1.0000</r>
       <r>  -0.5568  1.0000</r>
       <r>  -0.5568  1.0000</r>
       <r>  -0.5568  1.0000</r>
       <r>  -0.5060  1.0000</r>
       <r>  -0.5060  1.0000</r>
       <r>  -0.5060  1.0000</r>
       <r>  -0.5060  1.0000</r>
       <r>  -0.4148  1.0000</r>
       <r>  -0.4148  1.0000</r>
       <r>  -0.4148  1.0000</r>
       <r>  -0.4148  1.0000</r>
       <r>  -0.2937  1.0000</r>
       <r>  -0.2937  1.0000</r>
       <r>  -0.2937  1.0000</r>
       <r>  -0.2936  1.0000</r>
       <r>  -0.2763  1.0000</r>
       <r>  -0.2763  1.0000</r>
       <r>  -0.2763  1.0000</r>
       <r>  -0.2763  1.0000</r>
       <r>  -0.2604  1.0000</r>
       <r>  -0.2604  1.0000</r>
       <r>  -0.1305  1.0000</r>
       <r>  -0.1305  1.0000</r>
       <r>  -0.1305  1.0000</r>
       <r>  -0.1305  1.0000</r>
       <r>  -0.1081  1.0000</r>
       <r>  -0.1081  1.0000</r>
       <r>   0.2590  1.0000</r>
       <r>   0.2591  1.0000</r>
       <r>   0.2591  1.0000</r>
       <r>   0.2591  1.0000</r>
       <r>   0.3082  1.0000</r>
       <r>   0.4041  1.0000</r>
       <r>   0.4041  1.0000</r>
       <r>   0.4466  1.0000</r>
       <r>   0.4469  1.0000</r>
       <r>   0.4469  1.0000</r>
       <r>   0.4469  1.0000</r>
       <r>   0.4469  1.0000</r>
       <r>   0.4568  1.0000</r>
       <r>   0.4568  1.0000</r>
       <r>   0.4568  1.0000</r>
       <r>   0.4568  1.0000</r>
       <r>   0.4763  1.0000</r>
       <r>   0.4763  1.0000</r>
       <r>   0.4763  1.0000</r>
       <r>   0.4764  1.0000</r>
       <r>   0.5352  1.0000</r>
       <r>   0.5352  1.0000</r>
       <r>   0.5352  1.0000</r>
       <r>   0.5352  1.0000</r>
       <r>   0.5855  1.0000</r>
       <r>   0.5856  1.0000</r>
       <r>   0.5859  1.0000</r>
       <r>   0.5859  1.0000</r>
       <r>   0.5879  1.0000</r>
       <r>   0.5879  1.0000</r>
       <r>   0.5881  1.0000</r>
       <r>   0.5883  1.0000</r>
       <r>   0.6961  1.0000</r>
       <r>   0.7324  1.0000</r>
       <r>   0.7324  1.0000</r>
       <r>   0.7324  1.0000</r>
       <r>   0.7325  1.0000</r>
       <r>   0.7661  1.0000</r>
       <r>   0.8878  1.0000</r>
       <r>   0.8878  1.0000</r>
       <r>   0.9571  1.0000</r>
       <r>   0.9571  1.0000</r>
       <r>   1.0528  1.0000</r>
       <r>   1.0528  1.0000</r>
       <r>   1.0528  1.0000</r>
       <r>   1.0528  1.0000</r>
       <r>   1.1303  1.0000</r>
       <r>   1.1303  1.0000</r>
       <r>   1.1306  1.0000</r>
       <r>   1.1306  1.0000</r>
       <r>   1.1307  1.0000</r>
       <r>   1.1307  1.0000</r>
       <r>   1.1653  1.0000</r>
       <r>   1.1653  1.0000</r>
       <r>   1.2334  1.0000</r>
       <r>   1.2334  1.0000</r>
       <r>   1.2334  1.0000</r>
       <r>   1.2334  1.0000</r>
       <r>   1.2480  1.0000</r>
       <r>   1.3245  1.0000</r>
       <r>   1.3582  1.0000</r>
       <r>   1.3582  1.0000</r>
       <r>   1.3582  1.0000</r>
       <r>   1.3582  1.0000</r>
       <r>   1.3703  1.0000</r>
       <r>   1.3703  1.0000</r>
       <r>   1.4000  1.0000</r>
       <r>   1.4000  1.0000</r>
       <r>   1.4000  1.0000</r>
       <r>   1.4000  1.0000</r>
       <r>   1.4929  1.0000</r>
       <r>   1.6645  1.0000</r>
       <r>   1.6649  1.0000</r>
       <r>   1.6652  1.0000</r>
       <r>   1.6656  1.0000</r>
       <r>   1.7606  1.0000</r>
       <r>   1.7606  1.0000</r>
       <r>   1.7606  1.0000</r>
       <r>   1.7606  1.0000</r>
[...]
       <r>   0.3055  1.0000</r>
       <r>   0.3055  1.0000</r>
       <r>   0.3058  1.0000</r>
       <r>   0.3058  1.0000</r>
       <r>   0.3058  1.0000</r>
       <r>   0.3058  1.0000</r>
       <r>   0.3061  1.0000</r>
       <r>   0.3061  1.0000</r>
       <r>   0.5670  1.0000</r>
       <r>   0.5672  1.0000</r>
       <r>   0.5672  1.0000</r>
       <r>   0.5672  1.0000</r>
       <r>   0.6106  1.0000</r>
       <r>   0.6107  1.0000</r>
       <r>   0.6107  1.0000</r>
       <r>   0.6107  1.0000</r>
       <r>   0.6148  1.0000</r>
       <r>   0.6148  1.0000</r>
       <r>   0.6153  1.0000</r>
       <r>   0.6153  1.0000</r>
       <r>   0.6153  1.0000</r>
       <r>   0.6156  1.0000</r>
       <r>   0.6159  1.0000</r>
       <r>   0.6159  1.0000</r>
       <r>   0.7934  1.0000</r>
       <r>   0.7942  1.0000</r>
       <r>   0.7942  1.0000</r>
       <r>   0.7942  1.0000</r>
       <r>   0.7949  1.0000</r>
       <r>   0.7949  1.0000</r>
       <r>   0.7949  1.0000</r>
       <r>   0.7958  1.0000</r>
       <r>   0.9433  1.0000</r>
       <r>   0.9433  1.0000</r>
       <r>   0.9433  1.0000</r>
       <r>   0.9433  1.0000</r>
       <r>   1.4581  1.0000</r>
       <r>   1.4581  1.0000</r>
       <r>   1.4582  1.0000</r>
       <r>   1.4583  1.0000</r>
       <r>   1.4583  1.0000</r>
       <r>   1.4583  1.0000</r>
       <r>   1.4584  1.0000</r>
       <r>   1.4584  1.0000</r>
       <r>   1.4720  1.0000</r>
       <r>   1.4720  1.0000</r>
       <r>   1.4720  1.0000</r>
       <r>   1.4720  1.0000</r>
       <r>   1.4874  1.0000</r>
       <r>   1.4874  1.0000</r>
       <r>   1.4874  1.0000</r>
       <r>   1.4875  1.0000</r>
       <r>   1.4903  1.0000</r>
       <r>   1.4903  1.0000</r>
       <r>   1.4905  1.0000</r>
       <r>   1.4905  1.0000</r>
       <r>   1.4905  1.0000</r>
       <r>   1.4905  1.0000</r>
       <r>   1.4907  1.0000</r>
       <r>   1.4907  1.0000</r>
       <r>   3.1235  1.0000</r>
       <r>   3.1235  1.0000</r>
       <r>   3.1235  1.0000</r>
       <r>   3.1235  1.0000</r>
       <r>   3.7283  0.0000</r>
       <r>   3.7283  0.0000</r>
       <r>   3.7284  0.0000</r>
       <r>   3.7284  0.0000</r>
       <r>   3.7284  0.0000</r>
       <r>   3.7284  0.0000</r>
       <r>   3.7286  0.0000</r>
       <r>   3.7286  0.0000</r>
       <r>   4.5868  0.0000</r>
       <r>   4.5868  0.0000</r>
       <r>   4.5871  0.0000</r>
       <r>   4.5871  0.0000</r>
       <r>   4.5871  0.0000</r>
       <r>   4.5871  0.0000</r>
       <r>   4.5874  0.0000</r>
       <r>   4.5874  0.0000</r>
       <r>   5.1835  0.0000</r>
       <r>   5.1835  0.0000</r>
       <r>   5.1835  0.0000</r>
       <r>   5.1835  0.0000</r>
       <r>   7.2307  0.0000</r>
       <r>   7.2307  0.0000</r>
       <r>   7.2312  0.0000</r>
       <r>   7.2312  0.0000</r>
       <r>   7.2312  0.0000</r>
       <r>   7.2312  0.0000</r>
       <r>   7.2317  0.0000</r>
       <r>   7.2317  0.0000</r>
       <r>   7.6599  0.0000</r>
       <r>   7.6599  0.0000</r>
       <r>   7.6599  0.0000</r>
       <r>   7.6599  0.0000</r>
       <r>   8.7596  0.0000</r>
       <r>   8.7596  0.0000</r>
       <r>   8.7596  0.0000</r>
       <r>   8.7596  0.0000</r>
       <r>   9.1141  0.0000</r>
       <r>   9.1141  0.0000</r>
       <r>   9.1144  0.0000</r>
       <r>   9.1144  0.0000</r>
       <r>   9.1144  0.0000</r>
       <r>   9.1144  0.0000</r>
       <r>   9.1147  0.0000</r>
       <r>   9.1147  0.0000</r>
      </set>
      <set comment="kpoint 195">
       <r>  -3.0925  1.0000</r>
       <r>  -3.0925  1.0000</r>
       <r>  -3.0925  1.0000</r>
       <r>  -3.0925  1.0000</r>
       <r>  -2.8531  1.0000</r>
       <r>  -2.8531  1.0000</r>
       <r>  -2.8531  1.0000</r>
       <r>  -2.8531  1.0000</r>
       <r>  -1.6756  1.0000</r>
       <r>  -1.6755  1.0000</r>
       <r>  -1.6755  1.0000</r>
       <r>  -1.6755  1.0000</r>
       <r>  -1.6501  1.0000</r>
       <r>  -1.6501  1.0000</r>
       <r>  -1.6499  1.0000</r>
       <r>  -1.6499  1.0000</r>
       <r>  -1.6498  1.0000</r>
       <r>  -1.6497  1.0000</r>
       <r>  -1.6496  1.0000</r>
       <r>  -1.6496  1.0000</r>
       <r>  -1.6318  1.0000</r>
       <r>  -1.6315  1.0000</r>
       <r>  -1.6315  1.0000</r>
       <r>  -1.6308  1.0000</r>
       <r>  -1.6307  1.0000</r>
       <r>  -1.6307  1.0000</r>
       <r>  -1.6304  1.0000</r>
       <r>  -1.6304  1.0000</r>
       <r>  -1.6292  1.0000</r>
       <r>  -1.6289  1.0000</r>
       <r>  -1.6289  1.0000</r>
       <r>  -1.6284  1.0000</r>
       <r>  -1.0444  1.0000</r>
       <r>  -1.0444  1.0000</r>
       <r>  -1.0440  1.0000</r>
       <r>  -1.0440  1.0000</r>
       <r>  -1.0440  1.0000</r>
       <r>  -1.0439  1.0000</r>
       <r>  -1.0435  1.0000</r>
       <r>  -1.0435  1.0000</r>
       <r>  -1.0168  1.0000</r>
       <r>  -1.0167  1.0000</r>
       <r>  -1.0167  1.0000</r>
       <r>  -1.0167  1.0000</r>
       <r>  -0.8741  1.0000</r>
       <r>  -0.8739  1.0000</r>
       <r>  -0.8739  1.0000</r>
       <r>  -0.8738  1.0000</r>
       <r>  -0.8732  1.0000</r>
       <r>  -0.8732  1.0000</r>
       <r>  -0.8728  1.0000</r>
       <r>  -0.8728  1.0000</r>
       <r>  -0.8727  1.0000</r>
       <r>  -0.8726  1.0000</r>
       <r>  -0.8723  1.0000</r>
       <r>  -0.8723  1.0000</r>
       <r>  -0.5061  1.0000</r>
       <r>  -0.5061  1.0000</r>
       <r>  -0.5061  1.0000</r>
       <r>  -0.5061  1.0000</r>
       <r>  -0.3949  1.0000</r>
       <r>  -0.3949  1.0000</r>
       <r>  -0.3949  1.0000</r>
       <r>  -0.3949  1.0000</r>
       <r>  -0.2263  1.0000</r>
       <r>  -0.2263  1.0000</r>
       <r>  -0.2263  1.0000</r>
       <r>  -0.2262  1.0000</r>
       <r>  -0.2228  1.0000</r>
       <r>  -0.2227  1.0000</r>
       <r>  -0.2227  1.0000</r>
       <r>  -0.2227  1.0000</r>
       <r>  -0.2104  1.0000</r>
       <r>  -0.2104  1.0000</r>
       <r>  -0.2099  1.0000</r>
       <r>  -0.2099  1.0000</r>
       <r>  -0.2097  1.0000</r>
       <r>  -0.2096  1.0000</r>
       <r>  -0.2092  1.0000</r>
       <r>  -0.2092  1.0000</r>
       <r>  -0.1788  1.0000</r>
       <r>  -0.1788  1.0000</r>
       <r>  -0.1788  1.0000</r>
       <r>  -0.1788  1.0000</r>
       <r>  -0.1301  1.0000</r>
       <r>  -0.1301  1.0000</r>
       <r>  -0.1288  1.0000</r>
       <r>  -0.1288  1.0000</r>
       <r>  -0.1288  1.0000</r>
       <r>  -0.1288  1.0000</r>
       <r>  -0.1274  1.0000</r>
       <r>  -0.1274  1.0000</r>
       <r>  -0.0565  1.0000</r>
       <r>  -0.0565  1.0000</r>
       <r>  -0.0555  1.0000</r>
       <r>  -0.0554  1.0000</r>
       <r>  -0.0554  1.0000</r>
       <r>  -0.0554  1.0000</r>
       <r>  -0.0543  1.0000</r>
       <r>  -0.0543  1.0000</r>
       <r>  -0.0050  1.0000</r>
       <r>  -0.0049  1.0000</r>
       <r>  -0.0049  1.0000</r>
       <r>  -0.0049  1.0000</r>
       <r>   0.3227  1.0000</r>
       <r>   0.3227  1.0000</r>
       <r>   0.3227  1.0000</r>
       <r>   0.3228  1.0000</r>
       <r>   0.3537  1.0000</r>
       <r>   0.3537  1.0000</r>
       <r>   0.3541  1.0000</r>
       <r>   0.3541  1.0000</r>
       <r>   0.3541  1.0000</r>
       <r>   0.3541  1.0000</r>
       <r>   0.3546  1.0000</r>
       <r>   0.3546  1.0000</r>
       <r>   0.5051  1.0000</r>
       <r>   0.5051  1.0000</r>
       <r>   0.5056  1.0000</r>
       <r>   0.5056  1.0000</r>
       <r>   0.5056  1.0000</r>
       <r>   0.5056  1.0000</r>
       <r>   0.5062  1.0000</r>
       <r>   0.5062  1.0000</r>
       <r>   0.5158  1.0000</r>
       <r>   0.5158  1.0000</r>
       <r>   0.5158  1.0000</r>
       <r>   0.5158  1.0000</r>
       <r>   0.6558  1.0000</r>
       <r>   0.6558  1.0000</r>
       <r>   0.6558  1.0000</r>
       <r>   0.6558  1.0000</r>
       <r>   0.7525  1.0000</r>
       <r>   0.7525  1.0000</r>
       <r>   0.7525  1.0000</r>
       <r>   0.7525  1.0000</r>
       <r>   0.7682  1.0000</r>
       <r>   0.7682  1.0000</r>
       <r>   0.7682  1.0000</r>
       <r>   0.7683  1.0000</r>
       <r>   0.8464  1.0000</r>
       <r>   0.8465  1.0000</r>
       <r>   0.8465  1.0000</r>
       <r>   0.8465  1.0000</r>
       <r>   1.4874  1.0000</r>
       <r>   1.4874  1.0000</r>
       <r>   1.4875  1.0000</r>
       <r>   1.4875  1.0000</r>
       <r>   1.4875  1.0000</r>
       <r>   1.4875  1.0000</r>
       <r>   1.4876  1.0000</r>
       <r>   1.4876  1.0000</r>
       <r>   1.4946  1.0000</r>
       <r>   1.4947  1.0000</r>
       <r>   1.4947  1.0000</r>
       <r>   1.4947  1.0000</r>
       <r>   1.5036  1.0000</r>
       <r>   1.5036  1.0000</r>
       <r>   1.5036  1.0000</r>
       <r>   1.5036  1.0000</r>
       <r>   1.5080  1.0000</r>
       <r>   1.5080  1.0000</r>
       <r>   1.5081  1.0000</r>
       <r>   1.5081  1.0000</r>
       <r>   1.5081  1.0000</r>
       <r>   1.5081  1.0000</r>
       <r>   1.5082  1.0000</r>
       <r>   1.5082  1.0000</r>
       <r>   3.6061  0.0000</r>
       <r>   3.6061  0.0000</r>
       <r>   3.6061  0.0000</r>
       <r>   3.6062  0.0000</r>
       <r>   3.9095  0.0000</r>
       <r>   3.9095  0.0000</r>
       <r>   3.9097  0.0000</r>
       <r>   3.9097  0.0000</r>
       <r>   3.9097  0.0000</r>
       <r>   3.9097  0.0000</r>
       <r>   3.9099  0.0000</r>
       <r>   3.9099  0.0000</r>
       <r>   4.3430  0.0000</r>
       <r>   4.3430  0.0000</r>
       <r>   4.3432  0.0000</r>
       <r>   4.3432  0.0000</r>
       <r>   4.3432  0.0000</r>
       <r>   4.3432  0.0000</r>
       <r>   4.3435  0.0000</r>
       <r>   4.3435  0.0000</r>
       <r>   4.6463  0.0000</r>
       <r>   4.6463  0.0000</r>
       <r>   4.6463  0.0000</r>
       <r>   4.6463  0.0000</r>
       <r>   7.6675  0.0000</r>
       <r>   7.6675  0.0000</r>
       <r>   7.6679  0.0000</r>
       <r>   7.6679  0.0000</r>
       <r>   7.6679  0.0000</r>
       <r>   7.6679  0.0000</r>
       <r>   7.6683  0.0000</r>
       <r>   7.6683  0.0000</r>
       <r>   7.8711  0.0000</r>
       <r>   7.8711  0.0000</r>
       <r>   7.8711  0.0000</r>
       <r>   7.8711  0.0000</r>
       <r>   8.4289  0.0000</r>
       <r>   8.4289  0.0000</r>
       <r>   8.4289  0.0000</r>
       <r>   8.4289  0.0000</r>
       <r>   8.6150  0.0000</r>
       <r>   8.6150  0.0000</r>
       <r>   8.6152  0.0000</r>
       <r>   8.6152  0.0000</r>
       <r>   8.6153  0.0000</r>
       <r>   8.6153  0.0000</r>
       <r>   8.6156  0.0000</r>
       <r>   8.6156  0.0000</r>
      </set>
      <set comment="kpoint 196">
       <r>  -2.9834  1.0000</r>
       <r>  -2.9804  1.0000</r>
       <r>  -2.9804  1.0000</r>
       <r>  -2.9799  1.0000</r>
       <r>  -2.9797  1.0000</r>
       <r>  -2.9793  1.0000</r>
       <r>  -2.9793  1.0000</r>
       <r>  -2.9763  1.0000</r>
       <r>  -1.6468  1.0000</r>
       <r>  -1.6468  1.0000</r>
       <r>  -1.6468  1.0000</r>
       <r>  -1.6466  1.0000</r>
       <r>  -1.6463  1.0000</r>
       <r>  -1.6455  1.0000</r>
       <r>  -1.6449  1.0000</r>
       <r>  -1.6449  1.0000</r>
       <r>  -1.6449  1.0000</r>
       <r>  -1.6448  1.0000</r>
       <r>  -1.6448  1.0000</r>
       <r>  -1.6447  1.0000</r>
       <r>  -1.6447  1.0000</r>
       <r>  -1.6446  1.0000</r>
       <r>  -1.6446  1.0000</r>
       <r>  -1.6445  1.0000</r>
       <r>  -1.6445  1.0000</r>
       <r>  -1.6445  1.0000</r>
       <r>  -1.6439  1.0000</r>
       <r>  -1.6431  1.0000</r>
       <r>  -1.6428  1.0000</r>
       <r>  -1.6427  1.0000</r>
       <r>  -1.6427  1.0000</r>
       <r>  -1.6426  1.0000</r>
       <r>  -0.9552  1.0000</r>
       <r>  -0.9523  1.0000</r>
       <r>  -0.9521  1.0000</r>
       <r>  -0.9519  1.0000</r>
       <r>  -0.9519  1.0000</r>
       <r>  -0.9515  1.0000</r>
       <r>  -0.9511  1.0000</r>
       <r>  -0.9511  1.0000</r>
       <r>  -0.9509  1.0000</r>
       <r>  -0.9509  1.0000</r>
       <r>  -0.9509  1.0000</r>
       <r>  -0.9509  1.0000</r>
       <r>  -0.9508  1.0000</r>
       <r>  -0.9508  1.0000</r>
       <r>  -0.9508  1.0000</r>
       <r>  -0.9508  1.0000</r>
       <r>  -0.9506  1.0000</r>
       <r>  -0.9506  1.0000</r>
       <r>  -0.9502  1.0000</r>
       <r>  -0.9498  1.0000</r>
       <r>  -0.9498  1.0000</r>
       <r>  -0.9496  1.0000</r>
       <r>  -0.9495  1.0000</r>
       <r>  -0.9465  1.0000</r>
       <r>  -0.4461  1.0000</r>
       <r>  -0.4448  1.0000</r>
       <r>  -0.4444  1.0000</r>
       <r>  -0.4444  1.0000</r>
       <r>  -0.4441  1.0000</r>
       <r>  -0.4441  1.0000</r>
       <r>  -0.4436  1.0000</r>
       <r>  -0.4424  1.0000</r>
       <r>  -0.2223  1.0000</r>
       <r>  -0.2223  1.0000</r>
       <r>  -0.2220  1.0000</r>
       <r>  -0.2218  1.0000</r>
       <r>  -0.2213  1.0000</r>
       <r>  -0.2212  1.0000</r>
       <r>  -0.2212  1.0000</r>
       <r>  -0.2212  1.0000</r>
       <r>  -0.2209  1.0000</r>
       <r>  -0.2209  1.0000</r>
       <r>  -0.2208  1.0000</r>
       <r>  -0.2208  1.0000</r>
       <r>  -0.2202  1.0000</r>
       <r>  -0.2201  1.0000</r>
       <r>  -0.2198  1.0000</r>
       <r>  -0.2198  1.0000</r>
       <r>  -0.0975  1.0000</r>
       <r>  -0.0975  1.0000</r>
       <r>  -0.0967  1.0000</r>
       <r>  -0.0962  1.0000</r>
       <r>  -0.0949  1.0000</r>
       <r>  -0.0943  1.0000</r>
       <r>  -0.0942  1.0000</r>
       <r>  -0.0942  1.0000</r>
       <r>  -0.0942  1.0000</r>
       <r>  -0.0942  1.0000</r>
       <r>  -0.0942  1.0000</r>
       <r>  -0.0942  1.0000</r>
       <r>  -0.0941  1.0000</r>
       <r>  -0.0941  1.0000</r>
       <r>  -0.0941  1.0000</r>
       <r>  -0.0941  1.0000</r>
       <r>  -0.0940  1.0000</r>
       <r>  -0.0940  1.0000</r>
       <r>  -0.0939  1.0000</r>
       <r>  -0.0934  1.0000</r>
       <r>  -0.0920  1.0000</r>
       <r>  -0.0915  1.0000</r>
       <r>  -0.0907  1.0000</r>
       <r>  -0.0907  1.0000</r>
       <r>   0.4151  1.0000</r>
       <r>   0.4163  1.0000</r>
       <r>   0.4163  1.0000</r>
       <r>   0.4181  1.0000</r>
       <r>   0.4182  1.0000</r>
       <r>   0.4183  1.0000</r>
       <r>   0.4183  1.0000</r>
       <r>   0.4186  1.0000</r>
       <r>   0.4187  1.0000</r>
       <r>   0.4187  1.0000</r>
       <r>   0.4187  1.0000</r>
       <r>   0.4187  1.0000</r>
       <r>   0.4188  1.0000</r>
       <r>   0.4188  1.0000</r>
       <r>   0.4188  1.0000</r>
       <r>   0.4188  1.0000</r>
       <r>   0.4189  1.0000</r>
       <r>   0.4191  1.0000</r>
       <r>   0.4191  1.0000</r>
       <r>   0.4192  1.0000</r>
       <r>   0.4194  1.0000</r>
       <r>   0.4212  1.0000</r>
       <r>   0.4212  1.0000</r>
       <r>   0.4223  1.0000</r>
       <r>   0.7473  1.0000</r>
       <r>   0.7486  1.0000</r>
       <r>   0.7486  1.0000</r>
       <r>   0.7486  1.0000</r>
       <r>   0.7495  1.0000</r>
       <r>   0.7495  1.0000</r>
       <r>   0.7497  1.0000</r>
       <r>   0.7497  1.0000</r>
       <r>   0.7498  1.0000</r>
       <r>   0.7499  1.0000</r>
       <r>   0.7501  1.0000</r>
       <r>   0.7501  1.0000</r>
       <r>   0.7510  1.0000</r>
       <r>   0.7510  1.0000</r>
       <r>   0.7511  1.0000</r>
       <r>   0.7523  1.0000</r>
       <r>   1.5050  1.0000</r>
       <r>   1.5050  1.0000</r>
       <r>   1.5053  1.0000</r>
       <r>   1.5054  1.0000</r>
       <r>   1.5055  1.0000</r>
       <r>   1.5055  1.0000</r>
       <r>   1.5055  1.0000</r>
       <r>   1.5055  1.0000</r>
       <r>   1.5056  1.0000</r>
       <r>   1.5057  1.0000</r>
       <r>   1.5057  1.0000</r>
       <r>   1.5057  1.0000</r>
       <r>   1.5058  1.0000</r>
       <r>   1.5059  1.0000</r>
       <r>   1.5059  1.0000</r>
       <r>   1.5059  1.0000</r>
       <r>   1.5060  1.0000</r>
       <r>   1.5061  1.0000</r>
       <r>   1.5061  1.0000</r>
       <r>   1.5061  1.0000</r>
       <r>   1.5061  1.0000</r>
       <r>   1.5063  1.0000</r>
       <r>   1.5065  1.0000</r>
       <r>   1.5065  1.0000</r>
       <r>   4.1104  0.0000</r>
       <r>   4.1139  0.0000</r>
       <r>   4.1139  0.0000</r>
       <r>   4.1154  0.0000</r>
       <r>   4.1158  0.0000</r>
       <r>   4.1161  0.0000</r>
       <r>   4.1161  0.0000</r>
       <r>   4.1161  0.0000</r>
       <r>   4.1161  0.0000</r>
       <r>   4.1161  0.0000</r>
       <r>   4.1161  0.0000</r>
       <r>   4.1163  0.0000</r>
       <r>   4.1163  0.0000</r>
       <r>   4.1164  0.0000</r>
       <r>   4.1164  0.0000</r>
       <r>   4.1164  0.0000</r>
       <r>   4.1164  0.0000</r>
       <r>   4.1165  0.0000</r>
       <r>   4.1165  0.0000</r>
       <r>   4.1167  0.0000</r>
       <r>   4.1171  0.0000</r>
       <r>   4.1186  0.0000</r>
       <r>   4.1186  0.0000</r>
       <r>   4.1222  0.0000</r>
       <r>   8.1262  0.0000</r>
       <r>   8.1262  0.0000</r>
       <r>   8.1281  0.0000</r>
       <r>   8.1291  0.0000</r>
       <r>   8.1297  0.0000</r>
       <r>   8.1300  0.0000</r>
       <r>   8.1300  0.0000</r>
       <r>   8.1304  0.0000</r>
       <r>   8.1305  0.0000</r>
       <r>   8.1305  0.0000</r>
       <r>   8.1306  0.0000</r>
       <r>   8.1306  0.0000</r>
       <r>   8.1306  0.0000</r>
       <r>   8.1307  0.0000</r>
       <r>   8.1307  0.0000</r>
       <r>   8.1307  0.0000</r>
       <r>   8.1308  0.0000</r>
       <r>   8.1312  0.0000</r>
       <r>   8.1312  0.0000</r>
       <r>   8.1315  0.0000</r>
       <r>   8.1321  0.0000</r>
       <r>   8.1331  0.0000</r>
       <r>   8.1351  0.0000</r>
       <r>   8.1351  0.0000</r>
      </set>
     </set>
    </set>
   </array>
  </eigenvalues>
 </calculation>
 <structure name="finalpos" >
  <crystal>
   <varray name="basis" >
    <v>       8.76298899      0.00000000      0.00000000</v>
    <v>       0.00000000      8.76298899      0.00000000</v>
    <v>       0.00000000      0.00000000      8.76298899</v>
   </varray>
   <i name="volume">    672.90971569</i>
   <varray name="rec_basis" >
    <v>       0.11411631      0.00000000      0.00000000</v>
    <v>       0.00000000      0.11411631      0.00000000</v>
    <v>       0.00000000      0.00000000      0.11411631</v>
   </varray>
  </crystal>
  <varray name="positions" >
   <v>       0.00114116      0.00000000      0.00000000</v>
   <v>       0.50000000      0.00000000      0.00000000</v>
   <v>       0.00000000      0.50000000      0.00000000</v>
   <v>       0.50000000      0.50000000      0.00000000</v>
   <v>       0.00000000      0.00000000      0.50000000</v>
   <v>       0.50000000      0.00000000      0.50000000</v>
   <v>       0.00000000      0.50000000      0.50000000</v>
   <v>       0.50000000      0.50000000      0.50000000</v>
   <v>       0.25000000      0.25000000      0.00000000</v>
   <v>       0.75000000      0.25000000      0.00000000</v>
   <v>       0.25000000      0.75000000      0.00000000</v>
   <v>       0.75000000      0.75000000      0.00000000</v>
   <v>       0.25000000      0.25000000      0.50000000</v>
   <v>       0.75000000      0.25000000      0.50000000</v>
   <v>       0.25000000      0.75000000      0.50000000</v>
   <v>       0.75000000      0.75000000      0.50000000</v>
   <v>       0.25000000      0.00000000      0.25000000</v>
   <v>       0.75000000      0.00000000      0.25000000</v>
   <v>       0.25000000      0.50000000      0.25000000</v>
   <v>       0.75000000      0.50000000      0.25000000</v>
   <v>       0.25000000      0.00000000      0.75000000</v>
   <v>       0.75000000      0.00000000      0.75000000</v>
   <v>       0.25000000      0.50000000      0.75000000</v>
   <v>       0.75000000      0.50000000      0.75000000</v>
   <v>       0.00000000      0.25000000      0.25000000</v>
   <v>       0.50000000      0.25000000      0.25000000</v>
   <v>       0.00000000      0.75000000      0.25000000</v>
   <v>       0.50000000      0.75000000      0.25000000</v>
   <v>       0.00000000      0.25000000      0.75000000</v>
   <v>       0.50000000      0.25000000      0.75000000</v>
   <v>       0.00000000      0.75000000      0.75000000</v>
   <v>       0.50000000      0.75000000      0.75000000</v>
  </varray>
 </structure>
</modeling>
