    4    4    1    1
  0.1745885E+02  0.4118052E-09  0.4118052E-09  0.4118052E-09  0.5000000E-15
  1.000000000000000E-004
  CAR 
 unknown system                          
   12   84   16
 
  0.0000000E+00  0.0000000E+00  0.0000000E+00  0.5787037E-03
   1       -3.3269
   2        4.6356
   3        4.6356
   4        4.6356
   5        5.8260
   6        5.8260
   7        5.8260
   8       12.6660
   9       12.6660
  10       12.6660
  11       12.7605
  12       12.7605
  13       12.7605
  14       12.7605
  15       12.7605
  16       12.7605
 
  0.8333333E-01  0.0000000E+00  0.0000000E+00  0.3472222E-02
   1       -3.2663
   2        3.7705
   3        4.6914
   4        4.6914
   5        5.8853
   6        5.8853
   7        6.7969
   8       11.4194
   9       11.4194
  10       12.3230
  11       12.3230
  12       12.7258
  13       12.8125
  14       12.8125
  15       14.1191
  16       14.1191
 
  0.1666667E+00  0.0000000E+00  0.0000000E+00  0.3472222E-02
   1       -3.0846
   2        2.5993
   3        4.8589
   4        4.8589
   5        6.0628
   6        6.0628
   7        8.2857
   8       10.2395
   9       10.2395
  10       11.4354
  11       11.4354
  12       12.9049
  13       12.9686
  14       12.9686
  15       15.6345
  16       15.6345
 
  0.2500000E+00  0.0000000E+00  0.0000000E+00  0.3472222E-02
   1       -2.7822
   2        1.4999
   3        5.1382
   4        5.1382
   5        6.3569
   6        6.3569
   7        9.1722
   8        9.1722
   9        9.9134
  10       10.4775
  11       10.4775
  12       13.2031
  13       13.2287
  14       13.2287
  15       16.4732
  16       16.9678
 
  0.3333333E+00  0.0000000E+00  0.0000000E+00  0.3472222E-02
   1       -2.3599
   2        0.5024
   3        5.5294
   4        5.5294
   5        6.7632
   6        6.7632
   7        8.2180
   8        8.2180
   9        9.5659
  10        9.5659
  11       11.6486
  12       13.5931
  13       13.5931
  14       13.6196
  15       16.0893
  16       16.0893
 
  0.4166667E+00  0.0000000E+00  0.0000000E+00  0.3472222E-02
   1       -1.8187
   2       -0.3855
   3        6.0327
   4        6.0327
   5        7.2679
   6        7.2679
   7        7.3768
   8        7.3768
   9        8.7499
  10        8.7499
  11       13.4803
  12       14.0617
  13       14.0617
  14       14.1531
  15       15.3106
  16       15.3106
 
  0.5000000E+00  0.0000000E+00  0.0000000E+00  0.1736111E-02
   1       -1.1600
   2       -1.1600
   3        6.6485
   4        6.6485
   5        6.6485
   6        6.6485
   7        7.6899
   8        7.6899
   9        8.2230
  10        8.2230
  11       14.6343
  12       14.6343
  13       14.6343
  14       14.6343
  15       14.8015
  16       14.8015
 
  0.8333333E-01  0.8333333E-01  0.0000000E+00  0.6944444E-02
   1       -3.2057
   2        3.8279
   3        3.8279
   4        4.7472
   5        5.9445
   6        6.8546
   7        6.8546
   8       10.5608
   9       11.4755
  10       11.4755
  11       12.3761
  12       12.3761
  13       12.8651
  14       14.0372
  15       14.1747
  16       14.1747
 
  0.1666667E+00  0.8333333E-01  0.0000000E+00  0.1388889E-01
   1       -3.0241
   2        2.6574
   3        3.9998
   4        4.9147
   5        6.1215
   6        7.0272
   7        8.3421
   8        9.4344
   9       10.2955
  10       11.4903
  11       11.6437
  12       12.2861
  13       12.5355
  14       14.3415
  15       15.1202
  16       15.6900
 
  0.2500000E+00  0.8333333E-01  0.0000000E+00  0.1388889E-01
   1       -2.7218
   2        1.5586
   3        4.2862
   4        5.1940
   5        6.4136
   6        7.3129
   7        8.3827
   8        9.2283
   9        9.9682
  10       10.5345
  11       11.3561
  12       11.9238
  13       12.8010
  14       14.6194
  15       15.9008
  16       16.5444
 
  0.3333333E+00  0.8333333E-01  0.0000000E+00  0.1388889E-01
   1       -2.2997
   2        0.5614
   3        4.6862
   4        5.5853
   5        6.8048
   6        7.4465
   7        7.7062
   8        8.2741
   9        9.6277
  10       10.4522
  11       11.7003
  12       12.3152
  13       13.1731
  14       14.9740
  15       15.0081
  16       15.6764
 
  0.4166667E+00  0.8333333E-01  0.0000000E+00  0.1388889E-01
   1       -1.7587
   2       -0.3261
   3        5.1992
   4        6.0887
   5        6.5485
   6        7.3736
   7        7.4329
   8        8.1634
   9        8.8497
  10        9.6324
  11       12.8173
  12       13.4938
  13       13.6840
  14       14.1487
  15       14.8986
  16       15.5071
 
  0.5000000E+00  0.8333333E-01  0.0000000E+00  0.6944444E-02
   1       -1.1003
   2       -1.1003
   3        5.8232
   4        5.8232
   5        6.7044
   6        6.7044
   7        7.9646
   8        7.9646
   9        8.9348
  10        8.9348
  11       13.4290
  12       13.4290
  13       14.2167
  14       14.2167
  15       15.4537
  16       15.4537
 
  0.1666667E+00  0.1666667E+00  0.0000000E+00  0.6944444E-02
   1       -2.8426
   2        2.8317
   3        2.8317
   4        5.0823
   5        6.2959
   6        8.3178
   7        8.5106
   8        8.5106
   9       10.4637
  10       10.4637
  11       11.6551
  12       11.6551
  13       13.1790
  14       14.6738
  15       15.7913
  16       15.8561
 
  0.2500000E+00  0.1666667E+00  0.0000000E+00  0.1388889E-01
   1       -2.5408
   2        1.7344
   3        3.1219
   4        5.3617
   5        6.5708
   6        7.2804
   7        8.7869
   8        9.3965
   9       10.1302
  10       10.7074
  11       10.7440
  12       11.9311
  13       12.6994
  14       14.7505
  15       15.6967
  16       15.7457
 
  0.3333333E+00  0.1666667E+00  0.0000000E+00  0.1388889E-01
   1       -2.1192
   2        0.7385
   3        3.5272
   4        5.7530
   5        6.2585
   6        7.0423
   7        8.4422
   8        9.1373
   9        9.8395
  10       11.1360
  11       11.8300
  12       11.8618
  13       12.3406
  14       13.8112
  15       14.8341
  16       16.5187
 
  0.4166667E+00  0.1666667E+00  0.0000000E+00  0.1388889E-01
   1       -1.5789
   2       -0.1479
   3        4.0467
   4        5.4211
   5        6.2565
   6        7.5472
   7        7.6009
   8        8.8786
   9        9.7708
  10       11.0620
  11       11.6394
  12       12.7620
  13       12.9782
  14       13.7175
  15       14.0522
  16       17.0126
 
  0.5000000E+00  0.1666667E+00  0.0000000E+00  0.6944444E-02
   1       -0.9212
   2       -0.9212
   3        4.6790
   4        4.6790
   5        6.8724
   6        6.8724
   7        8.1720
   8        8.1720
   9       10.3535
  10       10.3535
  11       12.2538
  12       12.2538
  13       13.3618
  14       13.3618
  15       15.6109
  16       15.6109
 
  0.2500000E+00  0.2500000E+00  0.0000000E+00  0.6944444E-02
   1       -2.2395
   2        2.0271
   3        2.0271
   4        5.6411
   5        6.1543
   6        6.9279
   7        9.6768
   8        9.6768
   9       10.3693
  10       10.3693
  11       11.0217
  12       11.0217
  13       13.6985
  14       13.7025
  15       14.7874
  16       15.3360
 
  0.3333333E+00  0.2500000E+00  0.0000000E+00  0.1388889E-01
   1       -1.8188
   2        1.0333
   3        2.4360
   4        5.2055
   5        6.0326
   6        7.3193
   7        8.7224
   8       10.0019
   9       10.0690
  10       10.8695
  11       11.3129
  12       12.1889
  13       12.7526
  14       13.3442
  15       13.9209
  16       16.4762
 
  0.4166667E+00  0.2500000E+00  0.0000000E+00  0.1388889E-01
   1       -1.2795
   2        0.1486
   3        2.9601
   4        4.3479
   5        6.5363
   6        7.8380
   7        7.8810
   8        9.1973
   9       10.5731
  10       11.3407
  11       11.8295
  12       11.9155
  13       12.6207
  14       13.1311
  15       13.9808
  16       17.7882
 
  0.5000000E+00  0.2500000E+00  0.0000000E+00  0.6944444E-02
   1       -0.6232
   2       -0.6232
   3        3.5981
   4        3.5981
   5        7.1523
   6        7.1523
   7        8.4672
   8        8.4672
   9       11.1888
  10       11.1888
  11       11.9348
  12       11.9348
  13       12.4322
  14       12.4322
  15       15.8645
  16       15.8645
 
  0.3333333E+00  0.3333333E+00  0.0000000E+00  0.6944444E-02
   1       -1.3992
   2        1.4450
   3        1.4450
   4        4.2359
   5        6.4243
   6        7.7240
   7        9.1148
   8        9.1148
   9       10.4249
  10       10.4249
  11       11.8028
  12       12.5542
  13       12.5542
  14       13.0467
  15       14.4357
  16       16.1779
 
  0.4166667E+00  0.3333333E+00  0.0000000E+00  0.1388889E-01
   1       -0.8615
   2        0.5628
   3        1.9728
   4        3.3706
   5        6.9282
   6        8.2431
   7        8.2732
   8        9.6020
   9        9.6191
  10       10.9325
  11       10.9635
  12       12.2483
  13       13.0339
  14       14.2056
  15       14.3471
  16       17.3923
 
  0.5000000E+00  0.3333333E+00  0.0000000E+00  0.6944444E-02
   1       -0.2069
   2       -0.2069
   3        2.6153
   4        2.6153
   5        7.5444
   6        7.5444
   7        8.8712
   8        8.8712
   9       10.2354
  10       10.2354
  11       11.5410
  12       11.5410
  13       13.6033
  14       13.6033
  15       16.1998
  16       16.1998
 
  0.4166667E+00  0.4166667E+00  0.0000000E+00  0.6944444E-02
   1       -0.3256
   2        1.0936
   3        1.0936
   4        2.4998
   5        7.4322
   6        8.7599
   7        8.7776
   8        8.7776
   9       10.1118
  10       10.1118
  11       10.1229
  12       11.4413
  13       14.7993
  14       14.7993
  15       15.3778
  16       17.2190
 
  0.5000000E+00  0.4166667E+00  0.0000000E+00  0.6944444E-02
   1        0.3267
   2        0.3267
   3        1.7399
   4        1.7399
   5        8.0487
   6        8.0487
   7        9.3846
   8        9.3846
   9        9.3942
  10        9.3942
  11       10.7264
  12       10.7264
  13       15.2779
  14       15.2779
  15       16.5545
  16       16.5545
 
  0.5000000E+00  0.5000000E+00  0.0000000E+00  0.1736111E-02
   1        0.9762
   2        0.9762
   3        0.9762
   4        0.9762
   5        8.6653
   6        8.6653
   7        8.6653
   8        8.6653
   9       10.0047
  10       10.0047
  11       10.0047
  12       10.0047
  13       16.5259
  14       16.5259
  15       16.5259
  16       16.5259
 
  0.8333333E-01  0.8333333E-01  0.8333333E-01  0.4629630E-02
   1       -3.1451
   2        3.8852
   3        3.8852
   4        3.8852
   5        6.9121
   6        6.9121
   7        6.9121
   8       10.6169
   9       10.6169
  10       10.6169
  11       12.9171
  12       12.9171
  13       12.9171
  14       14.0946
  15       14.0946
  16       14.0946
 
  0.1666667E+00  0.8333333E-01  0.8333333E-01  0.1388889E-01
   1       -2.9636
   2        2.7156
   3        4.0571
   4        4.0571
   5        7.0839
   6        7.0839
   7        8.3980
   8        9.4914
   9        9.4914
  10       10.7855
  11       12.3401
  12       12.3401
  13       13.0733
  14       14.2666
  15       15.1761
  16       15.1761
 
  0.2500000E+00  0.8333333E-01  0.8333333E-01  0.1388889E-01
   1       -2.6614
   2        1.6172
   3        4.3433
   4        4.3433
   5        7.3650
   6        7.3650
   7        8.4434
   8        8.4434
   9       10.0204
  10       11.0682
  11       11.4116
  12       11.4116
  13       13.3336
  14       14.5524
  15       15.0205
  16       16.7159
 
  0.3333333E+00  0.8333333E-01  0.8333333E-01  0.1388889E-01
   1       -2.2395
   2        0.6205
   3        4.7432
   4        4.7432
   5        7.4378
   6        7.4378
   7        7.8155
   8        7.8155
   9       10.5096
  10       10.5096
  11       11.4319
  12       11.7797
  13       13.6981
  14       14.0992
  15       14.9503
  16       16.1954
 
  0.4166667E+00  0.8333333E-01  0.8333333E-01  0.1388889E-01
   1       -1.6988
   2       -0.2667
   3        5.2553
   4        5.2553
   5        6.6215
   6        6.6215
   7        8.2879
   8        8.2879
   9        9.6960
  10        9.6960
  11       11.9484
  12       13.2774
  13       13.5916
  14       14.1669
  15       15.4164
  16       15.4576
 
  0.5000000E+00  0.8333333E-01  0.8333333E-01  0.6944444E-02
   1       -1.0405
   2       -1.0405
   3        5.8219
   4        5.8219
   5        5.9454
   6        5.9454
   7        8.7425
   8        8.7425
   9        9.1343
  10        9.1343
  11       12.5598
  12       12.5598
  13       14.7398
  14       14.7398
  15       15.5012
  16       15.5012
 
  0.1666667E+00  0.1666667E+00  0.8333333E-01  0.1388889E-01
   1       -2.7822
   2        2.8898
   3        2.8898
   4        4.2289
   5        7.2500
   6        8.3792
   7        8.5627
   8        8.5627
   9        9.6646
  10        9.6646
  11       12.5020
  12       12.5020
  13       13.2311
  14       14.7314
  15       14.9417
  16       15.3438
 
  0.2500000E+00  0.1666667E+00  0.8333333E-01  0.2777778E-01
   1       -2.4805
   2        1.7930
   3        3.1798
   4        4.5147
   5        7.2520
   6        7.6082
   7        8.5602
   8        8.8949
   9        9.9008
  10       10.2295
  11       11.5785
  12       12.7534
  13       12.7717
  14       13.9200
  15       15.6222
  16       15.8011
 
  0.3333333E+00  0.1666667E+00  0.8333333E-01  0.2777778E-01
   1       -2.0591
   2        0.7975
   3        3.5850
   4        4.9134
   5        6.3368
   6        7.6382
   7        7.9652
   8        9.2495
   9       10.3212
  10       10.6850
  11       11.9171
  12       11.9279
  13       12.9908
  14       13.1501
  15       15.6773
  16       16.0095
 
  0.4166667E+00  0.1666667E+00  0.8333333E-01  0.2777778E-01
   1       -1.5190
   2       -0.0886
   3        4.1042
   4        5.3853
   5        5.5275
   6        6.7941
   7        8.4722
   8        9.6243
   9        9.9894
  10       10.8271
  11       11.1190
  12       12.1632
  13       13.5847
  14       13.7949
  15       14.8940
  16       16.5023
 
  0.5000000E+00  0.1666667E+00  0.8333333E-01  0.1388889E-01
   1       -0.8615
   2       -0.8615
   3        4.7355
   4        4.7355
   5        6.0591
   6        6.0591
   7        9.0830
   8        9.0830
   9       10.4161
  10       10.4161
  11       11.4412
  12       11.4412
  13       14.2056
  14       14.2056
  15       15.6621
  16       15.6621
 
  0.2500000E+00  0.2500000E+00  0.8333333E-01  0.1388889E-01
   1       -2.1794
   2        2.0856
   3        2.0856
   4        4.7993
   5        6.2334
   6        7.8529
   7        8.8747
   8        8.8747
   9       10.4751
  10       10.4751
  11       11.8590
  12       11.8590
  13       12.8892
  14       13.7547
  15       15.3926
  16       15.6580
 
  0.3333333E+00  0.2500000E+00  0.8333333E-01  0.2777778E-01
   1       -1.7588
   2        1.0922
   3        2.4943
   4        5.1619
   5        5.3078
   6        7.9240
   7        8.2497
   8        9.2717
   9       10.7455
  10       11.0765
  11       11.9534
  12       12.0862
  13       12.3516
  14       13.3979
  15       14.7923
  16       16.5304
 
  0.4166667E+00  0.2500000E+00  0.8333333E-01  0.2777778E-01
   1       -1.2198
   2        0.2078
   3        3.0182
   4        4.4046
   5        5.7184
   6        7.0783
   7        8.7605
   8        9.7783
   9       10.0953
  10       11.1207
  11       11.4016
  12       12.6757
  13       12.7054
  14       14.0031
  15       14.0355
  16       17.8362
 
  0.5000000E+00  0.2500000E+00  0.8333333E-01  0.1388889E-01
   1       -0.5636
   2       -0.5636
   3        3.6559
   4        3.6559
   5        6.3422
   6        6.3422
   7        9.3792
   8        9.3792
   9       10.3949
  10       10.3949
  11       11.9910
  12       11.9910
  13       13.3062
  14       13.3062
  15       15.9163
  16       15.9163
 
  0.3333333E+00  0.3333333E+00  0.8333333E-01  0.1388889E-01
   1       -1.3394
   2        1.5038
   3        1.5038
   4        4.2928
   5        5.6046
   6        8.3203
   7        8.3203
   8        8.6489
   9       11.0124
  10       11.3115
  11       11.3115
  12       12.6125
  13       12.6125
  14       13.9220
  15       14.4880
  16       16.2326
 
  0.4166667E+00  0.3333333E+00  0.8333333E-01  0.2777778E-01
   1       -0.8018
   2        0.6218
   3        2.0313
   4        3.4286
   5        6.1153
   6        7.4751
   7        8.8282
   8        9.1595
   9       10.1758
  10       10.4995
  11       11.8177
  12       13.0891
  13       13.1261
  14       14.2590
  15       14.4009
  16       17.4442
 
  0.5000000E+00  0.3333333E+00  0.8333333E-01  0.1388889E-01
   1       -0.1475
   2       -0.1475
   3        2.6736
   4        2.6736
   5        6.7395
   6        6.7395
   7        9.4470
   8        9.4470
   9        9.7782
  10        9.7782
  11       12.4222
  12       12.4222
  13       13.6576
  14       13.6576
  15       16.2517
  16       16.2517
 
  0.4166667E+00  0.4166667E+00  0.8333333E-01  0.1388889E-01
   1       -0.2662
   2        1.1525
   3        1.1525
   4        2.5581
   5        6.6263
   6        7.9843
   7        7.9843
   8        9.3361
   9        9.6686
  10       11.0043
  11       11.0043
  12       12.3233
  13       14.8527
  14       14.8527
  15       15.4302
  16       17.2703
 
  0.5000000E+00  0.4166667E+00  0.8333333E-01  0.1388889E-01
   1        0.3859
   2        0.3859
   3        1.7986
   4        1.7986
   5        7.2497
   6        7.2497
   7        8.6049
   8        8.6049
   9       10.2851
  10       10.2851
  11       11.6134
  12       11.6134
  13       15.3309
  14       15.3309
  15       16.6066
  16       16.6066
 
  0.5000000E+00  0.5000000E+00  0.8333333E-01  0.3472222E-02
   1        1.0351
   2        1.0351
   3        1.0351
   4        1.0351
   5        7.8719
   6        7.8719
   7        7.8719
   8        7.8719
   9       10.8982
  10       10.8982
  11       10.8982
  12       10.8982
  13       16.5784
  14       16.5784
  15       16.5784
  16       16.5784
 
  0.1666667E+00  0.1666667E+00  0.1666667E+00  0.4629630E-02
   1       -2.6011
   2        3.0639
   3        3.0639
   4        3.0639
   5        8.4794
   6        8.4794
   7        8.4794
   8        8.8003
   9        8.8003
  10        8.8003
  11       13.3875
  12       13.3875
  13       13.3875
  14       13.8478
  15       14.9037
  16       14.9037
 
  0.2500000E+00  0.1666667E+00  0.1666667E+00  0.1388889E-01
   1       -2.2998
   2        1.9686
   3        3.3536
   4        3.3536
   5        7.4668
   6        7.4668
   7        8.8069
   8        9.0399
   9        9.0399
  10       10.3757
  11       12.8207
  12       12.9152
  13       12.9152
  14       13.6481
  15       15.1889
  16       15.9670
 
  0.3333333E+00  0.1666667E+00  0.1666667E+00  0.1388889E-01
   1       -1.8788
   2        0.9744
   3        3.7582
   4        3.7582
   5        6.5112
   6        6.5112
   7        9.2053
   8        9.4297
   9        9.4297
  10       11.8869
  11       12.0833
  12       12.0833
  13       12.0983
  14       14.0131
  15       15.5835
  16       16.5135
 
  0.4166667E+00  0.1666667E+00  0.1666667E+00  0.1388889E-01
   1       -1.3394
   2        0.0893
   3        4.2761
   4        4.2761
   5        5.6597
   6        5.6597
   7        9.7126
   8        9.9257
   9        9.9257
  10       11.0551
  11       11.2926
  12       11.2926
  13       13.9163
  14       14.4826
  15       15.7337
  16       16.0816
 
  0.5000000E+00  0.1666667E+00  0.1666667E+00  0.6944444E-02
   1       -0.6827
   2       -0.6827
   3        4.8447
   4        4.8447
   5        4.9795
   6        4.9795
   7       10.3296
   8       10.3296
   9       10.3956
  10       10.3956
  11       10.7219
  12       10.7219
  13       15.0562
  14       15.0562
  15       15.8140
  16       15.8140
 
  0.2500000E+00  0.2500000E+00  0.1666667E+00  0.1388889E-01
   1       -1.9990
   2        2.2609
   3        2.2609
   4        3.6427
   5        6.4082
   6        7.7546
   7        7.7546
   8        9.3207
   9       10.6516
  10       10.6516
  11       11.7870
  12       13.1847
  13       13.1847
  14       13.9114
  15       15.5617
  16       16.2415
 
  0.3333333E+00  0.2500000E+00  0.1666667E+00  0.2777778E-01
   1       -1.5789
   2        1.2687
   3        2.6692
   4        4.0458
   5        5.4445
   6        6.7970
   7        8.1524
   8        9.7144
   9       10.8476
  10       11.0335
  11       12.3624
  12       12.3691
  13       13.5591
  14       13.5623
  15       16.0749
  16       16.6211
 
  0.4166667E+00  0.2500000E+00  0.1666667E+00  0.2777778E-01
   1       -1.0405
   2        0.3854
   3        3.1924
   4        4.5106
   5        4.6388
   6        5.9447
   7        8.6617
   8       10.0111
   9       10.2169
  10       11.4021
  11       11.6937
  12       12.8405
  13       14.0069
  14       14.2154
  15       15.3023
  16       17.0988
 
  0.5000000E+00  0.2500000E+00  0.1666667E+00  0.1388889E-01
   1       -0.3852
   2       -0.3852
   3        3.8287
   4        3.8287
   5        5.2025
   6        5.2025
   7        9.2817
   8        9.2817
   9       10.8208
  10       10.8208
  11       12.1619
  12       12.1619
  13       14.6178
  14       14.6178
  15       16.0705
  16       16.0705
 
  0.3333333E+00  0.3333333E+00  0.1666667E+00  0.1388889E-01
   1       -1.1600
   2        1.6799
   3        1.6799
   4        4.3986
   5        4.5239
   6        7.1957
   7        7.1957
   8        9.9032
   9       10.1088
  10       12.6259
  11       12.6259
  12       12.8638
  13       12.8638
  14       14.6450
  15       15.2713
  16       16.3953
 
  0.4166667E+00  0.3333333E+00  0.1666667E+00  0.2777778E-01
   1       -0.6231
   2        0.7989
   3        2.2069
   4        3.6019
   5        4.9731
   6        6.3444
   7        7.7070
   8        9.0626
   9       10.6118
  10       11.9234
  11       13.2113
  12       13.2559
  13       14.4191
  14       14.4983
  15       14.5620
  16       17.5985
 
  0.5000000E+00  0.3333333E+00  0.1666667E+00  0.1388889E-01
   1        0.0305
   2        0.0305
   3        2.8483
   4        2.8483
   5        5.6025
   6        5.6025
   7        8.3298
   8        8.3298
   9       11.2196
  10       11.2196
  11       13.8078
  12       13.8078
  13       13.8203
  14       13.8203
  15       16.4063
  16       16.4063
 
  0.4166667E+00  0.4166667E+00  0.1666667E+00  0.1388889E-01
   1       -0.0881
   2        1.3290
   3        1.3290
   4        2.7331
   5        5.4882
   6        6.8575
   7        6.8575
   8        8.2185
   9       11.1136
  10       12.4246
  11       12.4246
  12       13.7206
  13       15.0122
  14       15.0122
  15       15.5876
  16       17.4219
 
  0.5000000E+00  0.4166667E+00  0.1666667E+00  0.1388889E-01
   1        0.5632
   2        0.5632
   3        1.9744
   4        1.9744
   5        6.1171
   6        6.1171
   7        7.4827
   8        7.4827
   9       11.7200
  10       11.7200
  11       13.0245
  12       13.0245
  13       15.4893
  14       15.4893
  15       16.7621
  16       16.7621
 
  0.5000000E+00  0.5000000E+00  0.1666667E+00  0.3472222E-02
   1        1.2118
   2        1.2118
   3        1.2118
   4        1.2118
   5        6.7443
   6        6.7443
   7        6.7443
   8        6.7443
   9       12.3235
  10       12.3235
  11       12.3235
  12       12.3235
  13       16.7359
  14       16.7359
  15       16.7359
  16       16.7359
 
  0.2500000E+00  0.2500000E+00  0.2500000E+00  0.4629630E-02
   1       -1.6988
   2        2.5527
   3        2.5527
   4        2.5527
   5        6.6944
   6        6.6944
   7        6.6944
   8       10.7479
   9       10.9321
  10       10.9321
  11       10.9321
  12       14.1726
  13       14.1726
  14       14.1726
  15       15.8404
  16       15.8404
 
  0.3333333E+00  0.2500000E+00  0.2500000E+00  0.1388889E-01
   1       -1.2796
   2        1.5625
   3        2.9601
   4        2.9601
   5        5.7303
   6        5.7303
   7        7.0936
   8        9.8033
   9       11.3199
  10       11.3199
  11       12.6479
  12       13.8274
  13       13.8274
  14       14.5383
  15       16.2233
  16       16.9595
 
  0.4166667E+00  0.2500000E+00  0.2500000E+00  0.1388889E-01
   1       -0.7422
   2        0.6809
   3        3.4820
   4        3.4820
   5        4.8725
   6        4.8725
   7        7.6054
   8        8.9622
   9       11.8100
  10       11.8100
  11       13.1164
  12       13.1164
  13       14.4516
  14       15.0086
  15       16.2618
  16       16.6998
 
  0.5000000E+00  0.2500000E+00  0.2500000E+00  0.6944444E-02
   1       -0.0882
   2       -0.0882
   3        4.0644
   4        4.0644
   5        4.1778
   6        4.1778
   7        8.2288
   8        8.2288
   9       12.2921
  10       12.2921
  11       12.5475
  12       12.5475
  13       15.5834
  14       15.5834
  15       16.3225
  16       16.3225
 
  0.3333333E+00  0.3333333E+00  0.2500000E+00  0.1388889E-01
   1       -0.8615
   2        1.9729
   3        1.9729
   4        3.3662
   5        4.7608
   6        6.1309
   7        6.1309
   8        8.8539
   9       11.7092
  10       13.0258
  11       13.0258
  12       14.2026
  13       14.2026
  14       14.9068
  15       16.6483
  16       16.6616
 
  0.4166667E+00  0.3333333E+00  0.2500000E+00  0.2777778E-01
   1       -0.3256
   2        1.0937
   3        2.4989
   4        3.8402
   5        3.9444
   6        5.2740
   7        6.6451
   8        8.0086
   9       12.2028
  10       13.3974
  11       13.6008
  12       14.6547
  13       14.6853
  14       14.8404
  15       15.9240
  16       17.7717
 
  0.5000000E+00  0.3333333E+00  0.2500000E+00  0.1388889E-01
   1        0.3267
   2        0.3267
   3        3.1389
   4        3.1389
   5        4.5274
   6        4.5274
   7        7.2715
   8        7.2715
   9       12.7938
  10       12.7938
  11       14.0914
  12       14.0914
  13       15.2529
  14       15.2529
  15       16.6594
  16       16.6594
 
  0.4166667E+00  0.4166667E+00  0.2500000E+00  0.1388889E-01
   1        0.2084
   2        1.6229
   3        1.6229
   4        3.0239
   5        4.4121
   6        5.7902
   7        5.7902
   8        7.1595
   9       12.6960
  10       13.9633
  11       13.9633
  12       15.2199
  13       15.2764
  14       15.2764
  15       15.8500
  16       17.6653
 
  0.5000000E+00  0.4166667E+00  0.2500000E+00  0.1388889E-01
   1        0.8585
   2        0.8585
   3        2.2670
   4        2.2670
   5        5.0449
   6        5.0449
   7        6.4193
   8        6.4193
   9       13.2876
  10       13.2876
  11       14.5498
  12       14.5498
  13       15.7521
  14       15.7521
  15       17.0181
  16       17.0181
 
  0.5000000E+00  0.5000000E+00  0.2500000E+00  0.3472222E-02
   1        1.5059
   2        1.5059
   3        1.5059
   4        1.5059
   5        5.6763
   6        5.6763
   7        5.6763
   8        5.6763
   9       13.8766
  10       13.8766
  11       13.8766
  12       13.8766
  13       16.9980
  14       16.9980
  15       16.9980
  16       16.9980
 
  0.3333333E+00  0.3333333E+00  0.3333333E+00  0.4629630E-02
   1       -0.4445
   2        2.3823
   3        2.3823
   4        2.3823
   5        5.1628
   6        5.1628
   7        5.1628
   8        7.8996
   9       13.4089
  10       13.4089
  11       13.4089
  12       15.2734
  13       15.2734
  14       15.2734
  15       17.0218
  16       17.0218
 
  0.4166667E+00  0.3333333E+00  0.3333333E+00  0.1388889E-01
   1        0.0899
   2        1.5055
   3        2.9067
   4        2.9067
   5        4.3011
   6        4.3011
   7        5.6795
   8        7.0500
   9       13.8871
  10       13.8871
  11       15.0565
  12       15.0565
  13       15.1850
  14       15.7447
  15       16.9990
  16       17.4546
 
  0.5000000E+00  0.3333333E+00  0.3333333E+00  0.6944444E-02
   1        0.7405
   2        0.7405
   3        3.5034
   4        3.5034
   5        3.5917
   6        3.5917
   7        6.3091
   8        6.3091
   9       14.3825
  10       14.3825
  11       14.5318
  12       14.5318
  13       16.3203
  14       16.3203
  15       16.9974
  16       16.9974
 
  0.4166667E+00  0.4166667E+00  0.3333333E+00  0.1388889E-01
   1        0.6225
   2        2.0333
   3        2.0333
   4        3.3909
   5        3.4735
   6        4.8197
   7        4.8197
   8        6.1965
   9       14.3672
  10       15.5142
  11       15.5142
  12       15.6475
  13       15.6475
  14       16.2172
  15       16.7102
  16       17.9796
 
  0.5000000E+00  0.4166667E+00  0.3333333E+00  0.1388889E-01
   1        1.2709
   2        1.2709
   3        2.6756
   4        2.6756
   5        4.0703
   6        4.0703
   7        5.4522
   8        5.4522
   9       14.9301
  10       14.9301
  11       16.0902
  12       16.0902
  13       16.1163
  14       16.1163
  15       17.3649
  16       17.3649
 
  0.5000000E+00  0.5000000E+00  0.3333333E+00  0.3472222E-02
   1        1.9166
   2        1.9166
   3        1.9166
   4        1.9166
   5        4.7050
   6        4.7050
   7        4.7050
   8        4.7050
   9       15.4931
  10       15.4931
  11       15.4931
  12       15.4931
  13       17.3635
  14       17.3635
  15       17.3635
  16       17.3635
 
  0.4166667E+00  0.4166667E+00  0.4166667E+00  0.4629630E-02
   1        1.1534
   2        2.5592
   3        2.5592
   4        2.5592
   5        3.9558
   6        3.9558
   7        3.9558
   8        5.3389
   9       16.0879
  10       16.0879
  11       16.0879
  12       16.6888
  13       16.6888
  14       16.6888
  15       17.9305
  16       17.9305
 
  0.5000000E+00  0.4166667E+00  0.4166667E+00  0.6944444E-02
   1        1.7996