<?xml version="1.0" encoding="ISO-8859-1"?>
<modeling>
 <generator>
  <i name="program" type="string">vasp</i>
  <i name="version" type="string">4.6.28 </i>
  <i name="subversion" type="string">25Jul05 complex  parallel</i>
  <i name="platform" type="string">LinuxIFC</i>
  <i name="date" type="string">2016 10 19</i>
  <i name="time" type="string">17:40:43</i>
 </generator>
 <incar>
  <i type="string" name="PREC">accurate</i>
  <i type="int" name="IALGO">    38</i>
  <i name="EDIFF">      0.00000001</i>
  <i type="int" name="IBRION">    -1</i>
  <i name="ENCUT">    500.00000000</i>
  <i type="logical" name="LREAL"> F  </i>
  <i type="int" name="ISMEAR">     0</i>
  <i name="SIGMA">      0.01000000</i>
  <i type="logical" name="LWAVE"> F  </i>
  <i type="logical" name="LCHARG"> F  </i>
 </incar>
 <kpoints>
  <generation param="Auto">
   <i name="subdivisionlength">     50.00000000</i>
   <v type="int" name="divisions">      12      12      12</v>
   <v name="usershift">      0.00000000      0.00000000      0.00000000</v>
   <v name="genvec1">      0.08333333      0.00000000      0.00000000</v>
   <v name="genvec2">      0.00000000      0.08333333      0.00000000</v>
   <v name="genvec3">      0.00000000      0.00000000      0.08333333</v>
   <v name="shift">      0.00000000      0.00000000      0.00000000</v>
  </generation>
  <varray name="kpointlist" >
   <v>       0.00000000      0.00000000      0.00000000</v>
   <v>       0.08333333      0.00000000      0.00000000</v>
   <v>       0.16666667      0.00000000      0.00000000</v>
   <v>       0.25000000      0.00000000      0.00000000</v>
   <v>       0.33333333      0.00000000      0.00000000</v>
   <v>       0.41666667      0.00000000      0.00000000</v>
   <v>       0.50000000      0.00000000      0.00000000</v>
   <v>       0.08333333      0.08333333      0.00000000</v>
   <v>       0.16666667      0.08333333      0.00000000</v>
   <v>       0.25000000      0.08333333      0.00000000</v>
   <v>       0.33333333      0.08333333      0.00000000</v>
   <v>       0.41666667      0.08333333      0.00000000</v>
   <v>       0.50000000      0.08333333      0.00000000</v>
   <v>       0.16666667      0.16666667      0.00000000</v>
   <v>       0.25000000      0.16666667      0.00000000</v>
   <v>       0.33333333      0.16666667      0.00000000</v>
   <v>       0.41666667      0.16666667      0.00000000</v>
   <v>       0.50000000      0.16666667      0.00000000</v>
   <v>       0.25000000      0.25000000      0.00000000</v>
   <v>       0.33333333      0.25000000      0.00000000</v>
   <v>       0.41666667      0.25000000      0.00000000</v>
   <v>       0.50000000      0.25000000      0.00000000</v>
   <v>       0.33333333      0.33333333      0.00000000</v>
   <v>       0.41666667      0.33333333      0.00000000</v>
   <v>       0.50000000      0.33333333      0.00000000</v>
   <v>       0.41666667      0.41666667      0.00000000</v>
   <v>       0.50000000      0.41666667      0.00000000</v>
   <v>       0.50000000      0.50000000      0.00000000</v>
   <v>       0.08333333      0.08333333      0.08333333</v>
   <v>       0.16666667      0.08333333      0.08333333</v>
   <v>       0.25000000      0.08333333      0.08333333</v>
   <v>       0.33333333      0.08333333      0.08333333</v>
   <v>       0.41666667      0.08333333      0.08333333</v>
   <v>       0.50000000      0.08333333      0.08333333</v>
   <v>       0.16666667      0.16666667      0.08333333</v>
   <v>       0.25000000      0.16666667      0.08333333</v>
   <v>       0.33333333      0.16666667      0.08333333</v>
   <v>       0.41666667      0.16666667      0.08333333</v>
   <v>       0.50000000      0.16666667      0.08333333</v>
   <v>       0.25000000      0.25000000      0.08333333</v>
   <v>       0.33333333      0.25000000      0.08333333</v>
   <v>       0.41666667      0.25000000      0.08333333</v>
   <v>       0.50000000      0.25000000      0.08333333</v>
   <v>       0.33333333      0.33333333      0.08333333</v>
   <v>       0.41666667      0.33333333      0.08333333</v>
   <v>       0.50000000      0.33333333      0.08333333</v>
   <v>       0.41666667      0.41666667      0.08333333</v>
   <v>       0.50000000      0.41666667      0.08333333</v>
   <v>       0.50000000      0.50000000      0.08333333</v>
   <v>       0.16666667      0.16666667      0.16666667</v>
   <v>       0.25000000      0.16666667      0.16666667</v>
   <v>       0.33333333      0.16666667      0.16666667</v>
   <v>       0.41666667      0.16666667      0.16666667</v>
   <v>       0.50000000      0.16666667      0.16666667</v>
   <v>       0.25000000      0.25000000      0.16666667</v>
   <v>       0.33333333      0.25000000      0.16666667</v>
   <v>       0.41666667      0.25000000      0.16666667</v>
   <v>       0.50000000      0.25000000      0.16666667</v>
   <v>       0.33333333      0.33333333      0.16666667</v>
   <v>       0.41666667      0.33333333      0.16666667</v>
   <v>       0.50000000      0.33333333      0.16666667</v>
   <v>       0.41666667      0.41666667      0.16666667</v>
   <v>       0.50000000      0.41666667      0.16666667</v>
   <v>       0.50000000      0.50000000      0.16666667</v>
   <v>       0.25000000      0.25000000      0.25000000</v>
   <v>       0.33333333      0.25000000      0.25000000</v>
   <v>       0.41666667      0.25000000      0.25000000</v>
   <v>       0.50000000      0.25000000      0.25000000</v>
   <v>       0.33333333      0.33333333      0.25000000</v>
   <v>       0.41666667      0.33333333      0.25000000</v>
   <v>       0.50000000      0.33333333      0.25000000</v>
   <v>       0.41666667      0.41666667      0.25000000</v>
   <v>       0.50000000      0.41666667      0.25000000</v>
   <v>       0.50000000      0.50000000      0.25000000</v>
   <v>       0.33333333      0.33333333      0.33333333</v>
   <v>       0.41666667      0.33333333      0.33333333</v>
   <v>       0.50000000      0.33333333      0.33333333</v>
   <v>       0.41666667      0.41666667      0.33333333</v>
   <v>       0.50000000      0.41666667      0.33333333</v>
   <v>       0.50000000      0.50000000      0.33333333</v>
   <v>       0.41666667      0.41666667      0.41666667</v>
   <v>       0.50000000      0.41666667      0.41666667</v>
   <v>       0.50000000      0.50000000      0.41666667</v>
   <v>       0.50000000      0.50000000      0.50000000</v>
  </varray>
  <varray name="weights" >
   <v>       0.00057870</v>
   <v>       0.00347222</v>
   <v>       0.00347222</v>
   <v>       0.00347222</v>
   <v>       0.00347222</v>
   <v>       0.00347222</v>
   <v>       0.00173611</v>
   <v>       0.00694444</v>
   <v>       0.01388889</v>
   <v>       0.01388889</v>
   <v>       0.01388889</v>
   <v>       0.01388889</v>
   <v>       0.00694444</v>
   <v>       0.00694444</v>
   <v>       0.01388889</v>
   <v>       0.01388889</v>
   <v>       0.01388889</v>
   <v>       0.00694444</v>
   <v>       0.00694444</v>
   <v>       0.01388889</v>
   <v>       0.01388889</v>
   <v>       0.00694444</v>
   <v>       0.00694444</v>
   <v>       0.01388889</v>
   <v>       0.00694444</v>
   <v>       0.00694444</v>
   <v>       0.00694444</v>
   <v>       0.00173611</v>
   <v>       0.00462963</v>
   <v>       0.01388889</v>
   <v>       0.01388889</v>
   <v>       0.01388889</v>
   <v>       0.01388889</v>
   <v>       0.00694444</v>
   <v>       0.01388889</v>
   <v>       0.02777778</v>
   <v>       0.02777778</v>
   <v>       0.02777778</v>
   <v>       0.01388889</v>
   <v>       0.01388889</v>
   <v>       0.02777778</v>
   <v>       0.02777778</v>
   <v>       0.01388889</v>
   <v>       0.01388889</v>
   <v>       0.02777778</v>
   <v>       0.01388889</v>
   <v>       0.01388889</v>
   <v>       0.01388889</v>
   <v>       0.00347222</v>
   <v>       0.00462963</v>
   <v>       0.01388889</v>
   <v>       0.01388889</v>
   <v>       0.01388889</v>
   <v>       0.00694444</v>
   <v>       0.01388889</v>
   <v>       0.02777778</v>
   <v>       0.02777778</v>
   <v>       0.01388889</v>
   <v>       0.01388889</v>
   <v>       0.02777778</v>
   <v>       0.01388889</v>
   <v>       0.01388889</v>
   <v>       0.01388889</v>
   <v>       0.00347222</v>
   <v>       0.00462963</v>
   <v>       0.01388889</v>
   <v>       0.01388889</v>
   <v>       0.00694444</v>
   <v>       0.01388889</v>
   <v>       0.02777778</v>
   <v>       0.01388889</v>
   <v>       0.01388889</v>
   <v>       0.01388889</v>
   <v>       0.00347222</v>
   <v>       0.00462963</v>
   <v>       0.01388889</v>
   <v>       0.00694444</v>
   <v>       0.01388889</v>
   <v>       0.01388889</v>
   <v>       0.00347222</v>
   <v>       0.00462963</v>
   <v>       0.00694444</v>
   <v>       0.00347222</v>
   <v>       0.00057870</v>
  </varray>
 </kpoints>
 <parameters>
  <separator name="general" >
   <i type="string" name="SYSTEM">unknown system</i>
   <i type="logical" name="LCOMPAT"> F  </i>
  </separator>
  <separator name="electronic" >
   <i type="string" name="PREC">accura</i>
   <i name="ENMAX">    500.00000000</i>
   <i name="ENAUG">    291.05200000</i>
   <i name="EDIFF">      0.00000001</i>
   <i type="int" name="IALGO">    38</i>
   <i type="int" name="IWAVPR">    10</i>
   <i type="int" name="NBANDS">    10</i>
   <i name="NELECT">     12.00000000</i>
   <separator name="electronic smearing" >
    <i type="int" name="ISMEAR">     0</i>
    <i name="SIGMA">      0.01000000</i>
   </separator>
   <separator name="electronic projectors" >
    <i type="logical" name="LREAL"> F  </i>
    <v name="ROPT">      0.00000000</v>
    <i type="int" name="LMAXPAW">  -100</i>
    <i type="int" name="LMAXMIX">     2</i>
   </separator>
   <separator name="electronic startup" >
    <i type="int" name="ISTART">     0</i>
    <i type="int" name="ICHARG">     2</i>
    <i type="int" name="INIWAV">     1</i>
   </separator>
   <separator name="electronic spin" >
    <i type="int" name="ISPIN">     1</i>
    <i type="logical" name="LNONCOLLINEAR"> F  </i>
    <v name="MAGMOM">      1.00000000      1.00000000      1.00000000      1.00000000</v>
    <i name="NUPDOWN">     -1.00000000</i>
    <i type="logical" name="LSORBIT"> F  </i>
    <v name="SAXIS">      0.00000000      0.00000000      1.00000000</v>
    <i type="logical" name="LSPIRAL"> F  </i>
    <v name="QSPIRAL">      0.00000000      0.00000000      0.00000000</v>
    <i type="logical" name="LZEROZ"> F  </i>
   </separator>
   <separator name="electronic exchange-correlation" >
    <i type="string" name="GGA">--</i>
    <i type="int" name="VOSKOWN">     0</i>
    <i type="logical" name="LASPH"> F  </i>
    <i type="logical" name="LMETAGGA"> F  </i>
    <i type="string" name="GGA2">--</i>
   </separator>
   <separator name="electronic convergence" >
    <i type="int" name="NELM">    60</i>
    <i type="int" name="NELMDL">     0</i>
    <i type="int" name="NELMIN">     2</i>
    <i name="ENINI">    500.00000000</i>
    <separator name="electronic convergence detail" >
     <i type="logical" name="LDIAG"> T  </i>
     <i name="WEIMIN">      0.00000000</i>
     <i name="EBREAK">      0.00000000</i>
     <i name="DEPER">      0.30000000</i>
     <i type="int" name="NRMM">     4</i>
     <i name="TIME">      0.10000000</i>
    </separator>
   </separator>
   <separator name="electronic mixer" >
    <i name="AMIX">      0.40000000</i>
    <i name="BMIX">      1.00000000</i>
    <i name="AMIN">      0.10000000</i>
    <i name="AMIX_MAG">      1.60000000</i>
    <i name="BMIX_MAG">      1.00000000</i>
    <separator name="electronic mixer details" >
     <i type="int" name="IMIX">     4</i>
     <i type="int" name="MAXMIX">   -45</i>
     <i name="WC">    100.00000000</i>
     <i type="int" name="INIMIX">     1</i>
     <i type="int" name="MIXPRE">     1</i>
     <i type="int" name="MREMOVE">     5</i>
    </separator>
   </separator>
   <separator name="electronic dipolcorrection" >
    <i type="int" name="IDIPOL">     0</i>
    <i type="logical" name="LDIPOL"> F  </i>
    <v name="DIPOL">   -100.00000000</v>
    <i name="EFIELD">      0.00000000</i>
   </separator>
  </separator>
  <separator name="grids" >
   <i type="int" name="NGX">    30</i>
   <i type="int" name="NGY">    30</i>
   <i type="int" name="NGZ">    30</i>
   <i type="int" name="NGXF">    60</i>
   <i type="int" name="NGYF">    60</i>
   <i type="int" name="NGZF">    60</i>
   <i type="logical" name="ADDGRID"> F  </i>
  </separator>
  <separator name="ionic" >
   <i type="int" name="NSW">     0</i>
   <i type="int" name="IBRION">    -1</i>
   <i type="int" name="ISIF">     2</i>
   <i name="PSTRESS">      0.00000000</i>
   <i name="EDIFFG">      0.00000010</i>
   <i type="int" name="NFREE">     0</i>
   <i name="POTIM">      0.50000000</i>
   <i name="SMASS">     -3.00000000</i>
  </separator>
  <separator name="ionic md" >
   <i name="TEBEG">      0.00010000</i>
   <i name="TEEND">      0.00010000</i>
   <i type="int" name="NBLOCK">     1</i>
   <i type="int" name="KBLOCK">     1</i>
   <i type="int" name="NPACO">   256</i>
   <i name="APACO">     16.00000000</i>
  </separator>
  <separator name="symmetry" >
   <i type="int" name="ISYM">     2</i>
   <i name="SYMPREC">      0.00001000</i>
  </separator>
  <separator name="dos" >
   <i type="logical" name="LORBIT"> F  </i>
   <v name="RWIGS">     -1.00000000</v>
   <i type="int" name="NEDOS">   301</i>
   <i name="EMIN">     10.00000000</i>
   <i name="EMAX">    -10.00000000</i>
  </separator>
  <separator name="writing" >
   <i type="int" name="NWRITE">     2</i>
   <i type="logical" name="LWAVE"> F  </i>
   <i type="logical" name="LCHARG"> F  </i>
   <i type="logical" name="LPARD"> F  </i>
   <i type="logical" name="LVTOT"> F  </i>
   <i type="logical" name="LELF"> F  </i>
   <i type="logical" name="LOPTICS"> F  </i>
   <i name="STM">      0.00000000</i>
  </separator>
  <separator name="performance" >
   <i type="int" name="NPAR">     8</i>
   <i type="int" name="NSIM">     4</i>
   <i type="int" name="NBLK">   192</i>
   <i type="logical" name="LPLANE"> T  </i>
   <i type="logical" name="LCRITICAL_MEM"> F  </i>
   <i type="logical" name="LSCALAPACK"> F  </i>
   <i type="logical" name="LSCALU"> F  </i>
   <i type="logical" name="LASYNC"> F  </i>
  </separator>
  <separator name="miscellaneous" >
   <i type="int" name="IDIOT">     3</i>
   <i type="logical" name="LMUSIC"> F  </i>
   <v name="POMASS">     26.98200000</v>
   <i type="logical" name="LCORR"> T  </i>
  </separator>
  <i type="logical" name="LREAL_COMPAT"> F  </i>
  <i type="logical" name="GGA_COMPAT"> T  </i>
  <i type="logical" name="LBERRY"> F  </i>
  <i type="int" name="ICORELEVEL">     0</i>
  <i type="logical" name="LDAU"> F  </i>
  <i type="int" name="I_CONSTRAINED_M">     0</i>
 </parameters>
 <atominfo>
  <atoms>       4</atoms>
  <types>       1</types>
  <array name="atoms" >
   <dimension dim="1">ion</dimension>
   <field type="string">element</field>
   <field type="int">atomtype</field>
   <set>
    <rc><c>Al</c><c>   1</c></rc>
    <rc><c>Al</c><c>   1</c></rc>
    <rc><c>Al</c><c>   1</c></rc>
    <rc><c>Al</c><c>   1</c></rc>
   </set>
  </array>
  <array name="atomtypes" >
   <dimension dim="1">type</dimension>
   <field type="int">atomspertype</field>
   <field type="string">element</field>
   <field>mass</field>
   <field>valence</field>
   <field type="string">pseudopotential</field>
   <set>
    <rc><c>   4</c><c>Al</c><c>     26.98200000</c><c>      3.00000000</c><c> PAW_PBE Al 04Jan2001                   </c></rc>
   </set>
  </array>
 </atominfo>
 <structure name="initialpos" >
  <crystal>
   <varray name="basis" >
    <v>       4.11805250      0.00000000      0.00000000</v>
    <v>       0.00000000      4.11805250      0.00000000</v>
    <v>       0.00000000      0.00000000      4.11805250</v>
   </varray>
   <i name="volume">     69.83540179</i>
   <varray name="rec_basis" >
    <v>       0.24283323      0.00000000      0.00000000</v>
    <v>       0.00000000      0.24283323      0.00000000</v>
    <v>       0.00000000      0.00000000      0.24283323</v>
   </varray>
  </crystal>
  <varray name="positions" >
   <v>       0.50000000      0.50000000      0.00000000</v>
   <v>       0.50000000      0.00000000      0.50000000</v>
   <v>       0.00000000      0.50000000      0.50000000</v>
   <v>       0.00000000      0.00000000      0.00000000</v>
  </varray>
 </structure>
 <calculation>
  <scstep>
   <time name="dav">    0.76    0.79</time>
   <time name="total">    0.78    0.81</time>
   <energy>
    <i name="alphaZ">     -0.76953795</i>
    <i name="ewald">   -288.57784073</i>
    <i name="hartreedc">     -0.50369350</i>
    <i name="XCdc">   -105.36127907</i>
    <i name="pawpsdc">    142.21701965</i>
    <i name="pawaedc">    -14.39593217</i>
    <i name="eentropy">     -0.00032239</i>
    <i name="bandstr">     57.82533994</i>
    <i name="atom">    214.15364153</i>
    <i name="e_fr_energy">      4.58739532</i>
    <i name="e_wo_entrp">      4.58771770</i>
    <i name="e_0_energy">      4.58755651</i>
   </energy>
  </scstep>
  <scstep>
   <time name="dav">    0.96    0.96</time>
   <time name="total">    0.96    0.96</time>
   <energy>
    <i name="e_fr_energy">    -14.40101360</i>
    <i name="e_wo_entrp">    -14.40082010</i>
    <i name="e_0_energy">    -14.40091685</i>
   </energy>
  </scstep>
  <scstep>
   <time name="dav">    0.93    0.93</time>
   <time name="total">    0.93    0.93</time>
   <energy>
    <i name="e_fr_energy">    -15.00374604</i>
    <i name="e_wo_entrp">    -15.00349912</i>
    <i name="e_0_energy">    -15.00362258</i>
   </energy>
  </scstep>
  <scstep>
   <time name="dav">    0.91    0.91</time>
   <time name="total">    0.91    0.91</time>
   <energy>
    <i name="e_fr_energy">    -15.00775793</i>
    <i name="e_wo_entrp">    -15.00751216</i>
    <i name="e_0_energy">    -15.00763505</i>
   </energy>
  </scstep>
  <scstep>
   <time name="dav">    0.92    0.92</time>
   <time name="total">    0.96    0.96</time>
   <energy>
    <i name="e_fr_energy">    -15.00780985</i>
    <i name="e_wo_entrp">    -15.00756410</i>
    <i name="e_0_energy">    -15.00768698</i>
   </energy>
  </scstep>
  <scstep>
   <time name="dav">    0.89    0.89</time>
   <time name="total">    0.94    0.94</time>
   <energy>
    <i name="e_fr_energy">    -14.95691466</i>
    <i name="e_wo_entrp">    -14.95665069</i>
    <i name="e_0_energy">    -14.95678268</i>
   </energy>
  </scstep>
  <scstep>
   <time name="dav">    0.84    0.84</time>
   <time name="total">    0.89    0.89</time>
   <energy>
    <i name="e_fr_energy">    -14.92007009</i>
    <i name="e_wo_entrp">    -14.91981190</i>
    <i name="e_0_energy">    -14.91994099</i>
   </energy>
  </scstep>
  <scstep>
   <time name="dav">    0.92    0.92</time>
   <time name="total">    0.97    0.98</time>
   <energy>
    <i name="e_fr_energy">    -14.92007510</i>
    <i name="e_wo_entrp">    -14.91981586</i>
    <i name="e_0_energy">    -14.91994548</i>
   </energy>
  </scstep>
  <scstep>
   <time name="dav">    0.94    0.94</time>
   <time name="total">    0.99    0.99</time>
   <energy>
    <i name="e_fr_energy">    -14.92007777</i>
    <i name="e_wo_entrp">    -14.91981818</i>
    <i name="e_0_energy">    -14.91994797</i>
   </energy>
  </scstep>
  <scstep>
   <time name="dav">    0.94    0.94</time>
   <time name="total">    0.99    0.99</time>
   <energy>
    <i name="e_fr_energy">    -14.92007651</i>
    <i name="e_wo_entrp">    -14.91981691</i>
    <i name="e_0_energy">    -14.91994671</i>
   </energy>
  </scstep>
  <scstep>
   <time name="dav">    0.73    0.74</time>
   <time name="total">    0.79    0.79</time>
   <energy>
    <i name="e_fr_energy">    -14.92007636</i>
    <i name="e_wo_entrp">    -14.91981675</i>
    <i name="e_0_energy">    -14.91994655</i>
   </energy>
  </scstep>
  <scstep>
   <time name="dav">    0.65    0.65</time>
   <time name="total">    0.71    0.71</time>
   <energy>
    <i name="e_fr_energy">    -14.92007639</i>
    <i name="e_wo_entrp">    -14.91981678</i>
    <i name="e_0_energy">    -14.91994659</i>
   </energy>
  </scstep>
  <scstep>
   <time name="dav">    0.60    0.60</time>
   <time name="total">    0.62    0.62</time>
   <energy>
    <i name="alphaZ">     -0.76953795</i>
    <i name="ewald">   -288.57784073</i>
    <i name="hartreedc">     -0.39076247</i>
    <i name="XCdc">   -104.97555373</i>
    <i name="pawpsdc">    142.03907929</i>
    <i name="pawaedc">    -14.23497014</i>
    <i name="eentropy">     -0.00025961</i>
    <i name="bandstr">     37.83612743</i>
    <i name="atom">    214.15364153</i>
    <i name="e_fr_energy">    -14.92007639</i>
    <i name="e_wo_entrp">    -14.91981678</i>
    <i name="e_0_energy">    -14.91994659</i>
   </energy>
  </scstep>
  <structure>
   <crystal>
    <varray name="basis" >
     <v>       4.11805250      0.00000000      0.00000000</v>
     <v>       0.00000000      4.11805250      0.00000000</v>
     <v>       0.00000000      0.00000000      4.11805250</v>
    </varray>
    <i name="volume">     69.83540179</i>
    <varray name="rec_basis" >
     <v>       0.24283323      0.00000000      0.00000000</v>
     <v>       0.00000000      0.24283323      0.00000000</v>
     <v>       0.00000000      0.00000000      0.24283323</v>
    </varray>
   </crystal>
   <varray name="positions" >
    <v>       0.50000000      0.50000000      0.00000000</v>
    <v>       0.50000000      0.00000000      0.50000000</v>
    <v>       0.00000000      0.50000000      0.50000000</v>
    <v>       0.00000000      0.00000000      0.00000000</v>
   </varray>
  </structure>
  <varray name="forces" >
   <v>      -0.00000000      0.00000000      0.00000000</v>
   <v>       0.00000000     -0.00000000      0.00000000</v>
   <v>       0.00000000     -0.00000000     -0.00000000</v>
   <v>       0.00000000     -0.00000000      0.00000000</v>
  </varray>
  <varray name="stress" >
   <v>     -38.57722797      0.00000000     -0.00000000</v>
   <v>       0.00000000    -38.57722797      0.00000000</v>
   <v>      -0.00000000      0.00000000    -38.57722797</v>
  </varray>
  <energy>
   <i name="e_fr_energy">    -14.92007639</i>
   <i name="e_wo_entrp">    -14.91994659</i>
   <i name="e_0_energy">     -0.00025961</i>
  </energy>
  <eigenvalues>
   <array>
    <dimension dim="1">band</dimension>
    <dimension dim="2">kpoint</dimension>
    <dimension dim="3">spin</dimension>
    <field>eigene</field>
    <field>occ</field>
    <set>
     <set comment="spin 1">
      <set comment="kpoint 1">
       <r>  -3.3269  1.0000</r>
       <r>   4.6356  1.0000</r>
       <r>   4.6356  1.0000</r>
       <r>   4.6356  1.0000</r>
       <r>   5.8260  1.0000</r>
       <r>   5.8260  1.0000</r>
       <r>   5.8260  1.0000</r>
       <r>  12.6660  0.0000</r>
       <r>  12.6660  0.0000</r>
       <r>  12.6660  0.0000</r>
       <r>  12.7605  0.0000</r>
       <r>  12.7605  0.0000</r>
       <r>  12.7605  0.0000</r>
       <r>  12.7605  0.0000</r>
       <r>  12.7605  0.0000</r>
       <r>  12.7605  0.0000</r>
      </set>
      <set comment="kpoint 2">
       <r>  -3.2663  1.0000</r>
       <r>   3.7705  1.0000</r>
       <r>   4.6914  1.0000</r>
       <r>   4.6914  1.0000</r>
       <r>   5.8853  1.0000</r>
       <r>   5.8853  1.0000</r>
       <r>   6.7969  1.0000</r>
       <r>  11.4194  0.0000</r>
       <r>  11.4194  0.0000</r>
       <r>  12.3230  0.0000</r>
       <r>  12.3230  0.0000</r>
       <r>  12.7258  0.0000</r>
       <r>  12.8125  0.0000</r>
       <r>  12.8125  0.0000</r>
       <r>  14.1191  0.0000</r>
       <r>  14.1191  0.0000</r>
      </set>
      <set comment="kpoint 3">
       <r>  -3.0846  1.0000</r>
       <r>   2.5993  1.0000</r>
       <r>   4.8589  1.0000</r>
       <r>   4.8589  1.0000</r>
       <r>   6.0628  1.0000</r>
       <r>   6.0628  1.0000</r>
       <r>   8.2857  0.0000</r>
       <r>  10.2395  0.0000</r>
       <r>  10.2395  0.0000</r>
       <r>  11.4354  0.0000</r>
       <r>  11.4354  0.0000</r>
       <r>  12.9049  0.0000</r>
       <r>  12.9686  0.0000</r>
       <r>  12.9686  0.0000</r>
       <r>  15.6345  0.0000</r>
       <r>  15.6345  0.0000</r>
      </set>
      <set comment="kpoint 4">
       <r>  -2.7822  1.0000</r>
       <r>   1.4999  1.0000</r>
       <r>   5.1382  1.0000</r>
       <r>   5.1382  1.0000</r>
       <r>   6.3569  1.0000</r>
       <r>   6.3569  1.0000</r>
       <r>   9.1722  0.0000</r>
       <r>   9.1722  0.0000</r>
       <r>   9.9134  0.0000</r>
       <r>  10.4775  0.0000</r>
       <r>  10.4775  0.0000</r>
       <r>  13.2031  0.0000</r>
       <r>  13.2287  0.0000</r>
       <r>  13.2287  0.0000</r>
       <r>  16.4732  0.0000</r>
       <r>  16.9678  0.0000</r>
      </set>
      <set comment="kpoint 5">
       <r>  -2.3599  1.0000</r>
       <r>   0.5024  1.0000</r>
       <r>   5.5294  1.0000</r>
       <r>   5.5294  1.0000</r>
       <r>   6.7632  1.0000</r>
       <r>   6.7632  1.0000</r>
       <r>   8.2180  0.0000</r>
       <r>   8.2180  0.0000</r>
       <r>   9.5659  0.0000</r>
       <r>   9.5659  0.0000</r>
       <r>  11.6486  0.0000</r>
       <r>  13.5931  0.0000</r>
       <r>  13.5931  0.0000</r>
       <r>  13.6196  0.0000</r>
       <r>  16.0893  0.0000</r>
       <r>  16.0893  0.0000</r>
      </set>
      <set comment="kpoint 6">
       <r>  -1.8187  1.0000</r>
       <r>  -0.3855  1.0000</r>
       <r>   6.0327  1.0000</r>
       <r>   6.0327  1.0000</r>
       <r>   7.2679  1.0000</r>
       <r>   7.2679  1.0000</r>
       <r>   7.3768  1.0000</r>
       <r>   7.3768  1.0000</r>
       <r>   8.7499  0.0000</r>
       <r>   8.7499  0.0000</r>
       <r>  13.4803  0.0000</r>
       <r>  14.0617  0.0000</r>
       <r>  14.0617  0.0000</r>
       <r>  14.1531  0.0000</r>
       <r>  15.3106  0.0000</r>
       <r>  15.3106  0.0000</r>
      </set>
      <set comment="kpoint 7">
       <r>  -1.1600  1.0000</r>
       <r>  -1.1600  1.0000</r>
       <r>   6.6485  1.0000</r>
       <r>   6.6485  1.0000</r>
       <r>   6.6485  1.0000</r>
       <r>   6.6485  1.0000</r>
       <r>   7.6899  0.0000</r>
       <r>   7.6899  0.0000</r>
       <r>   8.2230  0.0000</r>
       <r>   8.2230  0.0000</r>
       <r>  14.6343  0.0000</r>
       <r>  14.6343  0.0000</r>
       <r>  14.6343  0.0000</r>
       <r>  14.6343  0.0000</r>
       <r>  14.8015  0.0000</r>
       <r>  14.8015  0.0000</r>
      </set>
      <set comment="kpoint 8">
       <r>  -3.2057  1.0000</r>
       <r>   3.8279  1.0000</r>
       <r>   3.8279  1.0000</r>
       <r>   4.7472  1.0000</r>
       <r>   5.9445  1.0000</r>
       <r>   6.8546  1.0000</r>
       <r>   6.8546  1.0000</r>
       <r>  10.5608  0.0000</r>
       <r>  11.4755  0.0000</r>
       <r>  11.4755  0.0000</r>
       <r>  12.3761  0.0000</r>
       <r>  12.3761  0.0000</r>
       <r>  12.8651  0.0000</r>
       <r>  14.0372  0.0000</r>
       <r>  14.1747  0.0000</r>
       <r>  14.1747  0.0000</r>
      </set>
      <set comment="kpoint 9">
       <r>  -3.0241  1.0000</r>
       <r>   2.6574  1.0000</r>
       <r>   3.9998  1.0000</r>
       <r>   4.9147  1.0000</r>
       <r>   6.1215  1.0000</r>
       <r>   7.0272  1.0000</r>
       <r>   8.3421  0.0000</r>
       <r>   9.4344  0.0000</r>
       <r>  10.2955  0.0000</r>
       <r>  11.4903  0.0000</r>
       <r>  11.6437  0.0000</r>
       <r>  12.2861  0.0000</r>
       <r>  12.5355  0.0000</r>
       <r>  14.3415  0.0000</r>
       <r>  15.1202  0.0000</r>
       <r>  15.6900  0.0000</r>
      </set>
      <set comment="kpoint 10">
       <r>  -2.7218  1.0000</r>
       <r>   1.5586  1.0000</r>
       <r>   4.2862  1.0000</r>
       <r>   5.1940  1.0000</r>
       <r>   6.4136  1.0000</r>
       <r>   7.3129  1.0000</r>
       <r>   8.3827  0.0000</r>
       <r>   9.2283  0.0000</r>
       <r>   9.9682  0.0000</r>
       <r>  10.5345  0.0000</r>
       <r>  11.3561  0.0000</r>
       <r>  11.9238  0.0000</r>
       <r>  12.8010  0.0000</r>
       <r>  14.6194  0.0000</r>
       <r>  15.9008  0.0000</r>
       <r>  16.5444  0.0000</r>
      </set>
      <set comment="kpoint 11">
       <r>  -2.2997  1.0000</r>
       <r>   0.5614  1.0000</r>
       <r>   4.6862  1.0000</r>
       <r>   5.5853  1.0000</r>
       <r>   6.8048  1.0000</r>
       <r>   7.4465  0.0323</r>
       <r>   7.7062  0.0000</r>
       <r>   8.2741  0.0000</r>
       <r>   9.6277  0.0000</r>
       <r>  10.4522  0.0000</r>
       <r>  11.7003  0.0000</r>
       <r>  12.3152  0.0000</r>
       <r>  13.1731  0.0000</r>
       <r>  14.9740  0.0000</r>
       <r>  15.0081  0.0000</r>
       <r>  15.6764  0.0000</r>
      </set>
      <set comment="kpoint 12">
       <r>  -1.7587  1.0000</r>
       <r>  -0.3261  1.0000</r>
       <r>   5.1992  1.0000</r>
       <r>   6.0887  1.0000</r>
       <r>   6.5485  1.0000</r>
       <r>   7.3736  1.0000</r>
       <r>   7.4329  0.5308</r>
       <r>   8.1634  0.0000</r>
       <r>   8.8497  0.0000</r>
       <r>   9.6324  0.0000</r>
       <r>  12.8173  0.0000</r>
       <r>  13.4938  0.0000</r>
       <r>  13.6840  0.0000</r>
       <r>  14.1487  0.0000</r>
       <r>  14.8986  0.0000</r>
       <r>  15.5071  0.0000</r>
      </set>
      <set comment="kpoint 13">
       <r>  -1.1003  1.0000</r>
       <r>  -1.1003  1.0000</r>
       <r>   5.8232  1.0000</r>
       <r>   5.8232  1.0000</r>
       <r>   6.7044  1.0000</r>
       <r>   6.7044  1.0000</r>
       <r>   7.9646  0.0000</r>
       <r>   7.9646  0.0000</r>
       <r>   8.9348  0.0000</r>
       <r>   8.9348  0.0000</r>
       <r>  13.4290  0.0000</r>
       <r>  13.4290  0.0000</r>
       <r>  14.2167  0.0000</r>
       <r>  14.2167  0.0000</r>
       <r>  15.4537  0.0000</r>
       <r>  15.4537  0.0000</r>
      </set>
      <set comment="kpoint 14">
       <r>  -2.8426  1.0000</r>
       <r>   2.8317  1.0000</r>
       <r>   2.8317  1.0000</r>
       <r>   5.0823  1.0000</r>
       <r>   6.2959  1.0000</r>
       <r>   8.3178  0.0000</r>
       <r>   8.5106  0.0000</r>
       <r>   8.5106  0.0000</r>
       <r>  10.4637  0.0000</r>
       <r>  10.4637  0.0000</r>
       <r>  11.6551  0.0000</r>
       <r>  11.6551  0.0000</r>
       <r>  13.1790  0.0000</r>
       <r>  14.6738  0.0000</r>
       <r>  15.7913  0.0000</r>
       <r>  15.8561  0.0000</r>
      </set>
      <set comment="kpoint 15">
       <r>  -2.5408  1.0000</r>
       <r>   1.7344  1.0000</r>
       <r>   3.1219  1.0000</r>
       <r>   5.3617  1.0000</r>
       <r>   6.5708  1.0000</r>
       <r>   7.2804  1.0000</r>
       <r>   8.7869  0.0000</r>
       <r>   9.3965  0.0000</r>
       <r>  10.1302  0.0000</r>
       <r>  10.7074  0.0000</r>
       <r>  10.7440  0.0000</r>
       <r>  11.9311  0.0000</r>
       <r>  12.6994  0.0000</r>
       <r>  14.7505  0.0000</r>
       <r>  15.6967  0.0000</r>
       <r>  15.7457  0.0000</r>
      </set>
      <set comment="kpoint 16">
       <r>  -2.1192  1.0000</r>
       <r>   0.7385  1.0000</r>
       <r>   3.5272  1.0000</r>
       <r>   5.7530  1.0000</r>
       <r>   6.2585  1.0000</r>
       <r>   7.0423  1.0000</r>
       <r>   8.4422  0.0000</r>
       <r>   9.1373  0.0000</r>
       <r>   9.8395  0.0000</r>
       <r>  11.1360  0.0000</r>
       <r>  11.8300  0.0000</r>
       <r>  11.8618  0.0000</r>
       <r>  12.3406  0.0000</r>
       <r>  13.8112  0.0000</r>
       <r>  14.8341  0.0000</r>
       <r>  16.5187  0.0000</r>
      </set>
      <set comment="kpoint 17">
       <r>  -1.5789  1.0000</r>
       <r>  -0.1479  1.0000</r>
       <r>   4.0467  1.0000</r>
       <r>   5.4211  1.0000</r>
       <r>   6.2565  1.0000</r>
       <r>   7.5472  0.0000</r>
       <r>   7.6009  0.0000</r>
       <r>   8.8786  0.0000</r>
       <r>   9.7708  0.0000</r>
       <r>  11.0620  0.0000</r>
       <r>  11.6394  0.0000</r>
       <r>  12.7620  0.0000</r>
       <r>  12.9782  0.0000</r>
       <r>  13.7175  0.0000</r>
       <r>  14.0522  0.0000</r>
       <r>  17.0126  0.0000</r>
      </set>
      <set comment="kpoint 18">
       <r>  -0.9212  1.0000</r>
       <r>  -0.9212  1.0000</r>
       <r>   4.6790  1.0000</r>
       <r>   4.6790  1.0000</r>
       <r>   6.8724  1.0000</r>
       <r>   6.8724  1.0000</r>
       <r>   8.1720  0.0000</r>
       <r>   8.1720  0.0000</r>
       <r>  10.3535  0.0000</r>
       <r>  10.3535  0.0000</r>
       <r>  12.2538  0.0000</r>
       <r>  12.2538  0.0000</r>
       <r>  13.3618  0.0000</r>
       <r>  13.3618  0.0000</r>
       <r>  15.6109  0.0000</r>
       <r>  15.6109  0.0000</r>
      </set>
      <set comment="kpoint 19">
       <r>  -2.2395  1.0000</r>
       <r>   2.0271  1.0000</r>
       <r>   2.0271  1.0000</r>
       <r>   5.6411  1.0000</r>
       <r>   6.1543  1.0000</r>
       <r>   6.9279  1.0000</r>
       <r>   9.6768  0.0000</r>
       <r>   9.6768  0.0000</r>
       <r>  10.3693  0.0000</r>
       <r>  10.3693  0.0000</r>
       <r>  11.0217  0.0000</r>
       <r>  11.0217  0.0000</r>
       <r>  13.6985  0.0000</r>
       <r>  13.7025  0.0000</r>
       <r>  14.7874  0.0000</r>
       <r>  15.3360  0.0000</r>
      </set>
      <set comment="kpoint 20">
       <r>  -1.8188  1.0000</r>
       <r>   1.0333  1.0000</r>
       <r>   2.4360  1.0000</r>
       <r>   5.2055  1.0000</r>
       <r>   6.0326  1.0000</r>
       <r>   7.3193  1.0000</r>
       <r>   8.7224  0.0000</r>
       <r>  10.0019  0.0000</r>
       <r>  10.0690  0.0000</r>
       <r>  10.8695  0.0000</r>
       <r>  11.3129  0.0000</r>
       <r>  12.1889  0.0000</r>
       <r>  12.7526  0.0000</r>
       <r>  13.3442  0.0000</r>
       <r>  13.9209  0.0000</r>
       <r>  16.4762  0.0000</r>
      </set>
      <set comment="kpoint 21">
       <r>  -1.2795  1.0000</r>
       <r>   0.1486  1.0000</r>
       <r>   2.9601  1.0000</r>
       <r>   4.3479  1.0000</r>
       <r>   6.5363  1.0000</r>
       <r>   7.8380  0.0000</r>
       <r>   7.8810  0.0000</r>
       <r>   9.1973  0.0000</r>
       <r>  10.5731  0.0000</r>
       <r>  11.3407  0.0000</r>
       <r>  11.8295  0.0000</r>
       <r>  11.9155  0.0000</r>
       <r>  12.6207  0.0000</r>
       <r>  13.1311  0.0000</r>
       <r>  13.9808  0.0000</r>
       <r>  17.7882  0.0000</r>
      </set>
      <set comment="kpoint 22">
       <r>  -0.6232  1.0000</r>
       <r>  -0.6232  1.0000</r>
       <r>   3.5981  1.0000</r>
       <r>   3.5981  1.0000</r>
       <r>   7.1523  1.0000</r>
       <r>   7.1523  1.0000</r>
       <r>   8.4672  0.0000</r>
       <r>   8.4672  0.0000</r>
       <r>  11.1888  0.0000</r>
       <r>  11.1888  0.0000</r>
       <r>  11.9348  0.0000</r>
       <r>  11.9348  0.0000</r>
       <r>  12.4322  0.0000</r>
       <r>  12.4322  0.0000</r>
       <r>  15.8645  0.0000</r>
       <r>  15.8645  0.0000</r>
      </set>
      <set comment="kpoint 23">
       <r>  -1.3992  1.0000</r>
       <r>   1.4450  1.0000</r>
       <r>   1.4450  1.0000</r>
       <r>   4.2359  1.0000</r>
       <r>   6.4243  1.0000</r>
       <r>   7.7240  0.0000</r>
       <r>   9.1148  0.0000</r>
       <r>   9.1148  0.0000</r>
       <r>  10.4249  0.0000</r>
       <r>  10.4249  0.0000</r>
       <r>  11.8028  0.0000</r>
       <r>  12.5542  0.0000</r>
       <r>  12.5542  0.0000</r>
       <r>  13.0467  0.0000</r>
       <r>  14.4357  0.0000</r>
       <r>  16.1779  0.0000</r>
      </set>
      <set comment="kpoint 24">
       <r>  -0.8615  1.0000</r>
       <r>   0.5628  1.0000</r>
       <r>   1.9728  1.0000</r>
       <r>   3.3706  1.0000</r>
       <r>   6.9282  1.0000</r>
       <r>   8.2431  0.0000</r>
       <r>   8.2732  0.0000</r>
       <r>   9.6020  0.0000</r>
       <r>   9.6191  0.0000</r>
       <r>  10.9325  0.0000</r>
       <r>  10.9635  0.0000</r>
       <r>  12.2483  0.0000</r>
       <r>  13.0339  0.0000</r>
       <r>  14.2056  0.0000</r>
       <r>  14.3471  0.0000</r>
       <r>  17.3923  0.0000</r>
      </set>
      <set comment="kpoint 25">
       <r>  -0.2069  1.0000</r>
       <r>  -0.2069  1.0000</r>
       <r>   2.6153  1.0000</r>
       <r>   2.6153  1.0000</r>
       <r>   7.5444  0.0000</r>
       <r>   7.5444  0.0000</r>
       <r>   8.8712  0.0000</r>
       <r>   8.8712  0.0000</r>
       <r>  10.2354  0.0000</r>
       <r>  10.2354  0.0000</r>
       <r>  11.5410  0.0000</r>
       <r>  11.5410  0.0000</r>
       <r>  13.6033  0.0000</r>
       <r>  13.6033  0.0000</r>
       <r>  16.1998  0.0000</r>
       <r>  16.1998  0.0000</r>
      </set>
      <set comment="kpoint 26">
       <r>  -0.3256  1.0000</r>
       <r>   1.0936  1.0000</r>
       <r>   1.0936  1.0000</r>
       <r>   2.4998  1.0000</r>
       <r>   7.4322  0.5647</r>
       <r>   8.7599  0.0000</r>
       <r>   8.7776  0.0000</r>
       <r>   8.7776  0.0000</r>
       <r>  10.1118  0.0000</r>
       <r>  10.1118  0.0000</r>
       <r>  10.1229  0.0000</r>
       <r>  11.4413  0.0000</r>
       <r>  14.7993  0.0000</r>
       <r>  14.7993  0.0000</r>
       <r>  15.3778  0.0000</r>
       <r>  17.2190  0.0000</r>
      </set>
      <set comment="kpoint 27">
       <r>   0.3267  1.0000</r>
       <r>   0.3267  1.0000</r>
       <r>   1.7399  1.0000</r>
       <r>   1.7399  1.0000</r>
       <r>   8.0487  0.0000</r>
       <r>   8.0487  0.0000</r>
       <r>   9.3846  0.0000</r>
       <r>   9.3846  0.0000</r>
       <r>   9.3942  0.0000</r>
       <r>   9.3942  0.0000</r>
       <r>  10.7264  0.0000</r>
       <r>  10.7264  0.0000</r>
       <r>  15.2779  0.0000</r>
       <r>  15.2779  0.0000</r>
       <r>  16.5545  0.0000</r>
       <r>  16.5545  0.0000</r>
      </set>
      <set comment="kpoint 28">
       <r>   0.9762  1.0000</r>
       <r>   0.9762  1.0000</r>
       <r>   0.9762  1.0000</r>
       <r>   0.9762  1.0000</r>
       <r>   8.6653  0.0000</r>
       <r>   8.6653  0.0000</r>
       <r>   8.6653  0.0000</r>
       <r>   8.6653  0.0000</r>
       <r>  10.0047  0.0000</r>
       <r>  10.0047  0.0000</r>
       <r>  10.0047  0.0000</r>
       <r>  10.0047  0.0000</r>
       <r>  16.5259  0.0000</r>
       <r>  16.5259  0.0000</r>
       <r>  16.5259  0.0000</r>
       <r>  16.5259  0.0000</r>
      </set>
      <set comment="kpoint 29">
       <r>  -3.1451  1.0000</r>
       <r>   3.8852  1.0000</r>
       <r>   3.8852  1.0000</r>
       <r>   3.8852  1.0000</r>
       <r>   6.9121  1.0000</r>
       <r>   6.9121  1.0000</r>
       <r>   6.9121  1.0000</r>
       <r>  10.6169  0.0000</r>
       <r>  10.6169  0.0000</r>
       <r>  10.6169  0.0000</r>
       <r>  12.9171  0.0000</r>
       <r>  12.9171  0.0000</r>
       <r>  12.9171  0.0000</r>
       <r>  14.0946  0.0000</r>
       <r>  14.0946  0.0000</r>
       <r>  14.0946  0.0000</r>
      </set>
      <set comment="kpoint 30">
       <r>  -2.9636  1.0000</r>
       <r>   2.7156  1.0000</r>
       <r>   4.0571  1.0000</r>
       <r>   4.0571  1.0000</r>
       <r>   7.0839  1.0000</r>
       <r>   7.0839  1.0000</r>
       <r>   8.3980  0.0000</r>
       <r>   9.4914  0.0000</r>
       <r>   9.4914  0.0000</r>
       <r>  10.7855  0.0000</r>
       <r>  12.3401  0.0000</r>
       <r>  12.3401  0.0000</r>
       <r>  13.0733  0.0000</r>
       <r>  14.2666  0.0000</r>
       <r>  15.1761  0.0000</r>
       <r>  15.1761  0.0000</r>
      </set>
      <set comment="kpoint 31">
       <r>  -2.6614  1.0000</r>
       <r>   1.6172  1.0000</r>
       <r>   4.3433  1.0000</r>
       <r>   4.3433  1.0000</r>
       <r>   7.3650  1.0000</r>
       <r>   7.3650  1.0000</r>
       <r>   8.4434  0.0000</r>
       <r>   8.4434  0.0000</r>
       <r>  10.0204  0.0000</r>
       <r>  11.0682  0.0000</r>
       <r>  11.4116  0.0000</r>
       <r>  11.4116  0.0000</r>
       <r>  13.3336  0.0000</r>
       <r>  14.5524  0.0000</r>
       <r>  15.0205  0.0000</r>
       <r>  16.7159  0.0000</r>
      </set>
      <set comment="kpoint 32">
       <r>  -2.2395  1.0000</r>
       <r>   0.6205  1.0000</r>
       <r>   4.7432  1.0000</r>
       <r>   4.7432  1.0000</r>
       <r>   7.4378  0.2648</r>
       <r>   7.4378  0.2648</r>
       <r>   7.8155  0.0000</r>
       <r>   7.8155  0.0000</r>
       <r>  10.5096  0.0000</r>
       <r>  10.5096  0.0000</r>
       <r>  11.4319  0.0000</r>
       <r>  11.7797  0.0000</r>
       <r>  13.6981  0.0000</r>
       <r>  14.0992  0.0000</r>
       <r>  14.9503  0.0000</r>
       <r>  16.1954  0.0000</r>
      </set>
      <set comment="kpoint 33">
       <r>  -1.6988  1.0000</r>
       <r>  -0.2667  1.0000</r>
       <r>   5.2553  1.0000</r>
       <r>   5.2553  1.0000</r>
       <r>   6.6215  1.0000</r>
       <r>   6.6215  1.0000</r>
       <r>   8.2879  0.0000</r>
       <r>   8.2879  0.0000</r>
       <r>   9.6960  0.0000</r>
       <r>   9.6960  0.0000</r>
       <r>  11.9484  0.0000</r>
       <r>  13.2774  0.0000</r>
       <r>  13.5916  0.0000</r>
       <r>  14.1669  0.0000</r>
       <r>  15.4164  0.0000</r>
       <r>  15.4576  0.0000</r>
      </set>
      <set comment="kpoint 34">
       <r>  -1.0405  1.0000</r>
       <r>  -1.0405  1.0000</r>
       <r>   5.8219  1.0000</r>
       <r>   5.8219  1.0000</r>
       <r>   5.9454  1.0000</r>
       <r>   5.9454  1.0000</r>
       <r>   8.7425  0.0000</r>
       <r>   8.7425  0.0000</r>
       <r>   9.1343  0.0000</r>
       <r>   9.1343  0.0000</r>
       <r>  12.5598  0.0000</r>
       <r>  12.5598  0.0000</r>
       <r>  14.7398  0.0000</r>
       <r>  14.7398  0.0000</r>
       <r>  15.5012  0.0000</r>
       <r>  15.5012  0.0000</r>
      </set>
      <set comment="kpoint 35">
       <r>  -2.7822  1.0000</r>
       <r>   2.8898  1.0000</r>
       <r>   2.8898  1.0000</r>
       <r>   4.2289  1.0000</r>
       <r>   7.2500  1.0000</r>
       <r>   8.3792  0.0000</r>
       <r>   8.5627  0.0000</r>
       <r>   8.5627  0.0000</r>
       <r>   9.6646  0.0000</r>
       <r>   9.6646  0.0000</r>
       <r>  12.5020  0.0000</r>
       <r>  12.5020  0.0000</r>
       <r>  13.2311  0.0000</r>
       <r>  14.7314  0.0000</r>
       <r>  14.9417  0.0000</r>
       <r>  15.3438  0.0000</r>
      </set>
      <set comment="kpoint 36">
       <r>  -2.4805  1.0000</r>
       <r>   1.7930  1.0000</r>
       <r>   3.1798  1.0000</r>
       <r>   4.5147  1.0000</r>
       <r>   7.2520  1.0000</r>
       <r>   7.6082  0.0000</r>
       <r>   8.5602  0.0000</r>
       <r>   8.8949  0.0000</r>
       <r>   9.9008  0.0000</r>
       <r>  10.2295  0.0000</r>
       <r>  11.5785  0.0000</r>
       <r>  12.7534  0.0000</r>
       <r>  12.7717  0.0000</r>
       <r>  13.9200  0.0000</r>
       <r>  15.6222  0.0000</r>
       <r>  15.8011  0.0000</r>
      </set>
      <set comment="kpoint 37">
       <r>  -2.0591  1.0000</r>
       <r>   0.7975  1.0000</r>
       <r>   3.5850  1.0000</r>
       <r>   4.9134  1.0000</r>
       <r>   6.3368  1.0000</r>
       <r>   7.6382  0.0000</r>
       <r>   7.9652  0.0000</r>
       <r>   9.2495  0.0000</r>
       <r>  10.3212  0.0000</r>
       <r>  10.6850  0.0000</r>
       <r>  11.9171  0.0000</r>
       <r>  11.9279  0.0000</r>
       <r>  12.9908  0.0000</r>
       <r>  13.1501  0.0000</r>
       <r>  15.6773  0.0000</r>
       <r>  16.0095  0.0000</r>
      </set>
      <set comment="kpoint 38">
       <r>  -1.5190  1.0000</r>
       <r>  -0.0886  1.0000</r>
       <r>   4.1042  1.0000</r>
       <r>   5.3853  1.0000</r>
       <r>   5.5275  1.0000</r>
       <r>   6.7941  1.0000</r>
       <r>   8.4722  0.0000</r>
       <r>   9.6243  0.0000</r>
       <r>   9.9894  0.0000</r>
       <r>  10.8271  0.0000</r>
       <r>  11.1190  0.0000</r>
       <r>  12.1632  0.0000</r>
       <r>  13.5847  0.0000</r>
       <r>  13.7949  0.0000</r>
       <r>  14.8940  0.0000</r>
       <r>  16.5023  0.0000</r>
      </set>
      <set comment="kpoint 39">
       <r>  -0.8615  1.0000</r>
       <r>  -0.8615  1.0000</r>
       <r>   4.7355  1.0000</r>
       <r>   4.7355  1.0000</r>
       <r>   6.0591  1.0000</r>
       <r>   6.0591  1.0000</r>
       <r>   9.0830  0.0000</r>
       <r>   9.0830  0.0000</r>
       <r>  10.4161  0.0000</r>
       <r>  10.4161  0.0000</r>
       <r>  11.4412  0.0000</r>
       <r>  11.4412  0.0000</r>
       <r>  14.2056  0.0000</r>
       <r>  14.2056  0.0000</r>
       <r>  15.6621  0.0000</r>
       <r>  15.6621  0.0000</r>
      </set>
      <set comment="kpoint 40">
       <r>  -2.1794  1.0000</r>
       <r>   2.0856  1.0000</r>
       <r>   2.0856  1.0000</r>
       <r>   4.7993  1.0000</r>
       <r>   6.2334  1.0000</r>
       <r>   7.8529  0.0000</r>
       <r>   8.8747  0.0000</r>
       <r>   8.8747  0.0000</r>
       <r>  10.4751  0.0000</r>
       <r>  10.4751  0.0000</r>
       <r>  11.8590  0.0000</r>
       <r>  11.8590  0.0000</r>
       <r>  12.8892  0.0000</r>
       <r>  13.7547  0.0000</r>
       <r>  15.3926  0.0000</r>
       <r>  15.6580  0.0000</r>
      </set>
      <set comment="kpoint 41">
       <r>  -1.7588  1.0000</r>
       <r>   1.0922  1.0000</r>
       <r>   2.4943  1.0000</r>
       <r>   5.1619  1.0000</r>
       <r>   5.3078  1.0000</r>
       <r>   7.9240  0.0000</r>
       <r>   8.2497  0.0000</r>
       <r>   9.2717  0.0000</r>
       <r>  10.7455  0.0000</r>
       <r>  11.0765  0.0000</r>
       <r>  11.9534  0.0000</r>
       <r>  12.0862  0.0000</r>
       <r>  12.3516  0.0000</r>
       <r>  13.3979  0.0000</r>
       <r>  14.7923  0.0000</r>
       <r>  16.5304  0.0000</r>
      </set>
      <set comment="kpoint 42">
       <r>  -1.2198  1.0000</r>
       <r>   0.2078  1.0000</r>
       <r>   3.0182  1.0000</r>
       <r>   4.4046  1.0000</r>
       <r>   5.7184  1.0000</r>
       <r>   7.0783  1.0000</r>
       <r>   8.7605  0.0000</r>
       <r>   9.7783  0.0000</r>
       <r>  10.0953  0.0000</r>
       <r>  11.1207  0.0000</r>
       <r>  11.4016  0.0000</r>
       <r>  12.6757  0.0000</r>
       <r>  12.7054  0.0000</r>
       <r>  14.0031  0.0000</r>
       <r>  14.0355  0.0000</r>
       <r>  17.8362  0.0000</r>
      </set>
      <set comment="kpoint 43">
       <r>  -0.5636  1.0000</r>
       <r>  -0.5636  1.0000</r>
       <r>   3.6559  1.0000</r>
       <r>   3.6559  1.0000</r>
       <r>   6.3422  1.0000</r>
       <r>   6.3422  1.0000</r>
       <r>   9.3792  0.0000</r>
       <r>   9.3792  0.0000</r>
       <r>  10.3949  0.0000</r>
       <r>  10.3949  0.0000</r>
       <r>  11.9910  0.0000</r>
       <r>  11.9910  0.0000</r>
       <r>  13.3062  0.0000</r>
       <r>  13.3062  0.0000</r>
       <r>  15.9163  0.0000</r>
       <r>  15.9163  0.0000</r>
      </set>
      <set comment="kpoint 44">
       <r>  -1.3394  1.0000</r>
       <r>   1.5038  1.0000</r>
       <r>   1.5038  1.0000</r>
       <r>   4.2928  1.0000</r>
       <r>   5.6046  1.0000</r>
       <r>   8.3203  0.0000</r>
       <r>   8.3203  0.0000</r>
       <r>   8.6489  0.0000</r>
       <r>  11.0124  0.0000</r>
       <r>  11.3115  0.0000</r>
       <r>  11.3115  0.0000</r>
       <r>  12.6125  0.0000</r>
       <r>  12.6125  0.0000</r>
       <r>  13.9220  0.0000</r>
       <r>  14.4880  0.0000</r>
       <r>  16.2326  0.0000</r>
      </set>
      <set comment="kpoint 45">
       <r>  -0.8018  1.0000</r>
       <r>   0.6218  1.0000</r>
       <r>   2.0313  1.0000</r>
       <r>   3.4286  1.0000</r>
       <r>   6.1153  1.0000</r>
       <r>   7.4751  0.0000</r>
       <r>   8.8282  0.0000</r>
       <r>   9.1595  0.0000</r>
       <r>  10.1758  0.0000</r>
       <r>  10.4995  0.0000</r>
       <r>  11.8177  0.0000</r>
       <r>  13.0891  0.0000</r>
       <r>  13.1261  0.0000</r>
       <r>  14.2590  0.0000</r>
       <r>  14.4009  0.0000</r>
       <r>  17.4442  0.0000</r>
      </set>
      <set comment="kpoint 46">
       <r>  -0.1475  1.0000</r>
       <r>  -0.1475  1.0000</r>
       <r>   2.6736  1.0000</r>
       <r>   2.6736  1.0000</r>
       <r>   6.7395  1.0000</r>
       <r>   6.7395  1.0000</r>
       <r>   9.4470  0.0000</r>
       <r>   9.4470  0.0000</r>
       <r>   9.7782  0.0000</r>
       <r>   9.7782  0.0000</r>
       <r>  12.4222  0.0000</r>
       <r>  12.4222  0.0000</r>
       <r>  13.6576  0.0000</r>
       <r>  13.6576  0.0000</r>
       <r>  16.2517  0.0000</r>
       <r>  16.2517  0.0000</r>
      </set>
      <set comment="kpoint 47">
       <r>  -0.2662  1.0000</r>
       <r>   1.1525  1.0000</r>
       <r>   1.1525  1.0000</r>
       <r>   2.5581  1.0000</r>
       <r>   6.6263  1.0000</r>
       <r>   7.9843  0.0000</r>
       <r>   7.9843  0.0000</r>
       <r>   9.3361  0.0000</r>
       <r>   9.6686  0.0000</r>
       <r>  11.0043  0.0000</r>
       <r>  11.0043  0.0000</r>
       <r>  12.3233  0.0000</r>
       <r>  14.8527  0.0000</r>
       <r>  14.8527  0.0000</r>
       <r>  15.4302  0.0000</r>
       <r>  17.2703  0.0000</r>
      </set>
      <set comment="kpoint 48">
       <r>   0.3859  1.0000</r>
       <r>   0.3859  1.0000</r>
       <r>   1.7986  1.0000</r>
       <r>   1.7986  1.0000</r>
       <r>   7.2497  1.0000</r>
       <r>   7.2497  1.0000</r>
       <r>   8.6049  0.0000</r>
       <r>   8.6049  0.0000</r>
       <r>  10.2851  0.0000</r>
       <r>  10.2851  0.0000</r>
       <r>  11.6134  0.0000</r>
       <r>  11.6134  0.0000</r>
       <r>  15.3309  0.0000</r>
       <r>  15.3309  0.0000</r>
       <r>  16.6066  0.0000</r>
       <r>  16.6066  0.0000</r>
      </set>
      <set comment="kpoint 49">
       <r>   1.0351  1.0000</r>
       <r>   1.0351  1.0000</r>
       <r>   1.0351  1.0000</r>
       <r>   1.0351  1.0000</r>
       <r>   7.8719  0.0000</r>
       <r>   7.8719  0.0000</r>
       <r>   7.8719  0.0000</r>
       <r>   7.8719  0.0000</r>
       <r>  10.8982  0.0000</r>
       <r>  10.8982  0.0000</r>
       <r>  10.8982  0.0000</r>
       <r>  10.8982  0.0000</r>
       <r>  16.5784  0.0000</r>
       <r>  16.5784  0.0000</r>
       <r>  16.5784  0.0000</r>
       <r>  16.5784  0.0000</r>
      </set>
      <set comment="kpoint 50">
       <r>  -2.6011  1.0000</r>
       <r>   3.0639  1.0000</r>
       <r>   3.0639  1.0000</r>
       <r>   3.0639  1.0000</r>
       <r>   8.4794  0.0000</r>
       <r>   8.4794  0.0000</r>
       <r>   8.4794  0.0000</r>
       <r>   8.8003  0.0000</r>
       <r>   8.8003  0.0000</r>
       <r>   8.8003  0.0000</r>
       <r>  13.3875  0.0000</r>
       <r>  13.3875  0.0000</r>
       <r>  13.3875  0.0000</r>
       <r>  13.8478  0.0000</r>
       <r>  14.9037  0.0000</r>
       <r>  14.9037  0.0000</r>
      </set>
      <set comment="kpoint 51">
       <r>  -2.2998  1.0000</r>
       <r>   1.9686  1.0000</r>
       <r>   3.3536  1.0000</r>
       <r>   3.3536  1.0000</r>
       <r>   7.4668  0.0000</r>
       <r>   7.4668  0.0000</r>
       <r>   8.8069  0.0000</r>
       <r>   9.0399  0.0000</r>
       <r>   9.0399  0.0000</r>
       <r>  10.3757  0.0000</r>
       <r>  12.8207  0.0000</r>
       <r>  12.9152  0.0000</r>
       <r>  12.9152  0.0000</r>
       <r>  13.6481  0.0000</r>
       <r>  15.1889  0.0000</r>
       <r>  15.9670  0.0000</r>
      </set>
      <set comment="kpoint 52">
       <r>  -1.8788  1.0000</r>
       <r>   0.9744  1.0000</r>
       <r>   3.7582  1.0000</r>
       <r>   3.7582  1.0000</r>
       <r>   6.5112  1.0000</r>
       <r>   6.5112  1.0000</r>
       <r>   9.2053  0.0000</r>
       <r>   9.4297  0.0000</r>
       <r>   9.4297  0.0000</r>
       <r>  11.8869  0.0000</r>
       <r>  12.0833  0.0000</r>
       <r>  12.0833  0.0000</r>
       <r>  12.0983  0.0000</r>
       <r>  14.0131  0.0000</r>
       <r>  15.5835  0.0000</r>
       <r>  16.5135  0.0000</r>
      </set>
      <set comment="kpoint 53">
       <r>  -1.3394  1.0000</r>
       <r>   0.0893  1.0000</r>
       <r>   4.2761  1.0000</r>
       <r>   4.2761  1.0000</r>
       <r>   5.6597  1.0000</r>
       <r>   5.6597  1.0000</r>
       <r>   9.7126  0.0000</r>
       <r>   9.9257  0.0000</r>
       <r>   9.9257  0.0000</r>
       <r>  11.0551  0.0000</r>
       <r>  11.2926  0.0000</r>
       <r>  11.2926  0.0000</r>
       <r>  13.9163  0.0000</r>
       <r>  14.4826  0.0000</r>
       <r>  15.7337  0.0000</r>
       <r>  16.0816  0.0000</r>
      </set>
      <set comment="kpoint 54">
       <r>  -0.6827  1.0000</r>
       <r>  -0.6827  1.0000</r>
       <r>   4.8447  1.0000</r>
       <r>   4.8447  1.0000</r>
       <r>   4.9795  1.0000</r>
       <r>   4.9795  1.0000</r>
       <r>  10.3296  0.0000</r>
       <r>  10.3296  0.0000</r>
       <r>  10.3956  0.0000</r>
       <r>  10.3956  0.0000</r>
       <r>  10.7219  0.0000</r>
       <r>  10.7219  0.0000</r>
       <r>  15.0562  0.0000</r>
       <r>  15.0562  0.0000</r>
       <r>  15.8140  0.0000</r>
       <r>  15.8140  0.0000</r>
      </set>
      <set comment="kpoint 55">
       <r>  -1.9990  1.0000</r>
       <r>   2.2609  1.0000</r>
       <r>   2.2609  1.0000</r>
       <r>   3.6427  1.0000</r>
       <r>   6.4082  1.0000</r>
       <r>   7.7546  0.0000</r>
       <r>   7.7546  0.0000</r>
       <r>   9.3207  0.0000</r>
       <r>  10.6516  0.0000</r>
       <r>  10.6516  0.0000</r>
       <r>  11.7870  0.0000</r>
       <r>  13.1847  0.0000</r>
       <r>  13.1847  0.0000</r>
       <r>  13.9114  0.0000</r>
       <r>  15.5617  0.0000</r>
       <r>  16.2415  0.0000</r>
      </set>
      <set comment="kpoint 56">
       <r>  -1.5789  1.0000</r>
       <r>   1.2687  1.0000</r>
       <r>   2.6692  1.0000</r>
       <r>   4.0458  1.0000</r>
       <r>   5.4445  1.0000</r>
       <r>   6.7970  1.0000</r>
       <r>   8.1524  0.0000</r>
       <r>   9.7144  0.0000</r>
       <r>  10.8476  0.0000</r>
       <r>  11.0335  0.0000</r>
       <r>  12.3624  0.0000</r>
       <r>  12.3691  0.0000</r>
       <r>  13.5591  0.0000</r>
       <r>  13.5623  0.0000</r>
       <r>  16.0749  0.0000</r>
       <r>  16.6211  0.0000</r>
      </set>
      <set comment="kpoint 57">
       <r>  -1.0405  1.0000</r>
       <r>   0.3854  1.0000</r>
       <r>   3.1924  1.0000</r>
       <r>   4.5106  1.0000</r>
       <r>   4.6388  1.0000</r>
       <r>   5.9447  1.0000</r>
       <r>   8.6617  0.0000</r>
       <r>  10.0111  0.0000</r>
       <r>  10.2169  0.0000</r>
       <r>  11.4021  0.0000</r>
       <r>  11.6937  0.0000</r>
       <r>  12.8405  0.0000</r>
       <r>  14.0069  0.0000</r>
       <r>  14.2154  0.0000</r>
       <r>  15.3023  0.0000</r>
       <r>  17.0988  0.0000</r>
      </set>
      <set comment="kpoint 58">
       <r>  -0.3852  1.0000</r>
       <r>  -0.3852  1.0000</r>
       <r>   3.8287  1.0000</r>
       <r>   3.8287  1.0000</r>
       <r>   5.2025  1.0000</r>
       <r>   5.2025  1.0000</r>
       <r>   9.2817  0.0000</r>
       <r>   9.2817  0.0000</r>
       <r>  10.8208  0.0000</r>
       <r>  10.8208  0.0000</r>
       <r>  12.1619  0.0000</r>
       <r>  12.1619  0.0000</r>
       <r>  14.6178  0.0000</r>
       <r>  14.6178  0.0000</r>
       <r>  16.0705  0.0000</r>
       <r>  16.0705  0.0000</r>
      </set>
      <set comment="kpoint 59">
       <r>  -1.1600  1.0000</r>
       <r>   1.6799  1.0000</r>
       <r>   1.6799  1.0000</r>
       <r>   4.3986  1.0000</r>
       <r>   4.5239  1.0000</r>
       <r>   7.1957  1.0000</r>
       <r>   7.1957  1.0000</r>
       <r>   9.9032  0.0000</r>
       <r>  10.1088  0.0000</r>
       <r>  12.6259  0.0000</r>
       <r>  12.6259  0.0000</r>
       <r>  12.8638  0.0000</r>
       <r>  12.8638  0.0000</r>
       <r>  14.6450  0.0000</r>
       <r>  15.2713  0.0000</r>
       <r>  16.3953  0.0000</r>
      </set>
      <set comment="kpoint 60">
       <r>  -0.6231  1.0000</r>
       <r>   0.7989  1.0000</r>
       <r>   2.2069  1.0000</r>
       <r>   3.6019  1.0000</r>
       <r>   4.9731  1.0000</r>
       <r>   6.3444  1.0000</r>
       <r>   7.7070  0.0000</r>
       <r>   9.0626  0.0000</r>
       <r>  10.6118  0.0000</r>
       <r>  11.9234  0.0000</r>
       <r>  13.2113  0.0000</r>
       <r>  13.2559  0.0000</r>
       <r>  14.4191  0.0000</r>
       <r>  14.4983  0.0000</r>
       <r>  14.5620  0.0000</r>
       <r>  17.5985  0.0000</r>
      </set>
      <set comment="kpoint 61">
       <r>   0.0305  1.0000</r>
       <r>   0.0305  1.0000</r>
       <r>   2.8483  1.0000</r>
       <r>   2.8483  1.0000</r>
       <r>   5.6025  1.0000</r>
       <r>   5.6025  1.0000</r>
       <r>   8.3298  0.0000</r>
       <r>   8.3298  0.0000</r>
       <r>  11.2196  0.0000</r>
       <r>  11.2196  0.0000</r>
       <r>  13.8078  0.0000</r>
       <r>  13.8078  0.0000</r>
       <r>  13.8203  0.0000</r>
       <r>  13.8203  0.0000</r>
       <r>  16.4063  0.0000</r>
       <r>  16.4063  0.0000</r>
      </set>
      <set comment="kpoint 62">
       <r>  -0.0881  1.0000</r>
       <r>   1.3290  1.0000</r>
       <r>   1.3290  1.0000</r>
       <r>   2.7331  1.0000</r>
       <r>   5.4882  1.0000</r>
       <r>   6.8575  1.0000</r>
       <r>   6.8575  1.0000</r>
       <r>   8.2185  0.0000</r>
       <r>  11.1136  0.0000</r>
       <r>  12.4246  0.0000</r>
       <r>  12.4246  0.0000</r>
       <r>  13.7206  0.0000</r>
       <r>  15.0122  0.0000</r>
       <r>  15.0122  0.0000</r>
       <r>  15.5876  0.0000</r>
       <r>  17.4219  0.0000</r>
      </set>
      <set comment="kpoint 63">
       <r>   0.5632  1.0000</r>
       <r>   0.5632  1.0000</r>
       <r>   1.9744  1.0000</r>
       <r>   1.9744  1.0000</r>
       <r>   6.1171  1.0000</r>
       <r>   6.1171  1.0000</r>
       <r>   7.4827  0.0000</r>
       <r>   7.4827  0.0000</r>
       <r>  11.7200  0.0000</r>
       <r>  11.7200  0.0000</r>
       <r>  13.0245  0.0000</r>
       <r>  13.0245  0.0000</r>
       <r>  15.4893  0.0000</r>
       <r>  15.4893  0.0000</r>
       <r>  16.7621  0.0000</r>
       <r>  16.7621  0.0000</r>
      </set>
      <set comment="kpoint 64">
       <r>   1.2118  1.0000</r>
       <r>   1.2118  1.0000</r>
       <r>   1.2118  1.0000</r>
       <r>   1.2118  1.0000</r>
       <r>   6.7443  1.0000</r>
       <r>   6.7443  1.0000</r>
       <r>   6.7443  1.0000</r>
       <r>   6.7443  1.0000</r>
       <r>  12.3235  0.0000</r>
       <r>  12.3235  0.0000</r>
       <r>  12.3235  0.0000</r>
       <r>  12.3235  0.0000</r>
       <r>  16.7359  0.0000</r>
       <r>  16.7359  0.0000</r>
       <r>  16.7359  0.0000</r>
       <r>  16.7359  0.0000</r>
      </set>
      <set comment="kpoint 65">
       <r>  -1.6988  1.0000</r>
       <r>   2.5527  1.0000</r>
       <r>   2.5527  1.0000</r>
       <r>   2.5527  1.0000</r>
       <r>   6.6944  1.0000</r>
       <r>   6.6944  1.0000</r>
       <r>   6.6944  1.0000</r>
       <r>  10.7479  0.0000</r>
       <r>  10.9321  0.0000</r>
       <r>  10.9321  0.0000</r>
       <r>  10.9321  0.0000</r>
       <r>  14.1726  0.0000</r>
       <r>  14.1726  0.0000</r>
       <r>  14.1726  0.0000</r>
       <r>  15.8404  0.0000</r>
       <r>  15.8404  0.0000</r>
      </set>
      <set comment="kpoint 66">
       <r>  -1.2796  1.0000</r>
       <r>   1.5625  1.0000</r>
       <r>   2.9601  1.0000</r>
       <r>   2.9601  1.0000</r>
       <r>   5.7303  1.0000</r>
       <r>   5.7303  1.0000</r>
       <r>   7.0936  1.0000</r>
       <r>   9.8033  0.0000</r>
       <r>  11.3199  0.0000</r>
       <r>  11.3199  0.0000</r>
       <r>  12.6479  0.0000</r>
       <r>  13.8274  0.0000</r>
       <r>  13.8274  0.0000</r>
       <r>  14.5383  0.0000</r>
       <r>  16.2233  0.0000</r>
       <r>  16.9595  0.0000</r>
      </set>
      <set comment="kpoint 67">
       <r>  -0.7422  1.0000</r>
       <r>   0.6809  1.0000</r>
       <r>   3.4820  1.0000</r>
       <r>   3.4820  1.0000</r>
       <r>   4.8725  1.0000</r>
       <r>   4.8725  1.0000</r>
       <r>   7.6054  0.0000</r>
       <r>   8.9622  0.0000</r>
       <r>  11.8100  0.0000</r>
       <r>  11.8100  0.0000</r>
       <r>  13.1164  0.0000</r>
       <r>  13.1164  0.0000</r>
       <r>  14.4516  0.0000</r>
       <r>  15.0086  0.0000</r>
       <r>  16.2618  0.0000</r>
       <r>  16.6998  0.0000</r>
      </set>
      <set comment="kpoint 68">
       <r>  -0.0882  1.0000</r>
       <r>  -0.0882  1.0000</r>
       <r>   4.0644  1.0000</r>
       <r>   4.0644  1.0000</r>
       <r>   4.1778  1.0000</r>
       <r>   4.1778  1.0000</r>
       <r>   8.2288  0.0000</r>
       <r>   8.2288  0.0000</r>
       <r>  12.2921  0.0000</r>
       <r>  12.2921  0.0000</r>
       <r>  12.5475  0.0000</r>
       <r>  12.5475  0.0000</r>
       <r>  15.5834  0.0000</r>
       <r>  15.5834  0.0000</r>
       <r>  16.3225  0.0000</r>
       <r>  16.3225  0.0000</r>
      </set>
      <set comment="kpoint 69">
       <r>  -0.8615  1.0000</r>
       <r>   1.9729  1.0000</r>
       <r>   1.9729  1.0000</r>
       <r>   3.3662  1.0000</r>
       <r>   4.7608  1.0000</r>
       <r>   6.1309  1.0000</r>
       <r>   6.1309  1.0000</r>
       <r>   8.8539  0.0000</r>
       <r>  11.7092  0.0000</r>
       <r>  13.0258  0.0000</r>
       <r>  13.0258  0.0000</r>
       <r>  14.2026  0.0000</r>
       <r>  14.2026  0.0000</r>
       <r>  14.9068  0.0000</r>
       <r>  16.6483  0.0000</r>
       <r>  16.6616  0.0000</r>
      </set>
      <set comment="kpoint 70">
       <r>  -0.3256  1.0000</r>
       <r>   1.0937  1.0000</r>
       <r>   2.4989  1.0000</r>
       <r>   3.8402  1.0000</r>
       <r>   3.9444  1.0000</r>
       <r>   5.2740  1.0000</r>
       <r>   6.6451  1.0000</r>
       <r>   8.0086  0.0000</r>
       <r>  12.2028  0.0000</r>
       <r>  13.3974  0.0000</r>
       <r>  13.6008  0.0000</r>
       <r>  14.6547  0.0000</r>
       <r>  14.6853  0.0000</r>
       <r>  14.8404  0.0000</r>
       <r>  15.9240  0.0000</r>
       <r>  17.7717  0.0000</r>
      </set>
      <set comment="kpoint 71">
       <r>   0.3267  1.0000</r>
       <r>   0.3267  1.0000</r>
       <r>   3.1389  1.0000</r>
       <r>   3.1389  1.0000</r>
       <r>   4.5274  1.0000</r>
       <r>   4.5274  1.0000</r>
       <r>   7.2715  1.0000</r>
       <r>   7.2715  1.0000</r>
       <r>  12.7938  0.0000</r>
       <r>  12.7938  0.0000</r>
       <r>  14.0914  0.0000</r>
       <r>  14.0914  0.0000</r>
       <r>  15.2529  0.0000</r>
       <r>  15.2529  0.0000</r>
       <r>  16.6594  0.0000</r>
       <r>  16.6594  0.0000</r>
      </set>
      <set comment="kpoint 72">
       <r>   0.2084  1.0000</r>
       <r>   1.6229  1.0000</r>
       <r>   1.6229  1.0000</r>
       <r>   3.0239  1.0000</r>
       <r>   4.4121  1.0000</r>
       <r>   5.7902  1.0000</r>
       <r>   5.7902  1.0000</r>
       <r>   7.1595  1.0000</r>
       <r>  12.6960  0.0000</r>
       <r>  13.9633  0.0000</r>
       <r>  13.9633  0.0000</r>
       <r>  15.2199  0.0000</r>
       <r>  15.2764  0.0000</r>
       <r>  15.2764  0.0000</r>
       <r>  15.8500  0.0000</r>
       <r>  17.6653  0.0000</r>
      </set>
      <set comment="kpoint 73">
       <r>   0.8585  1.0000</r>
       <r>   0.8585  1.0000</r>
       <r>   2.2670  1.0000</r>
       <r>   2.2670  1.0000</r>
       <r>   5.0449  1.0000</r>
       <r>   5.0449  1.0000</r>
       <r>   6.4193  1.0000</r>
       <r>   6.4193  1.0000</r>
       <r>  13.2876  0.0000</r>
       <r>  13.2876  0.0000</r>
       <r>  14.5498  0.0000</r>
       <r>  14.5498  0.0000</r>
       <r>  15.7521  0.0000</r>
       <r>  15.7521  0.0000</r>
       <r>  17.0181  0.0000</r>
       <r>  17.0181  0.0000</r>
      </set>
      <set comment="kpoint 74">
       <r>   1.5059  1.0000</r>
       <r>   1.5059  1.0000</r>
       <r>   1.5059  1.0000</r>
       <r>   1.5059  1.0000</r>
       <r>   5.6763  1.0000</r>
       <r>   5.6763  1.0000</r>
       <r>   5.6763  1.0000</r>
       <r>   5.6763  1.0000</r>
       <r>  13.8766  0.0000</r>
       <r>  13.8766  0.0000</r>
       <r>  13.8766  0.0000</r>
       <r>  13.8766  0.0000</r>
       <r>  16.9980  0.0000</r>
       <r>  16.9980  0.0000</r>
       <r>  16.9980  0.0000</r>
       <r>  16.9980  0.0000</r>
      </set>
      <set comment="kpoint 75">
       <r>  -0.4445  1.0000</r>
       <r>   2.3823  1.0000</r>
       <r>   2.3823  1.0000</r>
       <r>   2.3823  1.0000</r>
       <r>   5.1628  1.0000</r>
       <r>   5.1628  1.0000</r>
       <r>   5.1628  1.0000</r>
       <r>   7.8996  0.0000</r>
       <r>  13.4089  0.0000</r>
       <r>  13.4089  0.0000</r>
       <r>  13.4089  0.0000</r>
       <r>  15.2734  0.0000</r>
       <r>  15.2734  0.0000</r>
       <r>  15.2734  0.0000</r>
       <r>  17.0218  0.0000</r>
       <r>  17.0218  0.0000</r>
      </set>
      <set comment="kpoint 76">
       <r>   0.0899  1.0000</r>
       <r>   1.5055  1.0000</r>
       <r>   2.9067  1.0000</r>
       <r>   2.9067  1.0000</r>
       <r>   4.3011  1.0000</r>
       <r>   4.3011  1.0000</r>
       <r>   5.6795  1.0000</r>
       <r>   7.0500  1.0000</r>
       <r>  13.8871  0.0000</r>
       <r>  13.8871  0.0000</r>
       <r>  15.0565  0.0000</r>
       <r>  15.0565  0.0000</r>
       <r>  15.1850  0.0000</r>
       <r>  15.7447  0.0000</r>
       <r>  16.9990  0.0000</r>
       <r>  17.4546  0.0000</r>
      </set>
      <set comment="kpoint 77">
       <r>   0.7405  1.0000</r>
       <r>   0.7405  1.0000</r>
       <r>   3.5034  1.0000</r>
       <r>   3.5034  1.0000</r>
       <r>   3.5917  1.0000</r>
       <r>   3.5917  1.0000</r>
       <r>   6.3091  1.0000</r>
       <r>   6.3091  1.0000</r>
       <r>  14.3825  0.0000</r>
       <r>  14.3825  0.0000</r>
       <r>  14.5318  0.0000</r>
       <r>  14.5318  0.0000</r>
       <r>  16.3203  0.0000</r>
       <r>  16.3203  0.0000</r>
       <r>  16.9974  0.0000</r>
       <r>  16.9974  0.0000</r>
      </set>
      <set comment="kpoint 78">
       <r>   0.6225  1.0000</r>
       <r>   2.0333  1.0000</r>
       <r>   2.0333  1.0000</r>
       <r>   3.3909  1.0000</r>
       <r>   3.4735  1.0000</r>
       <r>   4.8197  1.0000</r>
       <r>   4.8197  1.0000</r>
       <r>   6.1965  1.0000</r>
       <r>  14.3672  0.0000</r>
       <r>  15.5142  0.0000</r>
       <r>  15.5142  0.0000</r>
       <r>  15.6475  0.0000</r>
       <r>  15.6475  0.0000</r>
       <r>  16.2172  0.0000</r>
       <r>  16.7102  0.0000</r>
       <r>  17.9796  0.0000</r>
      </set>
      <set comment="kpoint 79">
       <r>   1.2709  1.0000</r>
       <r>   1.2709  1.0000</r>
       <r>   2.6756  1.0000</r>
       <r>   2.6756  1.0000</r>
       <r>   4.0703  1.0000</r>
       <r>   4.0703  1.0000</r>
       <r>   5.4522  1.0000</r>
       <r>   5.4522  1.0000</r>
       <r>  14.9301  0.0000</r>
       <r>  14.9301  0.0000</r>
       <r>  16.0902  0.0000</r>
       <r>  16.0902  0.0000</r>
       <r>  16.1163  0.0000</r>
       <r>  16.1163  0.0000</r>
       <r>  17.3649  0.0000</r>
       <r>  17.3649  0.0000</r>
      </set>
      <set comment="kpoint 80">
       <r>   1.9166  1.0000</r>
       <r>   1.9166  1.0000</r>
       <r>   1.9166  1.0000</r>
       <r>   1.9166  1.0000</r>
       <r>   4.7050  1.0000</r>
       <r>   4.7050  1.0000</r>
       <r>   4.7050  1.0000</r>
       <r>   4.7050  1.0000</r>
       <r>  15.4931  0.0000</r>
       <r>  15.4931  0.0000</r>
       <r>  15.4931  0.0000</r>
       <r>  15.4931  0.0000</r>
       <r>  17.3635  0.0000</r>
       <r>  17.3635  0.0000</r>
       <r>  17.3635  0.0000</r>
       <r>  17.3635  0.0000</r>
      </set>
      <set comment="kpoint 81">
       <r>   1.1534  1.0000</r>
       <r>   2.5592  1.0000</r>
       <r>   2.5592  1.0000</r>
       <r>   2.5592  1.0000</r>
       <r>   3.9558  1.0000</r>
       <r>   3.9558  1.0000</r>
       <r>   3.9558  1.0000</r>
       <r>   5.3389  1.0000</r>
       <r>  16.0879  0.0000</r>
       <r>  16.0879  0.0000</r>
       <r>  16.0879  0.0000</r>
       <r>  16.6888  0.0000</r>
       <r>  16.6888  0.0000</r>
       <r>  16.6888  0.0000</r>
       <r>  17.9305  0.0000</r>
       <r>  17.9305  0.0000</r>
      </set>
      <set comment="kpoint 82">
       <r>   1.7996  1.0000</r>
       <r>   1.7996  1.0000</r>
       <r>   3.1660  1.0000</r>
       <r>   3.1660  1.0000</r>
       <r>   3.2361  1.0000</r>
       <r>   3.2361  1.0000</r>
       <r>   4.5911  1.0000</r>
       <r>   4.5911  1.0000</r>
       <r>  16.5652  0.0000</r>
       <r>  16.5652  0.0000</r>
       <r>  16.5801  0.0000</r>
       <r>  16.5801  0.0000</r>
       <r>  17.2630  0.0000</r>
       <r>  17.2630  0.0000</r>
       <r>  17.7550  0.0000</r>
       <r>  17.7550  0.0000</r>
      </set>
      <set comment="kpoint 83">
       <r>   2.4430  1.0000</r>
       <r>   2.4430  1.0000</r>
       <r>   2.4430  1.0000</r>
       <r>   2.4430  1.0000</r>
       <r>   3.8404  1.0000</r>
       <r>   3.8404  1.0000</r>
       <r>   3.8404  1.0000</r>
       <r>   3.8404  1.0000</r>
       <r>  17.0839  0.0000</r>
       <r>  17.0839  0.0000</r>
       <r>  17.0839  0.0000</r>
       <r>  17.0839  0.0000</r>
       <r>  17.8257  0.0000</r>
       <r>  17.8257  0.0000</r>
       <r>  17.8257  0.0000</r>
       <r>  17.8257  0.0000</r>
      </set>
      <set comment="kpoint 84">
       <r>   3.0534  1.0000</r>
       <r>   3.0534  1.0000</r>
       <r>   3.0534  1.0000</r>
       <r>   3.0534  1.0000</r>
       <r>   3.1170  1.0000</r>
       <r>   3.1170  1.0000</r>
       <r>   3.1170  1.0000</r>
       <r>   3.1170  1.0000</r>
       <r>  18.2450  0.0000</r>
       <r>  18.2450  0.0000</r>
       <r>  18.2450  0.0000</r>
       <r>  18.2450  0.0000</r>
       <r>  18.2450  0.0000</r>
       <r>  18.2450  0.0000</r>
       <r>  18.2450  0.0000</r>
       <r>  18.2458  0.0000</r>
      </set>
     </set>
    </set>
   </array>
  </eigenvalues>
 </calculation>
 <structure name="finalpos" >
  <crystal>
   <varray name="basis" >
    <v>       4.11805250      0.00000000      0.00000000</v>
    <v>       0.00000000      4.11805250      0.00000000</v>
    <v>       0.00000000      0.00000000      4.11805250</v>
   </varray>
   <i name="volume">     69.83540179</i>
   <varray name="rec_basis" >
    <v>       0.24283323      0.00000000      0.00000000</v>
    <v>       0.00000000      0.24283323      0.00000000</v>
    <v>       0.00000000      0.00000000      0.24283323</v>
   </varray>
  </crystal>
  <varray name="positions" >
   <v>       0.50000000      0.50000000      0.00000000</v>
   <v>       0.50000000      0.00000000      0.50000000</v>
   <v>       0.00000000      0.50000000      0.50000000</v>
   <v>       0.00000000      0.00000000      0.00000000</v>
  </varray>
 </structure>
</modeling>
