32   
1    

1    
  0.0100000000000000   0.0000000000000000   0.0000000000000000
  -0.0569094500   -0.0000000000    0.0000000000
   0.0009042400    0.0000000000   -0.0000000000
  -0.0004245400    0.0000000000   -0.0000000000
  -0.0001809700   -0.0000000000   -0.0000000000
  -0.0004245400    0.0000000000    0.0000000000
  -0.0001809700    0.0000000000    0.0000000000
  -0.0000875000    0.0000000000    0.0000000000
  -0.0001311500    0.0000000000   -0.0000000000
   0.0069144500    0.0078366800   -0.0000000000
   0.0066887100   -0.0075274100   -0.0000000000
   0.0069144500   -0.0078366800   -0.0000000000
   0.0066887100    0.0075274100    0.0000000000
   0.0003026700    0.0000948600    0.0000000000
   0.0003062400   -0.0001027900    0.0000000000
   0.0003026700   -0.0000948600   -0.0000000000
   0.0003062400    0.0001027900    0.0000000000
   0.0069144500    0.0000000000    0.0078366800
   0.0066887100   -0.0000000000   -0.0075274100
   0.0003026700    0.0000000000    0.0000948600
   0.0003062400   -0.0000000000   -0.0001027900
   0.0069144500   -0.0000000000   -0.0078366800
   0.0066887100    0.0000000000    0.0075274100
   0.0003026700    0.0000000000   -0.0000948600
   0.0003062400    0.0000000000    0.0001027900
  -0.0004738900   -0.0000163200   -0.0000163200
   0.0006205300   -0.0000001800   -0.0000001800
  -0.0004738900    0.0000163200   -0.0000163200
   0.0006205300    0.0000001800   -0.0000001800
  -0.0004738900   -0.0000163200    0.0000163200
   0.0006205300   -0.0000001800    0.0000001800
  -0.0004738900    0.0000163200    0.0000163200
   0.0006205300    0.0000001800    0.0000001800
