mesh: [    48,    48,    48 ]
nqpoint: 2600   
reciprocal_lattice:
- [   0.27227332,   0.00000000,   0.00000000 ] # a*
- [   0.00000000,   0.27227332,   0.00000000 ] # b*
- [   0.00000000,   0.00000000,   0.27227332 ] # c*
natom:   4      
lattice:
- [     3.672779969850382,     0.000000000000000,     0.000000000000000 ] # a
- [     0.000000000000000,     3.672779969850382,     0.000000000000000 ] # b
- [     0.000000000000000,     0.000000000000000,     3.672779969850382 ] # c
points:
- symbol: Cu # 1
  coordinates: [  0.000000000000000,  0.000000000000000,  0.000000000000000 ]
  mass: 63.546000
- symbol: Cu # 2
  coordinates: [  0.500000000000000,  0.500000000000000,  0.000000000000000 ]
  mass: 63.546000
- symbol: Cu # 3
  coordinates: [  0.500000000000000,  0.000000000000000,  0.500000000000000 ]
  mass: 63.546000
- symbol: Cu # 4
  coordinates: [  0.000000000000000,  0.500000000000000,  0.500000000000000 ]
  mass: 63.546000
phonon:
- q-position: [    0.0104167,    0.0104167,    0.0104167 ]
  weight: 8    
  band:
  - # 1
    frequency:     0.1178005622
  - # 2
    frequency:     0.1178005622
  - # 3
    frequency:     0.2287347822
  - # 4
    frequency:     4.7221959102
  - # 5
    frequency:     4.7221959102
  - # 6
    frequency:     4.7221959102
  - # 7
    frequency:     4.7249071178
  - # 8
    frequency:     4.7249071178
  - # 9
    frequency:     4.7249071178
  - # 10
    frequency:     6.6108987241
  - # 11
    frequency:     6.6108987241
  - # 12
    frequency:     6.6108987241

- q-position: [    0.0312500,    0.0104167,    0.0104167 ]
  weight: 24   
  band:
  - # 1
    frequency:     0.2342150288
  - # 2
    frequency:     0.2533339617
  - # 3
    frequency:     0.4173033423
  - # 4
    frequency:     4.7174152292
  - # 5
    frequency:     4.7198078483
  - # 6
    frequency:     4.7198078483
  - # 7
    frequency:     4.7201155983
  - # 8
    frequency:     4.7292779646
  - # 9
    frequency:     4.7292779646
  - # 10
    frequency:     6.6052689912
  - # 11
    frequency:     6.6064248000
  - # 12
    frequency:     6.6064248000

- q-position: [    0.0520833,    0.0104167,    0.0104167 ]
  weight: 24   
  band:
  - # 1
    frequency:     0.3894956167
  - # 2
    frequency:     0.4056251523
  - # 3
    frequency:     0.6339735266
  - # 4
    frequency:     4.7078563029
  - # 5
    frequency:     4.7105350534
  - # 6
    frequency:     4.7165998009
  - # 7
    frequency:     4.7165998009
  - # 8
    frequency:     4.7364709907
  - # 9
    frequency:     4.7364709907
  - # 10
    frequency:     6.5940007498
  - # 11
    frequency:     6.5975000609
  - # 12
    frequency:     6.5975000609

- q-position: [    0.0729167,    0.0104167,    0.0104167 ]
  weight: 24   
  band:
  - # 1
    frequency:     0.5479757136
  - # 2
    frequency:     0.5607516831
  - # 3
    frequency:     0.8589946994
  - # 4
    frequency:     4.6935240269
  - # 5
    frequency:     4.6961704942
  - # 6
    frequency:     4.7122277419
  - # 7
    frequency:     4.7122277419
  - # 8
    frequency:     4.7468684409
  - # 9
    frequency:     4.7468684409
  - # 10
    frequency:     6.5770766301
  - # 11
    frequency:     6.5841705988
  - # 12
    frequency:     6.5841705988

- q-position: [    0.0937500,    0.0104167,    0.0104167 ]
  weight: 24   
  band:
  - # 1
    frequency:     0.7060501682
  - # 2
    frequency:     0.7163594963
  - # 3
    frequency:     1.0868145445
  - # 4
    frequency:     4.6744258062
  - # 5
    frequency:     4.6770294955
  - # 6
    frequency:     4.7066328036
  - # 7
    frequency:     4.7066328036
  - # 8
    frequency:     4.7605850273
  - # 9
    frequency:     4.7605850273
  - # 10
    frequency:     6.5544710273
  - # 11
    frequency:     6.5665052348
  - # 12
    frequency:     6.5665052348

- q-position: [    0.1145833,    0.0104167,    0.0104167 ]
  weight: 24   
  band:
  - # 1
    frequency:     0.8631171428
  - # 2
    frequency:     0.8716301409
  - # 3
    frequency:     1.3150745989
  - # 4
    frequency:     4.6505716277
  - # 5
    frequency:     4.6531222638
  - # 6
    frequency:     4.6998615168
  - # 7
    frequency:     4.6998615168
  - # 8
    frequency:     4.7776459439
  - # 9
    frequency:     4.7776459439
  - # 10
    frequency:     6.5261506337
  - # 11
    frequency:     6.5445951400
  - # 12
    frequency:     6.5445951400

- q-position: [    0.1354167,    0.0104167,    0.0104167 ]
  weight: 24   
  band:
  - # 1
    frequency:     1.0189643802
  - # 2
    frequency:     1.0261268793
  - # 3
    frequency:     1.5425064955
  - # 4
    frequency:     4.6219741556
  - # 5
    frequency:     4.6244617282
  - # 6
    frequency:     4.6920071471
  - # 7
    frequency:     4.6920071471
  - # 8
    frequency:     4.7980432615
  - # 9
    frequency:     4.7980432615
  - # 10
    frequency:     6.4920751355
  - # 11
    frequency:     6.5185533298
  - # 12
    frequency:     6.5185533298

- q-position: [    0.1562500,    0.0104167,    0.0104167 ]
  weight: 24   
  band:
  - # 1
    frequency:     1.1734343529
  - # 2
    frequency:     1.1795454472
  - # 3
    frequency:     1.7682910628
  - # 4
    frequency:     4.5886488485
  - # 5
    frequency:     4.5910636504
  - # 6
    frequency:     4.6831910240
  - # 7
    frequency:     4.6831910240
  - # 8
    frequency:     4.8217518541
  - # 9
    frequency:     4.8217518541
  - # 10
    frequency:     6.4521980636
  - # 11
    frequency:     6.4885140343
  - # 12
    frequency:     6.4885140343

- q-position: [    0.1770833,    0.0104167,    0.0104167 ]
  weight: 24   
  band:
  - # 1
    frequency:     1.3263722350
  - # 2
    frequency:     1.3316387060
  - # 3
    frequency:     1.9918223423
  - # 4
    frequency:     4.5506140961
  - # 5
    frequency:     4.5529467545
  - # 6
    frequency:     4.6735550263
  - # 7
    frequency:     4.6735550263
  - # 8
    frequency:     4.8487337516
  - # 9
    frequency:     4.8487337516
  - # 10
    frequency:     6.4064677863
  - # 11
    frequency:     6.4546319432
  - # 12
    frequency:     6.4546319432

- q-position: [    0.1979167,    0.0104167,    0.0104167 ]
  weight: 24   
  band:
  - # 1
    frequency:     1.4776192908
  - # 2
    frequency:     1.4821886707
  - # 3
    frequency:     2.2126088421
  - # 4
    frequency:     4.5078913744
  - # 5
    frequency:     4.5101328746
  - # 6
    frequency:     4.6632573201
  - # 7
    frequency:     4.6632573201
  - # 8
    frequency:     4.8789388853
  - # 9
    frequency:     4.8789388853
  - # 10
    frequency:     6.3548286282
  - # 11
    frequency:     6.4170813293
  - # 12
    frequency:     6.4170813293

- q-position: [    0.2187500,    0.0104167,    0.0104167 ]
  weight: 24   
  band:
  - # 1
    frequency:     1.6270140244
  - # 2
    frequency:     1.6309946101
  - # 3
    frequency:     2.4302280569
  - # 4
    frequency:     4.4605054168
  - # 5
    frequency:     4.4626471168
  - # 6
    frequency:     4.6524690553
  - # 7
    frequency:     4.6524690553
  - # 8
    frequency:     4.9123045965
  - # 9
    frequency:     4.9123045965
  - # 10
    frequency:     6.2972221002
  - # 11
    frequency:     6.3760550493
  - # 12
    frequency:     6.3760550493

- q-position: [    0.2395833,    0.0104167,    0.0104167 ]
  weight: 24   
  band:
  - # 1
    frequency:     1.7743942176
  - # 2
    frequency:     1.7778674934
  - # 3
    frequency:     2.6443039512
  - # 4
    frequency:     4.4084843991
  - # 5
    frequency:     4.4105180361
  - # 6
    frequency:     4.6413712849
  - # 7
    frequency:     4.6413712849
  - # 8
    frequency:     4.9487547189
  - # 9
    frequency:     4.9487547189
  - # 10
    frequency:     6.2335882232
  - # 11
    frequency:     6.3317634271
  - # 12
    frequency:     6.3317634271

- q-position: [    0.2604167,    0.0104167,    0.0104167 ]
  weight: 24   
  band:
  - # 1
    frequency:     1.9195986426
  - # 2
    frequency:     1.9226272352
  - # 3
    frequency:     2.8544952021
  - # 4
    frequency:     4.3518601361
  - # 5
    frequency:     4.3537778232
  - # 6
    frequency:     4.6301518598
  - # 7
    frequency:     4.6301518598
  - # 8
    frequency:     4.9881985648
  - # 9
    frequency:     4.9881985648
  - # 10
    frequency:     6.1638669262
  - # 11
    frequency:     6.2844330197
  - # 12
    frequency:     6.2844330197

- q-position: [    0.2812500,    0.0104167,    0.0104167 ]
  weight: 24   
  band:
  - # 1
    frequency:     2.0624683507
  - # 2
    frequency:     2.0651012829
  - # 3
    frequency:     3.0604888284
  - # 4
    frequency:     4.2906682872
  - # 5
    frequency:     4.2924625013
  - # 6
    frequency:     4.6190022252
  - # 7
    frequency:     4.6190022252
  - # 8
    frequency:     5.0305299719
  - # 9
    frequency:     5.0305299719
  - # 10
    frequency:     6.0879995014
  - # 11
    frequency:     6.2343052708
  - # 12
    frequency:     6.2343052708

- q-position: [    0.3020833,    0.0104167,    0.0104167 ]
  weight: 24   
  band:
  - # 1
    frequency:     2.2028476243
  - # 2
    frequency:     2.2051238861
  - # 3
    frequency:     3.2619966548
  - # 4
    frequency:     4.2249485676
  - # 5
    frequency:     4.2266121279
  - # 6
    frequency:     4.6081141137
  - # 7
    frequency:     4.6081141137
  - # 8
    frequency:     5.0756265027
  - # 9
    frequency:     5.0756265027
  - # 10
    frequency:     6.0059300966
  - # 11
    frequency:     6.1816350562
  - # 12
    frequency:     6.1816350562

- q-position: [    0.3229167,    0.0104167,    0.0104167 ]
  weight: 24   
  band:
  - # 1
    frequency:     2.3405846885
  - # 2
    frequency:     2.3425357292
  - # 3
    frequency:     3.4587533220
  - # 4
    frequency:     4.1547449637
  - # 5
    frequency:     4.1562710006
  - # 6
    frequency:     4.5976761637
  - # 7
    frequency:     4.5976761637
  - # 8
    frequency:     5.1233488512
  - # 9
    frequency:     5.1233488512
  - # 10
    frequency:     5.9176072260
  - # 11
    frequency:     6.1266891269
  - # 12
    frequency:     6.1266891269

- q-position: [    0.3437500,    0.0104167,    0.0104167 ]
  weight: 24   
  band:
  - # 1
    frequency:     2.4755322505
  - # 2
    frequency:     2.4771837603
  - # 3
    frequency:     3.6505151538
  - # 4
    frequency:     4.0801059487
  - # 5
    frequency:     4.0814878635
  - # 6
    frequency:     4.5878705120
  - # 7
    frequency:     4.5878705120
  - # 8
    frequency:     5.1735404916
  - # 9
    frequency:     5.1735404916
  - # 10
    frequency:     5.8229852812
  - # 11
    frequency:     6.0697444575
  - # 12
    frequency:     6.0697444575

- q-position: [    0.3645833,    0.0104167,    0.0104167 ]
  weight: 24   
  band:
  - # 1
    frequency:     2.6075479141
  - # 2
    frequency:     2.6089211258
  - # 3
    frequency:     3.8370594974
  - # 4
    frequency:     4.0010846958
  - # 5
    frequency:     4.0023161109
  - # 6
    frequency:     4.5788694220
  - # 7
    frequency:     4.5788694220
  - # 8
    frequency:     5.2260275891
  - # 9
    frequency:     5.2260275891
  - # 10
    frequency:     5.7220260253
  - # 11
    frequency:     6.0110865116
  - # 12
    frequency:     6.0110865116

- q-position: [    0.3854167,    0.0104167,    0.0104167 ]
  weight: 24   
  band:
  - # 1
    frequency:     2.7364944997
  - # 2
    frequency:     2.7376071598
  - # 3
    frequency:     3.9177392873
  - # 4
    frequency:     3.9188139859
  - # 5
    frequency:     4.0181843114
  - # 6
    frequency:     4.5708320169
  - # 7
    frequency:     4.5708320169
  - # 8
    frequency:     5.2806191733
  - # 9
    frequency:     5.2806191733
  - # 10
    frequency:     5.6147000518
  - # 11
    frequency:     5.9510074398
  - # 12
    frequency:     5.9510074398

- q-position: [    0.4062500,    0.0104167,    0.0104167 ]
  weight: 24   
  band:
  - # 1
    frequency:     2.8622402896
  - # 2
    frequency:     2.8631073962
  - # 3
    frequency:     3.8301329147
  - # 4
    frequency:     3.8310447705
  - # 5
    frequency:     4.1937078652
  - # 6
    frequency:     4.5639011928
  - # 7
    frequency:     4.5639011928
  - # 8
    frequency:     5.3371075554
  - # 9
    frequency:     5.3371075554
  - # 10
    frequency:     5.5009881951
  - # 11
    frequency:     5.8898042421
  - # 12
    frequency:     5.8898042421

- q-position: [    0.4270833,    0.0104167,    0.0104167 ]
  weight: 24   
  band:
  - # 1
    frequency:     2.9846592126
  - # 2
    frequency:     2.9852935864
  - # 3
    frequency:     3.7383340693
  - # 4
    frequency:     3.7390769650
  - # 5
    frequency:     4.3634684667
  - # 6
    frequency:     4.5582007890
  - # 7
    frequency:     4.5582007890
  - # 8
    frequency:     5.3808828758
  - # 9
    frequency:     5.3952689153
  - # 10
    frequency:     5.3952689153
  - # 11
    frequency:     5.8277769735
  - # 12
    frequency:     5.8277769735

- q-position: [    0.4479167,    0.0104167,    0.0104167 ]
  weight: 24   
  band:
  - # 1
    frequency:     3.1036309764
  - # 2
    frequency:     3.1040437104
  - # 3
    frequency:     3.6424167201
  - # 4
    frequency:     3.6429844532
  - # 5
    frequency:     4.5273241625
  - # 6
    frequency:     4.5538330903
  - # 7
    frequency:     4.5538330903
  - # 8
    frequency:     5.2543893701
  - # 9
    frequency:     5.4548637721
  - # 10
    frequency:     5.4548637721
  - # 11
    frequency:     5.7652272763
  - # 12
    frequency:     5.7652272763

- q-position: [    0.4687500,    0.0104167,    0.0104167 ]
  weight: 24   
  band:
  - # 1
    frequency:     3.2190411552
  - # 2
    frequency:     3.2192419741
  - # 3
    frequency:     3.5424604758
  - # 4
    frequency:     3.5428466501
  - # 5
    frequency:     4.5508767327
  - # 6
    frequency:     4.5508767327
  - # 7
    frequency:     4.6851523769
  - # 8
    frequency:     5.1215269918
  - # 9
    frequency:     5.5156356114
  - # 10
    frequency:     5.5156356114
  - # 11
    frequency:     5.7024589655
  - # 12
    frequency:     5.7024589655

- q-position: [    0.4895833,    0.0104167,    0.0104167 ]
  weight: 24   
  band:
  - # 1
    frequency:     3.3307787889
  - # 2
    frequency:     3.3307812363
  - # 3
    frequency:     3.4385507303
  - # 4
    frequency:     3.4387486308
  - # 5
    frequency:     4.5493850729
  - # 6
    frequency:     4.5493850729
  - # 7
    frequency:     4.8368494667
  - # 8
    frequency:     4.9823301772
  - # 9
    frequency:     5.5772787369
  - # 10
    frequency:     5.5772787369
  - # 11
    frequency:     5.6398095924
  - # 12
    frequency:     5.6398095924

- q-position: [    0.0312500,    0.0312500,    0.0104167 ]
  weight: 24   
  band:
  - # 1
    frequency:     0.2724482897
  - # 2
    frequency:     0.3345454319
  - # 3
    frequency:     0.5652831493
  - # 4
    frequency:     4.7133559561
  - # 5
    frequency:     4.7150185376
  - # 6
    frequency:     4.7150185376
  - # 7
    frequency:     4.7244767990
  - # 8
    frequency:     4.7244767990
  - # 9
    frequency:     4.7376769397
  - # 10
    frequency:     6.6008435577
  - # 11
    frequency:     6.6008435577
  - # 12
    frequency:     6.6019546506

- q-position: [    0.0520833,    0.0312500,    0.0104167 ]
  weight: 48   
  band:
  - # 1
    frequency:     0.3865785530
  - # 2
    frequency:     0.4604299336
  - # 3
    frequency:     0.7537038430
  - # 4
    frequency:     4.7054421603
  - # 5
    frequency:     4.7066960673
  - # 6
    frequency:     4.7117703709
  - # 7
    frequency:     4.7148773863
  - # 8
    frequency:     4.7316732102
  - # 9
    frequency:     4.7482507309
  - # 10
    frequency:     6.5896721724
  - # 11
    frequency:     6.5920157197
  - # 12
    frequency:     6.5930374080

- q-position: [    0.0729167,    0.0312500,    0.0104167 ]
  weight: 48   
  band:
  - # 1
    frequency:     0.5319779092
  - # 2
    frequency:     0.6014160230
  - # 3
    frequency:     0.9578570802
  - # 4
    frequency:     4.6910832284
  - # 5
    frequency:     4.6997941146
  - # 6
    frequency:     4.7004855823
  - # 7
    frequency:     4.7073288325
  - # 8
    frequency:     4.7420845896
  - # 9
    frequency:     4.7610722746
  - # 10
    frequency:     6.5728930292
  - # 11
    frequency:     6.5788314074
  - # 12
    frequency:     6.5797190590

- q-position: [    0.0937500,    0.0312500,    0.0104167 ]
  weight: 48   
  band:
  - # 1
    frequency:     0.6864761121
  - # 2
    frequency:     0.7484657144
  - # 3
    frequency:     1.1699052856
  - # 4
    frequency:     4.6719485708
  - # 5
    frequency:     4.6813102171
  - # 6
    frequency:     4.6924240244
  - # 7
    frequency:     4.7016372130
  - # 8
    frequency:     4.7558229706
  - # 9
    frequency:     4.7764244518
  - # 10
    frequency:     6.5504801692
  - # 11
    frequency:     6.5613591968
  - # 12
    frequency:     6.5620682682

- q-position: [    0.1145833,    0.0312500,    0.0104167 ]
  weight: 48   
  band:
  - # 1
    frequency:     0.8432236606
  - # 2
    frequency:     0.8980542907
  - # 3
    frequency:     1.3860079018
  - # 4
    frequency:     4.6480474060
  - # 5
    frequency:     4.6573631489
  - # 6
    frequency:     4.6844393500
  - # 7
    frequency:     4.6947429890
  - # 8
    frequency:     4.7729119381
  - # 9
    frequency:     4.7945266941
  - # 10
    frequency:     6.5223998377
  - # 11
    frequency:     6.5396899278
  - # 12
    frequency:     6.5401760013

- q-position: [    0.1354167,    0.0312500,    0.0104167 ]
  weight: 48   
  band:
  - # 1
    frequency:     0.9998813658
  - # 2
    frequency:     1.0485181628
  - # 3
    frequency:     1.6038702669
  - # 4
    frequency:     4.6193914404
  - # 5
    frequency:     4.6286593330
  - # 6
    frequency:     4.6757804815
  - # 7
    frequency:     4.6867397412
  - # 8
    frequency:     4.7933424671
  - # 9
    frequency:     4.8155254843
  - # 10
    frequency:     6.4886112014
  - # 11
    frequency:     6.5139361947
  - # 12
    frequency:     6.5141550221

- q-position: [    0.1562500,    0.0312500,    0.0104167 ]
  weight: 48   
  band:
  - # 1
    frequency:     1.1555123472
  - # 2
    frequency:     1.1989303249
  - # 3
    frequency:     1.8219638839
  - # 4
    frequency:     4.5859949920
  - # 5
    frequency:     4.5952169046
  - # 6
    frequency:     4.6664585349
  - # 7
    frequency:     4.6777488479
  - # 8
    frequency:     4.8170885161
  - # 9
    frequency:     4.8395076971
  - # 10
    frequency:     6.4490672245
  - # 11
    frequency:     6.4841392656
  - # 12
    frequency:     6.4842317113

- q-position: [    0.1770833,    0.0312500,    0.0104167 ]
  weight: 48   
  band:
  - # 1
    frequency:     1.3096644581
  - # 2
    frequency:     1.3486975308
  - # 3
    frequency:     2.0391916223
  - # 4
    frequency:     4.5478751410
  - # 5
    frequency:     4.5570572704
  - # 6
    frequency:     4.6565382504
  - # 7
    frequency:     4.6679121385
  - # 8
    frequency:     4.8441112451
  - # 9
    frequency:     4.8665145064
  - # 10
    frequency:     6.4037156893
  - # 11
    frequency:     6.4502830885
  - # 12
    frequency:     6.4507305512

- q-position: [    0.1979167,    0.0312500,    0.0104167 ]
  weight: 48   
  band:
  - # 1
    frequency:     1.4620671046
  - # 2
    frequency:     1.4973952505
  - # 3
    frequency:     2.2547184104
  - # 4
    frequency:     4.5050519061
  - # 5
    frequency:     4.5142052083
  - # 6
    frequency:     4.6461240009
  - # 7
    frequency:     4.6573877205
  - # 8
    frequency:     4.8743597131
  - # 9
    frequency:     4.8965518249
  - # 10
    frequency:     6.3525003470
  - # 11
    frequency:     6.4127603972
  - # 12
    frequency:     6.4136062638

- q-position: [    0.2187500,    0.0312500,    0.0104167 ]
  weight: 48   
  band:
  - # 1
    frequency:     1.6125216301
  - # 2
    frequency:     1.6446923491
  - # 3
    frequency:     2.4678777716
  - # 4
    frequency:     4.4575484488
  - # 5
    frequency:     4.4666889710
  - # 6
    frequency:     4.6353490486
  - # 7
    frequency:     4.6463467296
  - # 8
    frequency:     4.9077703734
  - # 9
    frequency:     4.9295972107
  - # 10
    frequency:     6.2953621822
  - # 11
    frequency:     6.3717636563
  - # 12
    frequency:     6.3730508699

- q-position: [    0.2395833,    0.0312500,    0.0104167 ]
  weight: 48   
  band:
  - # 1
    frequency:     1.7608591853
  - # 2
    frequency:     1.7903136485
  - # 3
    frequency:     2.6781174585
  - # 4
    frequency:     4.4053913019
  - # 5
    frequency:     4.4145403909
  - # 6
    frequency:     4.6243672687
  - # 7
    frequency:     4.6349702911
  - # 8
    frequency:     4.9442661563
  - # 9
    frequency:     4.9656040989
  - # 10
    frequency:     6.2322407732
  - # 11
    frequency:     6.3275027805
  - # 12
    frequency:     6.3292737376

- q-position: [    0.2604167,    0.0312500,    0.0104167 ]
  weight: 48   
  band:
  - # 1
    frequency:     1.9069240068
  - # 2
    frequency:     1.9340200134
  - # 3
    frequency:     2.8849666534
  - # 4
    frequency:     4.3486106208
  - # 5
    frequency:     4.3577949869
  - # 6
    frequency:     4.6133465432
  - # 7
    frequency:     4.6234464508
  - # 8
    frequency:     4.9837554605
  - # 9
    frequency:     5.0045042382
  - # 10
    frequency:     6.1630757285
  - # 11
    frequency:     6.2802039123
  - # 12
    frequency:     6.2825003424

- q-position: [    0.2812500,    0.0312500,    0.0104167 ]
  weight: 48   
  band:
  - # 1
    frequency:     2.0505668067
  - # 2
    frequency:     2.0755971660
  - # 3
    frequency:     3.0880156087
  - # 4
    frequency:     4.2872404500
  - # 5
    frequency:     4.2964920738
  - # 6
    frequency:     4.6024632239
  - # 7
    frequency:     4.6119670048
  - # 8
    frequency:     5.0261312044
  - # 9
    frequency:     5.0462090173
  - # 10
    frequency:     6.0878081827
  - # 11
    frequency:     6.2301080911
  - # 12
    frequency:     6.2329709176

- q-position: [    0.3020833,    0.0312500,    0.0104167 ]
  weight: 48   
  band:
  - # 1
    frequency:     2.1916423346
  - # 2
    frequency:     2.2148491215
  - # 3
    frequency:     3.2869026976
  - # 4
    frequency:     4.2213189987
  - # 5
    frequency:     4.2306748780
  - # 6
    frequency:     4.5918972717
  - # 7
    frequency:     4.6007242225
  - # 8
    frequency:     5.0712700254
  - # 9
    frequency:     5.0906101569
  - # 10
    frequency:     6.0063823311
  - # 11
    frequency:     6.1774698220
  - # 12
    frequency:     6.1809390005

- q-position: [    0.3229167,    0.0312500,    0.0104167 ]
  weight: 48   
  band:
  - # 1
    frequency:     2.3300086821
  - # 2
    frequency:     2.3515941939
  - # 3
    frequency:     3.4813059976
  - # 4
    frequency:     4.1508889111
  - # 5
    frequency:     4.1603906662
  - # 6
    frequency:     4.5818278368
  - # 7
    frequency:     4.5899074938
  - # 8
    frequency:     5.1190316750
  - # 9
    frequency:     5.1375800853
  - # 10
    frequency:     5.9187469859
  - # 11
    frequency:     6.1225555533
  - # 12
    frequency:     6.1266698856

- q-position: [    0.3437500,    0.0312500,    0.0104167 ]
  weight: 48   
  band:
  - # 1
    frequency:     2.4655273031
  - # 2
    frequency:     2.4856624930
  - # 3
    frequency:     3.6709377014
  - # 4
    frequency:     4.0759975230
  - # 5
    frequency:     4.0856908931
  - # 6
    frequency:     4.5724291524
  - # 7
    frequency:     4.5796999466
  - # 8
    frequency:     5.1692586363
  - # 9
    frequency:     5.1869721981
  - # 10
    frequency:     5.8248571348
  - # 11
    frequency:     6.0656420833
  - # 12
    frequency:     6.0704390020

- q-position: [    0.3645833,    0.0312500,    0.0104167 ]
  weight: 48   
  band:
  - # 1
    frequency:     2.5980633018
  - # 2
    frequency:     2.6168943127
  - # 3
    frequency:     3.8555403175
  - # 4
    frequency:     3.9966970904
  - # 5
    frequency:     4.0066313744
  - # 6
    frequency:     4.5638666921
  - # 7
    frequency:     4.5702750962
  - # 8
    frequency:     5.2217759592
  - # 9
    frequency:     5.2386211102
  - # 10
    frequency:     5.7246754869
  - # 11
    frequency:     6.0070149310
  - # 12
    frequency:     6.0125302476

- q-position: [    0.3854167,    0.0312500,    0.0104167 ]
  weight: 48   
  band:
  - # 1
    frequency:     2.7274857937
  - # 2
    frequency:     2.7451390676
  - # 3
    frequency:     3.9130449844
  - # 4
    frequency:     3.9232724880
  - # 5
    frequency:     4.0348840129
  - # 6
    frequency:     4.5562935843
  - # 7
    frequency:     4.5617935951
  - # 8
    frequency:     5.2763912675
  - # 9
    frequency:     5.2923429167
  - # 10
    frequency:     5.6181739893
  - # 11
    frequency:     5.9469667489
  - # 12
    frequency:     5.9532343468

- q-position: [    0.4062500,    0.0312500,    0.0104167 ]
  weight: 48   
  band:
  - # 1
    frequency:     2.8536682575
  - # 2
    frequency:     2.8702545706
  - # 3
    frequency:     3.8251038462
  - # 4
    frequency:     3.8356794015
  - # 5
    frequency:     4.2087646851
  - # 6
    frequency:     4.5498473121
  - # 7
    frequency:     4.5544001581
  - # 8
    frequency:     5.3328947763
  - # 9
    frequency:     5.3479353195
  - # 10
    frequency:     5.5053353008
  - # 11
    frequency:     5.8857959813
  - # 12
    frequency:     5.8928474013

- q-position: [    0.4270833,    0.0312500,    0.0104167 ]
  weight: 48   
  band:
  - # 1
    frequency:     2.9764888436
  - # 2
    frequency:     2.9921065267
  - # 3
    frequency:     3.7329417038
  - # 4
    frequency:     3.7439223213
  - # 5
    frequency:     4.3770024913
  - # 6
    frequency:     4.5446467430
  - # 7
    frequency:     4.5482207383
  - # 8
    frequency:     5.3861542124
  - # 9
    frequency:     5.3910588015
  - # 10
    frequency:     5.4051770015
  - # 11
    frequency:     5.8238064219
  - # 12
    frequency:     5.8316701599

- q-position: [    0.4479167,    0.0312500,    0.0104167 ]
  weight: 48   
  band:
  - # 1
    frequency:     3.0958306305
  - # 2
    frequency:     3.1105681587
  - # 3
    frequency:     3.6366320535
  - # 4
    frequency:     3.6480767541
  - # 5
    frequency:     4.5394406581
  - # 6
    frequency:     4.5407895419
  - # 7
    frequency:     4.5433600315
  - # 8
    frequency:     5.2606390026
  - # 9
    frequency:     5.4506346613
  - # 10
    frequency:     5.4638234939
  - # 11
    frequency:     5.7613104491
  - # 12
    frequency:     5.7700101052

- q-position: [    0.4687500,    0.0312500,    0.0104167 ]
  weight: 48   
  band:
  - # 1
    frequency:     3.2115818277
  - # 2
    frequency:     3.2255199156
  - # 3
    frequency:     3.5362539106
  - # 4
    frequency:     3.5482237717
  - # 5
    frequency:     4.5383500235
  - # 6
    frequency:     4.5398993773
  - # 7
    frequency:     4.6959444480
  - # 8
    frequency:     5.1288127222
  - # 9
    frequency:     5.5113344157
  - # 10
    frequency:     5.5235812060
  - # 11
    frequency:     5.6986542783
  - # 12
    frequency:     5.7081989091

- q-position: [    0.4895833,    0.0312500,    0.0104167 ]
  weight: 48   
  band:
  - # 1
    frequency:     3.3236359308
  - # 2
    frequency:     3.3368492256
  - # 3
    frequency:     3.4318918348
  - # 4
    frequency:     3.4444502717
  - # 5
    frequency:     4.5373774936
  - # 6
    frequency:     4.5378951222
  - # 7
    frequency:     4.8464002027
  - # 8
    frequency:     4.9907144051
  - # 9
    frequency:     5.5726179556
  - # 10
    frequency:     5.5836981268
  - # 11
    frequency:     5.6366267272
  - # 12
    frequency:     5.6468047390

- q-position: [    0.0520833,    0.0520833,    0.0104167 ]
  weight: 24   
  band:
  - # 1
    frequency:     0.4405653626
  - # 2
    frequency:     0.5584303111
  - # 3
    frequency:     0.9192643859
  - # 4
    frequency:     4.6958008084
  - # 5
    frequency:     4.7021136115
  - # 6
    frequency:     4.7021136115
  - # 7
    frequency:     4.7220812060
  - # 8
    frequency:     4.7220812060
  - # 9
    frequency:     4.7629183796
  - # 10
    frequency:     6.5810378585
  - # 11
    frequency:     6.5810378585
  - # 12
    frequency:     6.5841350531

- q-position: [    0.0729167,    0.0520833,    0.0104167 ]
  weight: 48   
  band:
  - # 1
    frequency:     0.5468274806
  - # 2
    frequency:     0.6791581603
  - # 3
    frequency:     1.1044963467
  - # 4
    frequency:     4.6849021756
  - # 5
    frequency:     4.6876337772
  - # 6
    frequency:     4.6975333933
  - # 7
    frequency:     4.7077020699
  - # 8
    frequency:     4.7325209783
  - # 9
    frequency:     4.7795259256
  - # 10
    frequency:     6.5645483175
  - # 11
    frequency:     6.5681433592
  - # 12
    frequency:     6.5708387733

- q-position: [    0.0937500,    0.0520833,    0.0104167 ]
  weight: 48   
  band:
  - # 1
    frequency:     0.6805543960
  - # 2
    frequency:     0.8120197251
  - # 3
    frequency:     1.3003757062
  - # 4
    frequency:     4.6683373826
  - # 5
    frequency:     4.6740131323
  - # 6
    frequency:     4.6885463886
  - # 7
    frequency:     4.6916491918
  - # 8
    frequency:     4.7463033881
  - # 9
    frequency:     4.7981190956
  - # 10
    frequency:     6.5425203490
  - # 11
    frequency:     6.5510566762
  - # 12
    frequency:     6.5532169222

- q-position: [    0.1145833,    0.0520833,    0.0104167 ]
  weight: 48   
  band:
  - # 1
    frequency:     0.8267127775
  - # 2
    frequency:     0.9514255550
  - # 3
    frequency:     1.5025087956
  - # 4
    frequency:     4.6442333570
  - # 5
    frequency:     4.6630536714
  - # 6
    frequency:     4.6646281858
  - # 7
    frequency:     4.6845104386
  - # 8
    frequency:     4.7634488580
  - # 9
    frequency:     4.8188533473
  - # 10
    frequency:     6.5149191980
  - # 11
    frequency:     6.5298678719
  - # 12
    frequency:     6.5313600567

- q-position: [    0.1354167,    0.0520833,    0.0104167 ]
  weight: 48   
  band:
  - # 1
    frequency:     0.9781252044
  - # 2