<?xml version="1.0" encoding="ISO-8859-1"?>
<modeling>
 <generator>
  <i name="program" type="string">vasp</i>
  <i name="version" type="string">4.6.28 </i>
  <i name="subversion" type="string">25Jul05 complex  parallel</i>
  <i name="platform" type="string">LinuxIFC</i>
  <i name="date" type="string">2017 01 09</i>
  <i name="time" type="string">17:44:04</i>
 </generator>
 <incar>
  <i type="string" name="PREC">accurate</i>
  <i type="int" name="IALGO">    38</i>
  <i type="logical" name="ADDGRID"> T  </i>
  <i name="EDIFF">      0.00000001</i>
  <i type="int" name="IBRION">    -1</i>
  <i name="ENCUT">    750.00000000</i>
  <i type="logical" name="LREAL"> F  </i>
  <i type="int" name="ISMEAR">     0</i>
  <i name="SIGMA">      0.01000000</i>
  <i type="logical" name="LWAVE"> F  </i>
  <i type="logical" name="LCHARG"> F  </i>
 </incar>
 <kpoints>
  <generation param="Gamma">
   <v type="int" name="divisions">      12      12      12</v>
   <v name="usershift">      0.00000000      0.00000000      0.00000000</v>
   <v name="genvec1">      0.08333333      0.00000000      0.00000000</v>
   <v name="genvec2">      0.00000000      0.08333333      0.00000000</v>
   <v name="genvec3">      0.00000000      0.00000000      0.08333333</v>
   <v name="shift">      0.00000000      0.00000000      0.00000000</v>
  </generation>
  <varray name="kpointlist" >
   <v>       0.00000000      0.00000000      0.00000000</v>
   <v>       0.08333333      0.00000000      0.00000000</v>
   <v>       0.16666667      0.00000000      0.00000000</v>
   <v>       0.25000000      0.00000000      0.00000000</v>
   <v>       0.33333333      0.00000000      0.00000000</v>
   <v>       0.41666667      0.00000000      0.00000000</v>
   <v>       0.50000000      0.00000000      0.00000000</v>
   <v>       0.00000000      0.08333333      0.00000000</v>
   <v>       0.08333333      0.08333333      0.00000000</v>
   <v>       0.16666667      0.08333333      0.00000000</v>
   <v>       0.25000000      0.08333333      0.00000000</v>
   <v>       0.33333333      0.08333333      0.00000000</v>
   <v>       0.41666667      0.08333333      0.00000000</v>
   <v>       0.50000000      0.08333333      0.00000000</v>
   <v>       0.00000000      0.16666667      0.00000000</v>
   <v>       0.08333333      0.16666667      0.00000000</v>
   <v>       0.16666667      0.16666667      0.00000000</v>
   <v>       0.25000000      0.16666667      0.00000000</v>
   <v>       0.33333333      0.16666667      0.00000000</v>
   <v>       0.41666667      0.16666667      0.00000000</v>
   <v>       0.50000000      0.16666667      0.00000000</v>
   <v>       0.00000000      0.25000000      0.00000000</v>
   <v>       0.08333333      0.25000000      0.00000000</v>
   <v>       0.16666667      0.25000000      0.00000000</v>
   <v>       0.25000000      0.25000000      0.00000000</v>
   <v>       0.33333333      0.25000000      0.00000000</v>
   <v>       0.41666667      0.25000000      0.00000000</v>
   <v>       0.50000000      0.25000000      0.00000000</v>
   <v>       0.00000000      0.33333333      0.00000000</v>
   <v>       0.08333333      0.33333333      0.00000000</v>
   <v>       0.16666667      0.33333333      0.00000000</v>
   <v>       0.25000000      0.33333333      0.00000000</v>
   <v>       0.33333333      0.33333333      0.00000000</v>
   <v>       0.41666667      0.33333333      0.00000000</v>
   <v>       0.50000000      0.33333333      0.00000000</v>
   <v>       0.00000000      0.41666667      0.00000000</v>
   <v>       0.08333333      0.41666667      0.00000000</v>
   <v>       0.16666667      0.41666667      0.00000000</v>
   <v>       0.25000000      0.41666667      0.00000000</v>
   <v>       0.33333333      0.41666667      0.00000000</v>
   <v>       0.41666667      0.41666667      0.00000000</v>
   <v>       0.50000000      0.41666667      0.00000000</v>
   <v>       0.00000000      0.50000000      0.00000000</v>
   <v>       0.08333333      0.50000000      0.00000000</v>
   <v>       0.16666667      0.50000000      0.00000000</v>
   <v>       0.25000000      0.50000000      0.00000000</v>
   <v>       0.33333333      0.50000000      0.00000000</v>
   <v>       0.41666667      0.50000000      0.00000000</v>
   <v>       0.50000000      0.50000000      0.00000000</v>
   <v>       0.00000000      0.08333333      0.08333333</v>
   <v>       0.08333333      0.08333333      0.08333333</v>
   <v>       0.16666667      0.08333333      0.08333333</v>
   <v>       0.25000000      0.08333333      0.08333333</v>
   <v>       0.33333333      0.08333333      0.08333333</v>
   <v>       0.41666667      0.08333333      0.08333333</v>
   <v>       0.50000000      0.08333333      0.08333333</v>
   <v>       0.00000000      0.16666667      0.08333333</v>
   <v>       0.08333333      0.16666667      0.08333333</v>
   <v>       0.16666667      0.16666667      0.08333333</v>
   <v>       0.25000000      0.16666667      0.08333333</v>
   <v>       0.33333333      0.16666667      0.08333333</v>
   <v>       0.41666667      0.16666667      0.08333333</v>
   <v>       0.50000000      0.16666667      0.08333333</v>
   <v>       0.00000000      0.25000000      0.08333333</v>
   <v>       0.08333333      0.25000000      0.08333333</v>
   <v>       0.16666667      0.25000000      0.08333333</v>
   <v>       0.25000000      0.25000000      0.08333333</v>
   <v>       0.33333333      0.25000000      0.08333333</v>
   <v>       0.41666667      0.25000000      0.08333333</v>
   <v>       0.50000000      0.25000000      0.08333333</v>
   <v>       0.00000000      0.33333333      0.08333333</v>
   <v>       0.08333333      0.33333333      0.08333333</v>
   <v>       0.16666667      0.33333333      0.08333333</v>
   <v>       0.25000000      0.33333333      0.08333333</v>
   <v>       0.33333333      0.33333333      0.08333333</v>
   <v>       0.41666667      0.33333333      0.08333333</v>
   <v>       0.50000000      0.33333333      0.08333333</v>
   <v>       0.00000000      0.41666667      0.08333333</v>
   <v>       0.08333333      0.41666667      0.08333333</v>
   <v>       0.16666667      0.41666667      0.08333333</v>
   <v>       0.25000000      0.41666667      0.08333333</v>
   <v>       0.33333333      0.41666667      0.08333333</v>
   <v>       0.41666667      0.41666667      0.08333333</v>
   <v>       0.50000000      0.41666667      0.08333333</v>
   <v>       0.00000000      0.50000000      0.08333333</v>
   <v>       0.08333333      0.50000000      0.08333333</v>
   <v>       0.16666667      0.50000000      0.08333333</v>
   <v>       0.25000000      0.50000000      0.08333333</v>
   <v>       0.33333333      0.50000000      0.08333333</v>
   <v>       0.41666667      0.50000000      0.08333333</v>
   <v>       0.50000000      0.50000000      0.08333333</v>
   <v>       0.00000000      0.16666667      0.16666667</v>
   <v>       0.08333333      0.16666667      0.16666667</v>
   <v>       0.16666667      0.16666667      0.16666667</v>
   <v>       0.25000000      0.16666667      0.16666667</v>
   <v>       0.33333333      0.16666667      0.16666667</v>
   <v>       0.41666667      0.16666667      0.16666667</v>
   <v>       0.50000000      0.16666667      0.16666667</v>
   <v>       0.00000000      0.25000000      0.16666667</v>
   <v>       0.08333333      0.25000000      0.16666667</v>
   <v>       0.16666667      0.25000000      0.16666667</v>
   <v>       0.25000000      0.25000000      0.16666667</v>
   <v>       0.33333333      0.25000000      0.16666667</v>
   <v>       0.41666667      0.25000000      0.16666667</v>
   <v>       0.50000000      0.25000000      0.16666667</v>
   <v>       0.00000000      0.33333333      0.16666667</v>
   <v>       0.08333333      0.33333333      0.16666667</v>
   <v>       0.16666667      0.33333333      0.16666667</v>
   <v>       0.25000000      0.33333333      0.16666667</v>
   <v>       0.33333333      0.33333333      0.16666667</v>
   <v>       0.41666667      0.33333333      0.16666667</v>
   <v>       0.50000000      0.33333333      0.16666667</v>
   <v>       0.00000000      0.41666667      0.16666667</v>
   <v>       0.08333333      0.41666667      0.16666667</v>
   <v>       0.16666667      0.41666667      0.16666667</v>
   <v>       0.25000000      0.41666667      0.16666667</v>
   <v>       0.33333333      0.41666667      0.16666667</v>
   <v>       0.41666667      0.41666667      0.16666667</v>
   <v>       0.50000000      0.41666667      0.16666667</v>
   <v>       0.00000000      0.50000000      0.16666667</v>
   <v>       0.08333333      0.50000000      0.16666667</v>
   <v>       0.16666667      0.50000000      0.16666667</v>
   <v>       0.25000000      0.50000000      0.16666667</v>
   <v>       0.33333333      0.50000000      0.16666667</v>
   <v>       0.41666667      0.50000000      0.16666667</v>
   <v>       0.50000000      0.50000000      0.16666667</v>
   <v>       0.00000000      0.25000000      0.25000000</v>
   <v>       0.08333333      0.25000000      0.25000000</v>
   <v>       0.16666667      0.25000000      0.25000000</v>
   <v>       0.25000000      0.25000000      0.25000000</v>
   <v>       0.33333333      0.25000000      0.25000000</v>
   <v>       0.41666667      0.25000000      0.25000000</v>
   <v>       0.50000000      0.25000000      0.25000000</v>
   <v>       0.00000000      0.33333333      0.25000000</v>
   <v>       0.08333333      0.33333333      0.25000000</v>
   <v>       0.16666667      0.33333333      0.25000000</v>
   <v>       0.25000000      0.33333333      0.25000000</v>
   <v>       0.33333333      0.33333333      0.25000000</v>
   <v>       0.41666667      0.33333333      0.25000000</v>
   <v>       0.50000000      0.33333333      0.25000000</v>
   <v>       0.00000000      0.41666667      0.25000000</v>
   <v>       0.08333333      0.41666667      0.25000000</v>
   <v>       0.16666667      0.41666667      0.25000000</v>
   <v>       0.25000000      0.41666667      0.25000000</v>
   <v>       0.33333333      0.41666667      0.25000000</v>
   <v>       0.41666667      0.41666667      0.25000000</v>
   <v>       0.50000000      0.41666667      0.25000000</v>
   <v>       0.00000000      0.50000000      0.25000000</v>
   <v>       0.08333333      0.50000000      0.25000000</v>
   <v>       0.16666667      0.50000000      0.25000000</v>
   <v>       0.25000000      0.50000000      0.25000000</v>
   <v>       0.33333333      0.50000000      0.25000000</v>
   <v>       0.41666667      0.50000000      0.25000000</v>
   <v>       0.50000000      0.50000000      0.25000000</v>
   <v>       0.00000000      0.33333333      0.33333333</v>
   <v>       0.08333333      0.33333333      0.33333333</v>
   <v>       0.16666667      0.33333333      0.33333333</v>
   <v>       0.25000000      0.33333333      0.33333333</v>
   <v>       0.33333333      0.33333333      0.33333333</v>
   <v>       0.41666667      0.33333333      0.33333333</v>
   <v>       0.50000000      0.33333333      0.33333333</v>
   <v>       0.00000000      0.41666667      0.33333333</v>
   <v>       0.08333333      0.41666667      0.33333333</v>
   <v>       0.16666667      0.41666667      0.33333333</v>
   <v>       0.25000000      0.41666667      0.33333333</v>
   <v>       0.33333333      0.41666667      0.33333333</v>
   <v>       0.41666667      0.41666667      0.33333333</v>
   <v>       0.50000000      0.41666667      0.33333333</v>
   <v>       0.00000000      0.50000000      0.33333333</v>
   <v>       0.08333333      0.50000000      0.33333333</v>
   <v>       0.16666667      0.50000000      0.33333333</v>
   <v>       0.25000000      0.50000000      0.33333333</v>
   <v>       0.33333333      0.50000000      0.33333333</v>
   <v>       0.41666667      0.50000000      0.33333333</v>
   <v>       0.50000000      0.50000000      0.33333333</v>
   <v>       0.00000000      0.41666667      0.41666667</v>
   <v>       0.08333333      0.41666667      0.41666667</v>
   <v>       0.16666667      0.41666667      0.41666667</v>
   <v>       0.25000000      0.41666667      0.41666667</v>
   <v>       0.33333333      0.41666667      0.41666667</v>
   <v>       0.41666667      0.41666667      0.41666667</v>
   <v>       0.50000000      0.41666667      0.41666667</v>
   <v>       0.00000000      0.50000000      0.41666667</v>
   <v>       0.08333333      0.50000000      0.41666667</v>
   <v>       0.16666667      0.50000000      0.41666667</v>
   <v>       0.25000000      0.50000000      0.41666667</v>
   <v>       0.33333333      0.50000000      0.41666667</v>
   <v>       0.41666667      0.50000000      0.41666667</v>
   <v>       0.50000000      0.50000000      0.41666667</v>
   <v>       0.00000000      0.50000000      0.50000000</v>
   <v>       0.08333333      0.50000000      0.50000000</v>
   <v>       0.16666667      0.50000000      0.50000000</v>
   <v>       0.25000000      0.50000000      0.50000000</v>
   <v>       0.33333333      0.50000000      0.50000000</v>
   <v>       0.41666667      0.50000000      0.50000000</v>
   <v>       0.50000000      0.50000000      0.50000000</v>
  </varray>
  <varray name="weights" >
   <v>       0.00057870</v>
   <v>       0.00115741</v>
   <v>       0.00115741</v>
   <v>       0.00115741</v>
   <v>       0.00115741</v>
   <v>       0.00115741</v>
   <v>       0.00057870</v>
   <v>       0.00231481</v>
   <v>       0.00462963</v>
   <v>       0.00462963</v>
   <v>       0.00462963</v>
   <v>       0.00462963</v>
   <v>       0.00462963</v>
   <v>       0.00231481</v>
   <v>       0.00231481</v>
   <v>       0.00462963</v>
   <v>       0.00462963</v>
   <v>       0.00462963</v>
   <v>       0.00462963</v>
   <v>       0.00462963</v>
   <v>       0.00231481</v>
   <v>       0.00231481</v>
   <v>       0.00462963</v>
   <v>       0.00462963</v>
   <v>       0.00462963</v>
   <v>       0.00462963</v>
   <v>       0.00462963</v>
   <v>       0.00231481</v>
   <v>       0.00231481</v>
   <v>       0.00462963</v>
   <v>       0.00462963</v>
   <v>       0.00462963</v>
   <v>       0.00462963</v>
   <v>       0.00462963</v>
   <v>       0.00231481</v>
   <v>       0.00231481</v>
   <v>       0.00462963</v>
   <v>       0.00462963</v>
   <v>       0.00462963</v>
   <v>       0.00462963</v>
   <v>       0.00462963</v>
   <v>       0.00231481</v>
   <v>       0.00115741</v>
   <v>       0.00231481</v>
   <v>       0.00231481</v>
   <v>       0.00231481</v>
   <v>       0.00231481</v>
   <v>       0.00231481</v>
   <v>       0.00115741</v>
   <v>       0.00231481</v>
   <v>       0.00462963</v>
   <v>       0.00462963</v>
   <v>       0.00462963</v>
   <v>       0.00462963</v>
   <v>       0.00462963</v>
   <v>       0.00231481</v>
   <v>       0.00462963</v>
   <v>       0.00925926</v>
   <v>       0.00925926</v>
   <v>       0.00925926</v>
   <v>       0.00925926</v>
   <v>       0.00925926</v>
   <v>       0.00462963</v>
   <v>       0.00462963</v>
   <v>       0.00925926</v>
   <v>       0.00925926</v>
   <v>       0.00925926</v>
   <v>       0.00925926</v>
   <v>       0.00925926</v>
   <v>       0.00462963</v>
   <v>       0.00462963</v>
   <v>       0.00925926</v>
   <v>       0.00925926</v>
   <v>       0.00925926</v>
   <v>       0.00925926</v>
   <v>       0.00925926</v>
   <v>       0.00462963</v>
   <v>       0.00462963</v>
   <v>       0.00925926</v>
   <v>       0.00925926</v>
   <v>       0.00925926</v>
   <v>       0.00925926</v>
   <v>       0.00925926</v>
   <v>       0.00462963</v>
   <v>       0.00231481</v>
   <v>       0.00462963</v>
   <v>       0.00462963</v>
   <v>       0.00462963</v>
   <v>       0.00462963</v>
   <v>       0.00462963</v>
   <v>       0.00231481</v>
   <v>       0.00231481</v>
   <v>       0.00462963</v>
   <v>       0.00462963</v>
   <v>       0.00462963</v>
   <v>       0.00462963</v>
   <v>       0.00462963</v>
   <v>       0.00231481</v>
   <v>       0.00462963</v>
   <v>       0.00925926</v>
   <v>       0.00925926</v>
   <v>       0.00925926</v>
   <v>       0.00925926</v>
   <v>       0.00925926</v>
   <v>       0.00462963</v>
   <v>       0.00462963</v>
   <v>       0.00925926</v>
   <v>       0.00925926</v>
   <v>       0.00925926</v>
   <v>       0.00925926</v>
   <v>       0.00925926</v>
   <v>       0.00462963</v>
   <v>       0.00462963</v>
   <v>       0.00925926</v>
   <v>       0.00925926</v>
   <v>       0.00925926</v>
   <v>       0.00925926</v>
   <v>       0.00925926</v>
   <v>       0.00462963</v>
   <v>       0.00231481</v>
   <v>       0.00462963</v>
   <v>       0.00462963</v>
   <v>       0.00462963</v>
   <v>       0.00462963</v>
   <v>       0.00462963</v>
   <v>       0.00231481</v>
   <v>       0.00231481</v>
   <v>       0.00462963</v>
   <v>       0.00462963</v>
   <v>       0.00462963</v>
   <v>       0.00462963</v>
   <v>       0.00462963</v>
   <v>       0.00231481</v>
   <v>       0.00462963</v>
   <v>       0.00925926</v>
   <v>       0.00925926</v>
   <v>       0.00925926</v>
   <v>       0.00925926</v>
   <v>       0.00925926</v>
   <v>       0.00462963</v>
   <v>       0.00462963</v>
   <v>       0.00925926</v>
   <v>       0.00925926</v>
   <v>       0.00925926</v>
   <v>       0.00925926</v>
   <v>       0.00925926</v>
   <v>       0.00462963</v>
   <v>       0.00231481</v>
   <v>       0.00462963</v>
   <v>       0.00462963</v>
   <v>       0.00462963</v>
   <v>       0.00462963</v>
   <v>       0.00462963</v>
   <v>       0.00231481</v>
   <v>       0.00231481</v>
   <v>       0.00462963</v>
   <v>       0.00462963</v>
   <v>       0.00462963</v>
   <v>       0.00462963</v>
   <v>       0.00462963</v>
   <v>       0.00231481</v>
   <v>       0.00462963</v>
   <v>       0.00925926</v>
   <v>       0.00925926</v>
   <v>       0.00925926</v>
   <v>       0.00925926</v>
   <v>       0.00925926</v>
   <v>       0.00462963</v>
   <v>       0.00231481</v>
   <v>       0.00462963</v>
   <v>       0.00462963</v>
   <v>       0.00462963</v>
   <v>       0.00462963</v>
   <v>       0.00462963</v>
   <v>       0.00231481</v>
   <v>       0.00231481</v>
   <v>       0.00462963</v>
   <v>       0.00462963</v>
   <v>       0.00462963</v>
   <v>       0.00462963</v>
   <v>       0.00462963</v>
   <v>       0.00231481</v>
   <v>       0.00231481</v>
   <v>       0.00462963</v>
   <v>       0.00462963</v>
   <v>       0.00462963</v>
   <v>       0.00462963</v>
   <v>       0.00462963</v>
   <v>       0.00231481</v>
   <v>       0.00057870</v>
   <v>       0.00115741</v>
   <v>       0.00115741</v>
   <v>       0.00115741</v>
   <v>       0.00115741</v>
   <v>       0.00115741</v>
   <v>       0.00057870</v>
  </varray>
 </kpoints>
 <parameters>
  <separator name="general" >
   <i type="string" name="SYSTEM">unknown system</i>
   <i type="logical" name="LCOMPAT"> F  </i>
  </separator>
  <separator name="electronic" >
   <i type="string" name="PREC">accura</i>
   <i name="ENMAX">    750.00000000</i>
   <i name="ENAUG">    516.45600000</i>
   <i name="EDIFF">      0.00000001</i>
   <i type="int" name="IALGO">    38</i>
   <i type="int" name="IWAVPR">    10</i>
   <i type="int" name="NBANDS">   211</i>
   <i name="NELECT">    352.00000000</i>
   <separator name="electronic smearing" >
    <i type="int" name="ISMEAR">     0</i>
    <i name="SIGMA">      0.01000000</i>
   </separator>
   <separator name="electronic projectors" >
    <i type="logical" name="LREAL"> F  </i>
    <v name="ROPT">      0.00000000</v>
    <i type="int" name="LMAXPAW">  -100</i>
    <i type="int" name="LMAXMIX">     2</i>
   </separator>
   <separator name="electronic startup" >
    <i type="int" name="ISTART">     0</i>
    <i type="int" name="ICHARG">     2</i>
    <i type="int" name="INIWAV">     1</i>
   </separator>
   <separator name="electronic spin" >
    <i type="int" name="ISPIN">     1</i>
    <i type="logical" name="LNONCOLLINEAR"> F  </i>
    <v name="MAGMOM">      1.00000000      1.00000000      1.00000000      1.00000000      1.00000000      1.00000000      1.00000000      1.00000000      1.00000000      1.00000000      1.00000000      1.00000000      1.00000000      1.00000000      1.00000000      1.00000000      1.00000000      1.00000000      1.00000000      1.00000000
      1.00000000      1.00000000      1.00000000      1.00000000      1.00000000      1.00000000      1.00000000      1.00000000      1.00000000      1.00000000      1.00000000      1.00000000</v>
    <i name="NUPDOWN">     -1.00000000</i>
    <i type="logical" name="LSORBIT"> F  </i>
    <v name="SAXIS">      0.00000000      0.00000000      1.00000000</v>
    <i type="logical" name="LSPIRAL"> F  </i>
    <v name="QSPIRAL">      0.00000000      0.00000000      0.00000000</v>
    <i type="logical" name="LZEROZ"> F  </i>
   </separator>
   <separator name="electronic exchange-correlation" >
    <i type="string" name="GGA">--</i>
    <i type="int" name="VOSKOWN">     0</i>
    <i type="logical" name="LASPH"> F  </i>
    <i type="logical" name="LMETAGGA"> F  </i>
    <i type="string" name="GGA2">--</i>
   </separator>
   <separator name="electronic convergence" >
    <i type="int" name="NELM">    60</i>
    <i type="int" name="NELMDL">    -5</i>
    <i type="int" name="NELMIN">     2</i>
    <i name="ENINI">    750.00000000</i>
    <separator name="electronic convergence detail" >
     <i type="logical" name="LDIAG"> T  </i>
     <i name="WEIMIN">      0.00000000</i>
     <i name="EBREAK">      0.00000000</i>
     <i name="DEPER">      0.30000000</i>
     <i type="int" name="NRMM">     4</i>
     <i name="TIME">      0.10000000</i>
    </separator>
   </separator>
   <separator name="electronic mixer" >
    <i name="AMIX">      0.40000000</i>
    <i name="BMIX">      1.00000000</i>
    <i name="AMIN">      0.10000000</i>
    <i name="AMIX_MAG">      1.60000000</i>
    <i name="BMIX_MAG">      1.00000000</i>
    <separator name="electronic mixer details" >
     <i type="int" name="IMIX">     4</i>
     <i type="int" name="MAXMIX">   -45</i>
     <i name="WC">    100.00000000</i>
     <i type="int" name="INIMIX">     1</i>
     <i type="int" name="MIXPRE">     1</i>
     <i type="int" name="MREMOVE">     5</i>
    </separator>
   </separator>
   <separator name="electronic dipolcorrection" >
    <i type="int" name="IDIPOL">     0</i>
    <i type="logical" name="LDIPOL"> F  </i>
    <v name="DIPOL">   -100.00000000</v>
    <i name="EFIELD">      0.00000000</i>
   </separator>
  </separator>
  <separator name="grids" >
   <i type="int" name="NGX">    70</i>
   <i type="int" name="NGY">    70</i>
   <i type="int" name="NGZ">    70</i>
   <i type="int" name="NGXF">   140</i>
   <i type="int" name="NGYF">   140</i>
   <i type="int" name="NGZF">   140</i>
   <i type="logical" name="ADDGRID"> T  </i>
  </separator>
  <separator name="ionic" >
   <i type="int" name="NSW">     0</i>
   <i type="int" name="IBRION">    -1</i>
   <i type="int" name="ISIF">     2</i>
   <i name="PSTRESS">      0.00000000</i>
   <i name="EDIFFG">      0.00000010</i>
   <i type="int" name="NFREE">     0</i>
   <i name="POTIM">      0.50000000</i>
   <i name="SMASS">     -3.00000000</i>
  </separator>
  <separator name="ionic md" >
   <i name="TEBEG">      0.00010000</i>
   <i name="TEEND">      0.00010000</i>
   <i type="int" name="NBLOCK">     1</i>
   <i type="int" name="KBLOCK">     1</i>
   <i type="int" name="NPACO">   256</i>
   <i name="APACO">     16.00000000</i>
  </separator>
  <separator name="symmetry" >
   <i type="int" name="ISYM">     2</i>
   <i name="SYMPREC">      0.00001000</i>
  </separator>
  <separator name="dos" >
   <i type="logical" name="LORBIT"> F  </i>
   <v name="RWIGS">     -1.00000000</v>
   <i type="int" name="NEDOS">   301</i>
   <i name="EMIN">     10.00000000</i>
   <i name="EMAX">    -10.00000000</i>
  </separator>
  <separator name="writing" >
   <i type="int" name="NWRITE">     2</i>
   <i type="logical" name="LWAVE"> F  </i>
   <i type="logical" name="LCHARG"> F  </i>
   <i type="logical" name="LPARD"> F  </i>
   <i type="logical" name="LVTOT"> F  </i>
   <i type="logical" name="LELF"> F  </i>
   <i type="logical" name="LOPTICS"> F  </i>
   <i name="STM">      0.00000000</i>
  </separator>
  <separator name="performance" >
   <i type="int" name="NPAR">     8</i>
   <i type="int" name="NSIM">     4</i>
   <i type="int" name="NBLK">   256</i>
   <i type="logical" name="LPLANE"> T  </i>
   <i type="logical" name="LCRITICAL_MEM"> F  </i>
   <i type="logical" name="LSCALAPACK"> F  </i>
   <i type="logical" name="LSCALU"> F  </i>
   <i type="logical" name="LASYNC"> F  </i>
  </separator>
  <separator name="miscellaneous" >
   <i type="int" name="IDIOT">     3</i>
   <i type="logical" name="LMUSIC"> F  </i>
   <v name="POMASS">     63.54600000</v>
   <i type="logical" name="LCORR"> T  </i>
  </separator>
  <i type="logical" name="LREAL_COMPAT"> F  </i>
  <i type="logical" name="GGA_COMPAT"> T  </i>
  <i type="logical" name="LBERRY"> F  </i>
  <i type="int" name="ICORELEVEL">     0</i>
  <i type="logical" name="LDAU"> F  </i>
  <i type="int" name="I_CONSTRAINED_M">     0</i>
 </parameters>
 <atominfo>
  <atoms>      32</atoms>
  <types>       1</types>
  <array name="atoms" >
   <dimension dim="1">ion</dimension>
   <field type="string">element</field>
   <field type="int">atomtype</field>
   <set>
    <rc><c>Cu</c><c>   1</c></rc>
    <rc><c>Cu</c><c>   1</c></rc>
    <rc><c>Cu</c><c>   1</c></rc>
    <rc><c>Cu</c><c>   1</c></rc>
    <rc><c>Cu</c><c>   1</c></rc>
    <rc><c>Cu</c><c>   1</c></rc>
    <rc><c>Cu</c><c>   1</c></rc>
    <rc><c>Cu</c><c>   1</c></rc>
    <rc><c>Cu</c><c>   1</c></rc>
    <rc><c>Cu</c><c>   1</c></rc>
    <rc><c>Cu</c><c>   1</c></rc>
    <rc><c>Cu</c><c>   1</c></rc>
    <rc><c>Cu</c><c>   1</c></rc>
    <rc><c>Cu</c><c>   1</c></rc>
    <rc><c>Cu</c><c>   1</c></rc>
    <rc><c>Cu</c><c>   1</c></rc>
    <rc><c>Cu</c><c>   1</c></rc>
    <rc><c>Cu</c><c>   1</c></rc>
    <rc><c>Cu</c><c>   1</c></rc>
    <rc><c>Cu</c><c>   1</c></rc>
    <rc><c>Cu</c><c>   1</c></rc>
    <rc><c>Cu</c><c>   1</c></rc>
    <rc><c>Cu</c><c>   1</c></rc>
    <rc><c>Cu</c><c>   1</c></rc>
    <rc><c>Cu</c><c>   1</c></rc>
    <rc><c>Cu</c><c>   1</c></rc>
    <rc><c>Cu</c><c>   1</c></rc>
    <rc><c>Cu</c><c>   1</c></rc>
    <rc><c>Cu</c><c>   1</c></rc>
    <rc><c>Cu</c><c>   1</c></rc>
    <rc><c>Cu</c><c>   1</c></rc>
    <rc><c>Cu</c><c>   1</c></rc>
   </set>
  </array>
  <array name="atomtypes" >
   <dimension dim="1">type</dimension>
   <field type="int">atomspertype</field>
   <field type="string">element</field>
   <field>mass</field>
   <field>valence</field>
   <field type="string">pseudopotential</field>
   <set>
    <rc><c>  32</c><c>Cu</c><c>     63.54600000</c><c>     11.00000000</c><c> PAW_PBE Cu 05Jan2001                   </c></rc>
   </set>
  </array>
 </atominfo>
 <structure name="initialpos" >
  <crystal>
   <varray name="basis" >
    <v>       7.34555994      0.00000000      0.00000000</v>
    <v>       0.00000000      7.34555994      0.00000000</v>
    <v>       0.00000000      0.00000000      7.34555994</v>
   </varray>
   <i name="volume">    396.34622014</i>
   <varray name="rec_basis" >
    <v>       0.13613666      0.00000000      0.00000000</v>
    <v>       0.00000000      0.13613666      0.00000000</v>
    <v>       0.00000000      0.00000000      0.13613666</v>
   </varray>
  </crystal>
  <varray name="positions" >
   <v>       0.00136137      0.00000000      0.00000000</v>
   <v>       0.50000000      0.00000000      0.00000000</v>
   <v>       0.00000000      0.50000000      0.00000000</v>
   <v>       0.50000000      0.50000000      0.00000000</v>
   <v>       0.00000000      0.00000000      0.50000000</v>
   <v>       0.50000000      0.00000000      0.50000000</v>
   <v>       0.00000000      0.50000000      0.50000000</v>
   <v>       0.50000000      0.50000000      0.50000000</v>
   <v>       0.25000000      0.25000000      0.00000000</v>
   <v>       0.75000000      0.25000000      0.00000000</v>
   <v>       0.25000000      0.75000000      0.00000000</v>
   <v>       0.75000000      0.75000000      0.00000000</v>
   <v>       0.25000000      0.25000000      0.50000000</v>
   <v>       0.75000000      0.25000000      0.50000000</v>
   <v>       0.25000000      0.75000000      0.50000000</v>
   <v>       0.75000000      0.75000000      0.50000000</v>
   <v>       0.25000000      0.00000000      0.25000000</v>
   <v>       0.75000000      0.00000000      0.25000000</v>
   <v>       0.25000000      0.50000000      0.25000000</v>
   <v>       0.75000000      0.50000000      0.25000000</v>
   <v>       0.25000000      0.00000000      0.75000000</v>
   <v>       0.75000000      0.00000000      0.75000000</v>
   <v>       0.25000000      0.50000000      0.75000000</v>
   <v>       0.75000000      0.50000000      0.75000000</v>
   <v>       0.00000000      0.25000000      0.25000000</v>
   <v>       0.50000000      0.25000000      0.25000000</v>
   <v>       0.00000000      0.75000000      0.25000000</v>
   <v>       0.50000000      0.75000000      0.25000000</v>
   <v>       0.00000000      0.25000000      0.75000000</v>
   <v>       0.50000000      0.25000000      0.75000000</v>
   <v>       0.00000000      0.75000000      0.75000000</v>
   <v>       0.50000000      0.75000000      0.75000000</v>
  </varray>
 </structure>
 <calculation>
  <scstep>
   <time name="dav"> 5129.98 5189.40</time>
   <time name="total"> 5135.19 5202.70</time>
   <energy>
    <i name="alphaZ">   3300.87172339</i>
    <i name="ewald"> -34801.06104522</i>
    <i name="hartreedc"> -10732.99141884</i>
    <i name="XCdc">   1400.69799506</i>
    <i name="pawpsdc">  34625.67335558</i>
    <i name="pawaedc"> -39234.46421604</i>
    <i name="eentropy">     -0.00022857</i>
    <i name="bandstr">   4858.80144161</i>
    <i name="atom">  44511.34040493</i>
    <i name="e_fr_energy">   3928.86801190</i>
    <i name="e_wo_entrp">   3928.86824047</i>
    <i name="e_0_energy">   3928.86812618</i>
   </energy>
  </scstep>
  <scstep>
   <time name="dav"> 5165.37 5171.14</time>
   <time name="total"> 5165.61 5171.71</time>
   <energy>
    <i name="e_fr_energy">    456.08185302</i>
    <i name="e_wo_entrp">    456.08237549</i>
    <i name="e_0_energy">    456.08211425</i>
   </energy>
  </scstep>
  <scstep>
   <time name="dav"> 5092.24 5142.52</time>
   <time name="total"> 5092.47 5142.81</time>
   <energy>
    <i name="e_fr_energy">   -107.50329859</i>
    <i name="e_wo_entrp">   -107.50255948</i>
    <i name="e_0_energy">   -107.50292904</i>
   </energy>
  </scstep>
  <scstep>
   <time name="dav"> 5222.31 5355.55</time>
   <time name="total"> 5222.54 5355.87</time>
   <energy>
    <i name="e_fr_energy">   -145.75933959</i>
    <i name="e_wo_entrp">   -145.75864239</i>
    <i name="e_0_energy">   -145.75899099</i>
   </energy>
  </scstep>
  <scstep>
   <time name="dav"> 5295.18 5414.73</time>
   <time name="total"> 5512.22 5639.00</time>
   <energy>
    <i name="e_fr_energy">   -146.20266671</i>
    <i name="e_wo_entrp">   -146.20198356</i>
    <i name="e_0_energy">   -146.20232514</i>
   </energy>
  </scstep>
  <scstep>
   <time name="dav"> 5422.60 5462.85</time>
   <time name="total"> 5646.06 5690.07</time>
   <energy>
    <i name="e_fr_energy">   -129.75629888</i>
    <i name="e_wo_entrp">   -129.75611977</i>
    <i name="e_0_energy">   -129.75620933</i>
   </energy>
  </scstep>
  <scstep>
   <time name="dav"> 5616.26 5620.62</time>
   <time name="total"> 5838.97 5847.37</time>
   <energy>
    <i name="e_fr_energy">   -119.14402486</i>
    <i name="e_wo_entrp">   -119.14285096</i>
    <i name="e_0_energy">   -119.14343791</i>
   </energy>
  </scstep>
  <scstep>
   <time name="dav"> 5266.62 5291.66</time>
   <time name="total"> 5488.23 5516.49</time>
   <energy>
    <i name="e_fr_energy">   -118.93354094</i>
    <i name="e_wo_entrp">   -118.93261756</i>
    <i name="e_0_energy">   -118.93307925</i>
   </energy>
  </scstep>
  <scstep>
   <time name="dav"> 5406.22 5435.47</time>
   <time name="total"> 5626.43 5661.44</time>
   <energy>
    <i name="e_fr_energy">   -118.84253920</i>
    <i name="e_wo_entrp">   -118.84099651</i>
    <i name="e_0_energy">   -118.84176785</i>
   </energy>
  </scstep>
  <scstep>
   <time name="dav"> 5725.72 5783.05</time>
   <time name="total"> 5945.82 6009.54</time>
   <energy>
    <i name="e_fr_energy">   -118.84238311</i>
    <i name="e_wo_entrp">   -118.84082571</i>
    <i name="e_0_energy">   -118.84160441</i>
   </energy>
  </scstep>
  <scstep>
   <time name="dav"> 5336.92 5340.05</time>
   <time name="total"> 5558.32 5565.88</time>
   <energy>
    <i name="e_fr_energy">   -118.84234720</i>
    <i name="e_wo_entrp">   -118.84078014</i>
    <i name="e_0_energy">   -118.84156367</i>
   </energy>
  </scstep>
  <scstep>
   <time name="dav"> 5450.23 5459.71</time>
   <time name="total"> 5671.72 5684.71</time>
   <energy>
    <i name="e_fr_energy">   -118.84228965</i>
    <i name="e_wo_entrp">   -118.84072089</i>
    <i name="e_0_energy">   -118.84150527</i>
   </energy>
  </scstep>
  <scstep>
   <time name="dav"> 5423.20 5428.72</time>
   <time name="total"> 5642.44 5652.92</time>
   <energy>
    <i name="e_fr_energy">   -118.84228984</i>
    <i name="e_wo_entrp">   -118.84072083</i>
    <i name="e_0_energy">   -118.84150533</i>
   </energy>
  </scstep>
  <scstep>
   <time name="dav"> 5349.24 5359.32</time>
   <time name="total"> 5571.26 5585.39</time>
   <energy>
    <i name="e_fr_energy">   -118.84229446</i>
    <i name="e_wo_entrp">   -118.84072568</i>
    <i name="e_0_energy">   -118.84151007</i>
   </energy>
  </scstep>
  <scstep>
   <time name="dav"> 5370.02 5428.91</time>
   <time name="total"> 5592.12 5651.72</time>
   <energy>
    <i name="e_fr_energy">   -118.84229372</i>
    <i name="e_wo_entrp">   -118.84072493</i>
    <i name="e_0_energy">   -118.84150932</i>
   </energy>
  </scstep>
  <scstep>
   <time name="dav"> 5443.42 5587.19</time>
   <time name="total"> 5664.91 5812.02</time>
   <energy>
    <i name="e_fr_energy">   -118.84229202</i>
    <i name="e_wo_entrp">   -118.84072319</i>
    <i name="e_0_energy">   -118.84150761</i>
   </energy>
  </scstep>
  <scstep>
   <time name="dav"> 5792.96 5805.18</time>
   <time name="total"> 6014.80 6030.24</time>
   <energy>
    <i name="e_fr_energy">   -118.84229252</i>
    <i name="e_wo_entrp">   -118.84072367</i>
    <i name="e_0_energy">   -118.84150809</i>
   </energy>
  </scstep>
  <scstep>
   <time name="dav"> 5548.56 5571.12</time>
   <time name="total"> 5770.15 5796.00</time>
   <energy>
    <i name="e_fr_energy">   -118.84229304</i>
    <i name="e_wo_entrp">   -118.84072419</i>
    <i name="e_0_energy">   -118.84150861</i>
   </energy>
  </scstep>
  <scstep>
   <time name="dav"> 4955.23 4971.37</time>
   <time name="total"> 5177.44 5196.36</time>
   <energy>
    <i name="e_fr_energy">   -118.84229284</i>
    <i name="e_wo_entrp">   -118.84072398</i>
    <i name="e_0_energy">   -118.84150841</i>
   </energy>
  </scstep>
  <scstep>
   <time name="dav"> 3401.61 3409.22</time>
   <time name="total"> 3404.79 3412.86</time>
   <energy>
    <i name="alphaZ">   3300.87172339</i>
    <i name="ewald"> -34801.06104522</i>
    <i name="hartreedc"> -10039.43634875</i>
    <i name="XCdc">   1366.75351717</i>
    <i name="pawpsdc">  34932.04241756</i>
    <i name="pawaedc"> -39557.79776084</i>
    <i name="eentropy">     -0.00156886</i>
    <i name="bandstr">    168.44636778</i>
    <i name="atom">  44511.34040493</i>
    <i name="e_fr_energy">   -118.84229284</i>
    <i name="e_wo_entrp">   -118.84072398</i>
    <i name="e_0_energy">   -118.84150841</i>
   </energy>
  </scstep>
  <structure>
   <crystal>
    <varray name="basis" >
     <v>       7.34555994      0.00000000      0.00000000</v>
     <v>       0.00000000      7.34555994      0.00000000</v>
     <v>       0.00000000      0.00000000      7.34555994</v>
    </varray>
    <i name="volume">    396.34622014</i>
    <varray name="rec_basis" >
     <v>       0.13613666      0.00000000      0.00000000</v>
     <v>       0.00000000      0.13613666      0.00000000</v>
     <v>       0.00000000      0.00000000      0.13613666</v>
    </varray>
   </crystal>
   <varray name="positions" >
    <v>       0.00136137      0.00000000      0.00000000</v>
    <v>       0.50000000      0.00000000      0.00000000</v>
    <v>       0.00000000      0.50000000      0.00000000</v>
    <v>       0.50000000      0.50000000      0.00000000</v>
    <v>       0.00000000      0.00000000      0.50000000</v>
    <v>       0.50000000      0.00000000      0.50000000</v>
    <v>       0.00000000      0.50000000      0.50000000</v>
    <v>       0.50000000      0.50000000      0.50000000</v>
    <v>       0.25000000      0.25000000      0.00000000</v>
    <v>       0.75000000      0.25000000      0.00000000</v>
    <v>       0.25000000      0.75000000      0.00000000</v>
    <v>       0.75000000      0.75000000      0.00000000</v>
    <v>       0.25000000      0.25000000      0.50000000</v>
    <v>       0.75000000      0.25000000      0.50000000</v>
    <v>       0.25000000      0.75000000      0.50000000</v>
    <v>       0.75000000      0.75000000      0.50000000</v>
    <v>       0.25000000      0.00000000      0.25000000</v>
    <v>       0.75000000      0.00000000      0.25000000</v>
    <v>       0.25000000      0.50000000      0.25000000</v>
    <v>       0.75000000      0.50000000      0.25000000</v>
    <v>       0.25000000      0.00000000      0.75000000</v>
    <v>       0.75000000      0.00000000      0.75000000</v>
    <v>       0.25000000      0.50000000      0.75000000</v>
    <v>       0.75000000      0.50000000      0.75000000</v>
    <v>       0.00000000      0.25000000      0.25000000</v>
    <v>       0.50000000      0.25000000      0.25000000</v>
    <v>       0.00000000      0.75000000      0.25000000</v>
    <v>       0.50000000      0.75000000      0.25000000</v>
    <v>       0.00000000      0.25000000      0.75000000</v>
    <v>       0.50000000      0.25000000      0.75000000</v>
    <v>       0.00000000      0.75000000      0.75000000</v>
    <v>       0.50000000      0.75000000      0.75000000</v>
   </varray>
  </structure>
  <varray name="forces" >
   <v>      -0.05690945     -0.00000000      0.00000000</v>
   <v>       0.00090424      0.00000000     -0.00000000</v>
   <v>      -0.00042454      0.00000000     -0.00000000</v>
   <v>      -0.00018097     -0.00000000     -0.00000000</v>
   <v>      -0.00042454      0.00000000      0.00000000</v>
   <v>      -0.00018097      0.00000000      0.00000000</v>
   <v>      -0.00008750      0.00000000      0.00000000</v>
   <v>      -0.00013115      0.00000000     -0.00000000</v>
   <v>       0.00691445      0.00783668     -0.00000000</v>
   <v>       0.00668871     -0.00752741     -0.00000000</v>
   <v>       0.00691445     -0.00783668     -0.00000000</v>
   <v>       0.00668871      0.00752741      0.00000000</v>
   <v>       0.00030267      0.00009486      0.00000000</v>
   <v>       0.00030624     -0.00010279      0.00000000</v>
   <v>       0.00030267     -0.00009486     -0.00000000</v>
   <v>       0.00030624      0.00010279      0.00000000</v>
   <v>       0.00691445      0.00000000      0.00783668</v>
   <v>       0.00668871     -0.00000000     -0.00752741</v>
   <v>       0.00030267      0.00000000      0.00009486</v>
   <v>       0.00030624     -0.00000000     -0.00010279</v>
   <v>       0.00691445     -0.00000000     -0.00783668</v>
   <v>       0.00668871      0.00000000      0.00752741</v>
   <v>       0.00030267      0.00000000     -0.00009486</v>
   <v>       0.00030624      0.00000000      0.00010279</v>
   <v>      -0.00047389     -0.00001632     -0.00001632</v>
   <v>       0.00062053     -0.00000018     -0.00000018</v>
   <v>      -0.00047389      0.00001632     -0.00001632</v>
   <v>       0.00062053      0.00000018     -0.00000018</v>
   <v>      -0.00047389     -0.00001632      0.00001632</v>
   <v>       0.00062053     -0.00000018      0.00000018</v>
   <v>      -0.00047389      0.00001632      0.00001632</v>
   <v>       0.00062053      0.00000018      0.00000018</v>
  </varray>
  <varray name="stress" >
   <v>     -37.80558667     -0.00000000      0.00000000</v>
   <v>       0.00000000    -37.80279032      0.00000000</v>
   <v>       0.00000000      0.00000000    -37.80279032</v>
  </varray>
  <energy>
   <i name="e_fr_energy">   -118.84229284</i>
   <i name="e_wo_entrp">   -118.84150841</i>
   <i name="e_0_energy">     -0.00156886</i>
  </energy>
  <eigenvalues>
   <array>
    <dimension dim="1">band</dimension>
    <dimension dim="2">kpoint</dimension>
    <dimension dim="3">spin</dimension>
    <field>eigene</field>
    <field>occ</field>
    <set>
     <set comment="spin 1">
      <set comment="kpoint 1">
       <r>  -5.5988  1.0000</r>
       <r>  -2.9200  1.0000</r>
       <r>  -2.9169  1.0000</r>
       <r>  -2.9169  1.0000</r>
       <r>  -2.9169  1.0000</r>
       <r>  -2.9169  1.0000</r>
       <r>  -2.9138  1.0000</r>
       <r>  -1.4383  1.0000</r>
       <r>  -1.4383  1.0000</r>
       <r>  -1.4383  1.0000</r>
       <r>  -1.4383  1.0000</r>
       <r>  -1.2298  1.0000</r>
       <r>  -1.2298  1.0000</r>
       <r>  -1.2298  1.0000</r>
       <r>  -1.0849  1.0000</r>
       <r>  -1.0827  1.0000</r>
       <r>  -1.0827  1.0000</r>
       <r>  -1.0816  1.0000</r>
       <r>  -1.0814  1.0000</r>
       <r>  -1.0814  1.0000</r>
       <r>  -1.0813  1.0000</r>
       <r>  -1.0813  1.0000</r>
       <r>  -1.0811  1.0000</r>
       <r>  -1.0800  1.0000</r>
       <r>  -1.0800  1.0000</r>
       <r>  -1.0778  1.0000</r>
       <r>  -0.8075  1.0000</r>
       <r>  -0.8075  1.0000</r>
       <r>  -0.8075  1.0000</r>
       <r>  -0.5350  1.0000</r>
       <r>  -0.5331  1.0000</r>
       <r>  -0.5331  1.0000</r>
       <r>  -0.5331  1.0000</r>
       <r>  -0.5331  1.0000</r>
       <r>  -0.5313  1.0000</r>
       <r>  -0.1791  1.0000</r>
       <r>  -0.1775  1.0000</r>
       <r>  -0.1775  1.0000</r>
       <r>  -0.1775  1.0000</r>
       <r>  -0.1775  1.0000</r>
       <r>  -0.1759  1.0000</r>
       <r>   0.0197  1.0000</r>
       <r>   0.0203  1.0000</r>
       <r>   0.0203  1.0000</r>
       <r>   0.0224  1.0000</r>
       <r>   0.0224  1.0000</r>
       <r>   0.0224  1.0000</r>
       <r>   0.0224  1.0000</r>
       <r>   0.0225  1.0000</r>
       <r>   0.0225  1.0000</r>
       <r>   0.0225  1.0000</r>
       <r>   0.0235  1.0000</r>
       <r>   0.0235  1.0000</r>
       <r>   0.0237  1.0000</r>
       <r>   0.0245  1.0000</r>
       <r>   0.0245  1.0000</r>
       <r>   0.0248  1.0000</r>
       <r>   0.0248  1.0000</r>
       <r>   0.0249  1.0000</r>
       <r>   0.0249  1.0000</r>
       <r>   0.0249  1.0000</r>
       <r>   0.0249  1.0000</r>
       <r>   0.0263  1.0000</r>
       <r>   0.0263  1.0000</r>
       <r>   0.0287  1.0000</r>
       <r>   0.2184  1.0000</r>
       <r>   0.2207  1.0000</r>
       <r>   0.2207  1.0000</r>
       <r>   0.2210  1.0000</r>
       <r>   0.2212  1.0000</r>
       <r>   0.2212  1.0000</r>
       <r>   0.2212  1.0000</r>
       <r>   0.2212  1.0000</r>
       <r>   0.2214  1.0000</r>
       <r>   0.2217  1.0000</r>
       <r>   0.2217  1.0000</r>
       <r>   0.2240  1.0000</r>
       <r>   0.4579  1.0000</r>
       <r>   0.4579  1.0000</r>
       <r>   0.4579  1.0000</r>
       <r>   0.4579  1.0000</r>
       <r>   0.4579  1.0000</r>
       <r>   0.4579  1.0000</r>
       <r>   0.4580  1.0000</r>
       <r>   0.4580  1.0000</r>
       <r>   0.4840  1.0000</r>
       <r>   0.4840  1.0000</r>
       <r>   0.4840  1.0000</r>
       <r>   0.8339  1.0000</r>
       <r>   0.8354  1.0000</r>
       <r>   0.8354  1.0000</r>
       <r>   0.8354  1.0000</r>
       <r>   0.8354  1.0000</r>
       <r>   0.8370  1.0000</r>
       <r>   0.9531  1.0000</r>
       <r>   0.9536  1.0000</r>
       <r>   0.9543  1.0000</r>
       <r>   0.9543  1.0000</r>
       <r>   0.9548  1.0000</r>
       <r>   0.9548  1.0000</r>
       <r>   0.9548  1.0000</r>
       <r>   0.9548  1.0000</r>
       <r>   0.9553  1.0000</r>
       <r>   0.9553  1.0000</r>
       <r>   0.9561  1.0000</r>
       <r>   0.9565  1.0000</r>
       <r>   1.0977  1.0000</r>
       <r>   1.0977  1.0000</r>
       <r>   1.0993  1.0000</r>
       <r>   1.0993  1.0000</r>
       <r>   1.0995  1.0000</r>
       <r>   1.0995  1.0000</r>
       <r>   1.0996  1.0000</r>
       <r>   1.0996  1.0000</r>
       <r>   1.0997  1.0000</r>
       <r>   1.0997  1.0000</r>
       <r>   1.1013  1.0000</r>
       <r>   1.1013  1.0000</r>
       <r>   1.2174  1.0000</r>
       <r>   1.2184  1.0000</r>
       <r>   1.2184  1.0000</r>
       <r>   1.2184  1.0000</r>
       <r>   1.2185  1.0000</r>
       <r>   1.2194  1.0000</r>
       <r>   1.2462  1.0000</r>
       <r>   1.2462  1.0000</r>
       <r>   1.2476  1.0000</r>
       <r>   1.2479  1.0000</r>
       <r>   1.2479  1.0000</r>
       <r>   1.2480  1.0000</r>
       <r>   1.2480  1.0000</r>
       <r>   1.2480  1.0000</r>
       <r>   1.2481  1.0000</r>
       <r>   1.2485  1.0000</r>
       <r>   1.2499  1.0000</r>
       <r>   1.2499  1.0000</r>
       <r>   1.2530  1.0000</r>
       <r>   1.2532  1.0000</r>
       <r>   1.5051  1.0000</r>
       <r>   1.5059  1.0000</r>
       <r>   1.5059  1.0000</r>
       <r>   1.5059  1.0000</r>
       <r>   1.5059  1.0000</r>
       <r>   1.5067  1.0000</r>
       <r>   1.7640  1.0000</r>
       <r>   1.7640  1.0000</r>
       <r>   1.7640  1.0000</r>
       <r>   1.7773  1.0000</r>
       <r>   1.7773  1.0000</r>
       <r>   1.7773  1.0000</r>
       <r>   1.7773  1.0000</r>
       <r>   1.7773  1.0000</r>
       <r>   1.7773  1.0000</r>
       <r>   1.7773  1.0000</r>
       <r>   1.7773  1.0000</r>
       <r>   1.9068  1.0000</r>
       <r>   1.9072  1.0000</r>
       <r>   1.9072  1.0000</r>
       <r>   1.9072  1.0000</r>
       <r>   1.9072  1.0000</r>
       <r>   1.9072  1.0000</r>
       <r>   1.9078  1.0000</r>
       <r>   1.9079  1.0000</r>
       <r>   1.9079  1.0000</r>
       <r>   1.9079  1.0000</r>
       <r>   1.9079  1.0000</r>
       <r>   1.9083  1.0000</r>
       <r>   2.5338  1.0000</r>
       <r>   2.5339  1.0000</r>
       <r>   2.5339  1.0000</r>
       <r>   2.5339  1.0000</r>
       <r>   3.0454  1.0000</r>
       <r>   3.0456  1.0000</r>
       <r>   3.0456  1.0000</r>
       <r>   3.0465  1.0000</r>
       <r>   3.0468  1.0000</r>
       <r>   3.0468  1.0000</r>
       <r>   3.0468  1.0000</r>
       <r>   3.0468  1.0000</r>
       <r>   3.0471  1.0000</r>
       <r>   3.0480  1.0000</r>
       <r>   3.0480  1.0000</r>
       <r>   3.0483  1.0000</r>
       <r>   4.9393  0.0000</r>
       <r>   4.9393  0.0000</r>
       <r>   4.9393  0.0000</r>
       <r>   6.9107  0.0000</r>
       <r>   6.9107  0.0000</r>
       <r>   6.9107  0.0000</r>
       <r>   6.9108  0.0000</r>
       <r>   9.4272  0.0000</r>
       <r>   9.4272  0.0000</r>
       <r>   9.4307  0.0000</r>
       <r>   9.4307  0.0000</r>
       <r>   9.4311  0.0000</r>
       <r>   9.4311  0.0000</r>
       <r>   9.4311  0.0000</r>
       <r>   9.4312  0.0000</r>
       <r>   9.4315  0.0000</r>
       <r>   9.4315  0.0000</r>
       <r>   9.4350  0.0000</r>
       <r>   9.4350  0.0000</r>
       <r>  10.1841  0.0000</r>
       <r>  10.1841  0.0000</r>
       <r>  10.1841  0.0000</r>
       <r>  11.4815  0.0000</r>
       <r>  11.4843  0.0000</r>
       <r>  11.4843  0.0000</r>
       <r>  11.4843  0.0000</r>
       <r>  11.4843  0.0000</r>
       <r>  11.4870  0.0000</r>
       <r>  11.7988  0.0000</r>
       <r>  11.7991  0.0000</r>
       <r>  11.7992  0.0000</r>
       <r>  11.7992  0.0000</r>
       <r>  11.7995  0.0000</r>
      </set>
      <set comment="kpoint 2">
       <r>  -5.5784  1.0000</r>
       <r>  -3.2951  1.0000</r>
       <r>  -2.9002  1.0000</r>
       <r>  -2.9002  1.0000</r>
       <r>  -2.9002  1.0000</r>
       <r>  -2.9002  1.0000</r>
       <r>  -2.5416  1.0000</r>
       <r>  -1.4339  1.0000</r>
       <r>  -1.4339  1.0000</r>
       <r>  -1.4339  1.0000</r>
       <r>  -1.4339  1.0000</r>
       <r>  -1.2865  1.0000</r>
       <r>  -1.2865  1.0000</r>
       <r>  -1.2865  1.0000</r>
       <r>  -1.2865  1.0000</r>
       <r>  -1.2300  1.0000</r>
       <r>  -1.2204  1.0000</r>
       <r>  -1.2204  1.0000</r>
       <r>  -1.0907  1.0000</r>
       <r>  -1.0907  1.0000</r>
       <r>  -1.0907  1.0000</r>
       <r>  -1.0907  1.0000</r>
       <r>  -0.8953  1.0000</r>
       <r>  -0.8953  1.0000</r>
       <r>  -0.8953  1.0000</r>
       <r>  -0.8953  1.0000</r>
       <r>  -0.8022  1.0000</r>
       <r>  -0.8019  1.0000</r>
       <r>  -0.8019  1.0000</r>
       <r>  -0.5493  1.0000</r>
       <r>  -0.5492  1.0000</r>
       <r>  -0.5259  1.0000</r>
       <r>  -0.5259  1.0000</r>
       <r>  -0.5259  1.0000</r>
       <r>  -0.5258  1.0000</r>
       <r>  -0.2615  1.0000</r>
       <r>  -0.1752  1.0000</r>
       <r>  -0.1752  1.0000</r>
       <r>  -0.1752  1.0000</r>
       <r>  -0.1752  1.0000</r>
       <r>  -0.1132  1.0000</r>
       <r>  -0.1132  1.0000</r>
       <r>  -0.0930  1.0000</r>
       <r>   0.0086  1.0000</r>
       <r>   0.0089  1.0000</r>
       <r>   0.0089  1.0000</r>
       <r>   0.0090  1.0000</r>
       <r>   0.0146  1.0000</r>
       <r>   0.0146  1.0000</r>
       <r>   0.0146  1.0000</r>
       <r>   0.0146  1.0000</r>
       <r>   0.0231  1.0000</r>
       <r>   0.0232  1.0000</r>
       <r>   0.0233  1.0000</r>
       <r>   0.0233  1.0000</r>
       <r>   0.0366  1.0000</r>
       <r>   0.0367  1.0000</r>
       <r>   0.0367  1.0000</r>
       <r>   0.0369  1.0000</r>
       <r>   0.0469  1.0000</r>
       <r>   0.0470  1.0000</r>
       <r>   0.0470  1.0000</r>
       <r>   0.0473  1.0000</r>
       <r>   0.1545  1.0000</r>
       <r>   0.1545  1.0000</r>
       <r>   0.1545  1.0000</r>
       <r>   0.1545  1.0000</r>
       <r>   0.1705  1.0000</r>
       <r>   0.1705  1.0000</r>
       <r>   0.2258  1.0000</r>
       <r>   0.2258  1.0000</r>
       <r>   0.2258  1.0000</r>
       <r>   0.2258  1.0000</r>
       <r>   0.2757  1.0000</r>
       <r>   0.2757  1.0000</r>
       <r>   0.2757  1.0000</r>
       <r>   0.2758  1.0000</r>
       <r>   0.4543  1.0000</r>
       <r>   0.4543  1.0000</r>
       <r>   0.4543  1.0000</r>
       <r>   0.4543  1.0000</r>
       <r>   0.4630  1.0000</r>
       <r>   0.4630  1.0000</r>
       <r>   0.4630  1.0000</r>
       <r>   0.4630  1.0000</r>
       <r>   0.4782  1.0000</r>
       <r>   0.4887  1.0000</r>
       <r>   0.4887  1.0000</r>
       <r>   0.8071  1.0000</r>
       <r>   0.8072  1.0000</r>
       <r>   0.8072  1.0000</r>
       <r>   0.8072  1.0000</r>
       <r>   0.8417  1.0000</r>
       <r>   0.8680  1.0000</r>
       <r>   0.9327  1.0000</r>
       <r>   0.9328  1.0000</r>
       <r>   0.9328  1.0000</r>
       <r>   0.9328  1.0000</r>
       <r>   0.9532  1.0000</r>
       <r>   0.9532  1.0000</r>
       <r>   0.9532  1.0000</r>
       <r>   0.9532  1.0000</r>
       <r>   0.9779  1.0000</r>
       <r>   0.9779  1.0000</r>
       <r>   0.9780  1.0000</r>
       <r>   0.9780  1.0000</r>
       <r>   1.0103  1.0000</r>
       <r>   1.0103  1.0000</r>
       <r>   1.0994  1.0000</r>
       <r>   1.0994  1.0000</r>
       <r>   1.0995  1.0000</r>
       <r>   1.0995  1.0000</r>
       <r>   1.1239  1.0000</r>
       <r>   1.1239  1.0000</r>
       <r>   1.1239  1.0000</r>
       <r>   1.1239  1.0000</r>
       <r>   1.1918  1.0000</r>
       <r>   1.1918  1.0000</r>
       <r>   1.2057  1.0000</r>
       <r>   1.2057  1.0000</r>
       <r>   1.2057  1.0000</r>
       <r>   1.2057  1.0000</r>
       <r>   1.2185  1.0000</r>
       <r>   1.2186  1.0000</r>
       <r>   1.2186  1.0000</r>
       <r>   1.2186  1.0000</r>
       <r>   1.2320  1.0000</r>
       <r>   1.2320  1.0000</r>
       <r>   1.2477  1.0000</r>
       <r>   1.2550  1.0000</r>
       <r>   1.2706  1.0000</r>
       <r>   1.2706  1.0000</r>
       <r>   1.2706  1.0000</r>
       <r>   1.2707  1.0000</r>
       <r>   1.2992  1.0000</r>
       <r>   1.2992  1.0000</r>
       <r>   1.2992  1.0000</r>
       <r>   1.2992  1.0000</r>
       <r>   1.4726  1.0000</r>
       <r>   1.5118  1.0000</r>
       <r>   1.5118  1.0000</r>
       <r>   1.5118  1.0000</r>
       <r>   1.5118  1.0000</r>
       <r>   1.5393  1.0000</r>
       <r>   1.7114  1.0000</r>
       <r>   1.7115  1.0000</r>
       <r>   1.7115  1.0000</r>
       <r>   1.7115  1.0000</r>
       <r>   1.7572  1.0000</r>
       <r>   1.7572  1.0000</r>
       <r>   1.7618  1.0000</r>
       <r>   1.7716  1.0000</r>
       <r>   1.7716  1.0000</r>
       <r>   1.7716  1.0000</r>
       <r>   1.7717  1.0000</r>
       <r>   1.8721  1.0000</r>
       <r>   1.8721  1.0000</r>
       <r>   1.8991  1.0000</r>
       <r>   1.8991  1.0000</r>
       <r>   1.8991  1.0000</r>
       <r>   1.8991  1.0000</r>
       <r>   1.8992  1.0000</r>
       <r>   1.8992  1.0000</r>
       <r>   1.9068  1.0000</r>
       <r>   1.9072  1.0000</r>
       <r>   1.9079  1.0000</r>
       <r>   1.9083  1.0000</r>
       <r>   2.5748  1.0000</r>
       <r>   2.5749  1.0000</r>
       <r>   2.5749  1.0000</r>
       <r>   2.5749  1.0000</r>
       <r>   2.7856  1.0000</r>
       <r>   2.7856  1.0000</r>
       <r>   2.7856  1.0000</r>
       <r>   2.7856  1.0000</r>
       <r>   3.0449  1.0000</r>
       <r>   3.0449  1.0000</r>
       <r>   3.0449  1.0000</r>
       <r>   3.0449  1.0000</r>
       <r>   3.3536  1.0000</r>
       <r>   3.3536  1.0000</r>
       <r>   3.3536  1.0000</r>
       <r>   3.3536  1.0000</r>
       <r>   4.7959  0.0000</r>
       <r>   4.9928  0.0000</r>
       <r>   4.9928  0.0000</r>
       <r>   6.9715  0.0000</r>
       <r>   6.9715  0.0000</r>
       <r>   6.9715  0.0000</r>
       <r>   6.9715  0.0000</r>
       <r>   8.8732  0.0000</r>
       <r>   8.8732  0.0000</r>
       <r>   9.1216  0.0000</r>
       <r>   9.1216  0.0000</r>
       <r>   9.1216  0.0000</r>
       <r>   9.1217  0.0000</r>
       <r>   9.4585  0.0000</r>
       <r>   9.4585  0.0000</r>
       <r>   9.4586  0.0000</r>
       <r>   9.4586  0.0000</r>
       <r>  10.0093  0.0000</r>
       <r>  10.0093  0.0000</r>
       <r>  10.1921  0.0000</r>
       <r>  10.1921  0.0000</r>
       <r>  10.3687  0.0000</r>
       <r>  11.3328  0.0000</r>
       <r>  11.3328  0.0000</r>
       <r>  11.6130  0.0000</r>
       <r>  11.6130  0.0000</r>
       <r>  11.6130  0.0000</r>
       <r>  11.6131  0.0000</r>
       <r>  11.9864  0.0000</r>
       <r>  11.9980  0.0000</r>
       <r>  12.0337  0.0000</r>
       <r>  12.0338  0.0000</r>
       <r>  12.0338  0.0000</r>
      </set>
      <set comment="kpoint 3">
       <r>  -5.5172  1.0000</r>
       <r>  -3.6625  1.0000</r>
       <r>  -2.8504  1.0000</r>
       <r>  -2.8504  1.0000</r>
       <r>  -2.8504  1.0000</r>
       <r>  -2.8504  1.0000</r>
       <r>  -2.1881  1.0000</r>
       <r>  -1.5043  1.0000</r>
       <r>  -1.5043  1.0000</r>
       <r>  -1.5043  1.0000</r>
       <r>  -1.5043  1.0000</r>
       <r>  -1.4206  1.0000</r>
       <r>  -1.4206  1.0000</r>
       <r>  -1.4206  1.0000</r>
       <r>  -1.4206  1.0000</r>
       <r>  -1.2314  1.0000</r>
       <r>  -1.1926  1.0000</r>
       <r>  -1.1926  1.0000</r>
       <r>  -1.1166  1.0000</r>
       <r>  -1.1166  1.0000</r>
       <r>  -1.1166  1.0000</r>
       <r>  -1.1166  1.0000</r>
       <r>  -0.7865  1.0000</r>
       <r>  -0.7853  1.0000</r>
       <r>  -0.7853  1.0000</r>
       <r>  -0.7319  1.0000</r>
       <r>  -0.7319  1.0000</r>
       <r>  -0.7319  1.0000</r>
       <r>  -0.7319  1.0000</r>
       <r>  -0.5948  1.0000</r>
       <r>  -0.5948  1.0000</r>
       <r>  -0.5046  1.0000</r>
       <r>  -0.5046  1.0000</r>
       <r>  -0.5046  1.0000</r>
       <r>  -0.5046  1.0000</r>
       <r>  -0.3435  1.0000</r>
       <r>  -0.2364  1.0000</r>
       <r>  -0.2364  1.0000</r>
       <r>  -0.1684  1.0000</r>
       <r>  -0.1684  1.0000</r>
       <r>  -0.1684  1.0000</r>
       <r>  -0.1684  1.0000</r>
       <r>  -0.0106  1.0000</r>
       <r>  -0.0104  1.0000</r>
       <r>  -0.0104  1.0000</r>
       <r>  -0.0103  1.0000</r>
       <r>  -0.0094  1.0000</r>
       <r>  -0.0084  1.0000</r>
       <r>  -0.0084  1.0000</r>
       <r>  -0.0083  1.0000</r>
       <r>  -0.0083  1.0000</r>
       <r>   0.0254  1.0000</r>
       <r>   0.0255  1.0000</r>
       <r>   0.0255  1.0000</r>
       <r>   0.0255  1.0000</r>
       <r>   0.0444  1.0000</r>
       <r>   0.0444  1.0000</r>
       <r>   0.0444  1.0000</r>
       <r>   0.0446  1.0000</r>
       <r>   0.0780  1.0000</r>
       <r>   0.0780  1.0000</r>
       <r>   0.0780  1.0000</r>
       <r>   0.0780  1.0000</r>
       <r>   0.1114  1.0000</r>
       <r>   0.1114  1.0000</r>
       <r>   0.1114  1.0000</r>
       <r>   0.1114  1.0000</r>
       <r>   0.2392  1.0000</r>
       <r>   0.2392  1.0000</r>
       <r>   0.2392  1.0000</r>
       <r>   0.2392  1.0000</r>
       <r>   0.3194  1.0000</r>
       <r>   0.3194  1.0000</r>
       <r>   0.3194  1.0000</r>
       <r>   0.3194  1.0000</r>
       <r>   0.3303  1.0000</r>
       <r>   0.3303  1.0000</r>
       <r>   0.4435  1.0000</r>
       <r>   0.4435  1.0000</r>
       <r>   0.4435  1.0000</r>
       <r>   0.4435  1.0000</r>
       <r>   0.4610  1.0000</r>
       <r>   0.4782  1.0000</r>
       <r>   0.4782  1.0000</r>
       <r>   0.4782  1.0000</r>
       <r>   0.4782  1.0000</r>
       <r>   0.5027  1.0000</r>
       <r>   0.5027  1.0000</r>
       <r>   0.7449  1.0000</r>
       <r>   0.7450  1.0000</r>
       <r>   0.7450  1.0000</r>
       <r>   0.7450  1.0000</r>
       <r>   0.8727  1.0000</r>
       <r>   0.8807  1.0000</r>
       <r>   0.8808  1.0000</r>
       <r>   0.8808  1.0000</r>
       <r>   0.8808  1.0000</r>
       <r>   0.9255  1.0000</r>
       <r>   0.9255  1.0000</r>
       <r>   0.9581  1.0000</r>
       <r>   0.9736  1.0000</r>
       <r>   0.9736  1.0000</r>
       <r>   0.9736  1.0000</r>
       <r>   0.9739  1.0000</r>
       <r>   1.0166  1.0000</r>
       <r>   1.0166  1.0000</r>
       <r>   1.0167  1.0000</r>
       <r>   1.0167  1.0000</r>
       <r>   1.0994  1.0000</r>
       <r>   1.0994  1.0000</r>
       <r>   1.0994  1.0000</r>
       <r>   1.0994  1.0000</r>
       <r>   1.1697  1.0000</r>
       <r>   1.1697  1.0000</r>
       <r>   1.1700  1.0000</r>
       <r>   1.1700  1.0000</r>
       <r>   1.1720  1.0000</r>
       <r>   1.1720  1.0000</r>
       <r>   1.1723  1.0000</r>
       <r>   1.1723  1.0000</r>
       <r>   1.2184  1.0000</r>
       <r>   1.2184  1.0000</r>
       <r>   1.2184  1.0000</r>
       <r>   1.2184  1.0000</r>
       <r>   1.2320  1.0000</r>
       <r>   1.2614  1.0000</r>
       <r>   1.2701  1.0000</r>
       <r>   1.2702  1.0000</r>
       <r>   1.2861  1.0000</r>
       <r>   1.2861  1.0000</r>
       <r>   1.3242  1.0000</r>
       <r>   1.3242  1.0000</r>
       <r>   1.3242  1.0000</r>
       <r>   1.3243  1.0000</r>
       <r>   1.3585  1.0000</r>
       <r>   1.3585  1.0000</r>
       <r>   1.3585  1.0000</r>
       <r>   1.3585  1.0000</r>
       <r>   1.4400  1.0000</r>
       <r>   1.5339  1.0000</r>
       <r>   1.5339  1.0000</r>
       <r>   1.5339  1.0000</r>
       <r>   1.5339  1.0000</r>
       <r>   1.5503  1.0000</r>
       <r>   1.5504  1.0000</r>
       <r>   1.5504  1.0000</r>
       <r>   1.5504  1.0000</r>
       <r>   1.5722  1.0000</r>
       <r>   1.7370  1.0000</r>
       <r>   1.7370  1.0000</r>
       <r>   1.7548  1.0000</r>
       <r>   1.7548  1.0000</r>
       <r>   1.7548  1.0000</r>
       <r>   1.7548  1.0000</r>
       <r>   1.7552  1.0000</r>
       <r>   1.7737  1.0000</r>
       <r>   1.7737  1.0000</r>
       <r>   1.8735  1.0000</r>
       <r>   1.8735  1.0000</r>
       <r>   1.8735  1.0000</r>
       <r>   1.8735  1.0000</r>
       <r>   1.8752  1.0000</r>
       <r>   1.8752  1.0000</r>
       <r>   1.9068  1.0000</r>
       <r>   1.9072  1.0000</r>
       <r>   1.9078  1.0000</r>
       <r>   1.9083  1.0000</r>
       <r>   2.5612  1.0000</r>
       <r>   2.5612  1.0000</r>
       <r>   2.5613  1.0000</r>
       <r>   2.5613  1.0000</r>
       <r>   2.6645  1.0000</r>
       <r>   2.6645  1.0000</r>
       <r>   2.6645  1.0000</r>
       <r>   2.6645  1.0000</r>
       <r>   3.0390  1.0000</r>
       <r>   3.0390  1.0000</r>
       <r>   3.0390  1.0000</r>
       <r>   3.0390  1.0000</r>
       <r>   3.7134  0.0000</r>
       <r>   3.7134  0.0000</r>
       <r>   3.7134  0.0000</r>
       <r>   3.7134  0.0000</r>
       <r>   4.4172  0.0000</r>
       <r>   5.1465  0.0000</r>
       <r>   5.1465  0.0000</r>
       <r>   7.1509  0.0000</r>
       <r>   7.1509  0.0000</r>
       <r>   7.1509  0.0000</r>
       <r>   7.1509  0.0000</r>
       <r>   8.3369  0.0000</r>
       <r>   8.3369  0.0000</r>
       <r>   8.4818  0.0000</r>
       <r>   8.4818  0.0000</r>
       <r>   8.4818  0.0000</r>
       <r>   8.4818  0.0000</r>
       <r>   9.5403  0.0000</r>
       <r>   9.5403  0.0000</r>
       <r>   9.5403  0.0000</r>
       <r>   9.5403  0.0000</r>
       <r>  10.2161  0.0000</r>
       <r>  10.2161  0.0000</r>
       <r>  10.6066  0.0000</r>
       <r>  10.6066  0.0000</r>
       <r>  10.8714  0.0000</r>
       <r>  11.1176  0.0000</r>
       <r>  11.1176  0.0000</r>
       <r>  11.6152  0.0000</r>
       <r>  11.6152  0.0000</r>
       <r>  11.6153  0.0000</r>
       <r>  11.6153  0.0000</r>
       <r>  11.7017  0.0000</r>
       <r>  11.7017  0.0000</r>
       <r>  11.7017  0.0000</r>
       <r>  11.7017  0.0000</r>
       <r>  11.8734  0.0000</r>
      </set>
      <set comment="kpoint 4">
       <r>  -5.4155  1.0000</r>
       <r>  -4.0095  1.0000</r>
       <r>  -2.7682  1.0000</r>
       <r>  -2.7681  1.0000</r>
       <r>  -2.7681  1.0000</r>
       <r>  -2.7681  1.0000</r>
       <r>  -1.8792  1.0000</r>
       <r>  -1.7269  1.0000</r>
       <r>  -1.7269  1.0000</r>
       <r>  -1.7269  1.0000</r>
       <r>  -1.7269  1.0000</r>
       <r>  -1.3990  1.0000</r>
       <r>  -1.3990  1.0000</r>
       <r>  -1.3990  1.0000</r>
       <r>  -1.3990  1.0000</r>
       <r>  -1.2369  1.0000</r>
       <r>  -1.1545  1.0000</r>
       <r>  -1.1545  1.0000</r>
       <r>  -1.1545  1.0000</r>
       <r>  -1.1545  1.0000</r>
       <r>  -1.1473  1.0000</r>
       <r>  -1.1473  1.0000</r>
       <r>  -0.7606  1.0000</r>
       <r>  -0.7575  1.0000</r>
       <r>  -0.7575  1.0000</r>
       <r>  -0.6634  1.0000</r>
       <r>  -0.6634  1.0000</r>
       <r>  -0.5920  1.0000</r>
       <r>  -0.5920  1.0000</r>
       <r>  -0.5920  1.0000</r>
       <r>  -0.5920  1.0000</r>
       <r>  -0.4703  1.0000</r>
       <r>  -0.4703  1.0000</r>
       <r>  -0.4703  1.0000</r>
       <r>  -0.4703  1.0000</r>
       <r>  -0.4222  1.0000</r>
       <r>  -0.3472  1.0000</r>
       <r>  -0.3472  1.0000</r>
       <r>  -0.1573  1.0000</r>
       <r>  -0.1573  1.0000</r>
       <r>  -0.1573  1.0000</r>
       <r>  -0.1573  1.0000</r>
       <r>  -0.0451  1.0000</r>
       <r>  -0.0450  1.0000</r>
       <r>  -0.0450  1.0000</r>
       <r>  -0.0450  1.0000</r>
       <r>  -0.0324  1.0000</r>
       <r>  -0.0323  1.0000</r>
       <r>  -0.0323  1.0000</r>
       <r>  -0.0323  1.0000</r>
       <r>  -0.0036  1.0000</r>
       <r>  -0.0036  1.0000</r>
       <r>  -0.0036  1.0000</r>
       <r>  -0.0036  1.0000</r>
       <r>   0.0289  1.0000</r>
       <r>   0.0291  1.0000</r>
       <r>   0.0291  1.0000</r>
       <r>   0.0291  1.0000</r>
       <r>   0.0482  1.0000</r>
       <r>   0.0482  1.0000</r>
       <r>   0.0482  1.0000</r>
       <r>   0.0484  1.0000</r>
       <r>   0.0720  1.0000</r>
       <r>   0.2124  1.0000</r>
       <r>   0.2124  1.0000</r>
       <r>   0.2124  1.0000</r>
       <r>   0.2124  1.0000</r>
       <r>   0.2614  1.0000</r>
       <r>   0.2614  1.0000</r>
       <r>   0.2614  1.0000</r>
       <r>   0.2614  1.0000</r>
       <r>   0.3570  1.0000</r>
       <r>   0.3570  1.0000</r>
       <r>   0.3570  1.0000</r>
       <r>   0.3571  1.0000</r>
       <r>   0.4260  1.0000</r>
       <r>   0.4260  1.0000</r>
       <r>   0.4260  1.0000</r>
       <r>   0.4261  1.0000</r>
       <r>   0.4325  1.0000</r>
       <r>   0.5013  1.0000</r>
       <r>   0.5013  1.0000</r>
       <r>   0.5032  1.0000</r>
       <r>   0.5033  1.0000</r>
       <r>   0.5033  1.0000</r>
       <r>   0.5033  1.0000</r>
       <r>   0.5259  1.0000</r>
       <r>   0.5259  1.0000</r>
       <r>   0.6740  1.0000</r>
       <r>   0.6740  1.0000</r>
       <r>   0.6740  1.0000</r>
       <r>   0.6740  1.0000</r>
       <r>   0.8174  1.0000</r>
       <r>   0.8174  1.0000</r>
       <r>   0.8174  1.0000</r>
       <r>   0.8174  1.0000</r>
       <r>   0.8461  1.0000</r>
       <r>   0.8461  1.0000</r>
       <r>   0.9181  1.0000</r>
       <r>   1.0110  1.0000</r>
       <r>   1.0111  1.0000</r>
       <r>   1.0111  1.0000</r>
       <r>   1.0111  1.0000</r>
       <r>   1.0625  1.0000</r>
       <r>   1.0625  1.0000</r>
       <r>   1.0626  1.0000</r>
       <r>   1.0626  1.0000</r>
       <r>   1.0995  1.0000</r>
       <r>   1.0995  1.0000</r>
       <r>   1.0995  1.0000</r>
       <r>   1.0995  1.0000</r>
       <r>   1.1292  1.0000</r>
       <r>   1.1464  1.0000</r>
       <r>   1.1464  1.0000</r>
       <r>   1.1465  1.0000</r>
       <r>   1.1465  1.0000</r>
       <r>   1.2027  1.0000</r>
       <r>   1.2028  1.0000</r>
       <r>   1.2028  1.0000</r>
       <r>   1.2028  1.0000</r>
       <r>   1.2064  1.0000</r>
       <r>   1.2164  1.0000</r>
       <r>   1.2164  1.0000</r>
       <r>   1.2165  1.0000</r>
       <r>   1.2165  1.0000</r>
       <r>   1.2720  1.0000</r>
       <r>   1.3268  1.0000</r>
       <r>   1.3268  1.0000</r>
       <r>   1.3454  1.0000</r>
       <r>   1.3454  1.0000</r>
       <r>   1.3454  1.0000</r>
       <r>   1.3454  1.0000</r>
       <r>   1.3802  1.0000</r>
       <r>   1.3802  1.0000</r>
       <r>   1.3901  1.0000</r>
       <r>   1.3901  1.0000</r>
       <r>   1.3901  1.0000</r>
       <r>   1.3901  1.0000</r>
       <r>   1.4086  1.0000</r>
       <r>   1.4248  1.0000</r>
       <r>   1.4248  1.0000</r>
       <r>   1.4248  1.0000</r>
       <r>   1.4248  1.0000</r>
       <r>   1.5827  1.0000</r>
       <r>   1.5827  1.0000</r>
       <r>   1.5828  1.0000</r>
       <r>   1.5828  1.0000</r>
       <r>   1.6041  1.0000</r>
       <r>   1.6283  1.0000</r>
       <r>   1.6283  1.0000</r>
       <r>   1.7037  1.0000</r>
       <r>   1.7038  1.0000</r>
       <r>   1.7272  1.0000</r>
       <r>   1.7272  1.0000</r>
       <r>   1.7272  1.0000</r>
       <r>   1.7272  1.0000</r>
       <r>   1.7442  1.0000</r>
       <r>   1.8324  1.0000</r>
       <r>   1.8324  1.0000</r>
       <r>   1.8324  1.0000</r>
       <r>   1.8324  1.0000</r>
       <r>   1.8362  1.0000</r>
       <r>   1.8362  1.0000</r>
       <r>   1.9069  1.0000</r>
       <r>   1.9073  1.0000</r>
       <r>   1.9078  1.0000</r>
       <r>   1.9082  1.0000</r>
       <r>   2.3658  1.0000</r>
       <r>   2.3658  1.0000</r>
       <r>   2.3658  1.0000</r>
       <r>   2.3658  1.0000</r>
       <r>   2.7592  1.0000</r>
       <r>   2.7592  1.0000</r>
       <r>   2.7592  1.0000</r>
       <r>   2.7592  1.0000</r>
       <r>   3.0283  1.0000</r>
       <r>   3.0283  1.0000</r>
       <r>   3.0283  1.0000</r>
       <r>   3.0283  1.0000</r>
       <r>   3.9032  0.0000</r>
       <r>   4.1312  0.0000</r>
       <r>   4.1312  0.0000</r>
       <r>   4.1313  0.0000</r>
       <r>   4.1313  0.0000</r>
       <r>   5.3840  0.0000</r>
       <r>   5.3840  0.0000</r>
       <r>   7.4409  0.0000</r>
       <r>   7.4409  0.0000</r>
       <r>   7.4409  0.0000</r>
       <r>   7.4409  0.0000</r>
       <r>   7.7679  0.0000</r>
       <r>   7.7679  0.0000</r>
       <r>   7.7679  0.0000</r>
       <r>   7.7679  0.0000</r>
       <r>   7.8234  0.0000</r>
       <r>   7.8234  0.0000</r>
       <r>   9.6750  0.0000</r>
       <r>   9.6750  0.0000</r>
       <r>   9.6750  0.0000</r>
       <r>   9.6750  0.0000</r>
       <r>  10.2568  0.0000</r>
       <r>  10.2568  0.0000</r>
       <r>  10.8632  0.0000</r>
       <r>  10.8633  0.0000</r>
       <r>  10.8633  0.0000</r>
       <r>  10.8633  0.0000</r>
       <r>  10.9221  0.0000</r>
       <r>  10.9221  0.0000</r>
       <r>  11.2216  0.0000</r>
       <r>  11.2216  0.0000</r>
       <r>  11.4442  0.0000</r>
       <r>  11.4442  0.0000</r>
       <r>  11.4443  0.0000</r>
       <r>  11.4443  0.0000</r>
       <r>  11.5949  0.0000</r>
       <r>  11.7872  0.0000</r>
      </set>
      <set comment="kpoint 5">
       <r>  -5.2739  1.0000</r>
       <r>  -4.3300  1.0000</r>
       <r>  -2.6550  1.0000</r>
       <r>  -2.6549  1.0000</r>
       <r>  -2.6549  1.0000</r>
       <r>  -2.6549  1.0000</r>
       <r>  -1.9458  1.0000</r>
       <r>  -1.9458  1.0000</r>
       <r>  -1.9458  1.0000</r>
       <r>  -1.9458  1.0000</r>
       <r>  -1.6341  1.0000</r>
       <r>  -1.3695  1.0000</r>
       <r>  -1.3695  1.0000</r>
       <r>  -1.3695  1.0000</r>
       <r>  -1.3695  1.0000</r>
       <r>  -1.2520  1.0000</r>
       <r>  -1.1991  1.0000</r>
       <r>  -1.1991  1.0000</r>
       <r>  -1.1991  1.0000</r>
       <r>  -1.1991  1.0000</r>
       <r>  -1.0862  1.0000</r>
       <r>  -1.0862  1.0000</r>
       <r>  -0.7469  1.0000</r>
       <r>  -0.7468  1.0000</r>
       <r>  -0.7249  1.0000</r>
       <r>  -0.7184  1.0000</r>
       <r>  -0.7184  1.0000</r>
       <r>  -0.4963  1.0000</r>
       <r>  -0.4755  1.0000</r>
       <r>  -0.4755  1.0000</r>
       <r>  -0.4755  1.0000</r>
       <r>  -0.4754  1.0000</r>
       <r>  -0.4455  1.0000</r>
       <r>  -0.4455  1.0000</r>
       <r>  -0.4254  1.0000</r>
       <r>  -0.4254  1.0000</r>
       <r>  -0.4254  1.0000</r>
       <r>  -0.4254  1.0000</r>
       <r>  -0.1423  1.0000</r>
       <r>  -0.1423  1.0000</r>
       <r>  -0.1423  1.0000</r>
       <r>  -0.1423  1.0000</r>
       <r>  -0.0929  1.0000</r>
       <r>  -0.0928  1.0000</r>
       <r>  -0.0928  1.0000</r>
       <r>  -0.0928  1.0000</r>
       <r>  -0.0841  1.0000</r>
       <r>  -0.0841  1.0000</r>
       <r>  -0.0841  1.0000</r>
       <r>  -0.0840  1.0000</r>
       <r>  -0.0558  1.0000</r>
       <r>  -0.0557  1.0000</r>
       <r>  -0.0557  1.0000</r>
       <r>  -0.0557  1.0000</r>
       <r>   0.0333  1.0000</r>
       <r>   0.0335  1.0000</r>
       <r>   0.0335  1.0000</r>
       <r>   0.0335  1.0000</r>
       <r>   0.0488  1.0000</r>
       <r>   0.0488  1.0000</r>
       <r>   0.0488  1.0000</r>
       <r>   0.0491  1.0000</r>
       <r>   0.1493  1.0000</r>
       <r>   0.2830  1.0000</r>
       <r>   0.2830  1.0000</r>
       <r>   0.2830  1.0000</r>
       <r>   0.2830  1.0000</r>
       <r>   0.3528  1.0000</r>
       <r>   0.3528  1.0000</r>
       <r>   0.3528  1.0000</r>
       <r>   0.3528  1.0000</r>
       <r>   0.3935  1.0000</r>
       <r>   0.3943  1.0000</r>
       <r>   0.3944  1.0000</r>
       <r>   0.3944  1.0000</r>
       <r>   0.3944  1.0000</r>
       <r>   0.4030  1.0000</r>
       <r>   0.4030  1.0000</r>
       <r>   0.4030  1.0000</r>
       <r>   0.4031  1.0000</r>
       <r>   0.5376  1.0000</r>
       <r>   0.5376  1.0000</r>
       <r>   0.5376  1.0000</r>
       <r>   0.5377  1.0000</r>
       <r>   0.5583  1.0000</r>
       <r>   0.5583  1.0000</r>
       <r>   0.6045  1.0000</r>
       <r>   0.6045  1.0000</r>
       <r>   0.6046  1.0000</r>
       <r>   0.6046  1.0000</r>
       <r>   0.6826  1.0000</r>
       <r>   0.6826  1.0000</r>
       <r>   0.7522  1.0000</r>
       <r>   0.7522  1.0000</r>
       <r>   0.7522  1.0000</r>
       <r>   0.7522  1.0000</r>
       <r>   0.7732  1.0000</r>
       <r>   0.7732  1.0000</r>
       <r>   0.9710  1.0000</r>
       <r>   1.0581  1.0000</r>
       <r>   1.0581  1.0000</r>
       <r>   1.0581  1.0000</r>
       <r>   1.0581  1.0000</r>
       <r>   1.1004  1.0000</r>
       <r>   1.1004  1.0000</r>
       <r>   1.1004  1.0000</r>
       <r>   1.1004  1.0000</r>
       <r>   1.1078  1.0000</r>
       <r>   1.1078  1.0000</r>
       <r>   1.1078  1.0000</r>
       <r>   1.1078  1.0000</r>
       <r>   1.1256  1.0000</r>
       <r>   1.1259  1.0000</r>
       <r>   1.1259  1.0000</r>
       <r>   1.1261  1.0000</r>
       <r>   1.1280  1.0000</r>
       <r>   1.1282  1.0000</r>
       <r>   1.1282  1.0000</r>
       <r>   1.1286  1.0000</r>
       <r>   1.1717  1.0000</r>
       <r>   1.2077  1.0000</r>
       <r>   1.2078  1.0000</r>
       <r>   1.2079  1.0000</r>
       <r>   1.2079  1.0000</r>
       <r>   1.2104  1.0000</r>
       <r>   1.2104  1.0000</r>
       <r>   1.2105  1.0000</r>
       <r>   1.2106  1.0000</r>
       <r>   1.2865  1.0000</r>
       <r>   1.3788  1.0000</r>
       <r>   1.3942  1.0000</r>
       <r>   1.3947  1.0000</r>
       <r>   1.3991  1.0000</r>
       <r>   1.4532  1.0000</r>
       <r>   1.4532  1.0000</r>
       <r>   1.4587  1.0000</r>
       <r>   1.4588  1.0000</r>
       <r>   1.4588  1.0000</r>
       <r>   1.4588  1.0000</r>
       <r>   1.4726  1.0000</r>
       <r>   1.4726  1.0000</r>
       <r>   1.4962  1.0000</r>
       <r>   1.4962  1.0000</r>
       <r>   1.4962  1.0000</r>
       <r>   1.4962  1.0000</r>
       <r>   1.6343  1.0000</r>
       <r>   1.6583  1.0000</r>
       <r>   1.6584  1.0000</r>
       <r>   1.6634  1.0000</r>
       <r>   1.6634  1.0000</r>
       <r>   1.6634  1.0000</r>
       <r>   1.6635  1.0000</r>
       <r>   1.6894  1.0000</r>
       <r>   1.6894  1.0000</r>
       <r>   1.6894  1.0000</r>
       <r>   1.6895  1.0000</r>
       <r>   1.7291  1.0000</r>
       <r>   1.7785  1.0000</r>
       <r>   1.7785  1.0000</r>
       <r>   1.7785  1.0000</r>
       <r>   1.7785  1.0000</r>
       <r>   1.7836  1.0000</r>
       <r>   1.7836  1.0000</r>
       <r>   1.9069  1.0000</r>
       <r>   1.9074  1.0000</r>
       <r>   1.9077  1.0000</r>
       <r>   1.9082  1.0000</r>
       <r>   2.1925  1.0000</r>
       <r>   2.1925  1.0000</r>
       <r>   2.1925  1.0000</r>
       <r>   2.1925  1.0000</r>
       <r>   2.8405  1.0000</r>
       <r>   2.8406  1.0000</r>
       <r>   2.8406  1.0000</r>
       <r>   2.8406  1.0000</r>
       <r>   3.0116  1.0000</r>
       <r>   3.0116  1.0000</r>
       <r>   3.0116  1.0000</r>
       <r>   3.0116  1.0000</r>
       <r>   3.3351  1.0000</r>
       <r>   4.6088  0.0000</r>
       <r>   4.6088  0.0000</r>
       <r>   4.6088  0.0000</r>
       <r>   4.6088  0.0000</r>
       <r>   5.6876  0.0000</r>
       <r>   5.6876  0.0000</r>
       <r>   7.0571  0.0000</r>
       <r>   7.0571  0.0000</r>
       <r>   7.0571  0.0000</r>
       <r>   7.0572  0.0000</r>
       <r>   7.3344  0.0000</r>
       <r>   7.3344  0.0000</r>
       <r>   7.8301  0.0000</r>
       <r>   7.8301  0.0000</r>
       <r>   7.8301  0.0000</r>
       <r>   7.8301  0.0000</r>
       <r>   9.8602  0.0000</r>
       <r>   9.8602  0.0000</r>
       <r>   9.8602  0.0000</r>
       <r>   9.8602  0.0000</r>
       <r>  10.1449  0.0000</r>
       <r>  10.1450  0.0000</r>
       <r>  10.1450  0.0000</r>
       <r>  10.1450  0.0000</r>
       <r>  10.3151  0.0000</r>
       <r>  10.3151  0.0000</r>
       <r>  10.7528  0.0000</r>
       <r>  10.7528  0.0000</r>
       <r>  11.0493  0.0000</r>
       <r>  11.0493  0.0000</r>
       <r>  11.0493  0.0000</r>
       <r>  11.0493  0.0000</r>
       <r>  11.8541  0.0000</r>
       <r>  11.8569  0.0000</r>
       <r>  11.8980  0.0000</r>
       <r>  11.8980  0.0000</r>
      </set>
      <set comment="kpoint 6">
       <r>  -5.0931  1.0000</r>
       <r>  -4.6192  1.0000</r>
       <r>  -2.5128  1.0000</r>
       <r>  -2.5127  1.0000</r>
       <r>  -2.5127  1.0000</r>
       <r>  -2.5127  1.0000</r>
       <r>  -2.1538  1.0000</r>
       <r>  -2.1538  1.0000</r>
       <r>  -2.1538  1.0000</r>
       <r>  -2.1538  1.0000</r>
       <r>  -1.4602  1.0000</r>
       <r>  -1.3333  1.0000</r>
       <r>  -1.3333  1.0000</r>
       <r>  -1.3332  1.0000</r>
       <r>  -1.3332  1.0000</r>
       <r>  -1.2853  1.0000</r>
       <r>  -1.2459  1.0000</r>
       <r>  -1.2459  1.0000</r>
       <r>  -1.2458  1.0000</r>
       <r>  -1.2458  1.0000</r>
       <r>  -1.0117  1.0000</r>
       <r>  -1.0117  1.0000</r>
       <r>  -0.8371  1.0000</r>
       <r>  -0.8371  1.0000</r>
       <r>  -0.6798  1.0000</r>
       <r>  -0.6678  1.0000</r>
       <r>  -0.6678  1.0000</r>
       <r>  -0.5646  1.0000</r>
       <r>  -0.5316  1.0000</r>
       <r>  -0.5316  1.0000</r>
       <r>  -0.3859  1.0000</r>
       <r>  -0.3859  1.0000</r>
       <r>  -0.3859  1.0000</r>
       <r>  -0.3859  1.0000</r>
       <r>  -0.3763  1.0000</r>
       <r>  -0.3763  1.0000</r>
       <r>  -0.3763  1.0000</r>
       <r>  -0.3763  1.0000</r>
       <r>  -0.1531  1.0000</r>
       <r>  -0.1530  1.0000</r>
       <r>  -0.1530  1.0000</r>
       <r>  -0.1530  1.0000</r>
       <r>  -0.1455  1.0000</r>
       <r>  -0.1455  1.0000</r>
       <r>  -0.1455  1.0000</r>
       <r>  -0.1454  1.0000</r>
       <r>  -0.1239  1.0000</r>
       <r>  -0.1238  1.0000</r>
       <r>  -0.1238  1.0000</r>
       <r>  -0.1238  1.0000</r>
       <r>  -0.0796  1.0000</r>
       <r>  -0.0796  1.0000</r>
       <r>  -0.0796  1.0000</r>
       <r>  -0.0796  1.0000</r>
       <r>   0.0380  1.0000</r>
       <r>   0.0384  1.0000</r>
       <r>   0.0384  1.0000</r>
       <r>   0.0384  1.0000</r>
       <r>   0.0468  1.0000</r>
       <r>   0.0469  1.0000</r>
       <r>   0.0469  1.0000</r>
       <r>   0.0473  1.0000</r>
       <r>   0.2214  1.0000</r>
       <r>   0.3139  1.0000</r>
       <r>   0.3139  1.0000</r>
       <r>   0.3139  1.0000</r>
       <r>   0.3139  1.0000</r>
       <r>   0.3447  1.0000</r>
       <r>   0.3755  1.0000</r>
       <r>   0.3755  1.0000</r>
       <r>   0.3755  1.0000</r>
       <r>   0.3755  1.0000</r>
       <r>   0.4360  1.0000</r>
       <r>   0.4360  1.0000</r>
       <r>   0.4360  1.0000</r>
       <r>   0.4360  1.0000</r>
       <r>   0.5155  1.0000</r>
       <r>   0.5155  1.0000</r>
       <r>   0.5155  1.0000</r>
       <r>   0.5155  1.0000</r>
       <r>   0.5407  1.0000</r>
       <r>   0.5408  1.0000</r>
       <r>   0.5408  1.0000</r>
       <r>   0.5408  1.0000</r>
       <r>   0.5808  1.0000</r>
       <r>   0.5808  1.0000</r>
       <r>   0.5808  1.0000</r>
       <r>   0.5808  1.0000</r>
       <r>   0.5995  1.0000</r>
       <r>   0.5995  1.0000</r>
       <r>   0.6895  1.0000</r>
       <r>   0.6895  1.0000</r>
       <r>   0.6895  1.0000</r>
       <r>   0.6895  1.0000</r>
       <r>   0.7074  1.0000</r>
       <r>   0.7074  1.0000</r>
       <r>   0.8720  1.0000</r>
       <r>   0.8720  1.0000</r>
       <r>   0.9086  1.0000</r>
       <r>   0.9086  1.0000</r>
       <r>   0.9086  1.0000</r>
       <r>   0.9086  1.0000</r>
       <r>   1.0261  1.0000</r>
       <r>   1.1027  1.0000</r>
       <r>   1.1027  1.0000</r>
       <r>   1.1028  1.0000</r>
       <r>   1.1028  1.0000</r>
       <r>   1.1075  1.0000</r>
       <r>   1.1075  1.0000</r>
       <r>   1.1075  1.0000</r>
       <r>   1.1075  1.0000</r>
       <r>   1.1154  1.0000</r>
       <r>   1.1154  1.0000</r>
       <r>   1.1154  1.0000</r>
       <r>   1.1154  1.0000</r>
       <r>   1.1289  1.0000</r>
       <r>   1.1469  1.0000</r>
       <r>   1.1469  1.0000</r>
       <r>   1.1469  1.0000</r>
       <r>   1.1469  1.0000</r>
       <r>   1.1887  1.0000</r>
       <r>   1.1887  1.0000</r>
       <r>   1.1887  1.0000</r>
       <r>   1.1887  1.0000</r>
       <r>   1.1979  1.0000</r>
       <r>   1.1979  1.0000</r>
       <r>   1.1980  1.0000</r>
       <r>   1.1980  1.0000</r>
       <r>   1.2628  1.0000</r>
       <r>   1.2628  1.0000</r>
       <r>   1.3048  1.0000</r>
       <r>   1.3513  1.0000</r>
       <r>   1.4667  1.0000</r>
       <r>   1.4667  1.0000</r>
       <r>   1.5253  1.0000</r>
       <r>   1.5253  1.0000</r>
[...]
       <r>   0.9941  1.0000</r>
       <r>   0.9941  1.0000</r>
       <r>   0.9944  1.0000</r>
       <r>   0.9944  1.0000</r>
       <r>   0.9944  1.0000</r>
       <r>   0.9944  1.0000</r>
       <r>   0.9947  1.0000</r>
       <r>   0.9947  1.0000</r>
       <r>   1.2052  1.0000</r>
       <r>   1.2058  1.0000</r>
       <r>   1.2058  1.0000</r>
       <r>   1.2059  1.0000</r>
       <r>   1.2127  1.0000</r>
       <r>   1.2127  1.0000</r>
       <r>   1.2132  1.0000</r>
       <r>   1.2132  1.0000</r>
       <r>   1.2132  1.0000</r>
       <r>   1.2136  1.0000</r>
       <r>   1.2137  1.0000</r>
       <r>   1.2137  1.0000</r>
       <r>   1.2172  1.0000</r>
       <r>   1.2173  1.0000</r>
       <r>   1.2173  1.0000</r>
       <r>   1.2175  1.0000</r>
       <r>   1.3523  1.0000</r>
       <r>   1.3523  1.0000</r>
       <r>   1.3523  1.0000</r>
       <r>   1.3523  1.0000</r>
       <r>   1.3625  1.0000</r>
       <r>   1.3625  1.0000</r>
       <r>   1.3625  1.0000</r>
       <r>   1.3626  1.0000</r>
       <r>   1.4582  1.0000</r>
       <r>   1.4582  1.0000</r>
       <r>   1.4582  1.0000</r>
       <r>   1.4582  1.0000</r>
       <r>   1.7842  1.0000</r>
       <r>   1.7842  1.0000</r>
       <r>   1.7843  1.0000</r>
       <r>   1.7843  1.0000</r>
       <r>   1.7843  1.0000</r>
       <r>   1.7843  1.0000</r>
       <r>   1.7844  1.0000</r>
       <r>   1.7844  1.0000</r>
       <r>   1.7925  1.0000</r>
       <r>   1.7925  1.0000</r>
       <r>   1.7925  1.0000</r>
       <r>   1.7925  1.0000</r>
       <r>   1.8030  1.0000</r>
       <r>   1.8030  1.0000</r>
       <r>   1.8032  1.0000</r>
       <r>   1.8032  1.0000</r>
       <r>   1.8032  1.0000</r>
       <r>   1.8032  1.0000</r>
       <r>   1.8034  1.0000</r>
       <r>   1.8034  1.0000</r>
       <r>   1.8039  1.0000</r>
       <r>   1.8039  1.0000</r>
       <r>   1.8040  1.0000</r>
       <r>   1.8040  1.0000</r>
       <r>   3.2237  1.0000</r>
       <r>   3.2237  1.0000</r>
       <r>   3.2237  1.0000</r>
       <r>   3.2237  1.0000</r>
       <r>   3.9162  0.0000</r>
       <r>   3.9162  0.0000</r>
       <r>   3.9166  0.0000</r>
       <r>   3.9166  0.0000</r>
       <r>   3.9166  0.0000</r>
       <r>   3.9166  0.0000</r>
       <r>   3.9170  0.0000</r>
       <r>   3.9170  0.0000</r>
       <r>   4.7394  0.0000</r>
       <r>   4.7394  0.0000</r>
       <r>   4.7404  0.0000</r>
       <r>   4.7404  0.0000</r>
       <r>   4.7404  0.0000</r>
       <r>   4.7404  0.0000</r>
       <r>   4.7415  0.0000</r>
       <r>   4.7415  0.0000</r>
       <r>   5.5386  0.0000</r>
       <r>   5.5386  0.0000</r>
       <r>   5.5386  0.0000</r>
       <r>   5.5387  0.0000</r>
       <r>   8.7169  0.0000</r>
       <r>   8.7169  0.0000</r>
       <r>   8.7177  0.0000</r>
       <r>   8.7177  0.0000</r>
       <r>   8.7177  0.0000</r>
       <r>   8.7177  0.0000</r>
       <r>   8.7185  0.0000</r>
       <r>   8.7185  0.0000</r>
       <r>   9.4254  0.0000</r>
       <r>   9.4254  0.0000</r>
       <r>   9.4254  0.0000</r>
       <r>   9.4254  0.0000</r>
       <r>  10.4764  0.0000</r>
       <r>  10.4764  0.0000</r>
       <r>  10.4764  0.0000</r>
       <r>  10.4764  0.0000</r>
       <r>  11.2237  0.0000</r>
       <r>  11.2237  0.0000</r>
       <r>  11.2242  0.0000</r>
       <r>  11.2242  0.0000</r>
       <r>  11.2242  0.0000</r>
       <r>  11.2242  0.0000</r>
       <r>  11.2247  0.0000</r>
       <r>  11.2247  0.0000</r>
      </set>
      <set comment="kpoint 195">
       <r>  -3.7328  1.0000</r>
       <r>  -3.7327  1.0000</r>
       <r>  -3.7327  1.0000</r>
       <r>  -3.7327  1.0000</r>
       <r>  -3.3230  1.0000</r>
       <r>  -3.3230  1.0000</r>
       <r>  -3.3230  1.0000</r>
       <r>  -3.3230  1.0000</r>
       <r>  -0.9163  1.0000</r>
       <r>  -0.9163  1.0000</r>
       <r>  -0.9163  1.0000</r>
       <r>  -0.9163  1.0000</r>
       <r>  -0.8538  1.0000</r>
       <r>  -0.8538  1.0000</r>
       <r>  -0.8536  1.0000</r>
       <r>  -0.8535  1.0000</r>
       <r>  -0.8535  1.0000</r>
       <r>  -0.8535  1.0000</r>
       <r>  -0.8532  1.0000</r>
       <r>  -0.8532  1.0000</r>
       <r>  -0.7901  1.0000</r>
       <r>  -0.7901  1.0000</r>
       <r>  -0.7896  1.0000</r>
       <r>  -0.7895  1.0000</r>
       <r>  -0.7895  1.0000</r>
       <r>  -0.7895  1.0000</r>
       <r>  -0.7889  1.0000</r>
       <r>  -0.7889  1.0000</r>
       <r>  -0.7563  1.0000</r>
       <r>  -0.7563  1.0000</r>
       <r>  -0.7563  1.0000</r>
       <r>  -0.7562  1.0000</r>
       <r>  -0.3409  1.0000</r>
       <r>  -0.3406  1.0000</r>
       <r>  -0.3406  1.0000</r>
       <r>  -0.3406  1.0000</r>
       <r>  -0.3359  1.0000</r>
       <r>  -0.3359  1.0000</r>
       <r>  -0.3355  1.0000</r>
       <r>  -0.3355  1.0000</r>
       <r>  -0.3355  1.0000</r>
       <r>  -0.3352  1.0000</r>
       <r>  -0.3350  1.0000</r>
       <r>  -0.3350  1.0000</r>
       <r>  -0.2178  1.0000</r>
       <r>  -0.2178  1.0000</r>
       <r>  -0.2175  1.0000</r>
       <r>  -0.2174  1.0000</r>
       <r>  -0.2174  1.0000</r>
       <r>  -0.2173  1.0000</r>
       <r>  -0.2170  1.0000</r>
       <r>  -0.2170  1.0000</r>
       <r>  -0.2095  1.0000</r>
       <r>  -0.2095  1.0000</r>
       <r>  -0.2095  1.0000</r>
       <r>  -0.2094  1.0000</r>
       <r>   0.2515  1.0000</r>
       <r>   0.2521  1.0000</r>
       <r>   0.2521  1.0000</r>
       <r>   0.2521  1.0000</r>
       <r>   0.2583  1.0000</r>
       <r>   0.2583  1.0000</r>
       <r>   0.2583  1.0000</r>
       <r>   0.2589  1.0000</r>
       <r>   0.4692  1.0000</r>
       <r>   0.4692  1.0000</r>
       <r>   0.4693  1.0000</r>
       <r>   0.4693  1.0000</r>
       <r>   0.4768  1.0000</r>
       <r>   0.4768  1.0000</r>
       <r>   0.4778  1.0000</r>
       <r>   0.4779  1.0000</r>
       <r>   0.4779  1.0000</r>
       <r>   0.4779  1.0000</r>
       <r>   0.4790  1.0000</r>
       <r>   0.4790  1.0000</r>
       <r>   0.5533  1.0000</r>
       <r>   0.5533  1.0000</r>
       <r>   0.5542  1.0000</r>
       <r>   0.5543  1.0000</r>
       <r>   0.5543  1.0000</r>
       <r>   0.5543  1.0000</r>
       <r>   0.5552  1.0000</r>
       <r>   0.5552  1.0000</r>
       <r>   0.5694  1.0000</r>
       <r>   0.5694  1.0000</r>
       <r>   0.5694  1.0000</r>
       <r>   0.5694  1.0000</r>
       <r>   0.6233  1.0000</r>
       <r>   0.6233  1.0000</r>
       <r>   0.6233  1.0000</r>
       <r>   0.6233  1.0000</r>
       <r>   0.6285  1.0000</r>
       <r>   0.6285  1.0000</r>
       <r>   0.6285  1.0000</r>
       <r>   0.6285  1.0000</r>
       <r>   0.6363  1.0000</r>
       <r>   0.6363  1.0000</r>
       <r>   0.6363  1.0000</r>
       <r>   0.6363  1.0000</r>
       <r>   0.6414  1.0000</r>
       <r>   0.6414  1.0000</r>
       <r>   0.6414  1.0000</r>
       <r>   0.6414  1.0000</r>
       <r>   1.0146  1.0000</r>
       <r>   1.0146  1.0000</r>
       <r>   1.0146  1.0000</r>
       <r>   1.0146  1.0000</r>
       <r>   1.0339  1.0000</r>
       <r>   1.0339  1.0000</r>
       <r>   1.0343  1.0000</r>
       <r>   1.0343  1.0000</r>
       <r>   1.0343  1.0000</r>
       <r>   1.0343  1.0000</r>
       <r>   1.0347  1.0000</r>
       <r>   1.0347  1.0000</r>
       <r>   1.1414  1.0000</r>
       <r>   1.1414  1.0000</r>
       <r>   1.1418  1.0000</r>
       <r>   1.1419  1.0000</r>
       <r>   1.1419  1.0000</r>
       <r>   1.1419  1.0000</r>
       <r>   1.1424  1.0000</r>
       <r>   1.1424  1.0000</r>
       <r>   1.1509  1.0000</r>
       <r>   1.1509  1.0000</r>
       <r>   1.1509  1.0000</r>
       <r>   1.1510  1.0000</r>
       <r>   1.2663  1.0000</r>
       <r>   1.2663  1.0000</r>
       <r>   1.2663  1.0000</r>
       <r>   1.2663  1.0000</r>
       <r>   1.3295  1.0000</r>
       <r>   1.3295  1.0000</r>
       <r>   1.3295  1.0000</r>
       <r>   1.3295  1.0000</r>
       <r>   1.3434  1.0000</r>
       <r>   1.3434  1.0000</r>
       <r>   1.3434  1.0000</r>
       <r>   1.3435  1.0000</r>
       <r>   1.3943  1.0000</r>
       <r>   1.3943  1.0000</r>
       <r>   1.3943  1.0000</r>
       <r>   1.3943  1.0000</r>
       <r>   1.8027  1.0000</r>
       <r>   1.8027  1.0000</r>
       <r>   1.8027  1.0000</r>
       <r>   1.8028  1.0000</r>
       <r>   1.8028  1.0000</r>
       <r>   1.8028  1.0000</r>
       <r>   1.8028  1.0000</r>
       <r>   1.8028  1.0000</r>
       <r>   1.8071  1.0000</r>
       <r>   1.8071  1.0000</r>
       <r>   1.8071  1.0000</r>
       <r>   1.8071  1.0000</r>
       <r>   1.8135  1.0000</r>
       <r>   1.8135  1.0000</r>
       <r>   1.8135  1.0000</r>
       <r>   1.8135  1.0000</r>
       <r>   1.8155  1.0000</r>
       <r>   1.8155  1.0000</r>
       <r>   1.8156  1.0000</r>
       <r>   1.8156  1.0000</r>
       <r>   1.8156  1.0000</r>
       <r>   1.8156  1.0000</r>
       <r>   1.8157  1.0000</r>
       <r>   1.8157  1.0000</r>
       <r>   3.7259  0.0000</r>
       <r>   3.7259  0.0000</r>
       <r>   3.7259  0.0000</r>
       <r>   3.7260  0.0000</r>
       <r>   4.0869  0.0000</r>
       <r>   4.0869  0.0000</r>
       <r>   4.0874  0.0000</r>
       <r>   4.0874  0.0000</r>
       <r>   4.0874  0.0000</r>
       <r>   4.0874  0.0000</r>
       <r>   4.0880  0.0000</r>
       <r>   4.0880  0.0000</r>
       <r>   4.5041  0.0000</r>
       <r>   4.5041  0.0000</r>
       <r>   4.5050  0.0000</r>
       <r>   4.5050  0.0000</r>
       <r>   4.5050  0.0000</r>
       <r>   4.5050  0.0000</r>
       <r>   4.5058  0.0000</r>
       <r>   4.5058  0.0000</r>
       <r>   4.8934  0.0000</r>
       <r>   4.8934  0.0000</r>
       <r>   4.8934  0.0000</r>
       <r>   4.8934  0.0000</r>
       <r>   9.2701  0.0000</r>
       <r>   9.2701  0.0000</r>
       <r>   9.2708  0.0000</r>
       <r>   9.2708  0.0000</r>
       <r>   9.2708  0.0000</r>
       <r>   9.2708  0.0000</r>
       <r>   9.2715  0.0000</r>
       <r>   9.2715  0.0000</r>
       <r>   9.6323  0.0000</r>
       <r>   9.6323  0.0000</r>
       <r>   9.6323  0.0000</r>
       <r>   9.6323  0.0000</r>
       <r>  10.1586  0.0000</r>
       <r>  10.1586  0.0000</r>
       <r>  10.1586  0.0000</r>
       <r>  10.1586  0.0000</r>
       <r>  10.5291  0.0000</r>
       <r>  10.5291  0.0000</r>
       <r>  10.5296  0.0000</r>
       <r>  10.5296  0.0000</r>
       <r>  10.5296  0.0000</r>
       <r>  10.5296  0.0000</r>
       <r>  10.5301  0.0000</r>
       <r>  10.5301  0.0000</r>
      </set>
      <set comment="kpoint 196">
       <r>  -3.5465  1.0000</r>
       <r>  -3.5430  1.0000</r>
       <r>  -3.5430  1.0000</r>
       <r>  -3.5424  1.0000</r>
       <r>  -3.5423  1.0000</r>
       <r>  -3.5417  1.0000</r>
       <r>  -3.5417  1.0000</r>
       <r>  -3.5381  1.0000</r>
       <r>  -0.8233  1.0000</r>
       <r>  -0.8221  1.0000</r>
       <r>  -0.8221  1.0000</r>
       <r>  -0.8216  1.0000</r>
       <r>  -0.8214  1.0000</r>
       <r>  -0.8211  1.0000</r>
       <r>  -0.8202  1.0000</r>
       <r>  -0.8202  1.0000</r>
       <r>  -0.8202  1.0000</r>
       <r>  -0.8201  1.0000</r>
       <r>  -0.8201  1.0000</r>
       <r>  -0.8201  1.0000</r>
       <r>  -0.8200  1.0000</r>
       <r>  -0.8200  1.0000</r>
       <r>  -0.8200  1.0000</r>
       <r>  -0.8199  1.0000</r>
       <r>  -0.8198  1.0000</r>
       <r>  -0.8198  1.0000</r>
       <r>  -0.8190  1.0000</r>
       <r>  -0.8187  1.0000</r>
       <r>  -0.8184  1.0000</r>
       <r>  -0.8180  1.0000</r>
       <r>  -0.8180  1.0000</r>
       <r>  -0.8168  1.0000</r>
       <r>  -0.2825  1.0000</r>
       <r>  -0.2819  1.0000</r>
       <r>  -0.2804  1.0000</r>
       <r>  -0.2804  1.0000</r>
       <r>  -0.2800  1.0000</r>
       <r>  -0.2796  1.0000</r>
       <r>  -0.2796  1.0000</r>
       <r>  -0.2796  1.0000</r>
       <r>  -0.2795  1.0000</r>
       <r>  -0.2794  1.0000</r>
       <r>  -0.2794  1.0000</r>
       <r>  -0.2794  1.0000</r>
       <r>  -0.2793  1.0000</r>
       <r>  -0.2792  1.0000</r>
       <r>  -0.2792  1.0000</r>
       <r>  -0.2791  1.0000</r>
       <r>  -0.2791  1.0000</r>
       <r>  -0.2791  1.0000</r>
       <r>  -0.2790  1.0000</r>
       <r>  -0.2786  1.0000</r>
       <r>  -0.2782  1.0000</r>
       <r>  -0.2782  1.0000</r>
       <r>  -0.2768  1.0000</r>
       <r>  -0.2762  1.0000</r>
       <r>   0.2557  1.0000</r>
       <r>   0.2576  1.0000</r>
       <r>   0.2576  1.0000</r>
       <r>   0.2576  1.0000</r>
       <r>   0.2577  1.0000</r>
       <r>   0.2577  1.0000</r>
       <r>   0.2577  1.0000</r>
       <r>   0.2596  1.0000</r>
       <r>   0.5133  1.0000</r>
       <r>   0.5133  1.0000</r>
       <r>   0.5140  1.0000</r>
       <r>   0.5141  1.0000</r>
       <r>   0.5149  1.0000</r>
       <r>   0.5158  1.0000</r>
       <r>   0.5158  1.0000</r>
       <r>   0.5158  1.0000</r>
       <r>   0.5159  1.0000</r>
       <r>   0.5159  1.0000</r>
       <r>   0.5159  1.0000</r>
       <r>   0.5160  1.0000</r>
       <r>   0.5161  1.0000</r>
       <r>   0.5161  1.0000</r>
       <r>   0.5161  1.0000</r>
       <r>   0.5161  1.0000</r>
       <r>   0.5162  1.0000</r>
       <r>   0.5162  1.0000</r>
       <r>   0.5162  1.0000</r>
       <r>   0.5171  1.0000</r>
       <r>   0.5178  1.0000</r>
       <r>   0.5181  1.0000</r>
       <r>   0.5187  1.0000</r>
       <r>   0.5187  1.0000</r>
       <r>   0.6304  1.0000</r>
       <r>   0.6304  1.0000</r>
       <r>   0.6307  1.0000</r>
       <r>   0.6309  1.0000</r>
       <r>   0.6312  1.0000</r>
       <r>   0.6313  1.0000</r>
       <r>   0.6313  1.0000</r>
       <r>   0.6313  1.0000</r>
       <r>   0.6316  1.0000</r>
       <r>   0.6316  1.0000</r>
       <r>   0.6317  1.0000</r>
       <r>   0.6318  1.0000</r>
       <r>   0.6322  1.0000</r>
       <r>   0.6323  1.0000</r>
       <r>   0.6326  1.0000</r>
       <r>   0.6326  1.0000</r>
       <r>   1.0797  1.0000</r>
       <r>   1.0805  1.0000</r>
       <r>   1.0805  1.0000</r>
       <r>   1.0821  1.0000</r>
       <r>   1.0822  1.0000</r>
       <r>   1.0822  1.0000</r>
       <r>   1.0823  1.0000</r>
       <r>   1.0824  1.0000</r>
       <r>   1.0825  1.0000</r>
       <r>   1.0825  1.0000</r>
       <r>   1.0825  1.0000</r>
       <r>   1.0826  1.0000</r>
       <r>   1.0827  1.0000</r>
       <r>   1.0827  1.0000</r>
       <r>   1.0827  1.0000</r>
       <r>   1.0827  1.0000</r>
       <r>   1.0828  1.0000</r>
       <r>   1.0830  1.0000</r>
       <r>   1.0830  1.0000</r>
       <r>   1.0830  1.0000</r>
       <r>   1.0831  1.0000</r>
       <r>   1.0847  1.0000</r>
       <r>   1.0847  1.0000</r>
       <r>   1.0855  1.0000</r>
       <r>   1.3278  1.0000</r>
       <r>   1.3289  1.0000</r>
       <r>   1.3289  1.0000</r>
       <r>   1.3289  1.0000</r>
       <r>   1.3295  1.0000</r>
       <r>   1.3295  1.0000</r>
       <r>   1.3297  1.0000</r>
       <r>   1.3297  1.0000</r>
       <r>   1.3299  1.0000</r>
       <r>   1.3299  1.0000</r>
       <r>   1.3301  1.0000</r>
       <r>   1.3301  1.0000</r>
       <r>   1.3307  1.0000</r>
       <r>   1.3307  1.0000</r>
       <r>   1.3307  1.0000</r>
       <r>   1.3318  1.0000</r>
       <r>   1.8139  1.0000</r>
       <r>   1.8139  1.0000</r>
       <r>   1.8140  1.0000</r>
       <r>   1.8141  1.0000</r>
       <r>   1.8141  1.0000</r>
       <r>   1.8141  1.0000</r>
       <r>   1.8142  1.0000</r>
       <r>   1.8142  1.0000</r>
       <r>   1.8142  1.0000</r>
       <r>   1.8143  1.0000</r>
       <r>   1.8143  1.0000</r>
       <r>   1.8143  1.0000</r>
       <r>   1.8145  1.0000</r>
       <r>   1.8146  1.0000</r>
       <r>   1.8146  1.0000</r>
       <r>   1.8146  1.0000</r>
       <r>   1.8146  1.0000</r>
       <r>   1.8147  1.0000</r>
       <r>   1.8147  1.0000</r>
       <r>   1.8147  1.0000</r>
       <r>   1.8148  1.0000</r>
       <r>   1.8149  1.0000</r>
       <r>   1.8150  1.0000</r>
       <r>   1.8150  1.0000</r>
       <r>   4.2796  0.0000</r>
       <r>   4.2816  0.0000</r>
       <r>   4.2816  0.0000</r>
       <r>   4.2844  0.0000</r>
       <r>   4.2849  0.0000</r>
       <r>   4.2849  0.0000</r>
       <r>   4.2849  0.0000</r>
       <r>   4.2850  0.0000</r>
       <r>   4.2851  0.0000</r>
       <r>   4.2851  0.0000</r>
       <r>   4.2851  0.0000</r>
       <r>   4.2851  0.0000</r>
       <r>   4.2853  0.0000</r>
       <r>   4.2853  0.0000</r>
       <r>   4.2854  0.0000</r>
       <r>   4.2854  0.0000</r>
       <r>   4.2854  0.0000</r>
       <r>   4.2855  0.0000</r>
       <r>   4.2855  0.0000</r>
       <r>   4.2856  0.0000</r>
       <r>   4.2861  0.0000</r>
       <r>   4.2888  0.0000</r>
       <r>   4.2888  0.0000</r>
       <r>   4.2909  0.0000</r>
       <r>   9.8706  0.0000</r>
       <r>   9.8706  0.0000</r>
       <r>   9.8723  0.0000</r>
       <r>   9.8761  0.0000</r>
       <r>   9.8761  0.0000</r>
       <r>   9.8763  0.0000</r>
       <r>   9.8763  0.0000</r>
       <r>   9.8767  0.0000</r>
       <r>   9.8767  0.0000</r>
       <r>   9.8768  0.0000</r>
       <r>   9.8768  0.0000</r>
       <r>   9.8768  0.0000</r>
       <r>   9.8769  0.0000</r>
       <r>   9.8770  0.0000</r>
       <r>   9.8770  0.0000</r>
       <r>   9.8770  0.0000</r>
       <r>   9.8770  0.0000</r>
       <r>   9.8774  0.0000</r>
       <r>   9.8774  0.0000</r>
       <r>   9.8776  0.0000</r>
       <r>   9.8777  0.0000</r>
       <r>   9.8815  0.0000</r>
       <r>   9.8832  0.0000</r>
       <r>   9.8832  0.0000</r>
      </set>
     </set>
    </set>
   </array>
  </eigenvalues>
 </calculation>
 <structure name="finalpos" >
  <crystal>
   <varray name="basis" >
    <v>       7.34555994      0.00000000      0.00000000</v>
    <v>       0.00000000      7.34555994      0.00000000</v>
    <v>       0.00000000      0.00000000      7.34555994</v>
   </varray>
   <i name="volume">    396.34622014</i>
   <varray name="rec_basis" >
    <v>       0.13613666      0.00000000      0.00000000</v>
    <v>       0.00000000      0.13613666      0.00000000</v>
    <v>       0.00000000      0.00000000      0.13613666</v>
   </varray>
  </crystal>
  <varray name="positions" >
   <v>       0.00136137      0.00000000      0.00000000</v>
   <v>       0.50000000      0.00000000      0.00000000</v>
   <v>       0.00000000      0.50000000      0.00000000</v>
   <v>       0.50000000      0.50000000      0.00000000</v>
   <v>       0.00000000      0.00000000      0.50000000</v>
   <v>       0.50000000      0.00000000      0.50000000</v>
   <v>       0.00000000      0.50000000      0.50000000</v>
   <v>       0.50000000      0.50000000      0.50000000</v>
   <v>       0.25000000      0.25000000      0.00000000</v>
   <v>       0.75000000      0.25000000      0.00000000</v>
   <v>       0.25000000      0.75000000      0.00000000</v>
   <v>       0.75000000      0.75000000      0.00000000</v>
   <v>       0.25000000      0.25000000      0.50000000</v>
   <v>       0.75000000      0.25000000      0.50000000</v>
   <v>       0.25000000      0.75000000      0.50000000</v>
   <v>       0.75000000      0.75000000      0.50000000</v>
   <v>       0.25000000      0.00000000      0.25000000</v>
   <v>       0.75000000      0.00000000      0.25000000</v>
   <v>       0.25000000      0.50000000      0.25000000</v>
   <v>       0.75000000      0.50000000      0.25000000</v>
   <v>       0.25000000      0.00000000      0.75000000</v>
   <v>       0.75000000      0.00000000      0.75000000</v>
   <v>       0.25000000      0.50000000      0.75000000</v>
   <v>       0.75000000      0.50000000      0.75000000</v>
   <v>       0.00000000      0.25000000      0.25000000</v>
   <v>       0.50000000      0.25000000      0.25000000</v>
   <v>       0.00000000      0.75000000      0.25000000</v>
   <v>       0.50000000      0.75000000      0.25000000</v>
   <v>       0.00000000      0.25000000      0.75000000</v>
   <v>       0.50000000      0.25000000      0.75000000</v>
   <v>       0.00000000      0.75000000      0.75000000</v>
   <v>       0.50000000      0.75000000      0.75000000</v>
  </varray>
 </structure>
</modeling>
