32   
1    

1    
  0.0100000000000000   0.0000000000000000   0.0000000000000000
  -0.0530275400    0.0000000000   -0.0000000000
   0.0033996200   -0.0000000000   -0.0000000000
  -0.0001645300    0.0000000000   -0.0000000000
  -0.0002262900   -0.0000000000    0.0000000000
  -0.0001645300   -0.0000000000   -0.0000000000
  -0.0002262900   -0.0000000000   -0.0000000000
   0.0002085500   -0.0000000000   -0.0000000000
  -0.0012271100   -0.0000000000   -0.0000000000
  -0.0015318800    0.0000232300   -0.0000232300
  -0.0004312100    0.0000013000   -0.0000013000
  -0.0015318800   -0.0000232300   -0.0000232300
  -0.0004312100   -0.0000013000   -0.0000013000
  -0.0015318800    0.0000232300    0.0000232300
  -0.0004312100    0.0000013000    0.0000013000
  -0.0015318800   -0.0000232300    0.0000232300
  -0.0004312100   -0.0000013000    0.0000013000
   0.0070002000    0.0000000000   -0.0079377200
   0.0071692000   -0.0000000000    0.0081740700
   0.0003240700   -0.0000000000    0.0001966800
   0.0003266500   -0.0000000000   -0.0001966400
   0.0070002000    0.0000000000    0.0079377200
   0.0071692000   -0.0000000000   -0.0081740700
   0.0003240700    0.0000000000   -0.0001966800
   0.0003266500    0.0000000000    0.0001966400
   0.0070002000    0.0079377200    0.0000000000
   0.0071692000   -0.0081740700   -0.0000000000
   0.0070002000   -0.0079377200    0.0000000000
   0.0071692000    0.0081740700   -0.0000000000
   0.0003240700   -0.0001966800    0.0000000000
   0.0003266500    0.0001966400    0.0000000000
   0.0003240700    0.0001966800    0.0000000000
   0.0003266500   -0.0001966400   -0.0000000000
