nqpoint: 306    
npath: 6      
segment_nqpoint:
- 51
- 51
- 51
- 51
- 51
- 51
reciprocal_lattice:
- [  -0.24768990,   0.24768990,   0.24768990 ] # a*
- [   0.24768990,  -0.24768990,   0.24768990 ] # b*
- [   0.24768990,   0.24768990,  -0.24768990 ] # c*
natom: 1      
lattice:
- [     0.000000000000000,     2.018653184836408,     2.018653184836408 ] # a
- [     2.018653184836408,     0.000000000000000,     2.018653184836408 ] # b
- [     2.018653184836408,     2.018653184836408,     0.000000000000000 ] # c
points:
- symbol: Al # 1
  coordinates: [  0.000000000000000,  0.000000000000000,  0.000000000000000 ]
  mass: 26.981539
supercell_matrix:
- [   -4,    4,    4 ]
- [    4,   -4,    4 ]
- [    4,    4,   -4 ]

phonon:
- q-position: [    0.0000000,    0.0000000,    0.0000000 ]
  distance:    0.0000000
  label: '\Gamma'
  band:
  - # 1
    frequency:    0.0042563013
  - # 2
    frequency:    0.0042563013
  - # 3
    frequency:    0.0042563013

- q-position: [    0.0000000,    0.0100000,    0.0100000 ]
  distance:    0.0049538
  band:
  - # 1
    frequency:    0.1804483313
  - # 2
    frequency:    0.1804483313
  - # 3
    frequency:    0.3183195521

- q-position: [    0.0000000,    0.0200000,    0.0200000 ]
  distance:    0.0099076
  band:
  - # 1
    frequency:    0.3606566910
  - # 2
    frequency:    0.3606566910
  - # 3
    frequency:    0.6362089608

- q-position: [    0.0000000,    0.0300000,    0.0300000 ]
  distance:    0.0148614
  band:
  - # 1
    frequency:    0.5405524643
  - # 2
    frequency:    0.5405524643
  - # 3
    frequency:    0.9533339247

- q-position: [    0.0000000,    0.0400000,    0.0400000 ]
  distance:    0.0198152
  band:
  - # 1
    frequency:    0.7199585543
  - # 2
    frequency:    0.7199585543
  - # 3
    frequency:    1.2693028751

- q-position: [    0.0000000,    0.0500000,    0.0500000 ]
  distance:    0.0247690
  band:
  - # 1
    frequency:    0.8987080319
  - # 2
    frequency:    0.8987080319
  - # 3
    frequency:    1.5837329258

- q-position: [    0.0000000,    0.0600000,    0.0600000 ]
  distance:    0.0297228
  band:
  - # 1
    frequency:    1.0766358209
  - # 2
    frequency:    1.0766358209
  - # 3
    frequency:    1.8962461019

- q-position: [    0.0000000,    0.0700000,    0.0700000 ]
  distance:    0.0346766
  band:
  - # 1
    frequency:    1.2535775561
  - # 2
    frequency:    1.2535775561
  - # 3
    frequency:    2.2064696100

- q-position: [    0.0000000,    0.0800000,    0.0800000 ]
  distance:    0.0396304
  band:
  - # 1
    frequency:    1.4293693427
  - # 2
    frequency:    1.4293693427
  - # 3
    frequency:    2.5140365868

- q-position: [    0.0000000,    0.0900000,    0.0900000 ]
  distance:    0.0445842
  band:
  - # 1
    frequency:    1.6038477201
  - # 2
    frequency:    1.6038477201
  - # 3
    frequency:    2.8185869275

- q-position: [    0.0000000,    0.1000000,    0.1000000 ]
  distance:    0.0495380
  band:
  - # 1
    frequency:    1.7768496929
  - # 2
    frequency:    1.7768496929
  - # 3
    frequency:    3.1197681083

- q-position: [    0.0000000,    0.1100000,    0.1100000 ]
  distance:    0.0544918
  band:
  - # 1
    frequency:    1.9482127914
  - # 2
    frequency:    1.9482127914
  - # 3
    frequency:    3.4172359777

- q-position: [    0.0000000,    0.1200000,    0.1200000 ]
  distance:    0.0594456
  band:
  - # 1
    frequency:    2.1177751490
  - # 2
    frequency:    2.1177751490
  - # 3
    frequency:    3.7106555035

- q-position: [    0.0000000,    0.1300000,    0.1300000 ]
  distance:    0.0643994
  band:
  - # 1
    frequency:    2.2853755921
  - # 2
    frequency:    2.2853755921
  - # 3
    frequency:    3.9997014699

- q-position: [    0.0000000,    0.1400000,    0.1400000 ]
  distance:    0.0693532
  band:
  - # 1
    frequency:    2.4508537426
  - # 2
    frequency:    2.4508537426
  - # 3
    frequency:    4.2840591185

- q-position: [    0.0000000,    0.1500000,    0.1500000 ]
  distance:    0.0743070
  band:
  - # 1
    frequency:    2.6140501300
  - # 2
    frequency:    2.6140501300
  - # 3
    frequency:    4.5634247294

- q-position: [    0.0000000,    0.1600000,    0.1600000 ]
  distance:    0.0792608
  band:
  - # 1
    frequency:    2.7748063146
  - # 2
    frequency:    2.7748063146
  - # 3
    frequency:    4.8375061392

- q-position: [    0.0000000,    0.1700000,    0.1700000 ]
  distance:    0.0842146
  band:
  - # 1
    frequency:    2.9329650209
  - # 2
    frequency:    2.9329650209
  - # 3
    frequency:    5.1060231924

- q-position: [    0.0000000,    0.1800000,    0.1800000 ]
  distance:    0.0891684
  band:
  - # 1
    frequency:    3.0883702816
  - # 2
    frequency:    3.0883702816
  - # 3
    frequency:    5.3687081244

- q-position: [    0.0000000,    0.1900000,    0.1900000 ]
  distance:    0.0941222
  band:
  - # 1
    frequency:    3.2408675912
  - # 2
    frequency:    3.2408675912
  - # 3
    frequency:    5.6253058737

- q-position: [    0.0000000,    0.2000000,    0.2000000 ]
  distance:    0.0990760
  band:
  - # 1
    frequency:    3.3903040703
  - # 2
    frequency:    3.3903040703
  - # 3
    frequency:    5.8755743231

- q-position: [    0.0000000,    0.2100000,    0.2100000 ]
  distance:    0.1040298
  band:
  - # 1
    frequency:    3.5365286385
  - # 2
    frequency:    3.5365286385
  - # 3
    frequency:    6.1192844679

- q-position: [    0.0000000,    0.2200000,    0.2200000 ]
  distance:    0.1089836
  band:
  - # 1
    frequency:    3.6793921974
  - # 2
    frequency:    3.6793921974
  - # 3
    frequency:    6.3562205107

- q-position: [    0.0000000,    0.2300000,    0.2300000 ]
  distance:    0.1139374
  band:
  - # 1
    frequency:    3.8187478217
  - # 2
    frequency:    3.8187478217
  - # 3
    frequency:    6.5861798853

- q-position: [    0.0000000,    0.2400000,    0.2400000 ]
  distance:    0.1188912
  band:
  - # 1
    frequency:    3.9544509582
  - # 2
    frequency:    3.9544509582
  - # 3
    frequency:    6.8089732078

- q-position: [    0.0000000,    0.2500000,    0.2500000 ]
  distance:    0.1238449
  band:
  - # 1
    frequency:    4.0863596324
  - # 2
    frequency:    4.0863596324
  - # 3
    frequency:    7.0244241586

- q-position: [    0.0000000,    0.2600000,    0.2600000 ]
  distance:    0.1287987
  band:
  - # 1
    frequency:    4.2143346614
  - # 2
    frequency:    4.2143346614
  - # 3
    frequency:    7.2323692965

- q-position: [    0.0000000,    0.2700000,    0.2700000 ]
  distance:    0.1337525
  band:
  - # 1
    frequency:    4.3382398723
  - # 2
    frequency:    4.3382398723
  - # 3
    frequency:    7.4326578073

- q-position: [    0.0000000,    0.2800000,    0.2800000 ]
  distance:    0.1387063
  band:
  - # 1
    frequency:    4.4579423252
  - # 2
    frequency:    4.4579423252
  - # 3
    frequency:    7.6251511912

- q-position: [    0.0000000,    0.2900000,    0.2900000 ]
  distance:    0.1436601
  band:
  - # 1
    frequency:    4.5733125398
  - # 2
    frequency:    4.5733125398
  - # 3
    frequency:    7.8097228919

- q-position: [    0.0000000,    0.3000000,    0.3000000 ]
  distance:    0.1486139
  band:
  - # 1
    frequency:    4.6842247246
  - # 2
    frequency:    4.6842247246
  - # 3
    frequency:    7.9862578723

- q-position: [    0.0000000,    0.3100000,    0.3100000 ]
  distance:    0.1535677
  band:
  - # 1
    frequency:    4.7905570072
  - # 2
    frequency:    4.7905570072
  - # 3
    frequency:    8.1546521415

- q-position: [    0.0000000,    0.3200000,    0.3200000 ]
  distance:    0.1585215
  band:
  - # 1
    frequency:    4.8921916649
  - # 2
    frequency:    4.8921916649
  - # 3
    frequency:    8.3148122384

- q-position: [    0.0000000,    0.3300000,    0.3300000 ]
  distance:    0.1634753
  band:
  - # 1
    frequency:    4.9890153541
  - # 2
    frequency:    4.9890153541
  - # 3
    frequency:    8.4666546784

- q-position: [    0.0000000,    0.3400000,    0.3400000 ]
  distance:    0.1684291
  band:
  - # 1
    frequency:    5.0809193377
  - # 2
    frequency:    5.0809193377
  - # 3
    frequency:    8.6101053685

- q-position: [    0.0000000,    0.3500000,    0.3500000 ]
  distance:    0.1733829
  band:
  - # 1
    frequency:    5.1677997085
  - # 2
    frequency:    5.1677997085
  - # 3
    frequency:    8.7450989977

- q-position: [    0.0000000,    0.3600000,    0.3600000 ]
  distance:    0.1783367
  band:
  - # 1
    frequency:    5.2495576086
  - # 2
    frequency:    5.2495576086
  - # 3
    frequency:    8.8715784103

- q-position: [    0.0000000,    0.3700000,    0.3700000 ]
  distance:    0.1832905
  band:
  - # 1
    frequency:    5.3260994415
  - # 2
    frequency:    5.3260994415
  - # 3
    frequency:    8.9894939679

- q-position: [    0.0000000,    0.3800000,    0.3800000 ]
  distance:    0.1882443
  band:
  - # 1
    frequency:    5.3973370790
  - # 2
    frequency:    5.3973370790
  - # 3
    frequency:    9.0988029085

- q-position: [    0.0000000,    0.3900000,    0.3900000 ]
  distance:    0.1931981
  band:
  - # 1
    frequency:    5.4631880573
  - # 2
    frequency:    5.4631880573
  - # 3
    frequency:    9.1994687093

- q-position: [    0.0000000,    0.4000000,    0.4000000 ]
  distance:    0.1981519
  band:
  - # 1
    frequency:    5.5235757660
  - # 2
    frequency:    5.5235757660
  - # 3
    frequency:    9.2914604606

- q-position: [    0.0000000,    0.4100000,    0.4100000 ]
  distance:    0.2031057
  band:
  - # 1
    frequency:    5.5784296244
  - # 2
    frequency:    5.5784296244
  - # 3
    frequency:    9.3747522586

- q-position: [    0.0000000,    0.4200000,    0.4200000 ]
  distance:    0.2080595
  band:
  - # 1
    frequency:    5.6276852478
  - # 2
    frequency:    5.6276852478
  - # 3
    frequency:    9.4493226231

- q-position: [    0.0000000,    0.4300000,    0.4300000 ]
  distance:    0.2130133
  band:
  - # 1
    frequency:    5.6712845998
  - # 2
    frequency:    5.6712845998
  - # 3
    frequency:    9.5151539481

- q-position: [    0.0000000,    0.4400000,    0.4400000 ]
  distance:    0.2179671
  band:
  - # 1
    frequency:    5.7091761323
  - # 2
    frequency:    5.7091761323
  - # 3
    frequency:    9.5722319905

- q-position: [    0.0000000,    0.4500000,    0.4500000 ]
  distance:    0.2229209
  band:
  - # 1
    frequency:    5.7413149102
  - # 2
    frequency:    5.7413149102
  - # 3
    frequency:    9.6205454040

- q-position: [    0.0000000,    0.4600000,    0.4600000 ]
  distance:    0.2278747
  band:
  - # 1
    frequency:    5.7676627213
  - # 2
    frequency:    5.7676627213
  - # 3
    frequency:    9.6600853228

- q-position: [    0.0000000,    0.4700000,    0.4700000 ]
  distance:    0.2328285
  band:
  - # 1
    frequency:    5.7881881707
  - # 2
    frequency:    5.7881881707
  - # 3
    frequency:    9.6908450013

- q-position: [    0.0000000,    0.4800000,    0.4800000 ]
  distance:    0.2377823
  band:
  - # 1
    frequency:    5.8028667587
  - # 2
    frequency:    5.8028667587
  - # 3
    frequency:    9.7128195122

- q-position: [    0.0000000,    0.4900000,    0.4900000 ]
  distance:    0.2427361
  band:
  - # 1
    frequency:    5.8116809413
  - # 2
    frequency:    5.8116809413
  - # 3
    frequency:    9.7260055089

- q-position: [    0.0000000,    0.5000000,    0.5000000 ]
  distance:    0.2476899
  label: 'X'
  band:
  - # 1
    frequency:    5.8146201748
  - # 2
    frequency:    5.8146201748
  - # 3
    frequency:    9.7304010526

- q-position: [    0.0000000,    0.5000000,    0.5000000 ]
  distance:    0.2476899
  label: 'X'
  band:
  - # 1
    frequency:    5.8146201748
  - # 2
    frequency:    5.8146201748
  - # 3
    frequency:    9.7304010526

- q-position: [    0.0050000,    0.5050000,    0.5000000 ]
  distance:    0.2501668
  band:
  - # 1
    frequency:    5.8152991868
  - # 2
    frequency:    5.8158699727
  - # 3
    frequency:    9.7296045292

- q-position: [    0.0100000,    0.5100000,    0.5000000 ]
  distance:    0.2526437
  band:
  - # 1
    frequency:    5.8173330688
  - # 2
    frequency:    5.8196166463
  - # 3
    frequency:    9.7272154272

- q-position: [    0.0150000,    0.5150000,    0.5000000 ]
  distance:    0.2551206
  band:
  - # 1
    frequency:    5.8207123797
  - # 2
    frequency:    5.8258520528
  - # 3
    frequency:    9.7232351516

- q-position: [    0.0200000,    0.5200000,    0.5000000 ]
  distance:    0.2575975
  band:
  - # 1
    frequency:    5.8254214562
  - # 2
    frequency:    5.8345626813
  - # 3
    frequency:    9.7176660442

- q-position: [    0.0250000,    0.5250000,    0.5000000 ]
  distance:    0.2600744
  band:
  - # 1
    frequency:    5.8314385190
  - # 2
    frequency:    5.8457297414
  - # 3
    frequency:    9.7105113834

- q-position: [    0.0300000,    0.5300000,    0.5000000 ]
  distance:    0.2625513
  band:
  - # 1
    frequency:    5.8387358195
  - # 2
    frequency:    5.8593292856
  - # 3
    frequency:    9.7017753845

- q-position: [    0.0350000,    0.5350000,    0.5000000 ]
  distance:    0.2650282
  band:
  - # 1
    frequency:    5.8472798258
  - # 2
    frequency:    5.8753323638
  - # 3
    frequency:    9.6914631998

- q-position: [    0.0400000,    0.5400000,    0.5000000 ]
  distance:    0.2675051
  band:
  - # 1
    frequency:    5.8570314434
  - # 2
    frequency:    5.8937052059
  - # 3
    frequency:    9.6795809188

- q-position: [    0.0450000,    0.5450000,    0.5000000 ]
  distance:    0.2699820
  band:
  - # 1
    frequency:    5.8679462703
  - # 2
    frequency:    5.9144094313
  - # 3
    frequency:    9.6661355683

- q-position: [    0.0500000,    0.5500000,    0.5000000 ]
  distance:    0.2724589
  band:
  - # 1
    frequency:    5.8799748812
  - # 2
    frequency:    5.9374022813
  - # 3
    frequency:    9.6511351130

- q-position: [    0.0550000,    0.5550000,    0.5000000 ]
  distance:    0.2749358
  band:
  - # 1
    frequency:    5.8930631388
  - # 2
    frequency:    5.9626368706
  - # 3
    frequency:    9.6345884553

- q-position: [    0.0600000,    0.5600000,    0.5000000 ]
  distance:    0.2774127
  band:
  - # 1
    frequency:    5.9071525269
  - # 2
    frequency:    5.9900624559
  - # 3
    frequency:    9.6165054364

- q-position: [    0.0650000,    0.5650000,    0.5000000 ]
  distance:    0.2798896
  band:
  - # 1
    frequency:    5.9221805033
  - # 2
    frequency:    6.0196247157
  - # 3
    frequency:    9.5968968364

- q-position: [    0.0700000,    0.5700000,    0.5000000 ]
  distance:    0.2823665
  band:
  - # 1
    frequency:    5.9380808676
  - # 2
    frequency:    6.0512660399
  - # 3
    frequency:    9.5757743750

- q-position: [    0.0750000,    0.5750000,    0.5000000 ]
  distance:    0.2848434
  band:
  - # 1
    frequency:    5.9547841402
  - # 2
    frequency:    6.0849258246
  - # 3
    frequency:    9.5531507123

- q-position: [    0.0800000,    0.5800000,    0.5000000 ]
  distance:    0.2873203
  band:
  - # 1
    frequency:    5.9722179493
  - # 2
    frequency:    6.1205407683
  - # 3
    frequency:    9.5290394501

- q-position: [    0.0850000,    0.5850000,    0.5000000 ]
  distance:    0.2897972
  band:
  - # 1
    frequency:    5.9903074216
  - # 2
    frequency:    6.1580451685
  - # 3
    frequency:    9.5034551324

- q-position: [    0.0900000,    0.5900000,    0.5000000 ]
  distance:    0.2922741
  band:
  - # 1
    frequency:    6.0089755745
  - # 2
    frequency:    6.1973712128
  - # 3
    frequency:    9.4764132469

- q-position: [    0.0950000,    0.5950000,    0.5000000 ]
  distance:    0.2947510
  band:
  - # 1
    frequency:    6.0281437059
  - # 2
    frequency:    6.2384492647
  - # 3
    frequency:    9.4479302266

- q-position: [    0.1000000,    0.6000000,    0.5000000 ]
  distance:    0.2972279
  band:
  - # 1
    frequency:    6.0477317794
  - # 2
    frequency:    6.2812081406
  - # 3
    frequency:    9.4180234516

- q-position: [    0.1050000,    0.6050000,    0.5000000 ]
  distance:    0.2997048
  band:
  - # 1
    frequency:    6.0676588021
  - # 2
    frequency:    6.3255753757
  - # 3
    frequency:    9.3867112506

- q-position: [    0.1100000,    0.6100000,    0.5000000 ]
  distance:    0.3021817
  band:
  - # 1
    frequency:    6.0878431925
  - # 2
    frequency:    6.3714774789
  - # 3
    frequency:    9.3540129036

- q-position: [    0.1150000,    0.6150000,    0.5000000 ]
  distance:    0.3046586
  band:
  - # 1
    frequency:    6.1082031385
  - # 2
    frequency:    6.4188401734
  - # 3
    frequency:    9.3199486442

- q-position: [    0.1200000,    0.6200000,    0.5000000 ]
  distance:    0.3071355
  band:
  - # 1
    frequency:    6.1286569412
  - # 2
    frequency:    6.4675886237
  - # 3
    frequency:    9.2845396625

- q-position: [    0.1250000,    0.6250000,    0.5000000 ]
  distance:    0.3096124
  band:
  - # 1
    frequency:    6.1491233457
  - # 2
    frequency:    6.5176476474
  - # 3
    frequency:    9.2478081083

- q-position: [    0.1300000,    0.6300000,    0.5000000 ]
  distance:    0.3120893
  band:
  - # 1
    frequency:    6.1695218564
  - # 2
    frequency:    6.5689419122
  - # 3
    frequency:    9.2097770946

- q-position: [    0.1350000,    0.6350000,    0.5000000 ]
  distance:    0.3145662
  band:
  - # 1
    frequency:    6.1897730378
  - # 2
    frequency:    6.6213961169
  - # 3
    frequency:    9.1704707016

- q-position: [    0.1400000,    0.6400000,    0.5000000 ]
  distance:    0.3170431
  band:
  - # 1
    frequency:    6.2097987974
  - # 2
    frequency:    6.6749351579
  - # 3
    frequency:    9.1299139811

- q-position: [    0.1450000,    0.6450000,    0.5000000 ]
  distance:    0.3195200
  band:
  - # 1
    frequency:    6.2295226544
  - # 2
    frequency:    6.7294842797
  - # 3
    frequency:    9.0881329614

- q-position: [    0.1500000,    0.6500000,    0.5000000 ]
  distance:    0.3219969
  band:
  - # 1
    frequency:    6.2488699910
  - # 2
    frequency:    6.7849692120
  - # 3
    frequency:    9.0451546521

- q-position: [    0.1550000,    0.6550000,    0.5000000 ]
  distance:    0.3244738
  band:
  - # 1
    frequency:    6.2677682872
  - # 2
    frequency:    6.8413162918
  - # 3
    frequency:    9.0010070508

- q-position: [    0.1600000,    0.6600000,    0.5000000 ]
  distance:    0.3269507
  band:
  - # 1
    frequency:    6.2861473405
  - # 2
    frequency:    6.8984525721
  - # 3
    frequency:    8.9557191484

- q-position: [    0.1650000,    0.6650000,    0.5000000 ]
  distance:    0.3294276
  band:
  - # 1
    frequency:    6.3039394695
  - # 2
    frequency:    6.9563059183
  - # 3
    frequency:    8.9093209365

- q-position: [    0.1700000,    0.6700000,    0.5000000 ]
  distance:    0.3319045
  band:
  - # 1
    frequency:    6.3210797026
  - # 2
    frequency:    7.0148050927
  - # 3
    frequency:    8.8618434144

- q-position: [    0.1750000,    0.6750000,    0.5000000 ]
  distance:    0.3343814
  band:
  - # 1
    frequency:    6.3375059514
  - # 2
    frequency:    7.0738798271
  - # 3
    frequency:    8.8133185973

- q-position: [    0.1800000,    0.6800000,    0.5000000 ]
  distance:    0.3368583
  band:
  - # 1
    frequency:    6.3531591709
  - # 2
    frequency:    7.1334608858
  - # 3
    frequency:    8.7637795245

- q-position: [    0.1850000,    0.6850000,    0.5000000 ]
  distance:    0.3393352
  band:
  - # 1
    frequency:    6.3679835056
  - # 2
    frequency:    7.1934801185
  - # 3
    frequency:    8.7132602686

- q-position: [    0.1900000,    0.6900000,    0.5000000 ]
  distance:    0.3418121
  band:
  - # 1
    frequency:    6.3819264227
  - # 2
    frequency:    7.2538705053
  - # 3
    frequency:    8.6617959447

- q-position: [    0.1950000,    0.6950000,    0.5000000 ]
  distance:    0.3442890
  band:
  - # 1
    frequency:    6.3949388333
  - # 2
    frequency:    7.3145661924
  - # 3
    frequency:    8.6094227212

- q-position: [    0.2000000,    0.7000000,    0.5000000 ]
  distance:    0.3467659
  band:
  - # 1
    frequency:    6.4069752018
  - # 2
    frequency:    7.3755025224
  - # 3
    frequency:    8.5561778297

- q-position: [    0.2050000,    0.7050000,    0.5000000 ]
  distance:    0.3492428
  band:
  - # 1
    frequency:    6.4179936436
  - # 2
    frequency:    7.4366160564
  - # 3
    frequency:    8.5020995768

- q-position: [    0.2100000,    0.7100000,    0.5000000 ]
  distance:    0.3517197
  band:
  - # 1
    frequency:    6.4279560135
  - # 2
    frequency:    7.4978445916
  - # 3
    frequency:    8.4472273554

- q-position: [    0.2150000,    0.7150000,    0.5000000 ]
  distance:    0.3541966
  band:
  - # 1
    frequency:    6.4368279828
  - # 2
    frequency:    7.5591271732
  - # 3
    frequency:    8.3916016570

- q-position: [    0.2200000,    0.7200000,    0.5000000 ]
  distance:    0.3566735
  band:
  - # 1
    frequency:    6.4445791073
  - # 2
    frequency:    7.6204041023
  - # 3
    frequency:    8.3352640845

- q-position: [    0.2250000,    0.7250000,    0.5000000 ]
  distance:    0.3591504
  band:
  - # 1
    frequency:    6.4511828869
  - # 2
    frequency:    7.6816169393
  - # 3
    frequency:    8.2782573643

- q-position: [    0.2300000,    0.7300000,    0.5000000 ]
  distance:    0.3616273
  band:
  - # 1
    frequency:    6.4566168151
  - # 2
    frequency:    7.7427085043
  - # 3
    frequency:    8.2206253605

- q-position: [    0.2350000,    0.7350000,    0.5000000 ]
  distance:    0.3641041
  band:
  - # 1
    frequency:    6.4608624217
  - # 2
    frequency:    7.8036228747
  - # 3
    frequency:    8.1624130871

- q-position: [    0.2400000,    0.7400000,    0.5000000 ]
  distance:    0.3665810
  band:
  - # 1
    frequency:    6.4639053062
  - # 2
    frequency:    7.8643053798
  - # 3
    frequency:    8.1036667223

- q-position: [    0.2450000,    0.7450000,    0.5000000 ]
  distance:    0.3690579
  band:
  - # 1
    frequency:    6.4657351638
  - # 2
    frequency:    7.9247025944
  - # 3
    frequency:    8.0444336212

- q-position: [    0.2500000,    0.7500000,    0.5000000 ]
  distance:    0.3715348
  label: 'W'
  band:
  - # 1
    frequency:    6.4663458045
  - # 2
    frequency:    7.9847623292
  - # 3
    frequency:    7.9847623292

- q-position: [    0.2500000,    0.7500000,    0.5000000 ]
  distance:    0.3715348
  label: 'W'
  band:
  - # 1
    frequency:    6.4663458045
  - # 2
    frequency:    7.9847623292
  - # 3
    frequency:    7.9847623292

- q-position: [    0.2450000,    0.7450000,    0.5000000 ]
  distance:    0.3740117
  band:
  - # 1
    frequency:    6.4657351638
  - # 2
    frequency:    7.9247025944
  - # 3
    frequency:    8.0444336212

- q-position: [    0.2400000,    0.7400000,    0.5000000 ]
  distance:    0.3764886
  band:
  - # 1
    frequency:    6.4639053062
  - # 2
    frequency:    7.8643053798
  - # 3
    frequency:    8.1036667223

- q-position: [    0.2350000,    0.7350000,    0.5000000 ]
  distance:    0.3789655
  band:
  - # 1
    frequency:    6.4608624217
  - # 2
    frequency:    7.8036228747
  - # 3
    frequency:    8.1624130871

- q-position: [    0.2300000,    0.7300000,    0.5000000 ]
  distance:    0.3814424
  band:
  - # 1
    frequency:    6.4566168151
  - # 2
    frequency:    7.7427085043
  - # 3
    frequency:    8.2206253605

- q-position: [    0.2250000,    0.7250000,    0.5000000 ]
  distance:    0.3839193
  band:
  - # 1
    frequency:    6.4511828869
  - # 2
    frequency:    7.6816169393
  - # 3
    frequency:    8.2782573643

- q-position: [    0.2200000,    0.7200000,    0.5000000 ]
  distance:    0.3863962
  band:
  - # 1
    frequency:    6.4445791073
  - # 2
    frequency:    7.6204041023
  - # 3
    frequency:    8.3352640845

- q-position: [    0.2150000,    0.7150000,    0.5000000 ]
  distance:    0.3888731
  band:
  - # 1
    frequency:    6.4368279828
  - # 2
    frequency:    7.5591271732
  - # 3
    frequency:    8.3916016570

- q-position: [    0.2100000,    0.7100000,    0.5000000 ]
  distance:    0.3913500
  band:
  - # 1
    frequency:    6.4279560135
  - # 2
    frequency:    7.4978445916
  - # 3
    frequency:    8.4472273554

- q-position: [    0.2050000,    0.7050000,    0.5000000 ]
  distance:    0.3938269
  band:
  - # 1
    frequency:    6.4179936436
  - # 2
    frequency:    7.4366160564
  - # 3
    frequency:    8.5020995768

- q-position: [    0.2000000,    0.7000000,    0.5000000 ]
  distance:    0.3963038
  band:
  - # 1
    frequency:    6.4069752018
  - # 2
    frequency:    7.3755025224
  - # 3
    frequency:    8.5561778297

- q-position: [    0.1950000,    0.6950000,    0.5000000 ]
  distance:    0.3987807
  band:
  - # 1
    frequency:    6.3949388333
  - # 2
    frequency:    7.3145661924
  - # 3
    frequency:    8.6094227212

- q-position: [    0.1900000,    0.6900000,    0.5000000 ]
  distance:    0.4012576
  band:
  - # 1
    frequency:    6.3819264227
  - # 2
    frequency:    7.2538705053
  - # 3
    frequency:    8.6617959447

- q-position: [    0.1850000,    0.6850000,    0.5000000 ]
  distance:    0.4037345
  band:
  - # 1
    frequency:    6.3679835056
  - # 2
    frequency:    7.1934801185
  - # 3
    frequency:    8.7132602686

- q-position: [    0.1800000,    0.6800000,    0.5000000 ]
  distance:    0.4062114
  band:
  - # 1
    frequency:    6.3531591709
  - # 2
    frequency:    7.1334608858
  - # 3
    frequency:    8.7637795245

- q-position: [    0.1750000,    0.6750000,    0.5000000 ]
  distance:    0.4086883
  band:
  - # 1
    frequency:    6.3375059514
  - # 2
    frequency:    7.0738798271
  - # 3
    frequency:    8.8133185973

- q-position: [    0.1700000,    0.6700000,    0.5000000 ]
  distance:    0.4111652
  band:
  - # 1
    frequency:    6.3210797026
  - # 2
    frequency:    7.0148050927
  - # 3
    frequency:    8.8618434144

- q-position: [    0.1650000,    0.6650000,    0.5000000 ]
  distance:    0.4136421
  band:
  - # 1
    frequency:    6.3039394695
  - # 2
    frequency:    6.9563059183
  - # 3
    frequency:    8.9093209365

- q-position: [    0.1600000,    0.6600000,    0.5000000 ]
  distance:    0.4161190
  band:
  - # 1
    frequency:    6.2861473405
  - # 2
    frequency:    6.8984525721
  - # 3
    frequency:    8.9557191484

- q-position: [    0.1550000,    0.6550000,    0.5000000 ]
  distance:    0.4185959
  band:
  - # 1
    frequency:    6.2677682872
  - # 2
    frequency:    6.8413162918
  - # 3
    frequency:    9.0010070508

- q-position: [    0.1500000,    0.6500000,    0.5000000 ]
  distance:    0.4210728
  band:
  - # 1
    frequency:    6.2488699910
  - # 2
    frequency:    6.7849692120
  - # 3
    frequency:    9.0451546521

- q-position: [    0.1450000,    0.6450000,    0.5000000 ]
  distance:    0.4235497
  band:
  - # 1
    frequency:    6.2295226544
  - # 2
    frequency:    6.7294842797
  - # 3
    frequency:    9.0881329614

- q-position: [    0.1400000,    0.6400000,    0.5000000 ]
  distance:    0.4260266
  band:
  - # 1
    frequency:    6.2097987974
  - # 2
    frequency:    6.6749351579
  - # 3
    frequency:    9.1299139811

- q-position: [    0.1350000,    0.6350000,    0.5000000 ]
  distance:    0.4285035
  band:
  - # 1
    frequency:    6.1897730378
  - # 2
    frequency:    6.6213961169
  - # 3
    frequency:    9.1704707016

- q-position: [    0.1300000,    0.6300000,    0.5000000 ]
  distance:    0.4309804
  band:
  - # 1
    frequency:    6.1695218564
  - # 2
    frequency:    6.5689419122
  - # 3
    frequency:    9.2097770946

- q-position: [    0.1250000,    0.6250000,    0.5000000 ]
  distance:    0.4334573
  band:
  - # 1
    frequency:    6.1491233457
  - # 2
    frequency:    6.5176476474
  - # 3
    frequency:    9.2478081083

- q-position: [    0.1200000,    0.6200000,    0.5000000 ]
  distance:    0.4359342
  band:
  - # 1
    frequency:    6.1286569412
  - # 2
    frequency:    6.4675886237
  - # 3
    frequency:    9.2845396625

- q-position: [    0.1150000,    0.6150000,    0.5000000 ]
  distance:    0.4384111
  band:
  - # 1
    frequency:    6.1082031385
  - # 2
    frequency:    6.4188401734
  - # 3
    frequency:    9.3199486442

- q-position: [    0.1100000,    0.6100000,    0.5000000 ]
  distance:    0.4408880
  band:
  - # 1
    frequency:    6.0878431925
  - # 2
    frequency:    6.3714774789
  - # 3
    frequency:    9.3540129036

- q-position: [    0.1050000,    0.6050000,    0.5000000 ]
  distance:    0.4433649
  band:
  - # 1
    frequency:    6.0676588021
  - # 2
    frequency:    6.3255753757
  - # 3
    frequency:    9.3867112506

- q-position: [    0.1000000,    0.6000000,    0.5000000 ]
  distance:    0.4458418
  band:
  - # 1
    frequency:    6.0477317794
  - # 2
    frequency:    6.2812081406
  - # 3
    frequency:    9.4180234516

- q-position: [    0.0950000,    0.5950000,    0.5000000 ]
  distance:    0.4483187
  band:
  - # 1
    frequency:    6.0281437059
  - # 2
    frequency:    6.2384492647
  - # 3
    frequency:    9.4479302266

- q-position: [    0.0900000,    0.5900000,    0.5000000 ]
  distance:    0.4507956
  band:
  - # 1
    frequency:    6.0089755745
  - # 2
    frequency:    6.1973712128
  - # 3
    frequency:    9.4764132469

- q-position: [    0.0850000,    0.5850000,    0.5000000 ]
  distance:    0.4532725
  band:
  - # 1
    frequency:    5.9903074216
  - # 2
    frequency:    6.1580451685
  - # 3
    frequency:    9.5034551324

- q-position: [    0.0800000,    0.5800000,    0.5000000 ]
  distance:    0.4557494
  band:
  - # 1
    frequency:    5.9722179493
  - # 2
    frequency:    6.1205407683
  - # 3
    frequency:    9.5290394501

- q-position: [    0.0750000,    0.5750000,    0.5000000 ]
  distance:    0.4582263
  band:
  - # 1
    frequency:    5.9547841402
  - # 2
    frequency:    6.0849258246
  - # 3
    frequency:    9.5531507123

- q-position: [    0.0700000,    0.5700000,    0.5000000 ]
  distance:    0.4607032
  band:
  - # 1
    frequency:    5.9380808676
  - # 2
    frequency:    6.0512660399
  - # 3
    frequency:    9.5757743750
