32   
1    

1    
  0.0100000000000000   0.0000000000000000   0.0000000000000000
  -0.0467320800   -0.0000000000   -0.0000000000
   0.0020506700   -0.0000000000   -0.0000000000
  -0.0004187200    0.0000000000   -0.0000000000
   0.0004975600    0.0000000000   -0.0000000000
  -0.0004187200    0.0000000000    0.0000000000
   0.0004975600    0.0000000000    0.0000000000
   0.0000133900   -0.0000000000   -0.0000000000
  -0.0002841600   -0.0000000000   -0.0000000000
  -0.0014530900    0.0000208700   -0.0000208700
  -0.0004141100   -0.0000007500    0.0000007500
  -0.0014530900   -0.0000208700   -0.0000208700
  -0.0004141100    0.0000007500    0.0000007500
  -0.0014530900    0.0000208700    0.0000208700
  -0.0004141100   -0.0000007500   -0.0000007500
  -0.0014530900   -0.0000208700    0.0000208700
  -0.0004141100    0.0000007500   -0.0000007500
   0.0064380400    0.0000000000   -0.0064879600
   0.0065888300    0.0000000000    0.0067053600
   0.0000169300    0.0000000000    0.0002418000
   0.0000220200    0.0000000000   -0.0002432600
   0.0064380400   -0.0000000000    0.0064879600
   0.0065888300    0.0000000000   -0.0067053600
   0.0000169300    0.0000000000   -0.0002418000
   0.0000220200    0.0000000000    0.0002432600
   0.0064380400    0.0064879600   -0.0000000000
   0.0065888300   -0.0067053600   -0.0000000000
   0.0064380400   -0.0064879600   -0.0000000000
   0.0065888300    0.0067053600   -0.0000000000
   0.0000169300   -0.0002418000   -0.0000000000
   0.0000220200    0.0002432600    0.0000000000
   0.0000169300    0.0002418000   -0.0000000000
   0.0000220200   -0.0002432600   -0.0000000000
