mesh: [    48,    48,    48 ]
nqpoint: 2600   
reciprocal_lattice:
- [   0.24768990,   0.00000000,   0.00000000 ] # a*
- [   0.00000000,   0.24768990,   0.00000000 ] # b*
- [   0.00000000,   0.00000000,   0.24768990 ] # c*
natom:   4      
lattice:
- [     4.037306369672815,     0.000000000000000,     0.000000000000000 ] # a
- [     0.000000000000000,     4.037306369672815,     0.000000000000000 ] # b
- [     0.000000000000000,     0.000000000000000,     4.037306369672815 ] # c
points:
- symbol: Al # 1
  coordinates: [  0.500000000000000,  0.500000000000000,  0.000000000000000 ]
  mass: 26.981539
- symbol: Al # 2
  coordinates: [  0.500000000000000,  0.000000000000000,  0.500000000000000 ]
  mass: 26.981539
- symbol: Al # 3
  coordinates: [  0.000000000000000,  0.500000000000000,  0.500000000000000 ]
  mass: 26.981539
- symbol: Al # 4
  coordinates: [  0.000000000000000,  0.000000000000000,  0.000000000000000 ]
  mass: 26.981539
phonon:
- q-position: [    0.0104167,    0.0104167,    0.0104167 ]
  weight: 8    
  band:
  - # 1
    frequency:     0.1432147387
  - # 2
    frequency:     0.1432147387
  - # 3
    frequency:     0.3073363498
  - # 4
    frequency:     5.8137958104
  - # 5
    frequency:     5.8137958104
  - # 6
    frequency:     5.8137958104
  - # 7
    frequency:     5.8180321855
  - # 8
    frequency:     5.8180321855
  - # 9
    frequency:     5.8180321855
  - # 10
    frequency:     9.7274818116
  - # 11
    frequency:     9.7274818116
  - # 12
    frequency:     9.7274818116

- q-position: [    0.0312500,    0.0104167,    0.0104167 ]
  weight: 24   
  band:
  - # 1
    frequency:     0.2846652736
  - # 2
    frequency:     0.3017555728
  - # 3
    frequency:     0.5693115478
  - # 4
    frequency:     5.8074192013
  - # 5
    frequency:     5.8116492433
  - # 6
    frequency:     5.8174478898
  - # 7
    frequency:     5.8174478898
  - # 8
    frequency:     5.8310574755
  - # 9
    frequency:     5.8310574755
  - # 10
    frequency:     9.7179559229
  - # 11
    frequency:     9.7205780328
  - # 12
    frequency:     9.7205780328

- q-position: [    0.0520833,    0.0104167,    0.0104167 ]
  weight: 24   
  band:
  - # 1
    frequency:     0.4679850147
  - # 2
    frequency:     0.4815278672
  - # 3
    frequency:     0.8746816992
  - # 4
    frequency:     5.7946742820
  - # 5
    frequency:     5.7988916472
  - # 6
    frequency:     5.8279448523
  - # 7
    frequency:     5.8279448523
  - # 8
    frequency:     5.8536960394
  - # 9
    frequency:     5.8536960394
  - # 10
    frequency:     9.6989056415
  - # 11
    frequency:     9.7067881452
  - # 12
    frequency:     9.7067881452

- q-position: [    0.0729167,    0.0104167,    0.0104167 ]
  weight: 24   
  band:
  - # 1
    frequency:     0.6548457813
  - # 2
    frequency:     0.6651245862
  - # 3
    frequency:     1.1916617143
  - # 4
    frequency:     5.7755776278
  - # 5
    frequency:     5.7797759511
  - # 6
    frequency:     5.8445383146
  - # 7
    frequency:     5.8445383146
  - # 8
    frequency:     5.8862641588
  - # 9
    frequency:     5.8862641588
  - # 10
    frequency:     9.6703340493
  - # 11
    frequency:     9.6861474914
  - # 12
    frequency:     9.6861474914

- q-position: [    0.0937500,    0.0104167,    0.0104167 ]
  weight: 24   
  band:
  - # 1
    frequency:     0.8415999382
  - # 2
    frequency:     0.8495803274
  - # 3
    frequency:     1.5122785500
  - # 4
    frequency:     5.7501540450
  - # 5
    frequency:     5.7543269293
  - # 6
    frequency:     5.8666158309
  - # 7
    frequency:     5.8666158309
  - # 8
    frequency:     5.9287415292
  - # 9
    frequency:     5.9287415292
  - # 10
    frequency:     9.6322459917
  - # 11
    frequency:     9.6587090915
  - # 12
    frequency:     9.6587090915

- q-position: [    0.1145833,    0.0104167,    0.0104167 ]
  weight: 24   
  band:
  - # 1
    frequency:     1.0275791814
  - # 2
    frequency:     1.0338994837
  - # 3
    frequency:     1.8334895687
  - # 4
    frequency:     5.7184365045
  - # 5
    frequency:     5.7225775090
  - # 6
    frequency:     5.8936042581
  - # 7
    frequency:     5.8936042581
  - # 8
    frequency:     5.9808852912
  - # 9
    frequency:     5.9808852912
  - # 10
    frequency:     9.5846483420
  - # 11
    frequency:     9.6245436525
  - # 12
    frequency:     9.6245436525

- q-position: [    0.1354167,    0.0104167,    0.0104167 ]
  weight: 24   
  band:
  - # 1
    frequency:     1.2125141468
  - # 2
    frequency:     1.2175774232
  - # 3
    frequency:     2.1537546015
  - # 4
    frequency:     5.6804660521
  - # 5
    frequency:     5.6845686807
  - # 6
    frequency:     5.9249102924
  - # 7
    frequency:     5.9249102924
  - # 8
    frequency:     6.0423110136
  - # 9
    frequency:     6.0423110136
  - # 10
    frequency:     9.5275503483
  - # 11
    frequency:     9.5837395826
  - # 12
    frequency:     9.5837395826

- q-position: [    0.1562500,    0.0104167,    0.0104167 ]
  weight: 24   
  band:
  - # 1
    frequency:     1.3962082540
  - # 2
    frequency:     1.4002783330
  - # 3
    frequency:     2.4721062408
  - # 4
    frequency:     5.6362916994
  - # 5
    frequency:     5.6403493879
  - # 6
    frequency:     5.9598991703
  - # 7
    frequency:     5.9598991703
  - # 8
    frequency:     6.1125384482
  - # 9
    frequency:     6.1125384482
  - # 10
    frequency:     9.4609640583
  - # 11
    frequency:     9.5364030133
  - # 12
    frequency:     9.5364030133

- q-position: [    0.1770833,    0.0104167,    0.0104167 ]
  weight: 24   
  band:
  - # 1
    frequency:     1.5784798237
  - # 2
    frequency:     1.5817372248
  - # 3
    frequency:     2.7878344083
  - # 4
    frequency:     5.5859702927
  - # 5
    frequency:     5.5899763960
  - # 6
    frequency:     5.9978934955
  - # 7
    frequency:     5.9978934955
  - # 8
    frequency:     6.1910188660
  - # 9
    frequency:     6.1910188660
  - # 10
    frequency:     9.3849048176
  - # 11
    frequency:     9.4826578318
  - # 12
    frequency:     9.4826578318

- q-position: [    0.1979167,    0.0104167,    0.0104167 ]
  weight: 24   
  band:
  - # 1
    frequency:     1.7591498307
  - # 2
    frequency:     1.7617232423
  - # 3
    frequency:     3.1003610028
  - # 4
    frequency:     5.5295663641
  - # 5
    frequency:     5.5335141418
  - # 6
    frequency:     6.0381811929
  - # 7
    frequency:     6.0381811929
  - # 8
    frequency:     6.2771538083
  - # 9
    frequency:     6.2771538083
  - # 10
    frequency:     9.2993918337
  - # 11
    frequency:     9.4226457254
  - # 12
    frequency:     9.4226457254

- q-position: [    0.2187500,    0.0104167,    0.0104167 ]
  weight: 24   
  band:
  - # 1
    frequency:     1.9380392955
  - # 2
    frequency:     1.9400238259
  - # 3
    frequency:     3.4091839674
  - # 4
    frequency:     5.4671519626
  - # 5
    frequency:     5.4710345639
  - # 6
    frequency:     6.0800272484
  - # 7
    frequency:     6.0800272484
  - # 8
    frequency:     6.3703095791
  - # 9
    frequency:     6.3703095791
  - # 10
    frequency:     9.2044487996
  - # 11
    frequency:     9.3565262435
  - # 12
    frequency:     9.3565262435

- q-position: [    0.2395833,    0.0104167,    0.0104167 ]
  weight: 24   
  band:
  - # 1
    frequency:     2.1149689532
  - # 2
    frequency:     2.1164371464
  - # 3
    frequency:     3.7138500872
  - # 4
    frequency:     5.3988064685
  - # 5
    frequency:     5.4026169163
  - # 6
    frequency:     6.1226866791
  - # 7
    frequency:     6.1226866791
  - # 8
    frequency:     6.4698292094
  - # 9
    frequency:     6.4698292094
  - # 10
    frequency:     9.1001045690
  - # 11
    frequency:     9.2844768786
  - # 12
    frequency:     9.2844768786

- q-position: [    0.2604167,    0.0104167,    0.0104167 ]
  weight: 24   
  band:
  - # 1
    frequency:     2.2897594657
  - # 2
    frequency:     2.2907682134
  - # 3
    frequency:     4.0139408859
  - # 4
    frequency:     5.3246163919
  - # 5
    frequency:     5.3283475650
  - # 6
    frequency:     6.1654174577
  - # 7
    frequency:     6.1654174577
  - # 8
    frequency:     6.5750425712
  - # 9
    frequency:     6.5750425712
  - # 10
    frequency:     8.9863938743
  - # 11
    frequency:     9.2066931717
  - # 12
    frequency:     9.2066931717

- q-position: [    0.2812500,    0.0104167,    0.0104167 ]
  weight: 24   
  band:
  - # 1
    frequency:     2.4622317350
  - # 2
    frequency:     2.4628267681
  - # 3
    frequency:     4.3090649625
  - # 4
    frequency:     5.2446751559
  - # 5
    frequency:     5.2483197700
  - # 6
    frequency:     6.2074927226
  - # 7
    frequency:     6.2074927226
  - # 8
    frequency:     6.6852749178
  - # 9
    frequency:     6.6852749178
  - # 10
    frequency:     8.8633580783
  - # 11
    frequency:     9.1233888457
  - # 12
    frequency:     9.1233888457

- q-position: [    0.3020833,    0.0104167,    0.0104167 ]
  weight: 24   
  band:
  - # 1
    frequency:     2.6322072115
  - # 2
    frequency:     2.6324261100
  - # 3
    frequency:     4.5988536876
  - # 4
    frequency:     5.1590828666
  - # 5
    frequency:     5.1626334539
  - # 6
    frequency:     6.2482119310
  - # 7
    frequency:     6.2482119310
  - # 8
    frequency:     6.7998539969
  - # 9
    frequency:     6.7998539969
  - # 10
    frequency:     8.7310459514
  - # 11
    frequency:     9.0347959715
  - # 12
    frequency:     9.0347959715

- q-position: [    0.3229167,    0.0104167,    0.0104167 ]
  weight: 24   
  band:
  - # 1
    frequency:     2.7993824436
  - # 2
    frequency:     2.7995081786
  - # 3
    frequency:     4.8829587307
  - # 4
    frequency:     5.0679460713
  - # 5
    frequency:     5.0713949575
  - # 6
    frequency:     6.2869107961
  - # 7
    frequency:     6.2869107961
  - # 8
    frequency:     6.9181158541
  - # 9
    frequency:     6.9181158541
  - # 10
    frequency:     8.5895144642
  - # 11
    frequency:     8.9411651708
  - # 12
    frequency:     8.9411651708

- q-position: [    0.3437500,    0.0104167,    0.0104167 ]
  weight: 24   
  band:
  - # 1
    frequency:     2.9635145292
  - # 2
    frequency:     2.9639580157
  - # 3
    frequency:     4.9713775065
  - # 4
    frequency:     4.9747167857
  - # 5
    frequency:     5.1610506169
  - # 6
    frequency:     6.3229699642
  - # 7
    frequency:     6.3229699642
  - # 8
    frequency:     7.0394094499
  - # 9
    frequency:     7.0394094499
  - # 10
    frequency:     8.4388295852
  - # 11
    frequency:     8.8427658610
  - # 12
    frequency:     8.8427658610

- q-position: [    0.3645833,    0.0104167,    0.0104167 ]
  weight: 24   
  band:
  - # 1
    frequency:     3.1246435238
  - # 2
    frequency:     3.1253814489
  - # 3
    frequency:     4.8694958369
  - # 4
    frequency:     4.8727173435
  - # 5
    frequency:     5.4328178703
  - # 6
    frequency:     6.3558224600
  - # 7
    frequency:     6.3558224600
  - # 8
    frequency:     7.1631002190
  - # 9
    frequency:     7.1631002190
  - # 10
    frequency:     8.2790670762
  - # 11
    frequency:     8.7398865463
  - # 12
    frequency:     8.7398865463

- q-position: [    0.3854167,    0.0104167,    0.0104167 ]
  weight: 24   
  band:
  - # 1
    frequency:     3.2825929432
  - # 2
    frequency:     3.2836047942
  - # 3
    frequency:     4.7624253882
  - # 4
    frequency:     4.7655206656
  - # 5
    frequency:     5.6979664892
  - # 6
    frequency:     6.3849599685
  - # 7
    frequency:     6.3849599685
  - # 8
    frequency:     7.2885727094
  - # 9
    frequency:     7.2885727094
  - # 10
    frequency:     8.1103132743
  - # 11
    frequency:     8.6328351659
  - # 12
    frequency:     8.6328351659

- q-position: [    0.4062500,    0.0104167,    0.0104167 ]
  weight: 24   
  band:
  - # 1
    frequency:     3.4371887078
  - # 2
    frequency:     3.4384562003
  - # 3
    frequency:     4.6502958744
  - # 4
    frequency:     4.6532561388
  - # 5
    frequency:     5.9562196019
  - # 6
    frequency:     6.4099380470
  - # 7
    frequency:     6.4099380470
  - # 8
    frequency:     7.4152324221
  - # 9
    frequency:     7.4152324221
  - # 10
    frequency:     7.9326658530
  - # 11
    frequency:     8.5219395149
  - # 12
    frequency:     8.5219395149

- q-position: [    0.4270833,    0.0104167,    0.0104167 ]
  weight: 24   
  band:
  - # 1
    frequency:     3.5882592463
  - # 2
    frequency:     3.5897658926
  - # 3
    frequency:     4.5332421222
  - # 4
    frequency:     4.5360582207
  - # 5
    frequency:     6.2073172097
  - # 6
    frequency:     6.4303803645
  - # 7
    frequency:     6.4303803645
  - # 8
    frequency:     7.5425069270
  - # 9
    frequency:     7.5425069270
  - # 10
    frequency:     7.7462345525
  - # 11
    frequency:     8.4075478006
  - # 12
    frequency:     8.4075478006

- q-position: [    0.4479167,    0.0104167,    0.0104167 ]
  weight: 24   
  band:
  - # 1
    frequency:     3.7356356426
  - # 2
    frequency:     3.7373664218
  - # 3
    frequency:     4.4114037937
  - # 4
    frequency:     4.4140661562
  - # 5
    frequency:     6.4459820680
  - # 6
    frequency:     6.4459820680
  - # 7
    frequency:     6.4510159597
  - # 8
    frequency:     7.5511418737
  - # 9
    frequency:     7.6698461252
  - # 10
    frequency:     7.6698461252
  - # 11
    frequency:     8.2900295811
  - # 12
    frequency:     8.2900295811

- q-position: [    0.4687500,    0.0104167,    0.0104167 ]
  weight: 24   
  band:
  - # 1
    frequency:     3.8791518149
  - # 2
    frequency:     3.8810929177
  - # 3
    frequency:     4.2849251100
  - # 4
    frequency:     4.2874236917
  - # 5
    frequency:     6.4565123620
  - # 6
    frequency:     6.4565123620
  - # 7
    frequency:     6.6870889084
  - # 8
    frequency:     7.3475237270
  - # 9
    frequency:     7.7967201539
  - # 10
    frequency:     7.7967201539
  - # 11
    frequency:     8.1697786944
  - # 12
    frequency:     8.1697786944

- q-position: [    0.4895833,    0.0104167,    0.0104167 ]
  weight: 24   
  band:
  - # 1
    frequency:     4.0186447201
  - # 2
    frequency:     4.0207833494
  - # 3
    frequency:     4.1539545777
  - # 4
    frequency:     4.1562787905
  - # 5
    frequency:     6.4618163758
  - # 6
    frequency:     6.4618163758
  - # 7
    frequency:     6.9153252555
  - # 8
    frequency:     7.1355300308
  - # 9
    frequency:     7.9225876422
  - # 10
    frequency:     7.9225876422
  - # 11
    frequency:     8.0472455551
  - # 12
    frequency:     8.0472455551

- q-position: [    0.0312500,    0.0312500,    0.0104167 ]
  weight: 24   
  band:
  - # 1
    frequency:     0.3372511352
  - # 2
    frequency:     0.3987181126
  - # 3
    frequency:     0.7639602991
  - # 4
    frequency:     5.8110616137
  - # 5
    frequency:     5.8110616137
  - # 6
    frequency:     5.8135500375
  - # 7
    frequency:     5.8246655119
  - # 8
    frequency:     5.8246655119
  - # 9
    frequency:     5.8514603098
  - # 10
    frequency:     9.7111036504
  - # 11
    frequency:     9.7111036504
  - # 12
    frequency:     9.7136799987

- q-position: [    0.0520833,    0.0312500,    0.0104167 ]
  weight: 48   
  band:
  - # 1
    frequency:     0.4758069129
  - # 2
    frequency:     0.5476795025
  - # 3
    frequency:     1.0239992438
  - # 4
    frequency:     5.7982972946
  - # 5
    frequency:     5.8118900510
  - # 6
    frequency:     5.8170986124
  - # 7
    frequency:     5.8215212826
  - # 8
    frequency:     5.8473036919
  - # 9
    frequency:     5.8807065731
  - # 10
    frequency:     9.6921563370
  - # 11
    frequency:     9.6974170317
  - # 12
    frequency:     9.6999015434

- q-position: [    0.0729167,    0.0312500,    0.0104167 ]
  weight: 48   
  band:
  - # 1
    frequency:     0.6488229097
  - # 2
    frequency:     0.7147977106
  - # 3
    frequency:     1.3101849699
  - # 4
    frequency:     5.7791713772
  - # 5
    frequency:     5.7927480013
  - # 6
    frequency:     5.8278833481
  - # 7
    frequency:     5.8380469439
  - # 8
    frequency:     5.8798823522
  - # 9
    frequency:     5.9185823544
  - # 10
    frequency:     9.6637390878
  - # 11
    frequency:     9.6769319227
  - # 12
    frequency:     9.6792778958

- q-position: [    0.0937500,    0.0312500,    0.0104167 ]
  weight: 48   
  band:
  - # 1
    frequency:     0.8316075569
  - # 2
    frequency:     0.8893782478
  - # 3
    frequency:     1.6091585245
  - # 4
    frequency:     5.7537084739
  - # 5
    frequency:     5.7672646640
  - # 6
    frequency:     5.8453678415
  - # 7
    frequency:     5.8600265976
  - # 8
    frequency:     5.9223798690
  - # 9
    frequency:     5.9650025999
  - # 10
    frequency:     9.6258566252
  - # 11
    frequency:     9.6497021152
  - # 12
    frequency:     9.6518619069

- q-position: [    0.1145833,    0.0312500,    0.0104167 ]
  weight: 48   
  band:
  - # 1
    frequency:     1.0168437026
  - # 2
    frequency:     1.0672412460
  - # 3
    frequency:     1.9145683527
  - # 4
    frequency:     5.7219413008
  - # 5
    frequency:     5.7354736609
  - # 6
    frequency:     5.8689072019
  - # 7
    frequency:     5.8868880453
  - # 8
    frequency:     5.9745513040
  - # 9
    frequency:     6.0198102223
  - # 10
    frequency:     9.5785156712
  - # 11
    frequency:     9.6157993484
  - # 12
    frequency:     9.6177240609

- q-position: [    0.1354167,    0.0312500,    0.0104167 ]
  weight: 48   
  band:
  - # 1
    frequency:     1.2021388240
  - # 2
    frequency:     1.2464292138
  - # 3
    frequency:     2.2228721030
  - # 4
    frequency:     5.6839105910
  - # 5
    frequency:     5.6974168384
  - # 6
    frequency:     5.8977787074
  - # 7
    frequency:     5.9180385733
  - # 8
    frequency:     6.0360102617
  - # 9
    frequency:     6.0827662262
  - # 10
    frequency:     9.5217253051
  - # 11
    frequency:     9.5753133264
  - # 12
    frequency:     9.5769524927

- q-position: [    0.1562500,    0.0312500,    0.0104167 ]
  weight: 48   
  band:
  - # 1
    frequency:     1.3865561253
  - # 2
    frequency:     1.4258665296
  - # 3
    frequency:     2.5318743272
  - # 4
    frequency:     5.6396649887
  - # 5
    frequency:     5.6531441490
  - # 6
    frequency:     5.9312005725
  - # 7
    frequency:     5.9528435785
  - # 8
    frequency:     6.1062747410
  - # 9
    frequency:     6.1535546255
  - # 10
    frequency:     9.4554974029
  - # 11
    frequency:     9.5283517427
  - # 12
    frequency:     9.5296530125

- q-position: [    0.1770833,    0.0312500,    0.0104167 ]
  weight: 48   
  band:
  - # 1
    frequency:     1.5696386815
  - # 2
    frequency:     1.6048762287
  - # 3
    frequency:     2.8400901528
  - # 4
    frequency:     5.5892609222
  - # 5
    frequency:     5.6027135124
  - # 6
    frequency:     5.9683492464
  - # 7
    frequency:     5.9906254626
  - # 8
    frequency:     6.1847944237
  - # 9
    frequency:     6.2317905694
  - # 10
    frequency:     9.3798471510
  - # 11
    frequency:     9.4750403164
  - # 12
    frequency:     9.4759491425

- q-position: [    0.1979167,    0.0312500,    0.0104167 ]
  weight: 48   
  band:
  - # 1
    frequency:     1.7511027910
  - # 2
    frequency:     1.7829811994
  - # 3
    frequency:     3.1464365463
  - # 4
    frequency:     5.5327624576
  - # 5
    frequency:     5.5461906561
  - # 6
    frequency:     6.0083761628
  - # 7
    frequency:     6.0306716413
  - # 8
    frequency:     6.2709693871
  - # 9
    frequency:     6.3170296427
  - # 10
    frequency:     9.2947936303
  - # 11
    frequency:     9.4155228401
  - # 12
    frequency:     9.4159821668

- q-position: [    0.2187500,    0.0312500,    0.0104167 ]
  weight: 48   
  band:
  - # 1
    frequency:     1.9307314822
  - # 2
    frequency:     1.9598131017
  - # 3
    frequency:     3.4500717660
  - # 4
    frequency:     5.4702411338
  - # 5
    frequency:     5.4836489377
  - # 6
    frequency:     6.0504236342
  - # 7
    frequency:     6.0722463119
  - # 8
    frequency:     6.3641645804
  - # 9
    frequency:     6.4087776599
  - # 10
    frequency:     9.2003604620
  - # 11
    frequency:     9.3499111990
  - # 12
    frequency:     9.3499612446

- q-position: [    0.2395833,    0.0312500,    0.0104167 ]
  weight: 48   
  band:
  - # 1
    frequency:     2.1083345565
  - # 2
    frequency:     2.1350668947
  - # 3
    frequency:     3.7503072890
  - # 4
    frequency:     5.4017757791
  - # 5
    frequency:     5.4151691509
  - # 6
    frequency:     6.0936395018
  - # 7
    frequency:     6.1146034328
  - # 8
    frequency:     6.4637217874
  - # 9
    frequency:     6.5065005390
  - # 10
    frequency:     9.0965765085
  - # 11
    frequency:     9.2779132716
  - # 12
    frequency:     9.2785356829

- q-position: [    0.2604167,    0.0312500,    0.0104167 ]
  weight: 48   
  band:
  - # 1
    frequency:     2.2837327673
  - # 2
    frequency:     2.3084765143
  - # 3
    frequency:     4.0465572966
  - # 4
    frequency:     5.3274523103
  - # 5
    frequency:     5.3408393165
  - # 6
    frequency:     6.1371902781
  - # 7
    frequency:     6.1569996481
  - # 8
    frequency:     6.5689697418
  - # 9
    frequency:     6.6096339120
  - # 10
    frequency:     8.9834766196
  - # 11
    frequency:     9.2001834517
  - # 12
    frequency:     9.2014446374

- q-position: [    0.2812500,    0.0312500,    0.0104167 ]
  weight: 48   
  band:
  - # 1
    frequency:     2.4567513838
  - # 2
    frequency:     2.4798011206
  - # 3
    frequency:     4.3383085785
  - # 4
    frequency:     5.2473635156
  - # 5
    frequency:     5.2607544605
  - # 6
    frequency:     6.1802726777
  - # 7
    frequency:     6.1987064969
  - # 8
    frequency:     6.6792326655
  - # 9
    frequency:     6.7175921760
  - # 10
    frequency:     8.8611024179
  - # 11
    frequency:     9.1169349888
  - # 12
    frequency:     9.1189050555

- q-position: [    0.3020833,    0.0312500,    0.0104167 ]
  weight: 48   
  band:
  - # 1
    frequency:     2.6272176027
  - # 2
    frequency:     2.6488169685
  - # 3
    frequency:     4.6251020046
  - # 4
    frequency:     5.1616088214
  - # 5
    frequency:     5.1750163824
  - # 6
    frequency:     6.2221235504
  - # 7
    frequency:     6.2390215659
  - # 8
    frequency:     6.7938373732
  - # 9
    frequency:     6.8297767525
  - # 10
    frequency:     8.7295031123
  - # 11
    frequency:     9.0283995006
  - # 12
    frequency:     9.0311525167

- q-position: [    0.3229167,    0.0312500,    0.0104167 ]
  weight: 48   
  band:
  - # 1
    frequency:     2.7949595975
  - # 2
    frequency:     2.8153124330
  - # 3
    frequency:     4.9065207867
  - # 4
    frequency:     5.0702940453
  - # 5
    frequency:     5.0837334146
  - # 6
    frequency:     6.2620283090
  - # 7
    frequency:     6.2772784323
  - # 8
    frequency:     6.9121190540
  - # 9
    frequency:     6.9455833937
  - # 10
    frequency:     8.5887363321
  - # 11
    frequency:     8.9348272085
  - # 12
    frequency:     8.9384414415

- q-position: [    0.3437500,    0.0312500,    0.0104167 ]
  weight: 48   
  band:
  - # 1
    frequency:     2.9598062817
  - # 2
    frequency:     2.9790848848
  - # 3
    frequency:     4.9735311349
  - # 4
    frequency:     4.9870201759
  - # 5
    frequency:     5.1821828463
  - # 6
    frequency:     6.2993279898
  - # 7
    frequency:     6.3128553547
  - # 8
    frequency:     7.0334258429
  - # 9
    frequency:     7.0644084468
  - # 10
    frequency:     8.4388689731
  - # 11
    frequency:     8.8364872341
  - # 12
    frequency:     8.8410453501

- q-position: [    0.3645833,    0.0312500,    0.0104167 ]
  weight: 48   
  band:
  - # 1
    frequency:     3.1215873857
  - # 2
    frequency:     3.1399386969
  - # 3
    frequency:     4.8714378947
  - # 4
    frequency:     4.8849973223
  - # 5
    frequency:     5.4517357303
  - # 6
    frequency:     6.3334250949
  - # 7
    frequency:     6.3451827415
  - # 8
    frequency:     7.1571222946
  - # 9
    frequency:     7.1856540399
  - # 10
    frequency:     8.2799780470
  - # 11
    frequency:     8.7336679882
  - # 12
    frequency:     8.7392571967

- q-position: [    0.3854167,    0.0312500,    0.0104167 ]
  weight: 48   
  band:
  - # 1
    frequency:     3.2801336681
  - # 2
    frequency:     3.2976839663
  - # 3
    frequency:     4.7641377022
  - # 4
    frequency:     4.7777912962
  - # 5
    frequency:     5.7148531375
  - # 6
    frequency:     6.3637883673
  - # 7
    frequency:     6.3737494718
  - # 8
    frequency:     7.2825918440
  - # 9
    frequency:     7.3087321725
  - # 10
    frequency:     8.1121515265
  - # 11
    frequency:     8.6266777155
  - # 12
    frequency:     8.6333898326

- q-position: [    0.4062500,    0.0312500,    0.0104167 ]
  weight: 48   
  band:
  - # 1
    frequency:     3.4352771850
  - # 2
    frequency:     3.4521357013
  - # 3
    frequency:     4.6517592147
  - # 4
    frequency:     4.6655340772
  - # 5
    frequency:     5.9712324772
  - # 6
    frequency:     6.3899566384
  - # 7
    frequency:     6.3981081613
  - # 8
    frequency:     7.4092382421
  - # 9
    frequency:     7.4330676161
  - # 10
    frequency:     7.9354891799
  - # 11
    frequency:     8.5158453718
  - # 12
    frequency:     8.5237767479

- q-position: [    0.4270833,    0.0312500,    0.0104167 ]
  weight: 48   
  band:
  - # 1
    frequency:     3.5868515807
  - # 2
    frequency:     3.6031133208
  - # 3
    frequency:     4.5344360686
  - # 4
    frequency:     4.5483629372
  - # 5
    frequency:     6.2205930971
  - # 6
    frequency:     6.4115418657
  - # 7
    frequency:     6.4178794807
  - # 8
    frequency:     7.5364855985
  - # 9
    frequency:     7.5580991420
  - # 10
    frequency:     7.7501033885
  - # 11
    frequency:     8.4015224190
  - # 12
    frequency:     8.4107735888

- q-position: [    0.4479167,    0.0312500,    0.0104167 ]
  weight: 48   
  band:
  - # 1
    frequency:     3.7346923865
  - # 2
    frequency:     3.7504403673
  - # 3
    frequency:     4.4123065724
  - # 4
    frequency:     4.4264202021
  - # 5
    frequency:     6.4282314660
  - # 6
    frequency:     6.4327556272
  - # 7
    frequency:     6.4626749408
  - # 8
    frequency:     7.5561199434
  - # 9
    frequency:     7.6637750874
  - # 10
    frequency:     7.6832766851
  - # 11
    frequency:     8.2840880385
  - # 12
    frequency:     8.2947625093

- q-position: [    0.4687500,    0.0312500,    0.0104167 ]
  weight: 48   
  band:
  - # 1
    frequency:     3.8786373240
  - # 2
    frequency:     3.8939443693
  - # 3
    frequency:     4.2855133960
  - # 4
    frequency:     4.2998530243
  - # 5
    frequency:     6.4397900213
  - # 6
    frequency:     6.4425030450
  - # 7
    frequency:     6.6972374814
  - # 8
    frequency:     7.3536788190
  - # 9
    frequency:     7.7905457550
  - # 10
    frequency:     7.8080381698
  - # 11
    frequency:     8.1639741462
  - # 12
    frequency:     8.1761720120

- q-position: [    0.4895833,    0.0312500,    0.0104167 ]
  weight: 48   
  band:
  - # 1
    frequency:     4.0185266088
  - # 2
    frequency:     4.0334568089
  - # 3
    frequency:     4.1542032573
  - # 4
    frequency:     4.1688131671
  - # 5
    frequency:     6.4460604208
  - # 6
    frequency:     6.4469644779
  - # 7
    frequency:     6.9240588262
  - # 8
    frequency:     7.1429349229
  - # 9
    frequency:     7.9160076647
  - # 10
    frequency:     7.9314566316
  - # 11
    frequency:     8.0420196664
  - # 12
    frequency:     8.0557041182

- q-position: [    0.0520833,    0.0520833,    0.0104167 ]
  weight: 24   
  band:
  - # 1
    frequency:     0.5475528467
  - # 2
    frequency:     0.6645545818
  - # 3
    frequency:     1.2448709739
  - # 4
    frequency:     5.8086821886
  - # 5
    frequency:     5.8086821886
  - # 6
    frequency:     5.8129006421
  - # 7
    frequency:     5.8345278891
  - # 8
    frequency:     5.8345278891
  - # 9
    frequency:     5.9170259462
  - # 10
    frequency:     9.6786761527
  - # 11
    frequency:     9.6786761527
  - # 12
    frequency:     9.6861458392

- q-position: [    0.0729167,    0.0520833,    0.0104167 ]
  weight: 48   
  band:
  - # 1
    frequency:     0.6777539561
  - # 2
    frequency:     0.8085164412
  - # 3
    frequency:     1.4993913700
  - # 4
    frequency:     5.7894436551
  - # 5
    frequency:     5.8153863728
  - # 6
    frequency:     5.8161315670
  - # 7
    frequency:     5.8250721843
  - # 8
    frequency:     5.8671280854
  - # 9
    frequency:     5.9614647655
  - # 10
    frequency:     9.6505683016
  - # 11
    frequency:     9.6585019414
  - # 12
    frequency:     9.6655560354

- q-position: [    0.0937500,    0.0520833,    0.0104167 ]
  weight: 48   
  band:
  - # 1
    frequency:     0.8384440152
  - # 2
    frequency:     0.9670544666
  - # 3
    frequency:     1.7725283081
  - # 4
    frequency:     5.7638297950
  - # 5
    frequency:     5.7899056498
  - # 6
    frequency:     5.8265484129
  - # 7
    frequency:     5.8468563519
  - # 8
    frequency:     5.9096662435
  - # 9
    frequency:     6.0136665345
  - # 10
    frequency:     9.6130979121
  - # 11
    frequency:     9.6316889923
  - # 12
    frequency:     9.6381846470

- q-position: [    0.1145833,    0.0520833,    0.0104167 ]
  weight: 48   
  band:
  - # 1
    frequency:     1.0127663363
  - # 2
    frequency:     1.1335702116
  - # 3
    frequency:     2.0567374393
  - # 4
    frequency:     5.7318727301
  - # 5
    frequency:     5.7581208685
  - # 6
    frequency:     5.8436914758
  - # 7
    frequency:     5.8734644682
  - # 8
    frequency:     5.9618932447
  - # 9
    frequency:     6.0733163265
  - # 10
    frequency:     9.5662713471
  - # 11
    frequency:     9.5983110425
  - # 12
    frequency:     9.6041017161

- q-position: [    0.1354167,    0.0520833,    0.0104167 ]
  weight: 48   
  band:
  - # 1
    frequency:     1.1928035772
  - # 2