<?xml version="1.0" encoding="ISO-8859-1"?>
<modeling>
 <generator>
  <i name="program" type="string">vasp</i>
  <i name="version" type="string">4.6.28 </i>
  <i name="subversion" type="string">25Jul05 complex  parallel</i>
  <i name="platform" type="string">LinuxIFC</i>
  <i name="date" type="string">2016 10 19</i>
  <i name="time" type="string">17:31:13</i>
 </generator>
 <incar>
  <i type="string" name="PREC">accurate</i>
  <i type="int" name="IALGO">    38</i>
  <i name="EDIFF">      0.00000001</i>
  <i type="int" name="IBRION">    -1</i>
  <i name="ENCUT">    500.00000000</i>
  <i type="logical" name="LREAL"> F  </i>
  <i type="int" name="ISMEAR">     0</i>
  <i name="SIGMA">      0.01000000</i>
  <i type="logical" name="LWAVE"> F  </i>
  <i type="logical" name="LCHARG"> F  </i>
 </incar>
 <kpoints>
  <generation param="Auto">
   <i name="subdivisionlength">     50.00000000</i>
   <v type="int" name="divisions">       6       6       6</v>
   <v name="usershift">      0.00000000      0.00000000      0.00000000</v>
   <v name="genvec1">      0.16666667      0.00000000      0.00000000</v>
   <v name="genvec2">      0.00000000      0.16666667      0.00000000</v>
   <v name="genvec3">      0.00000000      0.00000000      0.16666667</v>
   <v name="shift">      0.00000000      0.00000000      0.00000000</v>
  </generation>
  <varray name="kpointlist" >
   <v>       0.00000000      0.00000000      0.00000000</v>
   <v>       0.16666667      0.00000000      0.00000000</v>
   <v>       0.33333333      0.00000000      0.00000000</v>
   <v>       0.50000000      0.00000000      0.00000000</v>
   <v>       0.00000000      0.16666667      0.00000000</v>
   <v>       0.16666667      0.16666667      0.00000000</v>
   <v>       0.33333333      0.16666667      0.00000000</v>
   <v>       0.50000000      0.16666667      0.00000000</v>
   <v>       0.00000000      0.33333333      0.00000000</v>
   <v>       0.16666667      0.33333333      0.00000000</v>
   <v>       0.33333333      0.33333333      0.00000000</v>
   <v>       0.50000000      0.33333333      0.00000000</v>
   <v>       0.00000000      0.50000000      0.00000000</v>
   <v>       0.16666667      0.50000000      0.00000000</v>
   <v>       0.33333333      0.50000000      0.00000000</v>
   <v>       0.50000000      0.50000000      0.00000000</v>
   <v>       0.00000000      0.16666667      0.16666667</v>
   <v>       0.16666667      0.16666667      0.16666667</v>
   <v>       0.33333333      0.16666667      0.16666667</v>
   <v>       0.50000000      0.16666667      0.16666667</v>
   <v>       0.00000000      0.33333333      0.16666667</v>
   <v>       0.16666667      0.33333333      0.16666667</v>
   <v>       0.33333333      0.33333333      0.16666667</v>
   <v>       0.50000000      0.33333333      0.16666667</v>
   <v>       0.00000000      0.50000000      0.16666667</v>
   <v>       0.16666667      0.50000000      0.16666667</v>
   <v>       0.33333333      0.50000000      0.16666667</v>
   <v>       0.50000000      0.50000000      0.16666667</v>
   <v>       0.00000000      0.33333333      0.33333333</v>
   <v>       0.16666667      0.33333333      0.33333333</v>
   <v>       0.33333333      0.33333333      0.33333333</v>
   <v>       0.50000000      0.33333333      0.33333333</v>
   <v>       0.00000000      0.50000000      0.33333333</v>
   <v>       0.16666667      0.50000000      0.33333333</v>
   <v>       0.33333333      0.50000000      0.33333333</v>
   <v>       0.50000000      0.50000000      0.33333333</v>
   <v>       0.00000000      0.50000000      0.50000000</v>
   <v>       0.16666667      0.50000000      0.50000000</v>
   <v>       0.33333333      0.50000000      0.50000000</v>
   <v>       0.50000000      0.50000000      0.50000000</v>
  </varray>
  <varray name="weights" >
   <v>       0.00462963</v>
   <v>       0.00925926</v>
   <v>       0.00925926</v>
   <v>       0.00462963</v>
   <v>       0.01851852</v>
   <v>       0.03703704</v>
   <v>       0.03703704</v>
   <v>       0.01851852</v>
   <v>       0.01851852</v>
   <v>       0.03703704</v>
   <v>       0.03703704</v>
   <v>       0.01851852</v>
   <v>       0.00925926</v>
   <v>       0.01851852</v>
   <v>       0.01851852</v>
   <v>       0.00925926</v>
   <v>       0.01851852</v>
   <v>       0.03703704</v>
   <v>       0.03703704</v>
   <v>       0.01851852</v>
   <v>       0.03703704</v>
   <v>       0.07407407</v>
   <v>       0.07407407</v>
   <v>       0.03703704</v>
   <v>       0.01851852</v>
   <v>       0.03703704</v>
   <v>       0.03703704</v>
   <v>       0.01851852</v>
   <v>       0.01851852</v>
   <v>       0.03703704</v>
   <v>       0.03703704</v>
   <v>       0.01851852</v>
   <v>       0.01851852</v>
   <v>       0.03703704</v>
   <v>       0.03703704</v>
   <v>       0.01851852</v>
   <v>       0.00462963</v>
   <v>       0.00925926</v>
   <v>       0.00925926</v>
   <v>       0.00462963</v>
  </varray>
 </kpoints>
 <parameters>
  <separator name="general" >
   <i type="string" name="SYSTEM">unknown system</i>
   <i type="logical" name="LCOMPAT"> F  </i>
  </separator>
  <separator name="electronic" >
   <i type="string" name="PREC">accura</i>
   <i name="ENMAX">    500.00000000</i>
   <i name="ENAUG">    291.05200000</i>
   <i name="EDIFF">      0.00000001</i>
   <i type="int" name="IALGO">    38</i>
   <i type="int" name="IWAVPR">    10</i>
   <i type="int" name="NBANDS">    65</i>
   <i name="NELECT">     96.00000000</i>
   <separator name="electronic smearing" >
    <i type="int" name="ISMEAR">     0</i>
    <i name="SIGMA">      0.01000000</i>
   </separator>
   <separator name="electronic projectors" >
    <i type="logical" name="LREAL"> F  </i>
    <v name="ROPT">      0.00000000</v>
    <i type="int" name="LMAXPAW">  -100</i>
    <i type="int" name="LMAXMIX">     2</i>
   </separator>
   <separator name="electronic startup" >
    <i type="int" name="ISTART">     0</i>
    <i type="int" name="ICHARG">     2</i>
    <i type="int" name="INIWAV">     1</i>
   </separator>
   <separator name="electronic spin" >
    <i type="int" name="ISPIN">     1</i>
    <i type="logical" name="LNONCOLLINEAR"> F  </i>
    <v name="MAGMOM">      1.00000000      1.00000000      1.00000000      1.00000000      1.00000000      1.00000000      1.00000000      1.00000000      1.00000000      1.00000000      1.00000000      1.00000000      1.00000000      1.00000000      1.00000000      1.00000000      1.00000000      1.00000000      1.00000000      1.00000000
      1.00000000      1.00000000      1.00000000      1.00000000      1.00000000      1.00000000      1.00000000      1.00000000      1.00000000      1.00000000      1.00000000      1.00000000</v>
    <i name="NUPDOWN">     -1.00000000</i>
    <i type="logical" name="LSORBIT"> F  </i>
    <v name="SAXIS">      0.00000000      0.00000000      1.00000000</v>
    <i type="logical" name="LSPIRAL"> F  </i>
    <v name="QSPIRAL">      0.00000000      0.00000000      0.00000000</v>
    <i type="logical" name="LZEROZ"> F  </i>
   </separator>
   <separator name="electronic exchange-correlation" >
    <i type="string" name="GGA">--</i>
    <i type="int" name="VOSKOWN">     0</i>
    <i type="logical" name="LASPH"> F  </i>
    <i type="logical" name="LMETAGGA"> F  </i>
    <i type="string" name="GGA2">--</i>
   </separator>
   <separator name="electronic convergence" >
    <i type="int" name="NELM">    60</i>
    <i type="int" name="NELMDL">     0</i>
    <i type="int" name="NELMIN">     2</i>
    <i name="ENINI">    500.00000000</i>
    <separator name="electronic convergence detail" >
     <i type="logical" name="LDIAG"> T  </i>
     <i name="WEIMIN">      0.00000000</i>
     <i name="EBREAK">      0.00000000</i>
     <i name="DEPER">      0.30000000</i>
     <i type="int" name="NRMM">     4</i>
     <i name="TIME">      0.10000000</i>
    </separator>
   </separator>
   <separator name="electronic mixer" >
    <i name="AMIX">      0.40000000</i>
    <i name="BMIX">      1.00000000</i>
    <i name="AMIN">      0.10000000</i>
    <i name="AMIX_MAG">      1.60000000</i>
    <i name="BMIX_MAG">      1.00000000</i>
    <separator name="electronic mixer details" >
     <i type="int" name="IMIX">     4</i>
     <i type="int" name="MAXMIX">   -45</i>
     <i name="WC">    100.00000000</i>
     <i type="int" name="INIMIX">     1</i>
     <i type="int" name="MIXPRE">     1</i>
     <i type="int" name="MREMOVE">     5</i>
    </separator>
   </separator>
   <separator name="electronic dipolcorrection" >
    <i type="int" name="IDIPOL">     0</i>
    <i type="logical" name="LDIPOL"> F  </i>
    <v name="DIPOL">   -100.00000000</v>
    <i name="EFIELD">      0.00000000</i>
   </separator>
  </separator>
  <separator name="grids" >
   <i type="int" name="NGX">    64</i>
   <i type="int" name="NGY">    64</i>
   <i type="int" name="NGZ">    64</i>
   <i type="int" name="NGXF">   128</i>
   <i type="int" name="NGYF">   128</i>
   <i type="int" name="NGZF">   128</i>
   <i type="logical" name="ADDGRID"> F  </i>
  </separator>
  <separator name="ionic" >
   <i type="int" name="NSW">     0</i>
   <i type="int" name="IBRION">    -1</i>
   <i type="int" name="ISIF">     2</i>
   <i name="PSTRESS">      0.00000000</i>
   <i name="EDIFFG">      0.00000010</i>
   <i type="int" name="NFREE">     0</i>
   <i name="POTIM">      0.50000000</i>
   <i name="SMASS">     -3.00000000</i>
  </separator>
  <separator name="ionic md" >
   <i name="TEBEG">      0.00010000</i>
   <i name="TEEND">      0.00010000</i>
   <i type="int" name="NBLOCK">     1</i>
   <i type="int" name="KBLOCK">     1</i>
   <i type="int" name="NPACO">   256</i>
   <i name="APACO">     16.00000000</i>
  </separator>
  <separator name="symmetry" >
   <i type="int" name="ISYM">     2</i>
   <i name="SYMPREC">      0.00001000</i>
  </separator>
  <separator name="dos" >
   <i type="logical" name="LORBIT"> F  </i>
   <v name="RWIGS">     -1.00000000</v>
   <i type="int" name="NEDOS">   301</i>
   <i name="EMIN">     10.00000000</i>
   <i name="EMAX">    -10.00000000</i>
  </separator>
  <separator name="writing" >
   <i type="int" name="NWRITE">     2</i>
   <i type="logical" name="LWAVE"> F  </i>
   <i type="logical" name="LCHARG"> F  </i>
   <i type="logical" name="LPARD"> F  </i>
   <i type="logical" name="LVTOT"> F  </i>
   <i type="logical" name="LELF"> F  </i>
   <i type="logical" name="LOPTICS"> F  </i>
   <i name="STM">      0.00000000</i>
  </separator>
  <separator name="performance" >
   <i type="int" name="NPAR">     8</i>
   <i type="int" name="NSIM">     4</i>
   <i type="int" name="NBLK">   256</i>
   <i type="logical" name="LPLANE"> T  </i>
   <i type="logical" name="LCRITICAL_MEM"> F  </i>
   <i type="logical" name="LSCALAPACK"> F  </i>
   <i type="logical" name="LSCALU"> F  </i>
   <i type="logical" name="LASYNC"> F  </i>
  </separator>
  <separator name="miscellaneous" >
   <i type="int" name="IDIOT">     3</i>
   <i type="logical" name="LMUSIC"> F  </i>
   <v name="POMASS">     26.98200000</v>
   <i type="logical" name="LCORR"> T  </i>
  </separator>
  <i type="logical" name="LREAL_COMPAT"> F  </i>
  <i type="logical" name="GGA_COMPAT"> T  </i>
  <i type="logical" name="LBERRY"> F  </i>
  <i type="int" name="ICORELEVEL">     0</i>
  <i type="logical" name="LDAU"> F  </i>
  <i type="int" name="I_CONSTRAINED_M">     0</i>
 </parameters>
 <atominfo>
  <atoms>      32</atoms>
  <types>       1</types>
  <array name="atoms" >
   <dimension dim="1">ion</dimension>
   <field type="string">element</field>
   <field type="int">atomtype</field>
   <set>
    <rc><c>Al</c><c>   1</c></rc>
    <rc><c>Al</c><c>   1</c></rc>
    <rc><c>Al</c><c>   1</c></rc>
    <rc><c>Al</c><c>   1</c></rc>
    <rc><c>Al</c><c>   1</c></rc>
    <rc><c>Al</c><c>   1</c></rc>
    <rc><c>Al</c><c>   1</c></rc>
    <rc><c>Al</c><c>   1</c></rc>
    <rc><c>Al</c><c>   1</c></rc>
    <rc><c>Al</c><c>   1</c></rc>
    <rc><c>Al</c><c>   1</c></rc>
    <rc><c>Al</c><c>   1</c></rc>
    <rc><c>Al</c><c>   1</c></rc>
    <rc><c>Al</c><c>   1</c></rc>
    <rc><c>Al</c><c>   1</c></rc>
    <rc><c>Al</c><c>   1</c></rc>
    <rc><c>Al</c><c>   1</c></rc>
    <rc><c>Al</c><c>   1</c></rc>
    <rc><c>Al</c><c>   1</c></rc>
    <rc><c>Al</c><c>   1</c></rc>
    <rc><c>Al</c><c>   1</c></rc>
    <rc><c>Al</c><c>   1</c></rc>
    <rc><c>Al</c><c>   1</c></rc>
    <rc><c>Al</c><c>   1</c></rc>
    <rc><c>Al</c><c>   1</c></rc>
    <rc><c>Al</c><c>   1</c></rc>
    <rc><c>Al</c><c>   1</c></rc>
    <rc><c>Al</c><c>   1</c></rc>
    <rc><c>Al</c><c>   1</c></rc>
    <rc><c>Al</c><c>   1</c></rc>
    <rc><c>Al</c><c>   1</c></rc>
    <rc><c>Al</c><c>   1</c></rc>
   </set>
  </array>
  <array name="atomtypes" >
   <dimension dim="1">type</dimension>
   <field type="int">atomspertype</field>
   <field type="string">element</field>
   <field>mass</field>
   <field>valence</field>
   <field type="string">pseudopotential</field>
   <set>
    <rc><c>  32</c><c>Al</c><c>     26.98200000</c><c>      3.00000000</c><c> PAW_PBE Al 04Jan2001                   </c></rc>
   </set>
  </array>
 </atominfo>
 <structure name="initialpos" >
  <crystal>
   <varray name="basis" >
    <v>       8.39759725      0.00000000      0.00000000</v>
    <v>       0.00000000      8.39759725      0.00000000</v>
    <v>       0.00000000      0.00000000      8.39759725</v>
   </varray>
   <i name="volume">    592.19553112</i>
   <varray name="rec_basis" >
    <v>       0.11908168      0.00000000      0.00000000</v>
    <v>       0.00000000      0.11908168      0.00000000</v>
    <v>       0.00000000      0.00000000      0.11908168</v>
   </varray>
  </crystal>
  <varray name="positions" >
   <v>       0.25119082      0.25000000      0.00000000</v>
   <v>       0.75000000      0.25000000      0.00000000</v>
   <v>       0.25000000      0.75000000      0.00000000</v>
   <v>       0.75000000      0.75000000      0.00000000</v>
   <v>       0.25000000      0.25000000      0.50000000</v>
   <v>       0.75000000      0.25000000      0.50000000</v>
   <v>       0.25000000      0.75000000      0.50000000</v>
   <v>       0.75000000      0.75000000      0.50000000</v>
   <v>       0.25000000      0.00000000      0.25000000</v>
   <v>       0.75000000      0.00000000      0.25000000</v>
   <v>       0.25000000      0.50000000      0.25000000</v>
   <v>       0.75000000      0.50000000      0.25000000</v>
   <v>       0.25000000      0.00000000      0.75000000</v>
   <v>       0.75000000      0.00000000      0.75000000</v>
   <v>       0.25000000      0.50000000      0.75000000</v>
   <v>       0.75000000      0.50000000      0.75000000</v>
   <v>       0.00000000      0.25000000      0.25000000</v>
   <v>       0.50000000      0.25000000      0.25000000</v>
   <v>       0.00000000      0.75000000      0.25000000</v>
   <v>       0.50000000      0.75000000      0.25000000</v>
   <v>       0.00000000      0.25000000      0.75000000</v>
   <v>       0.50000000      0.25000000      0.75000000</v>
   <v>       0.00000000      0.75000000      0.75000000</v>
   <v>       0.50000000      0.75000000      0.75000000</v>
   <v>       0.00000000      0.00000000      0.00000000</v>
   <v>       0.50000000      0.00000000      0.00000000</v>
   <v>       0.00000000      0.50000000      0.00000000</v>
   <v>       0.50000000      0.50000000      0.00000000</v>
   <v>       0.00000000      0.00000000      0.50000000</v>
   <v>       0.50000000      0.00000000      0.50000000</v>
   <v>       0.00000000      0.50000000      0.50000000</v>
   <v>       0.50000000      0.50000000      0.50000000</v>
  </varray>
 </structure>
 <calculation>
  <scstep>
   <time name="dav">   20.59   20.60</time>
   <time name="total">   20.76   20.77</time>
   <energy>
    <i name="alphaZ">     -5.80791868</i>
    <i name="ewald">  -2264.22495736</i>
    <i name="hartreedc">     -5.08689961</i>
    <i name="XCdc">   -846.12864639</i>
    <i name="pawpsdc">   1137.73615723</i>
    <i name="pawaedc">   -115.16745734</i>
    <i name="eentropy">     -0.00072797</i>
    <i name="bandstr">    493.57981193</i>
    <i name="atom">   1713.22913220</i>
    <i name="e_fr_energy">    108.12849400</i>
    <i name="e_wo_entrp">    108.12922198</i>
    <i name="e_0_energy">    108.12885799</i>
   </energy>
  </scstep>
  <scstep>
   <time name="dav">   23.29   23.29</time>
   <time name="total">   23.29   23.29</time>
   <energy>
    <i name="e_fr_energy">   -106.06299185</i>
    <i name="e_wo_entrp">   -106.06241195</i>
    <i name="e_0_energy">   -106.06270190</i>
   </energy>
  </scstep>
  <scstep>
   <time name="dav">   24.55   24.56</time>
   <time name="total">   24.56   24.57</time>
   <energy>
    <i name="e_fr_energy">   -118.65125551</i>
    <i name="e_wo_entrp">   -118.65018798</i>
    <i name="e_0_energy">   -118.65072175</i>
   </energy>
  </scstep>
  <scstep>
   <time name="dav">   23.30   23.30</time>
   <time name="total">   23.31   23.30</time>
   <energy>
    <i name="e_fr_energy">   -118.90633986</i>
    <i name="e_wo_entrp">   -118.90523983</i>
    <i name="e_0_energy">   -118.90578985</i>
   </energy>
  </scstep>
  <scstep>
   <time name="dav">   23.33   23.32</time>
   <time name="total">   24.24   24.23</time>
   <energy>
    <i name="e_fr_energy">   -118.90948774</i>
    <i name="e_wo_entrp">   -118.90838969</i>
    <i name="e_0_energy">   -118.90893871</i>
   </energy>
  </scstep>
  <scstep>
   <time name="dav">   22.63   22.63</time>
   <time name="total">   23.68   23.68</time>
   <energy>
    <i name="e_fr_energy">   -118.51631094</i>
    <i name="e_wo_entrp">   -118.51528372</i>
    <i name="e_0_energy">   -118.51579733</i>
   </energy>
  </scstep>
  <scstep>
   <time name="dav">   21.92   21.92</time>
   <time name="total">   23.03   23.02</time>
   <energy>
    <i name="e_fr_energy">   -118.23311370</i>
    <i name="e_wo_entrp">   -118.23233243</i>
    <i name="e_0_energy">   -118.23272306</i>
   </energy>
  </scstep>
  <scstep>
   <time name="dav">   23.31   23.31</time>
   <time name="total">   24.39   24.39</time>
   <energy>
    <i name="e_fr_energy">   -118.23301181</i>
    <i name="e_wo_entrp">   -118.23223556</i>
    <i name="e_0_energy">   -118.23262368</i>
   </energy>
  </scstep>
  <scstep>
   <time name="dav">   23.58   23.58</time>
   <time name="total">   24.77   24.77</time>
   <energy>
    <i name="e_fr_energy">   -118.23302699</i>
    <i name="e_wo_entrp">   -118.23225544</i>
    <i name="e_0_energy">   -118.23264122</i>
   </energy>
  </scstep>
  <scstep>
   <time name="dav">   30.85   30.85</time>
   <time name="total">   32.61   32.61</time>
   <energy>
    <i name="e_fr_energy">   -118.23302540</i>
    <i name="e_wo_entrp">   -118.23225417</i>
    <i name="e_0_energy">   -118.23263979</i>
   </energy>
  </scstep>
  <scstep>
   <time name="dav">   30.86   30.86</time>
   <time name="total">   32.68   32.68</time>
   <energy>
    <i name="e_fr_energy">   -118.23302205</i>
    <i name="e_wo_entrp">   -118.23225092</i>
    <i name="e_0_energy">   -118.23263649</i>
   </energy>
  </scstep>
  <scstep>
   <time name="dav">   22.42   22.41</time>
   <time name="total">   24.25   24.25</time>
   <energy>
    <i name="e_fr_energy">   -118.23302107</i>
    <i name="e_wo_entrp">   -118.23225001</i>
    <i name="e_0_energy">   -118.23263554</i>
   </energy>
  </scstep>
  <scstep>
   <time name="dav">   21.03   21.03</time>
   <time name="total">   22.88   22.88</time>
   <energy>
    <i name="e_fr_energy">   -118.23302097</i>
    <i name="e_wo_entrp">   -118.23224990</i>
    <i name="e_0_energy">   -118.23263544</i>
   </energy>
  </scstep>
  <scstep>
   <time name="dav">   21.08   21.08</time>
   <time name="total">   21.28   21.28</time>
   <energy>
    <i name="alphaZ">     -5.80791868</i>
    <i name="ewald">  -2264.22495736</i>
    <i name="hartreedc">     -3.19212614</i>
    <i name="XCdc">   -843.45183784</i>
    <i name="pawpsdc">   1132.13986466</i>
    <i name="pawaedc">   -109.48492306</i>
    <i name="eentropy">     -0.00077108</i>
    <i name="bandstr">    262.56051632</i>
    <i name="atom">   1713.22913220</i>
    <i name="e_fr_energy">   -118.23302098</i>
    <i name="e_wo_entrp">   -118.23224990</i>
    <i name="e_0_energy">   -118.23263544</i>
   </energy>
  </scstep>
  <structure>
   <crystal>
    <varray name="basis" >
     <v>       8.39759725      0.00000000      0.00000000</v>
     <v>       0.00000000      8.39759725      0.00000000</v>
     <v>       0.00000000      0.00000000      8.39759725</v>
    </varray>
    <i name="volume">    592.19553112</i>
    <varray name="rec_basis" >
     <v>       0.11908168      0.00000000      0.00000000</v>
     <v>       0.00000000      0.11908168      0.00000000</v>
     <v>       0.00000000      0.00000000      0.11908168</v>
    </varray>
   </crystal>
   <varray name="positions" >
    <v>       0.25119082      0.25000000      0.00000000</v>
    <v>       0.75000000      0.25000000      0.00000000</v>
    <v>       0.25000000      0.75000000      0.00000000</v>
    <v>       0.75000000      0.75000000      0.00000000</v>
    <v>       0.25000000      0.25000000      0.50000000</v>
    <v>       0.75000000      0.25000000      0.50000000</v>
    <v>       0.25000000      0.75000000      0.50000000</v>
    <v>       0.75000000      0.75000000      0.50000000</v>
    <v>       0.25000000      0.00000000      0.25000000</v>
    <v>       0.75000000      0.00000000      0.25000000</v>
    <v>       0.25000000      0.50000000      0.25000000</v>
    <v>       0.75000000      0.50000000      0.25000000</v>
    <v>       0.25000000      0.00000000      0.75000000</v>
    <v>       0.75000000      0.00000000      0.75000000</v>
    <v>       0.25000000      0.50000000      0.75000000</v>
    <v>       0.75000000      0.50000000      0.75000000</v>
    <v>       0.00000000      0.25000000      0.25000000</v>
    <v>       0.50000000      0.25000000      0.25000000</v>
    <v>       0.00000000      0.75000000      0.25000000</v>
    <v>       0.50000000      0.75000000      0.25000000</v>
    <v>       0.00000000      0.25000000      0.75000000</v>
    <v>       0.50000000      0.25000000      0.75000000</v>
    <v>       0.00000000      0.75000000      0.75000000</v>
    <v>       0.50000000      0.75000000      0.75000000</v>
    <v>       0.00000000      0.00000000      0.00000000</v>
    <v>       0.50000000      0.00000000      0.00000000</v>
    <v>       0.00000000      0.50000000      0.00000000</v>
    <v>       0.50000000      0.50000000      0.00000000</v>
    <v>       0.00000000      0.00000000      0.50000000</v>
    <v>       0.50000000      0.00000000      0.50000000</v>
    <v>       0.00000000      0.50000000      0.50000000</v>
    <v>       0.50000000      0.50000000      0.50000000</v>
   </varray>
  </structure>
  <varray name="forces" >
   <v>      -0.02820002      0.00000000      0.00000000</v>
   <v>       0.00137831      0.00000000      0.00000000</v>
   <v>      -0.00028509      0.00000000      0.00000000</v>
   <v>       0.00035740     -0.00000000      0.00000000</v>
   <v>      -0.00028509      0.00000000     -0.00000000</v>
   <v>       0.00035740      0.00000000      0.00000000</v>
   <v>       0.00021838      0.00000000      0.00000000</v>
   <v>      -0.00029957     -0.00000000      0.00000000</v>
   <v>      -0.00117483      0.00001936     -0.00001936</v>
   <v>      -0.00072836      0.00000578     -0.00000578</v>
   <v>      -0.00117483     -0.00001936     -0.00001936</v>
   <v>      -0.00072836     -0.00000578     -0.00000578</v>
   <v>      -0.00117483      0.00001936      0.00001936</v>
   <v>      -0.00072836      0.00000578      0.00000578</v>
   <v>      -0.00117483     -0.00001936      0.00001936</v>
   <v>      -0.00072836     -0.00000578      0.00000578</v>
   <v>       0.00442231     -0.00000000     -0.00450995</v>
   <v>       0.00451169      0.00000000      0.00463764</v>
   <v>      -0.00016692      0.00000000      0.00058810</v>
   <v>      -0.00017431      0.00000000     -0.00060192</v>
   <v>       0.00442231      0.00000000      0.00450995</v>
   <v>       0.00451169      0.00000000     -0.00463764</v>
   <v>      -0.00016692      0.00000000     -0.00058810</v>
   <v>      -0.00017431      0.00000000      0.00060192</v>
   <v>       0.00442231      0.00450995      0.00000000</v>
   <v>       0.00451169     -0.00463764     -0.00000000</v>
   <v>       0.00442231     -0.00450995     -0.00000000</v>
   <v>       0.00451169      0.00463764      0.00000000</v>
   <v>      -0.00016692     -0.00058810     -0.00000000</v>
   <v>      -0.00017431      0.00060192      0.00000000</v>
   <v>      -0.00016692      0.00058810      0.00000000</v>
   <v>      -0.00017431     -0.00060192      0.00000000</v>
  </varray>
  <varray name="stress" >
   <v>     -67.55748615      0.00000000      0.00000000</v>
   <v>       0.00000000    -67.56036176      0.00000000</v>
   <v>       0.00000000      0.00000000    -67.56036176</v>
  </varray>
  <energy>
   <i name="e_fr_energy">   -118.23302098</i>
   <i name="e_wo_entrp">   -118.23263544</i>
   <i name="e_0_energy">     -0.00077108</i>
  </energy>
  <eigenvalues>
   <array>
    <dimension dim="1">band</dimension>
    <dimension dim="2">kpoint</dimension>
    <dimension dim="3">spin</dimension>
    <field>eigene</field>
    <field>occ</field>
    <set>
     <set comment="spin 1">
      <set comment="kpoint 1">
       <r>  -3.5118  1.0000</r>
       <r>  -1.4298  1.0000</r>
       <r>  -1.4263  1.0000</r>
       <r>  -1.4263  1.0000</r>
       <r>  -1.4263  1.0000</r>
       <r>  -1.4263  1.0000</r>
       <r>  -1.4228  1.0000</r>
       <r>   0.6259  1.0000</r>
       <r>   0.6302  1.0000</r>
       <r>   0.6302  1.0000</r>
       <r>   0.6317  1.0000</r>
       <r>   0.6319  1.0000</r>
       <r>   0.6319  1.0000</r>
       <r>   0.6319  1.0000</r>
       <r>   0.6319  1.0000</r>
       <r>   0.6320  1.0000</r>
       <r>   0.6336  1.0000</r>
       <r>   0.6336  1.0000</r>
       <r>   0.6379  1.0000</r>
       <r>   2.6202  1.0000</r>
       <r>   2.6202  1.0000</r>
       <r>   2.6202  1.0000</r>
       <r>   2.6202  1.0000</r>
       <r>   2.7094  1.0000</r>
       <r>   2.7094  1.0000</r>
       <r>   2.7094  1.0000</r>
       <r>   2.7095  1.0000</r>
       <r>   4.2066  1.0000</r>
       <r>   4.2066  1.0000</r>
       <r>   4.2067  1.0000</r>
       <r>   5.2482  1.0000</r>
       <r>   5.2482  1.0000</r>
       <r>   5.2482  1.0000</r>
       <r>   6.1490  1.0000</r>
       <r>   6.1490  1.0000</r>
       <r>   6.1530  1.0000</r>
       <r>   6.1530  1.0000</r>
       <r>   6.1531  1.0000</r>
       <r>   6.1531  1.0000</r>
       <r>   6.1531  1.0000</r>
       <r>   6.1532  1.0000</r>
       <r>   6.1533  1.0000</r>
       <r>   6.1533  1.0000</r>
       <r>   6.1573  1.0000</r>
       <r>   6.1573  1.0000</r>
       <r>   7.2111  0.0000</r>
       <r>   7.2149  0.0000</r>
       <r>   7.2149  0.0000</r>
       <r>   7.2149  0.0000</r>
       <r>   7.2149  0.0000</r>
       <r>   7.2187  0.0000</r>
       <r>   7.3527  0.0000</r>
       <r>   7.3535  0.0000</r>
       <r>   7.3535  0.0000</r>
       <r>   7.3536  0.0000</r>
       <r>   7.3536  0.0000</r>
       <r>   7.3545  0.0000</r>
       <r>   8.0974  0.0000</r>
       <r>   8.0974  0.0000</r>
       <r>   8.0992  0.0000</r>
       <r>   8.1012  0.0000</r>
       <r>   8.1013  0.0000</r>
       <r>   8.1013  0.0000</r>
       <r>   8.1013  0.0000</r>
       <r>   8.1014  0.0000</r>
       <r>   8.1015  0.0000</r>
       <r>   8.1035  0.0000</r>
       <r>   8.1053  0.0000</r>
       <r>   8.1053  0.0000</r>
       <r>   9.2591  0.0000</r>
       <r>   9.2611  0.0000</r>
       <r>   9.2623  0.0000</r>
      </set>
      <set comment="kpoint 2">
       <r>  -3.4535  1.0000</r>
       <r>  -2.0606  1.0000</r>
       <r>  -1.3688  1.0000</r>
       <r>  -1.3688  1.0000</r>
       <r>  -1.3688  1.0000</r>
       <r>  -1.3688  1.0000</r>
       <r>  -0.6802  1.0000</r>
       <r>   0.0058  1.0000</r>
       <r>   0.0058  1.0000</r>
       <r>   0.0058  1.0000</r>
       <r>   0.0058  1.0000</r>
       <r>   0.6887  1.0000</r>
       <r>   0.6887  1.0000</r>
       <r>   0.6887  1.0000</r>
       <r>   0.6887  1.0000</r>
       <r>   1.3685  1.0000</r>
       <r>   1.3685  1.0000</r>
       <r>   1.3685  1.0000</r>
       <r>   1.3685  1.0000</r>
       <r>   2.0449  1.0000</r>
       <r>   2.0449  1.0000</r>
       <r>   2.0449  1.0000</r>
       <r>   2.0449  1.0000</r>
       <r>   3.3395  1.0000</r>
       <r>   3.3940  1.0000</r>
       <r>   3.3940  1.0000</r>
       <r>   3.3940  1.0000</r>
       <r>   3.3940  1.0000</r>
       <r>   4.2606  1.0000</r>
       <r>   4.2606  1.0000</r>
       <r>   5.3054  1.0000</r>
       <r>   5.3056  1.0000</r>
       <r>   5.3273  1.0000</r>
       <r>   5.3273  1.0000</r>
       <r>   5.3273  1.0000</r>
       <r>   5.3275  1.0000</r>
       <r>   5.5579  1.0000</r>
       <r>   5.5579  1.0000</r>
       <r>   6.2072  1.0000</r>
       <r>   6.2072  1.0000</r>
       <r>   6.2072  1.0000</r>
       <r>   6.2072  1.0000</r>
       <r>   6.2178  1.0000</r>
       <r>   6.6662  1.0000</r>
       <r>   6.6662  1.0000</r>
       <r>   6.8571  1.0000</r>
       <r>   6.8571  1.0000</r>
       <r>   7.2992  0.0000</r>
       <r>   7.2993  0.0000</r>
       <r>   7.2993  0.0000</r>
       <r>   7.2993  0.0000</r>
       <r>   7.3360  0.0000</r>
       <r>   7.3361  0.0000</r>
       <r>   7.3361  0.0000</r>
       <r>   7.3361  0.0000</r>
       <r>   7.5059  0.0000</r>
       <r>   7.5059  0.0000</r>
       <r>   7.5059  0.0000</r>
       <r>   7.5059  0.0000</r>
       <r>   8.0039  0.0000</r>
       <r>   8.0040  0.0000</r>
       <r>   8.2138  0.0000</r>
       <r>   8.2138  0.0000</r>
       <r>   8.2138  0.0000</r>
       <r>   8.2138  0.0000</r>
       <r>   8.6642  0.0000</r>
       <r>   8.6642  0.0000</r>
       <r>   8.6643  0.0000</r>
       <r>   8.6644  0.0000</r>
       <r>   8.8051  0.0000</r>
       <r>   8.8051  0.0000</r>
       <r>   8.8051  0.0000</r>
      </set>
      <set comment="kpoint 3">
       <r>  -3.2787  1.0000</r>
       <r>  -2.5815  1.0000</r>
       <r>  -1.1964  1.0000</r>
       <r>  -1.1963  1.0000</r>
       <r>  -1.1963  1.0000</r>
       <r>  -1.1963  1.0000</r>
       <r>  -0.5084  1.0000</r>
       <r>  -0.5083  1.0000</r>
       <r>  -0.5083  1.0000</r>
       <r>  -0.5083  1.0000</r>
       <r>   0.1758  1.0000</r>
       <r>   0.8588  1.0000</r>
       <r>   0.8589  1.0000</r>
       <r>   0.8589  1.0000</r>
       <r>   0.8589  1.0000</r>
       <r>   1.5379  1.0000</r>
       <r>   1.5379  1.0000</r>
       <r>   1.5379  1.0000</r>
       <r>   1.5379  1.0000</r>
       <r>   2.2010  1.0000</r>
       <r>   2.2135  1.0000</r>
       <r>   2.2135  1.0000</r>
       <r>   2.2135  1.0000</r>
       <r>   2.2136  1.0000</r>
       <r>   4.2108  1.0000</r>
       <r>   4.2108  1.0000</r>
       <r>   4.2109  1.0000</r>
       <r>   4.2109  1.0000</r>
       <r>   4.2280  1.0000</r>
       <r>   4.2281  1.0000</r>
       <r>   4.2281  1.0000</r>
       <r>   4.2281  1.0000</r>
       <r>   4.4227  1.0000</r>
       <r>   4.4227  1.0000</r>
       <r>   5.0712  1.0000</r>
       <r>   5.0712  1.0000</r>
       <r>   5.4775  1.0000</r>
       <r>   5.4775  1.0000</r>
       <r>   6.1601  1.0000</r>
       <r>   6.1602  1.0000</r>
       <r>   6.2000  1.0000</r>
       <r>   6.2000  1.0000</r>
       <r>   6.2001  1.0000</r>
       <r>   6.2002  1.0000</r>
       <r>   6.3695  1.0000</r>
       <r>   6.3695  1.0000</r>
       <r>   6.3695  1.0000</r>
       <r>   6.3695  1.0000</r>
       <r>   7.0188  0.0000</r>
       <r>   7.0188  0.0000</r>
       <r>   7.0188  0.0000</r>
       <r>   7.0188  0.0000</r>
       <r>   7.5055  0.0000</r>
       <r>   7.5055  0.0000</r>
       <r>   7.5055  0.0000</r>
       <r>   7.5055  0.0000</r>
       <r>   7.6632  0.0000</r>
       <r>   7.6699  0.0000</r>
       <r>   7.6699  0.0000</r>
       <r>   8.1705  0.0000</r>
       <r>   8.1705  0.0000</r>
       <r>   8.1705  0.0000</r>
       <r>   8.1705  0.0000</r>
       <r>   8.8121  0.0000</r>
       <r>   8.8121  0.0000</r>
       <r>   9.6168  0.0000</r>
       <r>   9.6170  0.0000</r>
       <r>   9.6194  0.0000</r>
       <r>   9.6206  0.0000</r>
       <r>   9.6228  0.0000</r>
       <r>   9.6243  0.0000</r>
       <r>   9.6252  0.0000</r>
      </set>
      <set comment="kpoint 4">
       <r>  -2.9892  1.0000</r>
       <r>  -2.9865  1.0000</r>
       <r>  -0.9131  1.0000</r>
       <r>  -0.9101  1.0000</r>
       <r>  -0.9101  1.0000</r>
       <r>  -0.9094  1.0000</r>
       <r>  -0.9093  1.0000</r>
       <r>  -0.9086  1.0000</r>
       <r>  -0.9086  1.0000</r>
       <r>  -0.9056  1.0000</r>
       <r>   1.1355  1.0000</r>
       <r>   1.1385  1.0000</r>
       <r>   1.1409  1.0000</r>
       <r>   1.1409  1.0000</r>
       <r>   1.1411  1.0000</r>
       <r>   1.1418  1.0000</r>
       <r>   1.1425  1.0000</r>
       <r>   1.1433  1.0000</r>
       <r>   1.1433  1.0000</r>
       <r>   1.1459  1.0000</r>
       <r>   3.1621  1.0000</r>
       <r>   3.1627  1.0000</r>
       <r>   3.1627  1.0000</r>
       <r>   3.1633  1.0000</r>
       <r>   3.1636  1.0000</r>
       <r>   3.1642  1.0000</r>
       <r>   3.1642  1.0000</r>
       <r>   3.1648  1.0000</r>
       <r>   4.6914  1.0000</r>
       <r>   4.6914  1.0000</r>
       <r>   4.6942  1.0000</r>
       <r>   4.6942  1.0000</r>
       <r>   5.1651  1.0000</r>
       <r>   5.1651  1.0000</r>
       <r>   5.1658  1.0000</r>
       <r>   5.1658  1.0000</r>
       <r>   5.1665  1.0000</r>
       <r>   5.1666  1.0000</r>
       <r>   5.1673  1.0000</r>
       <r>   5.1673  1.0000</r>
       <r>   5.7613  1.0000</r>
       <r>   5.7620  1.0000</r>
       <r>   5.7638  1.0000</r>
       <r>   5.7646  1.0000</r>
       <r>   6.6378  1.0000</r>
       <r>   6.6378  1.0000</r>
       <r>   6.6388  1.0000</r>
       <r>   6.6400  1.0000</r>
       <r>   6.6401  1.0000</r>
       <r>   6.6412  1.0000</r>
       <r>   6.6422  1.0000</r>
       <r>   6.6422  1.0000</r>
       <r>   7.7813  0.0000</r>
       <r>   7.7826  0.0000</r>
       <r>   7.7826  0.0000</r>
       <r>   7.7827  0.0000</r>
       <r>   7.7845  0.0000</r>
       <r>   7.7846  0.0000</r>
       <r>   7.7846  0.0000</r>
       <r>   7.7859  0.0000</r>
       <r>   8.5905  0.0000</r>
       <r>   8.5905  0.0000</r>
       <r>   8.5928  0.0000</r>
       <r>   8.5928  0.0000</r>
       <r>   9.2356  0.0000</r>
       <r>   9.2372  0.0000</r>
       <r>   9.6993  0.0000</r>
       <r>   9.6999  0.0000</r>
       <r>   9.7010  0.0000</r>
       <r>   9.7016  0.0000</r>
       <r>  10.5363  0.0000</r>
       <r>  10.5374  0.0000</r>
      </set>
      <set comment="kpoint 5">
       <r>  -3.4535  1.0000</r>
       <r>  -2.0606  1.0000</r>
       <r>  -1.3715  1.0000</r>
       <r>  -1.3688  1.0000</r>
       <r>  -1.3688  1.0000</r>
       <r>  -1.3661  1.0000</r>
       <r>  -0.6802  1.0000</r>
       <r>   0.0030  1.0000</r>
       <r>   0.0058  1.0000</r>
       <r>   0.0058  1.0000</r>
       <r>   0.0085  1.0000</r>
       <r>   0.6865  1.0000</r>
       <r>   0.6876  1.0000</r>
       <r>   0.6897  1.0000</r>
       <r>   0.6908  1.0000</r>
       <r>   1.3658  1.0000</r>
       <r>   1.3685  1.0000</r>
       <r>   1.3685  1.0000</r>
       <r>   1.3712  1.0000</r>
       <r>   2.0428  1.0000</r>
       <r>   2.0438  1.0000</r>
       <r>   2.0459  1.0000</r>
       <r>   2.0470  1.0000</r>
       <r>   3.3395  1.0000</r>
       <r>   3.3918  1.0000</r>
       <r>   3.3929  1.0000</r>
       <r>   3.3950  1.0000</r>
       <r>   3.3961  1.0000</r>
       <r>   4.2606  1.0000</r>
       <r>   4.2607  1.0000</r>
       <r>   5.3056  1.0000</r>
       <r>   5.3056  1.0000</r>
       <r>   5.3244  1.0000</r>
       <r>   5.3273  1.0000</r>
       <r>   5.3273  1.0000</r>
       <r>   5.3301  1.0000</r>
       <r>   5.5579  1.0000</r>
       <r>   5.5579  1.0000</r>
       <r>   6.2047  1.0000</r>
       <r>   6.2072  1.0000</r>
       <r>   6.2072  1.0000</r>
       <r>   6.2098  1.0000</r>
       <r>   6.2179  1.0000</r>
       <r>   6.6662  1.0000</r>
       <r>   6.6662  1.0000</r>
       <r>   6.8571  1.0000</r>
       <r>   6.8571  1.0000</r>
       <r>   7.2969  0.0000</r>
       <r>   7.2983  0.0000</r>
       <r>   7.3003  0.0000</r>
       <r>   7.3017  0.0000</r>
       <r>   7.3340  0.0000</r>
       <r>   7.3360  0.0000</r>
       <r>   7.3360  0.0000</r>
       <r>   7.3380  0.0000</r>
       <r>   7.5033  0.0000</r>
       <r>   7.5059  0.0000</r>
       <r>   7.5060  0.0000</r>
       <r>   7.5085  0.0000</r>
       <r>   8.0039  0.0000</r>
       <r>   8.0040  0.0000</r>
       <r>   8.2113  0.0000</r>
       <r>   8.2138  0.0000</r>
       <r>   8.2138  0.0000</r>
       <r>   8.2163  0.0000</r>
       <r>   8.6623  0.0000</r>
       <r>   8.6642  0.0000</r>
       <r>   8.6643  0.0000</r>
       <r>   8.6662  0.0000</r>
       <r>   8.8028  0.0000</r>
       <r>   8.8051  0.0000</r>
       <r>   8.8057  0.0000</r>
      </set>
      <set comment="kpoint 6">
       <r>  -3.3952  1.0000</r>
       <r>  -2.0039  1.0000</r>
       <r>  -2.0017  1.0000</r>
       <r>  -1.3113  1.0000</r>
       <r>  -1.3113  1.0000</r>
       <r>  -0.6247  1.0000</r>
       <r>  -0.6229  1.0000</r>
       <r>  -0.6211  1.0000</r>
       <r>   0.0612  1.0000</r>
       <r>   0.0621  1.0000</r>
       <r>   0.0634  1.0000</r>
       <r>   0.0643  1.0000</r>
       <r>   0.7447  1.0000</r>
       <r>   0.7458  1.0000</r>
       <r>   1.4226  1.0000</r>
       <r>   1.4238  1.0000</r>
       <r>   1.4249  1.0000</r>
       <r>   1.4249  1.0000</r>
       <r>   1.4261  1.0000</r>
       <r>   1.4273  1.0000</r>
       <r>   2.1018  1.0000</r>
       <r>   2.7353  1.0000</r>
       <r>   2.7354  1.0000</r>
       <r>   2.8180  1.0000</r>
       <r>   2.8180  1.0000</r>
       <r>   3.3945  1.0000</r>
       <r>   3.3955  1.0000</r>
       <r>   4.1180  1.0000</r>
       <r>   4.1180  1.0000</r>
       <r>   4.3147  1.0000</r>
       <r>   4.7207  1.0000</r>
       <r>   4.7230  1.0000</r>
       <r>   5.3628  1.0000</r>
       <r>   5.3741  1.0000</r>
       <r>   5.3742  1.0000</r>
       <r>   5.3906  1.0000</r>
       <r>   5.3907  1.0000</r>
       <r>   5.6107  1.0000</r>
       <r>   5.6132  1.0000</r>
       <r>   6.0392  1.0000</r>
       <r>   6.0404  1.0000</r>
       <r>   6.2732  1.0000</r>
       <r>   6.2742  1.0000</r>
       <r>   6.6969  1.0000</r>
       <r>   6.6979  1.0000</r>
       <r>   6.6993  1.0000</r>
       <r>   6.7001  1.0000</r>
       <r>   6.7248  1.0000</r>
       <r>   6.7266  1.0000</r>
       <r>   6.9087  0.0052</r>
       <r>   6.9109  0.0020</r>
       <r>   6.9131  0.0007</r>
       <r>   7.5974  0.0000</r>
       <r>   7.5987  0.0000</r>
       <r>   8.0059  0.0000</r>
       <r>   8.0070  0.0000</r>
       <r>   8.0070  0.0000</r>
       <r>   8.0080  0.0000</r>
       <r>   8.0615  0.0000</r>
       <r>   8.0636  0.0000</r>
       <r>   8.0651  0.0000</r>
       <r>   8.2087  0.0000</r>
       <r>   8.2103  0.0000</r>
       <r>   8.2109  0.0000</r>
       <r>   8.2117  0.0000</r>
       <r>   8.3181  0.0000</r>
       <r>   8.3181  0.0000</r>
       <r>   8.9147  0.0000</r>
       <r>   8.9168  0.0000</r>
       <r>   9.3661  0.0000</r>
       <r>   9.3663  0.0000</r>
       <r>   9.5091  0.0000</r>
      </set>
      <set comment="kpoint 7">
       <r>  -3.2205  1.0000</r>
       <r>  -2.5235  1.0000</r>
       <r>  -1.8297  1.0000</r>
       <r>  -1.1402  1.0000</r>
       <r>  -1.1389  1.0000</r>
       <r>  -1.1376  1.0000</r>
       <r>  -0.4526  1.0000</r>
       <r>  -0.4512  1.0000</r>
       <r>  -0.4499  1.0000</r>
       <r>   0.2312  1.0000</r>
       <r>   0.2335  1.0000</r>
       <r>   0.2336  1.0000</r>
       <r>   0.2352  1.0000</r>
       <r>   0.9154  1.0000</r>
       <r>   0.9154  1.0000</r>
       <r>   1.5932  1.0000</r>
       <r>   1.5944  1.0000</r>
       <r>   1.5948  1.0000</r>
       <r>   2.2571  1.0000</r>
       <r>   2.2683  1.0000</r>
       <r>   2.2690  1.0000</r>
       <r>   2.2708  1.0000</r>
       <r>   2.2716  1.0000</r>
       <r>   2.9430  1.0000</r>
       <r>   3.5612  1.0000</r>
       <r>   3.5992  1.0000</r>
       <r>   3.6156  1.0000</r>
       <r>   3.6156  1.0000</r>
       <r>   4.2252  1.0000</r>
       <r>   4.2664  1.0000</r>
       <r>   4.2664  1.0000</r>
       <r>   4.4767  1.0000</r>
       <r>   4.9307  1.0000</r>
       <r>   4.9490  1.0000</r>
       <r>   4.9491  1.0000</r>
       <r>   5.1252  1.0000</r>
       <r>   5.5347  1.0000</r>
       <r>   5.5473  1.0000</r>
       <r>   5.5473  1.0000</r>
       <r>   5.5946  1.0000</r>
       <r>   5.5946  1.0000</r>
       <r>   5.7742  1.0000</r>
       <r>   6.2058  1.0000</r>
       <r>   6.2058  1.0000</r>
       <r>   6.2162  1.0000</r>
       <r>   6.4233  1.0000</r>
       <r>   6.4411  1.0000</r>
       <r>   6.8621  1.0000</r>
       <r>   6.8939  0.3220</r>
       <r>   6.9128  0.0009</r>
       <r>   6.9128  0.0009</r>
       <r>   7.0735  0.0000</r>
       <r>   7.1072  0.0000</r>
       <r>   7.5640  0.0000</r>
       <r>   7.7183  0.0000</r>
       <r>   7.7218  0.0000</r>
       <r>   7.7251  0.0000</r>
       <r>   8.2165  0.0000</r>
       <r>   8.4266  0.0000</r>
       <r>   8.4266  0.0000</r>
       <r>   8.8039  0.0000</r>
       <r>   8.8198  0.0000</r>
       <r>   8.8198  0.0000</r>
       <r>   8.8670  0.0000</r>
       <r>   8.8775  0.0000</r>
       <r>   9.0223  0.0000</r>
       <r>   9.0351  0.0000</r>
       <r>   9.0820  0.0000</r>
       <r>   9.0820  0.0000</r>
       <r>   9.6772  0.0000</r>
       <r>   9.6796  0.0000</r>
       <r>   9.6836  0.0000</r>
      </set>
      <set comment="kpoint 8">
       <r>  -2.9311  1.0000</r>
       <r>  -2.9284  1.0000</r>
       <r>  -1.5429  1.0000</r>
       <r>  -1.5402  1.0000</r>
       <r>  -0.8539  1.0000</r>
       <r>  -0.8528  1.0000</r>
       <r>  -0.8512  1.0000</r>
       <r>  -0.8501  1.0000</r>
       <r>  -0.1670  1.0000</r>
       <r>  -0.1643  1.0000</r>
       <r>   0.5161  1.0000</r>
       <r>   0.5173  1.0000</r>
       <r>   0.5188  1.0000</r>
       <r>   0.5199  1.0000</r>
       <r>   1.1942  1.0000</r>
       <r>   1.1957  1.0000</r>
       <r>   1.8745  1.0000</r>
       <r>   1.8756  1.0000</r>
       <r>   1.8772  1.0000</r>
       <r>   1.8783  1.0000</r>
       <r>   2.5465  1.0000</r>
       <r>   2.5480  1.0000</r>
       <r>   3.2186  1.0000</r>
       <r>   3.2186  1.0000</r>
       <r>   3.2201  1.0000</r>
       <r>   3.2201  1.0000</r>
       <r>   3.8367  1.0000</r>
       <r>   3.8395  1.0000</r>
       <r>   3.8878  1.0000</r>
       <r>   3.8892  1.0000</r>
       <r>   4.5560  1.0000</r>
       <r>   4.5560  1.0000</r>
       <r>   4.5575  1.0000</r>
       <r>   4.5575  1.0000</r>
       <r>   4.7454  1.0000</r>
       <r>   4.7483  1.0000</r>
       <r>   5.8185  1.0000</r>
       <r>   5.8199  1.0000</r>
       <r>   5.8211  1.0000</r>
       <r>   5.8212  1.0000</r>
       <r>   5.8227  1.0000</r>
       <r>   5.8240  1.0000</r>
       <r>   5.8826  1.0000</r>
       <r>   5.8827  1.0000</r>
       <r>   5.8841  1.0000</r>
       <r>   5.8841  1.0000</r>
       <r>   6.0432  1.0000</r>
       <r>   6.0460  1.0000</r>
       <r>   6.7181  1.0000</r>
       <r>   6.7208  1.0000</r>
       <r>   7.1727  0.0000</r>
       <r>   7.1752  0.0000</r>
       <r>   7.3426  0.0000</r>
       <r>   7.3455  0.0000</r>
       <r>   7.7833  0.0000</r>
       <r>   7.7851  0.0000</r>
       <r>   8.4927  0.0000</r>
       <r>   8.4953  0.0000</r>
       <r>   8.6446  0.0000</r>
       <r>   8.6468  0.0000</r>
       <r>   8.6990  0.0000</r>
       <r>   8.6999  0.0000</r>
       <r>   8.7017  0.0000</r>
       <r>   8.7026  0.0000</r>
       <r>   9.2899  0.0000</r>
       <r>   9.2915  0.0000</r>
       <r>   9.7336  0.0000</r>
       <r>   9.7339  0.0000</r>
       <r>   9.7354  0.0000</r>
       <r>   9.7357  0.0000</r>
       <r>   9.7540  0.0000</r>
       <r>   9.7546  0.0000</r>
      </set>
      <set comment="kpoint 9">
       <r>  -3.2787  1.0000</r>
       <r>  -2.5815  1.0000</r>
       <r>  -1.1991  1.0000</r>
       <r>  -1.1963  1.0000</r>
       <r>  -1.1963  1.0000</r>
       <r>  -1.1936  1.0000</r>
       <r>  -0.5111  1.0000</r>
       <r>  -0.5083  1.0000</r>
       <r>  -0.5083  1.0000</r>
       <r>  -0.5056  1.0000</r>
       <r>   0.1758  1.0000</r>
       <r>   0.8567  1.0000</r>
       <r>   0.8578  1.0000</r>
       <r>   0.8599  1.0000</r>
       <r>   0.8610  1.0000</r>
       <r>   1.5357  1.0000</r>
       <r>   1.5368  1.0000</r>
       <r>   1.5389  1.0000</r>
       <r>   1.5400  1.0000</r>
       <r>   2.2011  1.0000</r>
       <r>   2.2107  1.0000</r>
       <r>   2.2135  1.0000</r>
       <r>   2.2135  1.0000</r>
       <r>   2.2162  1.0000</r>
       <r>   4.2081  1.0000</r>
       <r>   4.2109  1.0000</r>
       <r>   4.2109  1.0000</r>
       <r>   4.2137  1.0000</r>
       <r>   4.2259  1.0000</r>
       <r>   4.2270  1.0000</r>
       <r>   4.2291  1.0000</r>
       <r>   4.2302  1.0000</r>
       <r>   4.4227  1.0000</r>
       <r>   4.4227  1.0000</r>
       <r>   5.0712  1.0000</r>
       <r>   5.0712  1.0000</r>
       <r>   5.4775  1.0000</r>
       <r>   5.4775  1.0000</r>
       <r>   6.1601  1.0000</r>
       <r>   6.1602  1.0000</r>
       <r>   6.1979  1.0000</r>
       <r>   6.1990  1.0000</r>
       <r>   6.2011  1.0000</r>
       <r>   6.2024  1.0000</r>
       <r>   6.3670  1.0000</r>
       <r>   6.3695  1.0000</r>
       <r>   6.3695  1.0000</r>
       <r>   6.3721  1.0000</r>
       <r>   7.0162  0.0000</r>
       <r>   7.0188  0.0000</r>
       <r>   7.0188  0.0000</r>
       <r>   7.0214  0.0000</r>
       <r>   7.5035  0.0000</r>
       <r>   7.5055  0.0000</r>
       <r>   7.5055  0.0000</r>
       <r>   7.5074  0.0000</r>
       <r>   7.6628  0.0000</r>
       <r>   7.6699  0.0000</r>
       <r>   7.6704  0.0000</r>
       <r>   8.1686  0.0000</r>
       <r>   8.1705  0.0000</r>
       <r>   8.1705  0.0000</r>
       <r>   8.1725  0.0000</r>
       <r>   8.8121  0.0000</r>
       <r>   8.8121  0.0000</r>
       <r>   9.6160  0.0000</r>
       <r>   9.6170  0.0000</r>
       <r>   9.6190  0.0000</r>
       <r>   9.6197  0.0000</r>
       <r>   9.6227  0.0000</r>
       <r>   9.6243  0.0000</r>
       <r>   9.6259  0.0000</r>
      </set>
      <set comment="kpoint 10">
       <r>  -3.2205  1.0000</r>
       <r>  -2.5235  1.0000</r>
       <r>  -1.8297  1.0000</r>
       <r>  -1.1402  1.0000</r>
       <r>  -1.1389  1.0000</r>
       <r>  -1.1376  1.0000</r>
       <r>  -0.4526  1.0000</r>
       <r>  -0.4512  1.0000</r>
       <r>  -0.4499  1.0000</r>
       <r>   0.2313  1.0000</r>
       <r>   0.2331  1.0000</r>
       <r>   0.2336  1.0000</r>
       <r>   0.2354  1.0000</r>
       <r>   0.9154  1.0000</r>
       <r>   0.9154  1.0000</r>
       <r>   1.5925  1.0000</r>
       <r>   1.5944  1.0000</r>
       <r>   1.5955  1.0000</r>
       <r>   2.2571  1.0000</r>
       <r>   2.2692  1.0000</r>
       <r>   2.2694  1.0000</r>
       <r>   2.2703  1.0000</r>
       <r>   2.2706  1.0000</r>
       <r>   2.9429  1.0000</r>
       <r>   3.5612  1.0000</r>
       <r>   3.5992  1.0000</r>
       <r>   3.6156  1.0000</r>
       <r>   3.6156  1.0000</r>
       <r>   4.2251  1.0000</r>
       <r>   4.2664  1.0000</r>
       <r>   4.2665  1.0000</r>
       <r>   4.4767  1.0000</r>
       <r>   4.9308  1.0000</r>
       <r>   4.9491  1.0000</r>
       <r>   4.9491  1.0000</r>
       <r>   5.1252  1.0000</r>
       <r>   5.5345  1.0000</r>
       <r>   5.5473  1.0000</r>
       <r>   5.5475  1.0000</r>
       <r>   5.5946  1.0000</r>
       <r>   5.5946  1.0000</r>
       <r>   5.7742  1.0000</r>
       <r>   6.2057  1.0000</r>
       <r>   6.2058  1.0000</r>
       <r>   6.2164  1.0000</r>
       <r>   6.4233  1.0000</r>
       <r>   6.4411  1.0000</r>
       <r>   6.8621  1.0000</r>
       <r>   6.8939  0.3220</r>
       <r>   6.9128  0.0009</r>
       <r>   6.9128  0.0009</r>
       <r>   7.0735  0.0000</r>
       <r>   7.1072  0.0000</r>
       <r>   7.5640  0.0000</r>
       <r>   7.7183  0.0000</r>
       <r>   7.7225  0.0000</r>
       <r>   7.7244  0.0000</r>
       <r>   8.2165  0.0000</r>
       <r>   8.4266  0.0000</r>
       <r>   8.4266  0.0000</r>
       <r>   8.8040  0.0000</r>
       <r>   8.8198  0.0000</r>
       <r>   8.8198  0.0000</r>
       <r>   8.8671  0.0000</r>
       <r>   8.8774  0.0000</r>
       <r>   9.0223  0.0000</r>
       <r>   9.0351  0.0000</r>
       <r>   9.0820  0.0000</r>
       <r>   9.0821  0.0000</r>
       <r>   9.6766  0.0000</r>
       <r>   9.6796  0.0000</r>
       <r>   9.6989  0.0000</r>
      </set>
      <set comment="kpoint 11">
       <r>  -3.0460  1.0000</r>
       <r>  -2.3509  1.0000</r>
       <r>  -2.3487  1.0000</r>
       <r>  -1.6568  1.0000</r>
       <r>  -0.9667  1.0000</r>
       <r>  -0.9667  1.0000</r>
       <r>  -0.2813  1.0000</r>
       <r>  -0.2804  1.0000</r>
       <r>  -0.2791  1.0000</r>
       <r>  -0.2782  1.0000</r>
       <r>   0.4017  1.0000</r>
       <r>   0.4037  1.0000</r>
       <r>   0.4042  1.0000</r>
       <r>   0.4056  1.0000</r>
       <r>   1.0839  1.0000</r>
       <r>   1.0850  1.0000</r>
       <r>   2.4249  1.0000</r>
       <r>   2.4259  1.0000</r>
       <r>   2.4368  1.0000</r>
       <r>   2.4376  1.0000</r>
       <r>   2.4389  1.0000</r>
       <r>   2.4399  1.0000</r>
       <r>   3.0793  1.0000</r>
       <r>   3.0794  1.0000</r>
       <r>   3.0960  1.0000</r>
       <r>   3.0983  1.0000</r>
       <r>   3.1435  1.0000</r>
       <r>   3.1435  1.0000</r>
       <r>   3.7798  1.0000</r>
       <r>   4.4297  1.0000</r>
       <r>   4.4298  1.0000</r>
       <r>   4.4360  1.0000</r>
       <r>   4.4360  1.0000</r>
       <r>   4.6388  1.0000</r>
       <r>   5.0960  1.0000</r>
       <r>   5.0969  1.0000</r>
       <r>   5.0983  1.0000</r>
       <r>   5.0992  1.0000</r>
       <r>   5.2862  1.0000</r>
       <r>   5.2886  1.0000</r>
       <r>   5.7059  1.0000</r>
       <r>   5.7556  1.0000</r>
       <r>   5.7566  1.0000</r>
       <r>   5.7763  1.0000</r>
       <r>   5.7764  1.0000</r>
       <r>   5.9363  1.0000</r>
       <r>   6.3881  1.0000</r>
       <r>   6.3899  1.0000</r>
       <r>   7.0628  0.0000</r>
       <r>   7.7118  0.0000</r>
       <r>   7.7296  0.0000</r>
       <r>   7.7306  0.0000</r>
       <r>   7.7307  0.0000</r>
       <r>   7.7317  0.0000</r>
       <r>   7.8825  0.0000</r>
       <r>   7.8836  0.0000</r>
       <r>   7.8851  0.0000</r>
       <r>   7.8876  0.0000</r>
       <r>   8.5339  0.0000</r>
       <r>   8.5346  0.0000</r>
       <r>   8.5351  0.0000</r>
       <r>   8.5365  0.0000</r>
       <r>   9.0342  0.0000</r>
       <r>   9.0358  0.0000</r>
       <r>   9.6636  0.0000</r>
       <r>   9.6637  0.0000</r>
       <r>   9.6763  0.0000</r>
       <r>   9.6765  0.0000</r>
       <r>   9.7972  0.0000</r>
       <r>   9.7972  0.0000</r>
       <r>   9.8377  0.0000</r>
       <r>   9.8415  0.0000</r>
      </set>
      <set comment="kpoint 12">
       <r>  -2.7569  1.0000</r>
       <r>  -2.7542  1.0000</r>
       <r>  -2.0620  1.0000</r>
       <r>  -2.0593  1.0000</r>
       <r>  -0.6821  1.0000</r>
       <r>  -0.6809  1.0000</r>
       <r>  -0.6794  1.0000</r>
       <r>  -0.6782  1.0000</r>
       <r>   0.0037  1.0000</r>
       <r>   0.0048  1.0000</r>
       <r>   0.0064  1.0000</r>
       <r>   0.0075  1.0000</r>
       <r>   0.6862  1.0000</r>
       <r>   0.6888  1.0000</r>
       <r>   1.3638  1.0000</r>
       <r>   1.3653  1.0000</r>
       <r>   2.0406  1.0000</r>
       <r>   2.0421  1.0000</r>
       <r>   2.7043  1.0000</r>
       <r>   2.7070  1.0000</r>
       <r>   2.7167  1.0000</r>
       <r>   2.7178  1.0000</r>
       <r>   2.7194  1.0000</r>
       <r>   2.7205  1.0000</r>
       <r>   3.3862  1.0000</r>
       <r>   3.3862  1.0000</r>
       <r>   3.3876  1.0000</r>
       <r>   3.3877  1.0000</r>
       <r>   4.0559  1.0000</r>
       <r>   4.0559  1.0000</r>
       <r>   4.0573  1.0000</r>
       <r>   4.0574  1.0000</r>
       <r>   4.7082  1.0000</r>
       <r>   4.7094  1.0000</r>
       <r>   4.7109  1.0000</r>
       <r>   4.7121  1.0000</r>
       <r>   4.7196  1.0000</r>
       <r>   4.7210  1.0000</r>
       <r>   4.9075  1.0000</r>
       <r>   4.9104  1.0000</r>
       <r>   5.5563  1.0000</r>
       <r>   5.5591  1.0000</r>
       <r>   5.9885  1.0000</r>
       <r>   5.9911  1.0000</r>
       <r>   6.6688  1.0000</r>
       <r>   6.6713  1.0000</r>
       <r>   6.6873  1.0000</r>
       <r>   6.6889  1.0000</r>
       <r>   6.7054  1.0000</r>
       <r>   6.7054  1.0000</r>
       <r>   6.7069  1.0000</r>
       <r>   6.7069  1.0000</r>
       <r>   8.1554  0.0000</r>
       <r>   8.1554  0.0000</r>
       <r>   8.1581  0.0000</r>
       <r>   8.1583  0.0000</r>
       <r>   8.6493  0.0000</r>
       <r>   8.6494  0.0000</r>
       <r>   8.6509  0.0000</r>
       <r>   8.6510  0.0000</r>
       <r>   8.8069  0.0000</r>
       <r>   8.8091  0.0000</r>
       <r>   9.2945  0.0000</r>
       <r>   9.2972  0.0000</r>
       <r>   9.4521  0.0000</r>
       <r>   9.4537  0.0000</r>
       <r>   9.4556  0.0000</r>
       <r>   9.4578  0.0000</r>
       <r>   9.9153  0.0000</r>
       <r>   9.9160  0.0000</r>
       <r>  10.1064  0.0000</r>
       <r>  10.1085  0.0000</r>
      </set>
      <set comment="kpoint 13">
       <r>  -2.9878  1.0000</r>
       <r>  -2.9878  1.0000</r>
       <r>  -0.9143  1.0000</r>
       <r>  -0.9098  1.0000</r>
       <r>  -0.9093  1.0000</r>
       <r>  -0.9093  1.0000</r>
       <r>  -0.9093  1.0000</r>
       <r>  -0.9093  1.0000</r>
       <r>  -0.9089  1.0000</r>
       <r>  -0.9044  1.0000</r>
       <r>   1.1362  1.0000</r>
       <r>   1.1381  1.0000</r>
       <r>   1.1400  1.0000</r>
       <r>   1.1402  1.0000</r>
       <r>   1.1418  1.0000</r>
       <r>   1.1420  1.0000</r>
       <r>   1.1423  1.0000</r>
       <r>   1.1427  1.0000</r>
       <r>   1.1440  1.0000</r>
       <r>   1.1464  1.0000</r>
       <r>   3.1605  1.0000</r>
       <r>   3.1608  1.0000</r>
       <r>   3.1634  1.0000</r>
       <r>   3.1634  1.0000</r>
       <r>   3.1634  1.0000</r>
       <r>   3.1634  1.0000</r>
       <r>   3.1660  1.0000</r>
       <r>   3.1664  1.0000</r>
       <r>   4.6928  1.0000</r>
       <r>   4.6928  1.0000</r>
       <r>   4.6928  1.0000</r>
       <r>   4.6928  1.0000</r>
       <r>   5.1634  1.0000</r>
       <r>   5.1645  1.0000</r>
       <r>   5.1649  1.0000</r>
       <r>   5.1653  1.0000</r>
       <r>   5.1670  1.0000</r>
       <r>   5.1674  1.0000</r>
       <r>   5.1678  1.0000</r>
       <r>   5.1689  1.0000</r>
       <r>   5.7629  1.0000</r>
       <r>   5.7629  1.0000</r>
       <r>   5.7629  1.0000</r>
       <r>   5.7629  1.0000</r>
       <r>   6.6353  1.0000</r>
       <r>   6.6396  1.0000</r>
       <r>   6.6400  1.0000</r>
       <r>   6.6400  1.0000</r>
       <r>   6.6400  1.0000</r>
       <r>   6.6401  1.0000</r>
       <r>   6.6404  1.0000</r>
       <r>   6.6447  1.0000</r>
       <r>   7.7800  0.0000</r>
       <r>   7.7832  0.0000</r>
       <r>   7.7836  0.0000</r>
       <r>   7.7836  0.0000</r>
       <r>   7.7836  0.0000</r>
       <r>   7.7836  0.0000</r>
       <r>   7.7840  0.0000</r>
       <r>   7.7872  0.0000</r>
       <r>   8.5916  0.0000</r>
       <r>   8.5916  0.0000</r>
       <r>   8.5916  0.0000</r>
       <r>   8.5916  0.0000</r>
       <r>   9.2365  0.0000</r>
       <r>   9.2365  0.0000</r>
       <r>   9.7004  0.0000</r>
       <r>   9.7004  0.0000</r>
       <r>   9.7005  0.0000</r>
       <r>   9.7005  0.0000</r>
       <r>  10.5344  0.0000</r>
       <r>  10.5372  0.0000</r>
      </set>
      <set comment="kpoint 14">
       <r>  -2.9297  1.0000</r>
       <r>  -2.9297  1.0000</r>
       <r>  -1.5415  1.0000</r>
       <r>  -1.5415  1.0000</r>
       <r>  -0.8520  1.0000</r>
       <r>  -0.8520  1.0000</r>
       <r>  -0.8520  1.0000</r>
       <r>  -0.8520  1.0000</r>
       <r>  -0.1656  1.0000</r>
       <r>  -0.1656  1.0000</r>
       <r>   0.5180  1.0000</r>
       <r>   0.5180  1.0000</r>
       <r>   0.5180  1.0000</r>
       <r>   0.5180  1.0000</r>
       <r>   1.1949  1.0000</r>
       <r>   1.1949  1.0000</r>
       <r>   1.8764  1.0000</r>
       <r>   1.8764  1.0000</r>
       <r>   1.8764  1.0000</r>
       <r>   1.8764  1.0000</r>
       <r>   2.5472  1.0000</r>
       <r>   2.5472  1.0000</r>
       <r>   3.2193  1.0000</r>
       <r>   3.2193  1.0000</r>
       <r>   3.2193  1.0000</r>
       <r>   3.2193  1.0000</r>
       <r>   3.8381  1.0000</r>
       <r>   3.8381  1.0000</r>
       <r>   3.8885  1.0000</r>
       <r>   3.8885  1.0000</r>
       <r>   4.5567  1.0000</r>
       <r>   4.5568  1.0000</r>
       <r>   4.5568  1.0000</r>
       <r>   4.5568  1.0000</r>
       <r>   4.7468  1.0000</r>
       <r>   4.7468  1.0000</r>
       <r>   5.8183  1.0000</r>
       <r>   5.8197  1.0000</r>
       <r>   5.8219  1.0000</r>
       <r>   5.8219  1.0000</r>
       <r>   5.8220  1.0000</r>
       <r>   5.8234  1.0000</r>
       <r>   5.8833  1.0000</r>
       <r>   5.8833  1.0000</r>
       <r>   5.8834  1.0000</r>
       <r>   5.8834  1.0000</r>
       <r>   6.0446  1.0000</r>
       <r>   6.0446  1.0000</r>
       <r>   6.7194  1.0000</r>
       <r>   6.7194  1.0000</r>
       <r>   7.1739  0.0000</r>
       <r>   7.1740  0.0000</r>
       <r>   7.3441  0.0000</r>
       <r>   7.3441  0.0000</r>
       <r>   7.7842  0.0000</r>
       <r>   7.7842  0.0000</r>
       <r>   8.4940  0.0000</r>
       <r>   8.4940  0.0000</r>
       <r>   8.6457  0.0000</r>
       <r>   8.6457  0.0000</r>
       <r>   8.7008  0.0000</r>
       <r>   8.7008  0.0000</r>
       <r>   8.7008  0.0000</r>
       <r>   8.7008  0.0000</r>
       <r>   9.2907  0.0000</r>
       <r>   9.2907  0.0000</r>
       <r>   9.7343  0.0000</r>
       <r>   9.7346  0.0000</r>
       <r>   9.7346  0.0000</r>
       <r>   9.7347  0.0000</r>
       <r>   9.7543  0.0000</r>
       <r>   9.7546  0.0000</r>
      </set>
      <set comment="kpoint 15">
       <r>  -2.7556  1.0000</r>
       <r>  -2.7555  1.0000</r>
       <r>  -2.0607  1.0000</r>
       <r>  -2.0607  1.0000</r>
       <r>  -0.6802  1.0000</r>
       <r>  -0.6801  1.0000</r>
       <r>  -0.6801  1.0000</r>
       <r>  -0.6801  1.0000</r>
       <r>   0.0056  1.0000</r>
       <r>   0.0056  1.0000</r>
       <r>   0.0056  1.0000</r>
       <r>   0.0056  1.0000</r>
       <r>   0.6875  1.0000</r>
       <r>   0.6875  1.0000</r>
       <r>   1.3645  1.0000</r>
       <r>   1.3645  1.0000</r>
       <r>   2.0413  1.0000</r>
       <r>   2.0413  1.0000</r>
       <r>   2.7055  1.0000</r>
       <r>   2.7056  1.0000</r>
       <r>   2.7186  1.0000</r>
       <r>   2.7186  1.0000</r>
       <r>   2.7186  1.0000</r>
       <r>   2.7187  1.0000</r>
       <r>   3.3869  1.0000</r>
       <r>   3.3869  1.0000</r>
       <r>   3.3869  1.0000</r>
       <r>   3.3869  1.0000</r>
       <r>   4.0566  1.0000</r>
       <r>   4.0566  1.0000</r>
       <r>   4.0566  1.0000</r>
       <r>   4.0566  1.0000</r>
       <r>   4.7101  1.0000</r>
       <r>   4.7101  1.0000</r>
       <r>   4.7102  1.0000</r>
       <r>   4.7102  1.0000</r>
       <r>   4.7203  1.0000</r>
       <r>   4.7203  1.0000</r>
       <r>   4.9090  1.0000</r>
       <r>   4.9090  1.0000</r>
       <r>   5.5577  1.0000</r>
       <r>   5.5577  1.0000</r>
       <r>   5.9898  1.0000</r>
       <r>   5.9898  1.0000</r>
       <r>   6.6701  1.0000</r>
       <r>   6.6701  1.0000</r>
       <r>   6.6880  1.0000</r>
       <r>   6.6881  1.0000</r>
       <r>   6.7062  1.0000</r>
       <r>   6.7062  1.0000</r>
       <r>   6.7062  1.0000</r>
       <r>   6.7063  1.0000</r>
       <r>   8.1568  0.0000</r>
       <r>   8.1568  0.0000</r>
       <r>   8.1569  0.0000</r>
       <r>   8.1569  0.0000</r>
       <r>   8.6501  0.0000</r>
       <r>   8.6501  0.0000</r>
       <r>   8.6501  0.0000</r>
       <r>   8.6502  0.0000</r>
       <r>   8.8080  0.0000</r>
       <r>   8.8080  0.0000</r>
       <r>   9.2958  0.0000</r>
       <r>   9.2958  0.0000</r>
       <r>   9.4529  0.0000</r>
       <r>   9.4529  0.0000</r>
       <r>   9.4567  0.0000</r>
       <r>   9.4567  0.0000</r>
       <r>   9.9156  0.0000</r>
       <r>   9.9157  0.0000</r>
       <r>  10.1072  0.0000</r>
       <r>  10.1081  0.0000</r>
      </set>
      <set comment="kpoint 16">
       <r>  -2.4681  1.0000</r>
       <r>  -2.4659  1.0000</r>
       <r>  -2.4654  1.0000</r>
       <r>  -2.4632  1.0000</r>
       <r>  -0.3976  1.0000</r>
       <r>  -0.3955  1.0000</r>
       <r>  -0.3944  1.0000</r>
       <r>  -0.3942  1.0000</r>
       <r>  -0.3940  1.0000</r>
       <r>  -0.3937  1.0000</r>
       <r>  -0.3927  1.0000</r>
       <r>  -0.3906  1.0000</r>
       <r>   1.6429  1.0000</r>
       <r>   1.6450  1.0000</r>
       <r>   1.6466  1.0000</r>
       <r>   1.6468  1.0000</r>
       <r>   1.6469  1.0000</r>
       <r>   1.6472  1.0000</r>
       <r>   1.6487  1.0000</r>
       <r>   1.6508  1.0000</r>
       <r>   3.6456  1.0000</r>
       <r>   3.6459  1.0000</r>
       <r>   3.6467  1.0000</r>
       <r>   3.6477  1.0000</r>
       <r>   3.6477  1.0000</r>
       <r>   3.6485  1.0000</r>
       <r>   3.6494  1.0000</r>
       <r>   3.6495  1.0000</r>
       <r>   3.6821  1.0000</r>
       <r>   3.6833  1.0000</r>
       <r>   3.6840  1.0000</r>
       <r>   3.6845  1.0000</r>
       <r>   3.6846  1.0000</r>
       <r>   3.6850  1.0000</r>
       <r>   3.6859  1.0000</r>
       <r>   3.6873  1.0000</r>
       <r>   5.1766  1.0000</r>
       <r>   5.1790  1.0000</r>
       <r>   5.1794  1.0000</r>
       <r>   5.1819  1.0000</r>
       <r>   5.6533  1.0000</r>
       <r>   5.6544  1.0000</r>
       <r>   5.6548  1.0000</r>
       <r>   5.6559  1.0000</r>
       <r>   6.2740  1.0000</r>
       <r>   6.2758  1.0000</r>
       <r>   6.2765  1.0000</r>
       <r>   6.2783  1.0000</r>
       <r>   7.6292  0.0000</r>
       <r>   7.6302  0.0000</r>
       <r>   7.6303  0.0000</r>
       <r>   7.6308  0.0000</r>
       <r>   7.6313  0.0000</r>
       <r>   7.6318  0.0000</r>
       <r>   7.6319  0.0000</r>
       <r>   7.6329  0.0000</r>
       <r>   9.0729  0.0000</r>
       <r>   9.0768  0.0000</r>
       <r>   9.0781  0.0000</r>
       <r>   9.0783  0.0000</r>
       <r>   9.0784  0.0000</r>
       <r>   9.0786  0.0000</r>
       <r>   9.0799  0.0000</r>
       <r>   9.0838  0.0000</r>
       <r>   9.7169  0.0000</r>
       <r>   9.7178  0.0000</r>
       <r>   9.7187  0.0000</r>
       <r>   9.7193  0.0000</r>
       <r>   9.7196  0.0000</r>
       <r>   9.7202  0.0000</r>
       <r>   9.7211  0.0000</r>
       <r>   9.7220  0.0000</r>
      </set>
      <set comment="kpoint 17">
       <r>  -3.3952  1.0000</r>
       <r>  -2.0028  1.0000</r>
       <r>  -2.0028  1.0000</r>
       <r>  -1.3129  1.0000</r>
       <r>  -1.3097  1.0000</r>
       <r>  -0.6229  1.0000</r>
       <r>  -0.6229  1.0000</r>
       <r>  -0.6228  1.0000</r>
       <r>   0.0602  1.0000</r>
       <r>   0.0622  1.0000</r>
       <r>   0.0634  1.0000</r>
       <r>   0.0654  1.0000</r>
       <r>   0.7452  1.0000</r>
       <r>   0.7452  1.0000</r>
       <r>   1.4222  1.0000</r>
       <r>   1.4235  1.0000</r>
       <r>   1.4244  1.0000</r>
       <r>   1.4256  1.0000</r>
       <r>   1.4262  1.0000</r>
       <r>   1.4278  1.0000</r>
       <r>   2.1018  1.0000</r>
       <r>   2.7353  1.0000</r>
       <r>   2.7353  1.0000</r>
       <r>   2.8180  1.0000</r>
       <r>   2.8180  1.0000</r>
       <r>   3.3950  1.0000</r>
       <r>   3.3950  1.0000</r>
       <r>   4.1164  1.0000</r>
       <r>   4.1196  1.0000</r>
       <r>   4.3147  1.0000</r>
       <r>   4.7218  1.0000</r>
       <r>   4.7218  1.0000</r>
       <r>   5.3629  1.0000</r>
       <r>   5.3740  1.0000</r>
       <r>   5.3740  1.0000</r>
       <r>   5.3908  1.0000</r>
       <r>   5.3908  1.0000</r>
       <r>   5.6119  1.0000</r>
       <r>   5.6120  1.0000</r>
       <r>   6.0398  1.0000</r>
       <r>   6.0398  1.0000</r>
       <r>   6.2737  1.0000</r>
       <r>   6.2737  1.0000</r>
       <r>   6.6959  1.0000</r>
       <r>   6.6979  1.0000</r>
       <r>   6.6993  1.0000</r>
       <r>   6.7012  1.0000</r>
       <r>   6.7256  1.0000</r>
       <r>   6.7257  1.0000</r>
       <r>   6.9104  0.0026</r>
       <r>   6.9112  0.0018</r>
       <r>   6.9113  0.0018</r>
       <r>   7.5981  0.0000</r>
       <r>   7.5981  0.0000</r>
       <r>   8.0049  0.0000</r>
       <r>   8.0057  0.0000</r>
       <r>   8.0083  0.0000</r>
       <r>   8.0091  0.0000</r>
       <r>   8.0619  0.0000</r>
       <r>   8.0641  0.0000</r>
       <r>   8.0641  0.0000</r>
       <r>   8.2091  0.0000</r>
       <r>   8.2099  0.0000</r>
       <r>   8.2109  0.0000</r>
       <r>   8.2117  0.0000</r>
       <r>   8.3181  0.0000</r>
       <r>   8.3181  0.0000</r>
       <r>   8.9158  0.0000</r>
       <r>   8.9158  0.0000</r>
       <r>   9.3662  0.0000</r>
       <r>   9.3662  0.0000</r>
       <r>   9.5094  0.0000</r>
      </set>
      <set comment="kpoint 18">
       <r>  -3.3370  1.0000</r>
       <r>  -1.9467  1.0000</r>
       <r>  -1.9451  1.0000</r>
       <r>  -1.9435  1.0000</r>
       <r>  -0.5690  1.0000</r>
       <r>  -0.5660  1.0000</r>
       <r>  -0.5659  1.0000</r>
       <r>  -0.5653  1.0000</r>
       <r>  -0.5653  1.0000</r>
       <r>  -0.5623  1.0000</r>
       <r>   0.7987  1.0000</r>
       <r>   0.8009  1.0000</r>
       <r>   0.8015  1.0000</r>
       <r>   0.8020  1.0000</r>
       <r>   0.8024  1.0000</r>
       <r>   0.8030  1.0000</r>
       <r>   0.8052  1.0000</r>
       <r>   2.1553  1.0000</r>
       <r>   2.1568  1.0000</r>
       <r>   2.1572  1.0000</r>
       <r>   2.1580  1.0000</r>
       <r>   2.1587  1.0000</r>
       <r>   2.1604  1.0000</r>
       <r>   3.4497  1.0000</r>
       <r>   3.4504  1.0000</r>
       <r>   3.4511  1.0000</r>
       <r>   3.5044  1.0000</r>
       <r>   3.5052  1.0000</r>
       <r>   3.5059  1.0000</r>
       <r>   4.7743  1.0000</r>
       <r>   4.7757  1.0000</r>
       <r>   4.7770  1.0000</r>
       <r>   4.7770  1.0000</r>
       <r>   4.7782  1.0000</r>
       <r>   4.7796  1.0000</r>
       <r>   4.8395  1.0000</r>
       <r>   6.0931  1.0000</r>
       <r>   6.0934  1.0000</r>
       <r>   6.0951  1.0000</r>
       <r>   6.0954  1.0000</r>
       <r>   6.0957  1.0000</r>
       <r>   6.0960  1.0000</r>
       <r>   6.0963  1.0000</r>
       <r>   6.0978  1.0000</r>
       <r>   6.0988  1.0000</r>
       <r>   6.3288  1.0000</r>
       <r>   6.3296  1.0000</r>
       <r>   6.3303  1.0000</r>
       <r>   7.4062  0.0000</r>
       <r>   7.4069  0.0000</r>
       <r>   7.4080  0.0000</r>
       <r>   7.4080  0.0000</r>
       <r>   7.4091  0.0000</r>
       <r>   7.4098  0.0000</r>
       <r>   7.6585  0.0000</r>
       <r>   7.6588  0.0000</r>
       <r>   7.6600  0.0000</r>
       <r>   7.6600  0.0000</r>
       <r>   7.6611  0.0000</r>
       <r>   7.6614  0.0000</r>
       <r>   8.7117  0.0000</r>
       <r>   8.7125  0.0000</r>
       <r>   8.7132  0.0000</r>
       <r>   8.9681  0.0000</r>
       <r>   8.9697  0.0000</r>
       <r>   8.9707  0.0000</r>
       <r>   8.9708  0.0000</r>
       <r>   8.9713  0.0000</r>
       <r>   8.9730  0.0000</r>
       <r>   8.9745  0.0000</r>
       <r>   8.9754  0.0000</r>
       <r>   8.9758  0.0000</r>
      </set>
      <set comment="kpoint 19">
       <r>  -3.1623  1.0000</r>
       <r>  -2.4656  1.0000</r>
       <r>  -1.7720  1.0000</r>
       <r>  -1.7720  1.0000</r>
       <r>  -1.0815  1.0000</r>
       <r>  -1.0815  1.0000</r>
       <r>  -0.3941  1.0000</r>
       <r>  -0.3941  1.0000</r>
       <r>  -0.3940  1.0000</r>
       <r>   0.2879  1.0000</r>
       <r>   0.2904  1.0000</r>
       <r>   0.2904  1.0000</r>
       <r>   0.2921  1.0000</r>
       <r>   0.9720  1.0000</r>
       <r>   0.9720  1.0000</r>
       <r>   1.6486  1.0000</r>
       <r>   1.6493  1.0000</r>
       <r>   1.6512  1.0000</r>
       <r>   1.6520  1.0000</r>
       <r>   2.3133  1.0000</r>
       <r>   2.3268  1.0000</r>
       <r>   2.9649  1.0000</r>
       <r>   2.9989  1.0000</r>
       <r>   2.9989  1.0000</r>
       <r>   3.0351  1.0000</r>
       <r>   3.6166  1.0000</r>
       <r>   3.6166  1.0000</r>
       <r>   3.6549  1.0000</r>
       <r>   3.6550  1.0000</r>
       <r>   4.2804  1.0000</r>
       <r>   4.2804  1.0000</r>
       <r>   4.3387  1.0000</r>
       <r>   4.3388  1.0000</r>
       <r>   4.9418  1.0000</r>
       <r>   4.9419  1.0000</r>
       <r>   4.9866  1.0000</r>
       <r>   4.9866  1.0000</r>
       <r>   4.9873  1.0000</r>
       <r>   5.6025  1.0000</r>
       <r>   5.6025  1.0000</r>
       <r>   5.6673  1.0000</r>
       <r>   6.2599  1.0000</r>
       <r>   6.2599  1.0000</r>
       <r>   6.3095  1.0000</r>
       <r>   6.3095  1.0000</r>
       <r>   6.4968  1.0000</r>
       <r>   6.4968  1.0000</r>
       <r>   6.9113  0.0017</r>
       <r>   6.9117  0.0015</r>
       <r>   6.9169  0.0001</r>
       <r>   6.9172  0.0001</r>
       <r>   7.1672  0.0000</r>
       <r>   7.1672  0.0000</r>
       <r>   7.6229  0.0000</r>
       <r>   7.7732  0.0000</r>
       <r>   7.8262  0.0000</r>
       <r>   7.8262  0.0000</r>
       <r>   8.2229  0.0000</r>
       <r>   8.2229  0.0000</r>
       <r>   8.4847  0.0000</r>
       <r>   8.4847  0.0000</r>
       <r>   8.8582  0.0000</r>
       <r>   8.8582  0.0000</r>
       <r>   9.0542  0.0000</r>
       <r>   9.0542  0.0000</r>
       <r>   9.1627  0.0000</r>
       <r>   9.1627  0.0000</r>
       <r>   9.5227  0.0000</r>
       <r>   9.5227  0.0000</r>
       <r>   9.7678  0.0000</r>
       <r>   9.7705  0.0000</r>
       <r>   9.7800  0.0000</r>
      </set>
      <set comment="kpoint 20">
       <r>  -2.8730  1.0000</r>
       <r>  -2.8703  1.0000</r>
       <r>  -1.4862  1.0000</r>
       <r>  -1.4844  1.0000</r>
       <r>  -1.4836  1.0000</r>
       <r>  -1.4817  1.0000</r>
       <r>  -0.1111  1.0000</r>
       <r>  -0.1095  1.0000</r>
       <r>  -0.1090  1.0000</r>
       <r>  -0.1082  1.0000</r>
       <r>  -0.1075  1.0000</r>
       <r>  -0.1060  1.0000</r>
       <r>   1.2497  1.0000</r>
       <r>   1.2517  1.0000</r>
       <r>   1.2539  1.0000</r>
       <r>   1.2545  1.0000</r>
       <r>   1.2563  1.0000</r>
       <r>   1.2574  1.0000</r>
       <r>   2.6021  1.0000</r>
       <r>   2.6029  1.0000</r>
       <r>   2.6037  1.0000</r>
       <r>   2.6041  1.0000</r>
       <r>   2.6061  1.0000</r>
       <r>   2.6087  1.0000</r>
       <r>   3.8919  1.0000</r>
       <r>   3.8922  1.0000</r>
       <r>   3.8947  1.0000</r>
       <r>   3.8949  1.0000</r>
       <r>   3.9432  1.0000</r>
       <r>   3.9438  1.0000</r>
       <r>   3.9446  1.0000</r>
       <r>   3.9449  1.0000</r>
       <r>   3.9452  1.0000</r>
       <r>   3.9463  1.0000</r>
       <r>   5.2153  1.0000</r>
       <r>   5.2171  1.0000</r>
       <r>   5.2181  1.0000</r>
       <r>   5.2199  1.0000</r>
       <r>   5.2751  1.0000</r>
       <r>   5.2759  1.0000</r>
       <r>   5.2766  1.0000</r>
       <r>   5.2774  1.0000</r>
       <r>   6.5321  1.0000</r>
       <r>   6.5327  1.0000</r>
       <r>   6.5349  1.0000</r>
       <r>   6.5355  1.0000</r>
       <r>   6.5970  1.0000</r>
       <r>   6.5985  1.0000</r>
       <r>   6.7732  1.0000</r>
       <r>   6.7737  1.0000</r>
       <r>   6.7758  1.0000</r>
       <r>   6.7763  1.0000</r>
       <r>   7.8379  0.0000</r>
       <r>   7.8384  0.0000</r>
       <r>   7.8396  0.0000</r>
       <r>   7.8401  0.0000</r>
       <r>   8.0997  0.0000</r>
       <r>   8.1002  0.0000</r>
       <r>   8.1023  0.0000</r>
       <r>   8.1029  0.0000</r>
       <r>   9.1390  0.0000</r>
       <r>   9.1399  0.0000</r>
       <r>   9.1408  0.0000</r>
       <r>   9.1417  0.0000</r>
       <r>   9.3439  0.0000</r>
       <r>   9.3454  0.0000</r>
       <r>   9.3986  0.0000</r>
       <r>   9.4005  0.0000</r>
       <r>   9.4013  0.0000</r>
       <r>   9.4032  0.0000</r>
       <r>  10.3828  0.0000</r>
       <r>  10.3883  0.0000</r>
      </set>
      <set comment="kpoint 21">
       <r>  -3.2205  1.0000</r>
       <r>  -2.5235  1.0000</r>
       <r>  -1.8297  1.0000</r>
       <r>  -1.1410  1.0000</r>
       <r>  -1.1389  1.0000</r>
       <r>  -1.1368  1.0000</r>
       <r>  -0.4533  1.0000</r>
       <r>  -0.4512  1.0000</r>
       <r>  -0.4491  1.0000</r>
       <r>   0.2312  1.0000</r>
       <r>   0.2331  1.0000</r>
       <r>   0.2335  1.0000</r>
       <r>   0.2357  1.0000</r>
       <r>   0.9138  1.0000</r>
       <r>   0.9170  1.0000</r>
       <r>   1.5926  1.0000</r>
       <r>   1.5937  1.0000</r>
       <r>   1.5961  1.0000</r>
       <r>   2.2571  1.0000</r>
       <r>   2.2679  1.0000</r>
       <r>   2.2687  1.0000</r>
       <r>   2.2711  1.0000</r>
       <r>   2.2719  1.0000</r>
       <r>   2.9429  1.0000</r>
       <r>   3.5612  1.0000</r>
       <r>   3.5992  1.0000</r>
       <r>   3.6140  1.0000</r>
       <r>   3.6172  1.0000</r>
       <r>   4.2252  1.0000</r>
       <r>   4.2648  1.0000</r>
       <r>   4.2680  1.0000</r>
       <r>   4.4767  1.0000</r>
       <r>   4.9307  1.0000</r>
       <r>   4.9474  1.0000</r>
       <r>   4.9507  1.0000</r>
       <r>   5.1252  1.0000</r>
       <r>   5.5346  1.0000</r>
       <r>   5.5457  1.0000</r>
       <r>   5.5490  1.0000</r>
       <r>   5.5929  1.0000</r>
       <r>   5.5962  1.0000</r>
       <r>   5.7742  1.0000</r>
       <r>   6.2041  1.0000</r>
       <r>   6.2075  1.0000</r>
       <r>   6.2162  1.0000</r>
       <r>   6.4233  1.0000</r>
       <r>   6.4411  1.0000</r>
       <r>   6.8621  1.0000</r>
       <r>   6.8939  0.3239</r>
       <r>   6.9111  0.0019</r>
       <r>   6.9145  0.0004</r>
       <r>   7.0735  0.0000</r>
       <r>   7.1073  0.0000</r>
       <r>   7.5640  0.0000</r>
       <r>   7.7178  0.0000</r>
       <r>   7.7229  0.0000</r>
       <r>   7.7245  0.0000</r>
       <r>   8.2165  0.0000</r>
       <r>   8.4251  0.0000</r>
       <r>   8.4281  0.0000</r>
       <r>   8.8040  0.0000</r>
       <r>   8.8181  0.0000</r>
       <r>   8.8215  0.0000</r>
       <r>   8.8671  0.0000</r>
       <r>   8.8773  0.0000</r>
       <r>   9.0221  0.0000</r>
       <r>   9.0353  0.0000</r>
       <r>   9.0806  0.0000</r>
       <r>   9.0835  0.0000</r>
       <r>   9.6762  0.0000</r>
       <r>   9.6789  0.0000</r>
       <r>   9.6877  0.0000</r>
      </set>
      <set comment="kpoint 22">
       <r>  -3.1623  1.0000</r>
       <r>  -2.4656  1.0000</r>
       <r>  -1.7731  1.0000</r>
       <r>  -1.7709  1.0000</r>
       <r>  -1.0826  1.0000</r>
       <r>  -1.0804  1.0000</r>
       <r>  -0.3959  1.0000</r>
       <r>  -0.3941  1.0000</r>
       <r>  -0.3923  1.0000</r>
       <r>   0.2884  1.0000</r>
       <r>   0.2897  1.0000</r>
       <r>   0.2904  1.0000</r>
       <r>   0.2923  1.0000</r>
       <r>   0.9715  1.0000</r>
       <r>   0.9726  1.0000</r>
       <r>   1.6487  1.0000</r>
       <r>   1.6501  1.0000</r>
       <r>   1.6508  1.0000</r>
       <r>   1.6516  1.0000</r>
       <r>   2.3133  1.0000</r>
       <r>   2.3267  1.0000</r>
       <r>   2.9649  1.0000</r>
       <r>   2.9978  1.0000</r>
       <r>   3.0000  1.0000</r>
       <r>   3.0351  1.0000</r>
       <r>   3.6161  1.0000</r>
       <r>   3.6172  1.0000</r>
       <r>   3.6538  1.0000</r>
       <r>   3.6560  1.0000</r>
       <r>   4.2799  1.0000</r>
       <r>   4.2809  1.0000</r>
       <r>   4.3382  1.0000</r>
       <r>   4.3393  1.0000</r>
       <r>   4.9408  1.0000</r>
       <r>   4.9430  1.0000</r>
       <r>   4.9849  1.0000</r>
       <r>   4.9868  1.0000</r>
       <r>   4.9886  1.0000</r>
       <r>   5.6013  1.0000</r>
       <r>   5.6036  1.0000</r>
       <r>   5.6673  1.0000</r>
       <r>   6.2594  1.0000</r>
       <r>   6.2605  1.0000</r>
       <r>   6.3089  1.0000</r>
       <r>   6.3101  1.0000</r>
       <r>   6.4963  1.0000</r>
       <r>   6.4974  1.0000</r>
       <r>   6.9112  0.0018</r>
       <r>   6.9124  0.0011</r>
       <r>   6.9162  0.0001</r>
       <r>   6.9173  0.0001</r>
       <r>   7.1668  0.0000</r>
       <r>   7.1676  0.0000</r>
       <r>   7.6229  0.0000</r>
       <r>   7.7732  0.0000</r>
       <r>   7.8257  0.0000</r>
       <r>   7.8267  0.0000</r>
       <r>   8.2218  0.0000</r>
       <r>   8.2241  0.0000</r>
       <r>   8.4843  0.0000</r>
       <r>   8.4852  0.0000</r>
       <r>   8.8577  0.0000</r>
       <r>   8.8588  0.0000</r>
       <r>   9.0530  0.0000</r>
       <r>   9.0554  0.0000</r>
       <r>   9.1618  0.0000</r>
       <r>   9.1636  0.0000</r>
       <r>   9.5221  0.0000</r>
       <r>   9.5232  0.0000</r>
       <r>   9.7680  0.0000</r>
       <r>   9.7723  0.0000</r>
       <r>   9.7791  0.0000</r>
      </set>
      <set comment="kpoint 23">
       <r>  -2.9879  1.0000</r>
       <r>  -2.2931  1.0000</r>
       <r>  -2.2908  1.0000</r>
       <r>  -1.6001  1.0000</r>
       <r>  -1.5982  1.0000</r>
       <r>  -0.9105  1.0000</r>
       <r>  -0.9083  1.0000</r>
       <r>  -0.2232  1.0000</r>
       <r>  -0.2223  1.0000</r>
       <r>   0.4582  1.0000</r>
       <r>   0.4604  1.0000</r>
       <r>   0.4609  1.0000</r>
       <r>   0.4631  1.0000</r>
       <r>   1.1400  1.0000</r>
       <r>   1.1412  1.0000</r>
       <r>   1.1429  1.0000</r>
       <r>   1.8180  1.0000</r>
       <r>   1.8203  1.0000</r>
       <r>   2.4810  1.0000</r>
       <r>   2.4820  1.0000</r>
       <r>   2.4935  1.0000</r>
       <r>   2.4946  1.0000</r>
       <r>   3.1518  1.0000</r>
       <r>   3.1541  1.0000</r>
       <r>   3.1656  1.0000</r>
       <r>   3.1678  1.0000</r>
       <r>   3.7827  1.0000</r>
       <r>   3.8214  1.0000</r>
       <r>   3.8225  1.0000</r>
       <r>   3.8349  1.0000</r>
       <r>   3.8376  1.0000</r>
       <r>   3.8387  1.0000</r>
       <r>   4.4449  1.0000</r>
       <r>   4.4472  1.0000</r>
       <r>   4.4876  1.0000</r>
       <r>   4.4899  1.0000</r>
       <r>   5.1076  1.0000</r>
       <r>   5.1515  1.0000</r>
       <r>   5.1526  1.0000</r>
       <r>   5.1687  1.0000</r>
       <r>   5.8110  1.0000</r>
       <r>   5.8121  1.0000</r>
       <r>   5.8136  1.0000</r>
       <r>   5.8157  1.0000</r>
       <r>   6.4913  1.0000</r>
       <r>   6.6636  1.0000</r>
       <r>   7.0773  0.0000</r>
       <r>   7.0797  0.0000</r>
       <r>   7.1294  0.0000</r>
       <r>   7.1304  0.0000</r>
       <r>   7.3298  0.0000</r>
       <r>   7.3319  0.0000</r>
       <r>   7.7326  0.0000</r>
       <r>   7.7340  0.0000</r>
       <r>   7.7667  0.0000</r>
       <r>   7.9371  0.0000</r>
       <r>   7.9382  0.0000</r>
       <r>   7.9921  0.0000</r>
       <r>   8.4372  0.0000</r>
       <r>   8.4382  0.0000</r>
       <r>   8.5945  0.0000</r>
       <r>   8.5955  0.0000</r>
       <r>   9.0204  0.0000</r>
       <r>   9.0217  0.0000</r>
       <r>   9.0693  0.0000</r>
       <r>   9.2464  0.0000</r>
       <r>   9.2475  0.0000</r>
       <r>   9.6671  0.0000</r>
       <r>   9.6695  0.0000</r>
       <r>   9.8963  0.0000</r>
       <r>   9.9128  0.0000</r>
       <r>   9.9296  0.0000</r>
      </set>
      <set comment="kpoint 24">
       <r>  -2.6989  1.0000</r>
       <r>  -2.6962  1.0000</r>
       <r>  -2.0043  1.0000</r>
       <r>  -2.0016  1.0000</r>
       <r>  -1.3127  1.0000</r>
       <r>  -1.3101  1.0000</r>
       <r>  -0.6243  1.0000</r>
       <r>  -0.6216  1.0000</r>
       <r>   0.0612  1.0000</r>
       <r>   0.0638  1.0000</r>
       <r>   0.7427  1.0000</r>
       <r>   0.7439  1.0000</r>
       <r>   0.7454  1.0000</r>
       <r>   0.7466  1.0000</r>
       <r>   1.4203  1.0000</r>
       <r>   1.4218  1.0000</r>
[...]
       <r>   5.9898  1.0000</r>
       <r>   6.6701  1.0000</r>
       <r>   6.6701  1.0000</r>
       <r>   6.6881  1.0000</r>
       <r>   6.6881  1.0000</r>
       <r>   6.7043  1.0000</r>
       <r>   6.7047  1.0000</r>
       <r>   6.7077  1.0000</r>
       <r>   6.7080  1.0000</r>
       <r>   8.1538  0.0000</r>
       <r>   8.1564  0.0000</r>
       <r>   8.1572  0.0000</r>
       <r>   8.1599  0.0000</r>
       <r>   8.6483  0.0000</r>
       <r>   8.6486  0.0000</r>
       <r>   8.6517  0.0000</r>
       <r>   8.6519  0.0000</r>
       <r>   8.8080  0.0000</r>
       <r>   8.8080  0.0000</r>
       <r>   9.2958  0.0000</r>
       <r>   9.2959  0.0000</r>
       <r>   9.4522  0.0000</r>
       <r>   9.4527  0.0000</r>
       <r>   9.4570  0.0000</r>
       <r>   9.4574  0.0000</r>
       <r>   9.9156  0.0000</r>
       <r>   9.9157  0.0000</r>
       <r>  10.1067  0.0000</r>
       <r>  10.1085  0.0000</r>
      </set>
      <set comment="kpoint 34">
       <r>  -2.6975  1.0000</r>
       <r>  -2.6975  1.0000</r>
       <r>  -2.0030  1.0000</r>
       <r>  -2.0029  1.0000</r>
       <r>  -1.3114  1.0000</r>
       <r>  -1.3114  1.0000</r>
       <r>  -0.6230  1.0000</r>
       <r>  -0.6230  1.0000</r>
       <r>   0.0625  1.0000</r>
       <r>   0.0625  1.0000</r>
       <r>   0.7436  1.0000</r>
       <r>   0.7442  1.0000</r>
       <r>   0.7451  1.0000</r>
       <r>   0.7457  1.0000</r>
       <r>   1.4210  1.0000</r>
       <r>   1.4210  1.0000</r>
       <r>   2.0975  1.0000</r>
       <r>   2.0976  1.0000</r>
       <r>   2.1008  1.0000</r>
       <r>   2.1008  1.0000</r>
       <r>   2.7616  1.0000</r>
       <r>   2.7616  1.0000</r>
       <r>   2.7715  1.0000</r>
       <r>   2.7715  1.0000</r>
       <r>   3.4210  1.0000</r>
       <r>   3.4211  1.0000</r>
       <r>   3.4684  1.0000</r>
       <r>   3.4684  1.0000</r>
       <r>   4.0594  1.0000</r>
       <r>   4.0594  1.0000</r>
       <r>   4.0949  1.0000</r>
       <r>   4.0949  1.0000</r>
       <r>   4.1162  1.0000</r>
       <r>   4.1162  1.0000</r>
       <r>   4.7219  1.0000</r>
       <r>   4.7219  1.0000</r>
       <r>   4.7756  1.0000</r>
       <r>   4.7757  1.0000</r>
       <r>   4.7780  1.0000</r>
       <r>   4.7781  1.0000</r>
       <r>   5.4282  1.0000</r>
       <r>   5.4282  1.0000</r>
       <r>   6.1018  1.0000</r>
       <r>   6.1018  1.0000</r>
       <r>   6.7367  1.0000</r>
       <r>   6.7367  1.0000</r>
       <r>   6.9473  0.0000</r>
       <r>   6.9473  0.0000</r>
       <r>   7.3516  0.0000</r>
       <r>   7.3516  0.0000</r>
       <r>   7.4174  0.0000</r>
       <r>   7.4174  0.0000</r>
       <r>   7.6069  0.0000</r>
       <r>   7.6069  0.0000</r>
       <r>   7.9968  0.0000</r>
       <r>   7.9968  0.0000</r>
       <r>   8.0523  0.0000</r>
       <r>   8.0523  0.0000</r>
       <r>   8.2171  0.0000</r>
       <r>   8.2171  0.0000</r>
       <r>   8.6527  0.0000</r>
       <r>   8.6527  0.0000</r>
       <r>   9.2871  0.0000</r>
       <r>   9.2871  0.0000</r>
       <r>   9.3536  0.0000</r>
       <r>   9.3536  0.0000</r>
       <r>   9.5114  0.0000</r>
       <r>   9.5114  0.0000</r>
       <r>   9.5187  0.0000</r>
       <r>   9.5187  0.0000</r>
       <r>  10.1311  0.0000</r>
       <r>  10.1322  0.0000</r>
      </set>
      <set comment="kpoint 35">
       <r>  -2.5236  1.0000</r>
       <r>  -2.5236  1.0000</r>
       <r>  -1.8319  1.0000</r>
       <r>  -1.8300  1.0000</r>
       <r>  -1.8296  1.0000</r>
       <r>  -1.8278  1.0000</r>
       <r>  -1.1391  1.0000</r>
       <r>  -1.1391  1.0000</r>
       <r>   0.9123  1.0000</r>
       <r>   0.9142  1.0000</r>
       <r>   0.9146  1.0000</r>
       <r>   0.9164  1.0000</r>
       <r>   1.5894  1.0000</r>
       <r>   1.5902  1.0000</r>
       <r>   1.5929  1.0000</r>
       <r>   1.5932  1.0000</r>
       <r>   1.5936  1.0000</r>
       <r>   1.5948  1.0000</r>
       <r>   2.2651  1.0000</r>
       <r>   2.2652  1.0000</r>
       <r>   2.2674  1.0000</r>
       <r>   2.2675  1.0000</r>
       <r>   2.9283  1.0000</r>
       <r>   2.9292  1.0000</r>
       <r>   2.9296  1.0000</r>
       <r>   2.9302  1.0000</r>
       <r>   2.9394  1.0000</r>
       <r>   2.9397  1.0000</r>
       <r>   3.5971  1.0000</r>
       <r>   3.5990  1.0000</r>
       <r>   3.5994  1.0000</r>
       <r>   3.6013  1.0000</r>
       <r>   4.2811  1.0000</r>
       <r>   4.2811  1.0000</r>
       <r>   4.9408  1.0000</r>
       <r>   4.9409  1.0000</r>
       <r>   4.9431  1.0000</r>
       <r>   4.9432  1.0000</r>
       <r>   5.6047  1.0000</r>
       <r>   5.6054  1.0000</r>
       <r>   5.6059  1.0000</r>
       <r>   5.6066  1.0000</r>
       <r>   6.2514  1.0000</r>
       <r>   6.2523  1.0000</r>
       <r>   6.2523  1.0000</r>
       <r>   6.2533  1.0000</r>
       <r>   6.9040  0.0291</r>
       <r>   6.9048  0.0227</r>
       <r>   6.9052  0.0198</r>
       <r>   6.9059  0.0152</r>
       <r>   7.5604  0.0000</r>
       <r>   7.5605  0.0000</r>
       <r>   7.5627  0.0000</r>
       <r>   7.5628  0.0000</r>
       <r>   8.2004  0.0000</r>
       <r>   8.2005  0.0000</r>
       <r>   8.2333  0.0000</r>
       <r>   8.2333  0.0000</r>
       <r>   8.3772  0.0000</r>
       <r>   8.3779  0.0000</r>
       <r>   8.3783  0.0000</r>
       <r>   8.3790  0.0000</r>
       <r>   9.0310  0.0000</r>
       <r>   9.0319  0.0000</r>
       <r>   9.0320  0.0000</r>
       <r>   9.0329  0.0000</r>
       <r>   9.6712  0.0000</r>
       <r>   9.6712  0.0000</r>
       <r>  10.1596  0.0000</r>
       <r>  10.1606  0.0000</r>
       <r>  10.1611  0.0000</r>
       <r>  10.1616  0.0000</r>
      </set>
      <set comment="kpoint 36">
       <r>  -2.2366  1.0000</r>
       <r>  -2.2344  1.0000</r>
       <r>  -2.2339  1.0000</r>
       <r>  -2.2317  1.0000</r>
       <r>  -1.5441  1.0000</r>
       <r>  -1.5419  1.0000</r>
       <r>  -1.5414  1.0000</r>
       <r>  -1.5392  1.0000</r>
       <r>   1.1951  1.0000</r>
       <r>   1.1974  1.0000</r>
       <r>   1.1978  1.0000</r>
       <r>   1.2000  1.0000</r>
       <r>   1.8684  1.0000</r>
       <r>   1.8705  1.0000</r>
       <r>   1.8721  1.0000</r>
       <r>   1.8723  1.0000</r>
       <r>   1.8724  1.0000</r>
       <r>   1.8726  1.0000</r>
       <r>   1.8742  1.0000</r>
       <r>   1.8763  1.0000</r>
       <r>   2.5431  1.0000</r>
       <r>   2.5452  1.0000</r>
       <r>   2.5468  1.0000</r>
       <r>   2.5471  1.0000</r>
       <r>   2.5471  1.0000</r>
       <r>   2.5474  1.0000</r>
       <r>   2.5490  1.0000</r>
       <r>   2.5510  1.0000</r>
       <r>   3.2063  1.0000</r>
       <r>   3.2085  1.0000</r>
       <r>   3.2090  1.0000</r>
       <r>   3.2113  1.0000</r>
       <r>   5.2148  1.0000</r>
       <r>   5.2169  1.0000</r>
       <r>   5.2185  1.0000</r>
       <r>   5.2188  1.0000</r>
       <r>   5.2189  1.0000</r>
       <r>   5.2191  1.0000</r>
       <r>   5.2207  1.0000</r>
       <r>   5.2228  1.0000</r>
       <r>   5.8747  1.0000</r>
       <r>   5.8757  1.0000</r>
       <r>   5.8762  1.0000</r>
       <r>   5.8772  1.0000</r>
       <r>   6.5349  1.0000</r>
       <r>   6.5359  1.0000</r>
       <r>   6.5364  1.0000</r>
       <r>   6.5374  1.0000</r>
       <r>   7.1748  0.0000</r>
       <r>   7.1771  0.0000</r>
       <r>   7.1787  0.0000</r>
       <r>   7.1789  0.0000</r>
       <r>   7.1790  0.0000</r>
       <r>   7.1792  0.0000</r>
       <r>   7.1809  0.0000</r>
       <r>   7.1832  0.0000</r>
       <r>   8.6487  0.0000</r>
       <r>   8.6508  0.0000</r>
       <r>   8.6513  0.0000</r>
       <r>   8.6535  0.0000</r>
       <r>   9.1490  0.0000</r>
       <r>   9.1500  0.0000</r>
       <r>   9.1506  0.0000</r>
       <r>   9.1516  0.0000</r>
       <r>   9.9385  0.0000</r>
       <r>   9.9393  0.0000</r>
       <r>   9.9398  0.0000</r>
       <r>   9.9407  0.0000</r>
       <r>   9.9409  0.0000</r>
       <r>   9.9418  0.0000</r>
       <r>   9.9423  0.0000</r>
       <r>   9.9431  0.0000</r>
      </set>
      <set comment="kpoint 37">
       <r>  -2.4657  1.0000</r>
       <r>  -2.4657  1.0000</r>
       <r>  -2.4657  1.0000</r>
       <r>  -2.4657  1.0000</r>
       <r>  -0.3992  1.0000</r>
       <r>  -0.3947  1.0000</r>
       <r>  -0.3947  1.0000</r>
       <r>  -0.3941  1.0000</r>
       <r>  -0.3940  1.0000</r>
       <r>  -0.3935  1.0000</r>
       <r>  -0.3935  1.0000</r>
       <r>  -0.3890  1.0000</r>
       <r>   1.6469  1.0000</r>
       <r>   1.6469  1.0000</r>
       <r>   1.6469  1.0000</r>
       <r>   1.6469  1.0000</r>
       <r>   1.6469  1.0000</r>
       <r>   1.6469  1.0000</r>
       <r>   1.6469  1.0000</r>
       <r>   1.6469  1.0000</r>
       <r>   3.6461  1.0000</r>
       <r>   3.6461  1.0000</r>
       <r>   3.6472  1.0000</r>
       <r>   3.6477  1.0000</r>
       <r>   3.6477  1.0000</r>
       <r>   3.6477  1.0000</r>
       <r>   3.6490  1.0000</r>
       <r>   3.6490  1.0000</r>
       <r>   3.6832  1.0000</r>
       <r>   3.6832  1.0000</r>
       <r>   3.6845  1.0000</r>
       <r>   3.6845  1.0000</r>
       <r>   3.6845  1.0000</r>
       <r>   3.6850  1.0000</r>
       <r>   3.6860  1.0000</r>
       <r>   3.6860  1.0000</r>
       <r>   5.1792  1.0000</r>
       <r>   5.1792  1.0000</r>
       <r>   5.1792  1.0000</r>
       <r>   5.1793  1.0000</r>
       <r>   5.6546  1.0000</r>
       <r>   5.6546  1.0000</r>
       <r>   5.6546  1.0000</r>
       <r>   5.6546  1.0000</r>
       <r>   6.2761  1.0000</r>
       <r>   6.2761  1.0000</r>
       <r>   6.2761  1.0000</r>
       <r>   6.2761  1.0000</r>
       <r>   7.6289  0.0000</r>
       <r>   7.6289  0.0000</r>
       <r>   7.6296  0.0000</r>
       <r>   7.6302  0.0000</r>
       <r>   7.6319  0.0000</r>
       <r>   7.6325  0.0000</r>
       <r>   7.6332  0.0000</r>
       <r>   7.6332  0.0000</r>
       <r>   9.0783  0.0000</r>
       <r>   9.0783  0.0000</r>
       <r>   9.0783  0.0000</r>
       <r>   9.0783  0.0000</r>
       <r>   9.0783  0.0000</r>
       <r>   9.0783  0.0000</r>
       <r>   9.0783  0.0000</r>
       <r>   9.0784  0.0000</r>
       <r>   9.7195  0.0000</r>
       <r>   9.7195  0.0000</r>
       <r>   9.7195  0.0000</r>
       <r>   9.7195  0.0000</r>
       <r>   9.7195  0.0000</r>
       <r>   9.7195  0.0000</r>
       <r>   9.7195  0.0000</r>
       <r>   9.7195  0.0000</r>
      </set>
      <set comment="kpoint 38">
       <r>  -2.4078  1.0000</r>
       <r>  -2.4077  1.0000</r>
       <r>  -2.4077  1.0000</r>
       <r>  -2.4077  1.0000</r>
       <r>  -1.0242  1.0000</r>
       <r>  -1.0242  1.0000</r>
       <r>  -1.0242  1.0000</r>
       <r>  -1.0242  1.0000</r>
       <r>   0.3472  1.0000</r>
       <r>   0.3472  1.0000</r>
       <r>   0.3472  1.0000</r>
       <r>   0.3472  1.0000</r>
       <r>   1.7033  1.0000</r>
       <r>   1.7033  1.0000</r>
       <r>   1.7033  1.0000</r>
       <r>   1.7033  1.0000</r>
       <r>   1.7033  1.0000</r>
       <r>   1.7033  1.0000</r>
       <r>   1.7033  1.0000</r>
       <r>   1.7033  1.0000</r>
       <r>   3.0513  1.0000</r>
       <r>   3.0513  1.0000</r>
       <r>   3.0514  1.0000</r>
       <r>   3.0514  1.0000</r>
       <r>   3.0514  1.0000</r>
       <r>   3.0514  1.0000</r>
       <r>   3.0514  1.0000</r>
       <r>   3.0514  1.0000</r>
       <r>   4.3356  1.0000</r>
       <r>   4.3356  1.0000</r>
       <r>   4.3357  1.0000</r>
       <r>   4.3357  1.0000</r>
       <r>   4.3894  1.0000</r>
       <r>   4.3894  1.0000</r>
       <r>   4.3894  1.0000</r>
       <r>   4.3894  1.0000</r>
       <r>   4.3894  1.0000</r>
       <r>   4.3894  1.0000</r>
       <r>   4.3894  1.0000</r>
       <r>   4.3894  1.0000</r>
       <r>   5.7104  1.0000</r>
       <r>   5.7104  1.0000</r>
       <r>   5.7104  1.0000</r>
       <r>   5.7105  1.0000</r>
       <r>   7.0297  0.0000</r>
       <r>   7.0297  0.0000</r>
       <r>   7.0297  0.0000</r>
       <r>   7.0297  0.0000</r>
       <r>   7.2204  0.0000</r>
       <r>   7.2205  0.0000</r>
       <r>   7.2205  0.0000</r>
       <r>   7.2205  0.0000</r>
       <r>   8.2723  0.0000</r>
       <r>   8.2723  0.0000</r>
       <r>   8.2724  0.0000</r>
       <r>   8.2724  0.0000</r>
       <r>   8.2724  0.0000</r>
       <r>   8.2725  0.0000</r>
       <r>   8.2725  0.0000</r>
       <r>   8.2725  0.0000</r>
       <r>   8.3386  0.0000</r>
       <r>   8.3387  0.0000</r>
       <r>   8.3387  0.0000</r>
       <r>   8.3387  0.0000</r>
       <r>   9.7781  0.0000</r>
       <r>   9.7781  0.0000</r>
       <r>   9.7782  0.0000</r>
       <r>   9.7782  0.0000</r>
       <r>   9.7782  0.0000</r>
       <r>   9.7782  0.0000</r>
       <r>   9.7784  0.0000</r>
       <r>   9.7784  0.0000</r>
      </set>
      <set comment="kpoint 39">
       <r>  -2.2342  1.0000</r>
       <r>  -2.2342  1.0000</r>
       <r>  -2.2342  1.0000</r>
       <r>  -2.2342  1.0000</r>
       <r>  -1.5417  1.0000</r>
       <r>  -1.5417  1.0000</r>
       <r>  -1.5417  1.0000</r>
       <r>  -1.5416  1.0000</r>
       <r>   1.1976  1.0000</r>
       <r>   1.1976  1.0000</r>
       <r>   1.1976  1.0000</r>
       <r>   1.1976  1.0000</r>
       <r>   1.8723  1.0000</r>
       <r>   1.8723  1.0000</r>
       <r>   1.8723  1.0000</r>
       <r>   1.8723  1.0000</r>
       <r>   1.8724  1.0000</r>
       <r>   1.8724  1.0000</r>
       <r>   1.8724  1.0000</r>
       <r>   1.8724  1.0000</r>
       <r>   2.5471  1.0000</r>
       <r>   2.5471  1.0000</r>
       <r>   2.5471  1.0000</r>
       <r>   2.5471  1.0000</r>
       <r>   2.5471  1.0000</r>
       <r>   2.5471  1.0000</r>
       <r>   2.5471  1.0000</r>
       <r>   2.5471  1.0000</r>
       <r>   3.2088  1.0000</r>
       <r>   3.2088  1.0000</r>
       <r>   3.2088  1.0000</r>
       <r>   3.2088  1.0000</r>
       <r>   5.2188  1.0000</r>
       <r>   5.2188  1.0000</r>
       <r>   5.2188  1.0000</r>
       <r>   5.2188  1.0000</r>
       <r>   5.2188  1.0000</r>
       <r>   5.2188  1.0000</r>
       <r>   5.2188  1.0000</r>
       <r>   5.2188  1.0000</r>
       <r>   5.8759  1.0000</r>
       <r>   5.8759  1.0000</r>
       <r>   5.8759  1.0000</r>
       <r>   5.8759  1.0000</r>
       <r>   6.5361  1.0000</r>
       <r>   6.5361  1.0000</r>
       <r>   6.5361  1.0000</r>
       <r>   6.5362  1.0000</r>
       <r>   7.1789  0.0000</r>
       <r>   7.1789  0.0000</r>
       <r>   7.1790  0.0000</r>
       <r>   7.1790  0.0000</r>
       <r>   7.1790  0.0000</r>
       <r>   7.1790  0.0000</r>
       <r>   7.1790  0.0000</r>
       <r>   7.1790  0.0000</r>
       <r>   8.6511  0.0000</r>
       <r>   8.6511  0.0000</r>
       <r>   8.6511  0.0000</r>
       <r>   8.6511  0.0000</r>
       <r>   9.1503  0.0000</r>
       <r>   9.1503  0.0000</r>
       <r>   9.1503  0.0000</r>
       <r>   9.1503  0.0000</r>
       <r>   9.9407  0.0000</r>
       <r>   9.9407  0.0000</r>
       <r>   9.9408  0.0000</r>
       <r>   9.9408  0.0000</r>
       <r>   9.9408  0.0000</r>
       <r>   9.9408  0.0000</r>
       <r>   9.9409  0.0000</r>
       <r>   9.9409  0.0000</r>
      </set>
      <set comment="kpoint 40">
       <r>  -1.9498  1.0000</r>
       <r>  -1.9457  1.0000</r>
       <r>  -1.9457  1.0000</r>
       <r>  -1.9453  1.0000</r>
       <r>  -1.9452  1.0000</r>
       <r>  -1.9449  1.0000</r>
       <r>  -1.9449  1.0000</r>
       <r>  -1.9408  1.0000</r>
       <r>   2.1437  1.0000</r>
       <r>   2.1500  1.0000</r>
       <r>   2.1500  1.0000</r>
       <r>   2.1531  1.0000</r>
       <r>   2.1533  1.0000</r>
       <r>   2.1533  1.0000</r>
       <r>   2.1537  1.0000</r>
       <r>   2.1537  1.0000</r>
       <r>   2.1538  1.0000</r>
       <r>   2.1538  1.0000</r>
       <r>   2.1538  1.0000</r>
       <r>   2.1538  1.0000</r>
       <r>   2.1538  1.0000</r>
       <r>   2.1538  1.0000</r>
       <r>   2.1538  1.0000</r>
       <r>   2.1538  1.0000</r>
       <r>   2.1539  1.0000</r>
       <r>   2.1539  1.0000</r>
       <r>   2.1543  1.0000</r>
       <r>   2.1543  1.0000</r>
       <r>   2.1545  1.0000</r>
       <r>   2.1576  1.0000</r>
       <r>   2.1576  1.0000</r>
       <r>   2.1639  1.0000</r>
       <r>   6.1457  1.0000</r>
       <r>   6.1457  1.0000</r>
       <r>   6.1472  1.0000</r>
       <r>   6.1494  1.0000</r>
       <r>   6.1507  1.0000</r>
       <r>   6.1510  1.0000</r>
       <r>   6.1511  1.0000</r>
       <r>   6.1511  1.0000</r>
       <r>   6.1513  1.0000</r>
       <r>   6.1513  1.0000</r>
       <r>   6.1513  1.0000</r>
       <r>   6.1513  1.0000</r>
       <r>   6.1513  1.0000</r>
       <r>   6.1513  1.0000</r>
       <r>   6.1513  1.0000</r>
       <r>   6.1514  1.0000</r>
       <r>   6.1516  1.0000</r>
       <r>   6.1516  1.0000</r>
       <r>   6.1516  1.0000</r>
       <r>   6.1520  1.0000</r>
       <r>   6.1532  1.0000</r>
       <r>   6.1554  1.0000</r>
       <r>   6.1569  1.0000</r>
       <r>   6.1569  1.0000</r>
       <r>  10.0609  0.0000</r>
       <r>  10.0611  0.0000</r>
       <r>  10.0612  0.0000</r>
       <r>  10.0617  0.0000</r>
       <r>  10.0630  0.0000</r>
       <r>  10.0637  0.0000</r>
       <r>  10.0637  0.0000</r>
       <r>  10.0640  0.0000</r>
       <r>  10.2066  0.0000</r>
       <r>  10.2082  0.0000</r>
       <r>  10.2086  0.0000</r>
       <r>  10.2097  0.0000</r>
       <r>  10.2100  0.0000</r>
       <r>  10.2102  0.0000</r>
       <r>  10.2107  0.0000</r>
       <r>  10.2112  0.0000</r>
      </set>
     </set>
    </set>
   </array>
  </eigenvalues>
 </calculation>
 <structure name="finalpos" >
  <crystal>
   <varray name="basis" >
    <v>       8.39759725      0.00000000      0.00000000</v>
    <v>       0.00000000      8.39759725      0.00000000</v>
    <v>       0.00000000      0.00000000      8.39759725</v>
   </varray>
   <i name="volume">    592.19553112</i>
   <varray name="rec_basis" >
    <v>       0.11908168      0.00000000      0.00000000</v>
    <v>       0.00000000      0.11908168      0.00000000</v>
    <v>       0.00000000      0.00000000      0.11908168</v>
   </varray>
  </crystal>
  <varray name="positions" >
   <v>       0.25119082      0.25000000      0.00000000</v>
   <v>       0.75000000      0.25000000      0.00000000</v>
   <v>       0.25000000      0.75000000      0.00000000</v>
   <v>       0.75000000      0.75000000      0.00000000</v>
   <v>       0.25000000      0.25000000      0.50000000</v>
   <v>       0.75000000      0.25000000      0.50000000</v>
   <v>       0.25000000      0.75000000      0.50000000</v>
   <v>       0.75000000      0.75000000      0.50000000</v>
   <v>       0.25000000      0.00000000      0.25000000</v>
   <v>       0.75000000      0.00000000      0.25000000</v>
   <v>       0.25000000      0.50000000      0.25000000</v>
   <v>       0.75000000      0.50000000      0.25000000</v>
   <v>       0.25000000      0.00000000      0.75000000</v>
   <v>       0.75000000      0.00000000      0.75000000</v>
   <v>       0.25000000      0.50000000      0.75000000</v>
   <v>       0.75000000      0.50000000      0.75000000</v>
   <v>       0.00000000      0.25000000      0.25000000</v>
   <v>       0.50000000      0.25000000      0.25000000</v>
   <v>       0.00000000      0.75000000      0.25000000</v>
   <v>       0.50000000      0.75000000      0.25000000</v>
   <v>       0.00000000      0.25000000      0.75000000</v>
   <v>       0.50000000      0.25000000      0.75000000</v>
   <v>       0.00000000      0.75000000      0.75000000</v>
   <v>       0.50000000      0.75000000      0.75000000</v>
   <v>       0.00000000      0.00000000      0.00000000</v>
   <v>       0.50000000      0.00000000      0.00000000</v>
   <v>       0.00000000      0.50000000      0.00000000</v>
   <v>       0.50000000      0.50000000      0.00000000</v>
   <v>       0.00000000      0.00000000      0.50000000</v>
   <v>       0.50000000      0.00000000      0.50000000</v>
   <v>       0.00000000      0.50000000      0.50000000</v>
   <v>       0.50000000      0.50000000      0.50000000</v>
  </varray>
 </structure>
</modeling>
