   32   32    1    1
  0.1548436E+02  0.7913120E-09  0.7913120E-09  0.7913120E-09  0.5000000E-15
  1.000000000000000E-004
  CAR 
 unknown system                          
   96   40   72
 
  0.0000000E+00  0.0000000E+00  0.0000000E+00  0.4629630E-02
   1       -2.9021
   2       -0.5633
   3       -0.5594
   4       -0.5594
   5       -0.5594
   6       -0.5594
   7       -0.5555
   8        1.7358
   9        1.7402
  10        1.7402
  11        1.7420
  12        1.7422
  13        1.7422
  14        1.7422
  15        1.7422
  16        1.7424
  17        1.7442
  18        1.7442
  19        1.7486
  20        3.8296
  21        3.8296
  22        3.8296
  23        3.8296
  24        4.2110
  25        4.2110
  26        4.2111
  27        4.2111
  28        5.6011
  29        5.6011
  30        5.6011
  31        7.0599
  32        7.0600
  33        7.0600
  34        7.7473
  35        7.7473
  36        7.7518
  37        7.7518
  38        7.7520
  39        7.7520
  40        7.7520
  41        7.7521
  42        7.7522
  43        7.7522
  44        7.7567
  45        7.7567
  46        8.7296
  47        8.7340
  48        8.7340
  49        8.7340
  50        8.7340
  51        8.7384
  52        9.9084
  53        9.9084
  54        9.9099
  55        9.9125
  56        9.9126
  57        9.9126
  58        9.9126
  59        9.9127
  60        9.9128
  61        9.9154
  62        9.9169
  63        9.9169
  64       10.1477
  65       10.1489
  66       10.1489
  67       10.1489
  68       10.1489
  69       10.1501
  70       11.6256
  71       11.6279
  72       11.6288
 
  0.1666667E+00  0.0000000E+00  0.0000000E+00  0.9259259E-02
   1       -2.8364
   2       -1.2707
   3       -0.4949
   4       -0.4949
   5       -0.4949
   6       -0.4949
   7        0.2759
   8        1.0434
   9        1.0434
  10        1.0434
  11        1.0434
  12        1.8055
  13        1.8055
  14        1.8055
  15        1.8055
  16        2.5626
  17        2.5626
  18        2.5626
  19        2.5626
  20        3.3058
  21        3.3058
  22        3.3058
  23        3.3058
  24        4.7241
  25        4.8556
  26        4.8556
  27        4.8557
  28        4.8557
  29        5.6607
  30        5.6607
  31        6.8991
  32        6.8991
  33        6.8991
  34        6.8991
  35        7.0938
  36        7.0938
  37        7.1220
  38        7.1221
  39        7.8119
  40        7.8119
  41        7.8119
  42        7.8119
  43        8.0491
  44        8.4666
  45        8.4666
  46        8.5309
  47        8.5309
  48        9.1310
  49        9.1310
  50        9.1310
  51        9.1311
  52        9.2204
  53        9.2204
  54        9.2205
  55        9.2205
  56        9.2518
  57        9.2518
  58        9.2519
  59        9.2519
  60       10.5274
  61       10.5274
  62       10.6881
  63       10.6881
  64       10.6886
  65       10.6886
  66       10.6943
  67       10.6943
  68       10.6948
  69       10.6948
  70       10.9585
  71       10.9585
  72       10.9585
 
  0.3333333E+00  0.0000000E+00  0.0000000E+00  0.9259259E-02
   1       -2.6397
   2       -1.8556
   3       -0.3017
   4       -0.3016
   5       -0.3016
   6       -0.3016
   7        0.4686
   8        0.4686
   9        0.4686
  10        0.4686
  11        1.2322
  12        1.9953
  13        1.9953
  14        1.9953
  15        1.9954
  16        2.7499
  17        2.7499
  18        2.7499
  19        2.7499
  20        3.4816
  21        3.5009
  22        3.5009
  23        3.5009
  24        3.5009
  25        5.6985
  26        5.6985
  27        5.6985
  28        5.6985
  29        5.7730
  30        5.7730
  31        5.7730
  32        5.7730
  33        5.8396
  34        5.8396
  35        6.5558
  36        6.5558
  37        7.3068
  38        7.3068
  39        7.9472
  40        7.9472
  41        7.9472
  42        7.9473
  43        7.9917
  44        7.9918
  45        7.9919
  46        7.9919
  47        8.0128
  48        8.0129
  49        8.7115
  50        8.7115
  51        8.7115
  52        8.7115
  53        9.4306
  54        9.4306
  55        9.5889
  56        9.5889
  57        9.5889
  58        9.5889
  59        9.6277
  60       10.3985
  61       10.3985
  62       10.3985
  63       10.3985
  64       11.3105
  65       11.3105
  66       11.5904
  67       11.5904
  68       11.5966
  69       11.5966
  70       11.5969
  71       11.5969
  72       12.0387
 
  0.5000000E+00  0.0000000E+00  0.0000000E+00  0.4629630E-02
   1       -2.3139
   2       -2.3109
   3        0.0157
   4        0.0190
   5        0.0190
   6        0.0198
   7        0.0199
   8        0.0207
   9        0.0207
  10        0.0240
  11        2.3020
  12        2.3043
  13        2.3091
  14        2.3095
  15        2.3095
  16        2.3103
  17        2.3113
  18        2.3121
  19        2.3121
  20        2.3147
  21        4.5499
  22        4.5499
  23        4.5503
  24        4.5506
  25        4.5508
  26        4.5512
  27        4.5515
  28        4.5515
  29        6.1362
  30        6.1362
  31        6.1395
  32        6.1395
  33        6.8091
  34        6.8091
  35        6.8095
  36        6.8100
  37        6.8100
  38        6.8106
  39        6.8110
  40        6.8110
  41        7.6068
  42        7.6080
  43        7.6097
  44        7.6109
  45        8.2891
  46        8.2891
  47        8.2900
  48        8.2915
  49        8.2916
  50        8.2931
  51        8.2940
  52        8.2940
  53        9.9455
  54        9.9464
  55        9.9464
  56        9.9466
  57        9.9489
  58        9.9491
  59        9.9491
  60        9.9500
  61       10.4500
  62       10.4500
  63       10.4521
  64       10.4521
  65       11.3644
  66       11.3655
  67       12.2451
  68       12.2453
  69       12.2471
  70       12.2473
  71       12.6194
  72       12.6207
 
  0.0000000E+00  0.1666667E+00  0.0000000E+00  0.1851852E-01
   1       -2.8364
   2       -1.2707
   3       -0.4979
   4       -0.4949
   5       -0.4949
   6       -0.4919
   7        0.2759
   8        1.0403
   9        1.0434
  10        1.0434
  11        1.0464
  12        1.8034
  13        1.8043
  14        1.8068
  15        1.8077
  16        2.5595
  17        2.5626
  18        2.5626
  19        2.5657
  20        3.3037
  21        3.3046
  22        3.3070
  23        3.3079
  24        4.7241
  25        4.8535
  26        4.8544
  27        4.8569
  28        4.8578
  29        5.6607
  30        5.6607
  31        6.8958
  32        6.8991
  33        6.8991
  34        6.9024
  35        7.0937
  36        7.0938
  37        7.1220
  38        7.1221
  39        7.8091
  40        7.8119
  41        7.8120
  42        7.8148
  43        8.0491
  44        8.4666
  45        8.4666
  46        8.5309
  47        8.5309
  48        9.1285
  49        9.1298
  50        9.1323
  51        9.1336
  52        9.2176
  53        9.2205
  54        9.2205
  55        9.2232
  56        9.2489
  57        9.2518
  58        9.2519
  59        9.2547
  60       10.5274
  61       10.5274
  62       10.6869
  63       10.6877
  64       10.6886
  65       10.6901
  66       10.6919
  67       10.6943
  68       10.6946
  69       10.6975
  70       10.9565
  71       10.9585
  72       10.9593
 
  0.1666667E+00  0.1666667E+00  0.0000000E+00  0.3703704E-01
   1       -2.7708
   2       -1.2071
   3       -1.2046
   4       -0.4305
   5       -0.4305
   6        0.3383
   7        0.3403
   8        0.3421
   9        1.1053
  10        1.1063
  11        1.1079
  12        1.1088
  13        1.8680
  14        1.8689
  15        2.6226
  16        2.6237
  17        2.6250
  18        2.6251
  19        2.6265
  20        2.6278
  21        3.3772
  22        3.9505
  23        3.9505
  24        4.3385
  25        4.3385
  26        4.7849
  27        4.7857
  28        5.6511
  29        5.6511
  30        5.7203
  31        6.2423
  32        6.2448
  33        6.8178
  34        6.8178
  35        7.1422
  36        7.1424
  37        7.1523
  38        7.1551
  39        7.1834
  40        7.6298
  41        7.6319
  42        8.1086
  43        8.1095
  44        8.4623
  45        8.4633
  46        8.4649
  47        8.4659
  48        8.5887
  49        8.5912
  50        8.5935
  51        8.7603
  52        8.7620
  53        9.3137
  54        9.3164
  55        9.9122
  56        9.9133
  57        9.9165
  58        9.9170
  59        9.9175
  60        9.9190
  61       10.0319
  62       10.0337
  63       10.2879
  64       10.7023
  65       10.7030
  66       10.9794
  67       10.9794
  68       11.3040
  69       11.3062
  70       11.4763
  71       11.7354
  72       11.7354
 
  0.3333333E+00  0.1666667E+00  0.0000000E+00  0.3703704E-01
   1       -2.5742
   2       -1.7905
   3       -1.0116
   4       -0.2387
   5       -0.2373
   6       -0.2358
   7        0.5309
   8        0.5326
   9        0.5338
  10        1.2945
  11        1.2974
  12        1.2980
  13        1.2992
  14        2.0585
  15        2.0585
  16        2.8121
  17        2.8135
  18        2.8138
  19        3.5437
  20        3.5540
  21        3.5540
  22        3.5629
  23        3.5631
  24        4.3081
  25        4.9687
  26        5.0278
  27        5.1028
  28        5.1028
  29        5.6996
  30        5.7507
  31        5.7507
  32        5.8992
  33        6.4764
  34        6.5718
  35        6.5718
  36        6.6156
  37        7.1964
  38        7.1965
  39        7.2755
  40        7.2755
  41        7.3332
  42        7.3651
  43        7.9177
  44        7.9177
  45        7.9738
  46        8.0519
  47        8.2874
  48        8.7387
  49        8.7388
  50        8.7711
  51        8.8081
  52        8.9563
  53        8.9728
  54        9.4895
  55        9.4931
  56        9.6849
  57        9.7310
  58       10.2084
  59       10.4677
  60       10.4677
  61       10.8201
  62       10.8202
  63       10.8267
  64       10.9347
  65       11.1699
  66       11.3007
  67       11.3007
  68       11.3963
  69       11.5442
  70       11.6512
  71       12.1355
  72       12.1380
 
  0.5000000E+00  0.1666667E+00  0.0000000E+00  0.1851852E-01
   1       -2.2485
   2       -2.2456
   3       -0.6898
   4       -0.6868
   5        0.0820
   6        0.0832
   7        0.0849
   8        0.0861
   9        0.8500
  10        0.8530
  11        1.6135
  12        1.6147
  13        1.6165
  14        1.6177
  15        2.3667
  16        2.3678
  17        3.1231
  18        3.1244
  19        3.1262
  20        3.1275
  21        3.8690
  22        3.8701
  23        4.6098
  24        4.6104
  25        4.6109
  26        4.6115
  27        5.2723
  28        5.2754
  29        5.3467
  30        5.3478
  31        6.1349
  32        6.1352
  33        6.1362
  34        6.1364
  35        6.1960
  36        6.1992
  37        7.4913
  38        7.4926
  39        7.4945
  40        7.4957
  41        7.6052
  42        7.6055
  43        7.6065
  44        7.6067
  45        7.6309
  46        7.6342
  47        7.6538
  48        7.6567
  49        8.5759
  50        8.5789
  51        9.0696
  52        9.0729
  53        9.2909
  54        9.2938
  55        9.7218
  56        9.7235
  57       10.5102
  58       10.5124
  59       10.6912
  60       10.6945
  61       10.8484
  62       10.8491
  63       10.8516
  64       10.8523
  65       11.4162
  66       11.4173
  67       11.8356
  68       11.8357
  69       11.8374
  70       11.8374
  71       11.9563
  72       11.9586
 
  0.0000000E+00  0.3333333E+00  0.0000000E+00  0.1851852E-01
   1       -2.6397
   2       -1.8556
   3       -0.3047
   4       -0.3016
   5       -0.3016
   6       -0.2986
   7        0.4656
   8        0.4686
   9        0.4686
  10        0.4717
  11        1.2321
  12        1.9932
  13        1.9941
  14        1.9966
  15        1.9975
  16        2.7478
  17        2.7487
  18        2.7512
  19        2.7521
  20        3.4816
  21        3.4978
  22        3.5009
  23        3.5009
  24        3.5039
  25        5.6953
  26        5.6985
  27        5.6985
  28        5.7017
  29        5.7708
  30        5.7717
  31        5.7743
  32        5.7752
  33        5.8396
  34        5.8396
  35        6.5558
  36        6.5558
  37        7.3068
  38        7.3068
  39        7.9449
  40        7.9460
  41        7.9486
  42        7.9496
  43        7.9889
  44        7.9916
  45        7.9917
  46        7.9946
  47        8.0128
  48        8.0130
  49        8.7086
  50        8.7115
  51        8.7115
  52        8.7144
  53        9.4306
  54        9.4306
  55        9.5863
  56        9.5889
  57        9.5889
  58        9.5914
  59        9.6278
  60       10.3961
  61       10.3985
  62       10.3985
  63       10.4010
  64       11.3105
  65       11.3105
  66       11.5906
  67       11.5907
  68       11.5937
  69       11.5966
  70       11.5967
  71       11.5996
  72       12.0385
 
  0.1666667E+00  0.3333333E+00  0.0000000E+00  0.3703704E-01
   1       -2.5742
   2       -1.7905
   3       -1.0116
   4       -0.2387
   5       -0.2373
   6       -0.2358
   7        0.5309
   8        0.5326
   9        0.5338
  10        1.2947
  11        1.2969
  12        1.2980
  13        1.2996
  14        2.0585
  15        2.0585
  16        2.8114
  17        2.8135
  18        2.8145
  19        3.5437
  20        3.5541
  21        3.5542
  22        3.5628
  23        3.5629
  24        4.3080
  25        4.9687
  26        5.0278
  27        5.1028
  28        5.1028
  29        5.6996
  30        5.7507
  31        5.7507
  32        5.8992
  33        6.4764
  34        6.5718
  35        6.5718
  36        6.6156
  37        7.1965
  38        7.1965
  39        7.2755
  40        7.2755
  41        7.3331
  42        7.3651
  43        7.9177
  44        7.9177
  45        7.9738
  46        8.0519
  47        8.2874
  48        8.7388
  49        8.7388
  50        8.7710
  51        8.8081
  52        8.9562
  53        8.9729
  54        9.4903
  55        9.4923
  56        9.6849
  57        9.7310
  58       10.2084
  59       10.4677
  60       10.4677
  61       10.8202
  62       10.8202
  63       10.8265
  64       10.9347
  65       11.1698
  66       11.3007
  67       11.3007
  68       11.3963
  69       11.5442
  70       11.6512
  71       12.1355
  72       12.1363
 
  0.3333333E+00  0.3333333E+00  0.0000000E+00  0.3703704E-01
   1       -2.3778
   2       -1.5966
   3       -1.5941
   4       -0.8175
   5       -0.0444
   6       -0.0444
   7        0.7227
   8        0.7237
   9        0.7252
  10        0.7262
  11        1.4847
  12        1.4870
  13        1.4887
  14        1.4896
  15        2.2454
  16        2.2463
  17        3.7300
  18        3.7309
  19        3.7460
  20        3.7468
  21        3.7485
  22        3.7495
  23        4.3130
  24        4.3130
  25        4.4727
  26        4.4753
  27        4.7179
  28        4.7180
  29        5.2281
  30        5.7574
  31        5.7574
  32        6.0782
  33        6.1769
  34        6.1769
  35        6.7247
  36        6.7258
  37        6.7273
  38        6.7284
  39        6.7935
  40        6.7963
  41        7.3105
  42        7.3127
  43        7.4895
  44        7.4895
  45        7.5128
  46        7.5310
  47        8.5046
  48        8.5059
  49        9.1798
  50        9.6455
  51        9.6465
  52        9.6469
  53        9.6479
  54        9.6698
  55        9.6727
  56        9.6840
  57        9.8523
  58        9.8534
  59       10.3778
  60       10.3805
  61       10.3922
  62       10.3941
  63       11.7079
  64       11.7079
  65       11.7167
  66       11.7174
  67       11.7842
  68       11.7843
  69       11.8316
  70       11.8336
  71       12.0212
  72       12.0216
 
  0.5000000E+00  0.3333333E+00  0.0000000E+00  0.1851852E-01
   1       -2.0527
   2       -2.0497
   3       -1.2722
   4       -1.2692
   5        0.2744
   6        0.2756
   7        0.2774
   8        0.2786
   9        1.0414
  10        1.0426
  11        1.0444
  12        1.0456
  13        1.8018
  14        1.8048
  15        2.5555
  16        2.5567
  17        3.3080
  18        3.3091
  19        4.0394
  20        4.0425
  21        4.0464
  22        4.0478
  23        4.0494
  24        4.0508
  25        4.7838
  26        4.7845
  27        4.7848
  28        4.7855
  29        5.5915
  30        5.5916
  31        5.5927
  32        5.5928
  33        6.2471
  34        6.2481
  35        6.3069
  36        6.3078
  37        6.3098
  38        6.3108
  39        6.3751
  40        6.3783
  41        7.0923
  42        7.0955
  43        7.7220
  44        7.7243
  45        8.5184
  46        8.5187
  47        8.5197
  48        8.5200
  49        8.6836
  50        8.6844
  51        8.7559
  52        8.7587
  53        9.9703
  54        9.9736
  55       10.1128
  56       10.1159
  57       10.6651
  58       10.6653
  59       10.6666
  60       10.6667
  61       10.6911
  62       10.6932
  63       11.4142
  64       11.4164
  65       11.4291
  66       11.4323
  67       11.5606
  68       11.5614
  69       12.1331
  70       12.1365
  71       12.3356
  72       12.3386
 
  0.0000000E+00  0.5000000E+00  0.0000000E+00  0.9259259E-02
   1       -2.3124
   2       -2.3124
   3        0.0144
   4        0.0192
   5        0.0198
   6        0.0198
   7        0.0198
   8        0.0198
   9        0.0205
  10        0.0253
  11        2.3028
  12        2.3041
  13        2.3081
  14        2.3086
  15        2.3103
  16        2.3105
  17        2.3111
  18        2.3114
  19        2.3130
  20        2.3150
  21        4.5473
  22        4.5478
  23        4.5507
  24        4.5507
  25        4.5507
  26        4.5507
  27        4.5535
  28        4.5541
  29        6.1378
  30        6.1379
  31        6.1379
  32        6.1379
  33        6.8069
  34        6.8086
  35        6.8086
  36        6.8088
  37        6.8112
  38        6.8114
  39        6.8114
  40        6.8131
  41        7.6088
  42        7.6088
  43        7.6088
  44        7.6088
  45        8.2863
  46        8.2910
  47        8.2915
  48        8.2915
  49        8.2915
  50        8.2916
  51        8.2921
  52        8.2968
  53        9.9434
  54        9.9472
  55        9.9478
  56        9.9478
  57        9.9478
  58        9.9478
  59        9.9484
  60        9.9521
  61       10.4510
  62       10.4510
  63       10.4510
  64       10.4511
  65       11.3649
  66       11.3649
  67       12.2462
  68       12.2462
  69       12.2462
  70       12.2462
  71       12.6195
  72       12.6197
 
  0.1666667E+00  0.5000000E+00  0.0000000E+00  0.1851852E-01
   1       -2.2471
   2       -2.2471
   3       -0.6883
   4       -0.6883
   5        0.0840
   6        0.0841
   7        0.0841
   8        0.0841
   9        0.8515
  10        0.8515
  11        1.6156
  12        1.6156
  13        1.6156
  14        1.6156
  15        2.3672
  16        2.3672
  17        3.1253
  18        3.1253
  19        3.1253
  20        3.1253
  21        3.8696
  22        3.8696
  23        4.6106
  24        4.6106
  25        4.6106
  26        4.6106
  27        5.2739
  28        5.2739
  29        5.3472
  30        5.3472
  31        6.1356
  32        6.1357
  33        6.1357
  34        6.1357
  35        6.1976
  36        6.1976
  37        7.4935
  38        7.4936
  39        7.4936
  40        7.4936
  41        7.6059
  42        7.6060
  43        7.6060
  44        7.6060
  45        7.6325
  46        7.6327
  47        7.6553
  48        7.6553
  49        8.5774
  50        8.5774
  51        9.0713
  52        9.0713
  53        9.2923
  54        9.2923
  55        9.7226
  56        9.7226
  57       10.5113
  58       10.5113
  59       10.6928
  60       10.6928
  61       10.8503
  62       10.8503
  63       10.8504
  64       10.8504
  65       11.4168
  66       11.4168
  67       11.8365
  68       11.8365
  69       11.8365
  70       11.8366
  71       11.9575
  72       11.9575
 
  0.3333333E+00  0.5000000E+00  0.0000000E+00  0.1851852E-01
   1       -2.0512
   2       -2.0512
   3       -1.2707
   4       -1.2707
   5        0.2765
   6        0.2765
   7        0.2765
   8        0.2765
   9        1.0435
  10        1.0435
  11        1.0435
  12        1.0435
  13        1.8033
  14        1.8033
  15        2.5561
  16        2.5561
  17        3.3085
  18        3.3085
  19        4.0409
  20        4.0409
  21        4.0486
  22        4.0486
  23        4.0486
  24        4.0487
  25        4.7847
  26        4.7847
  27        4.7847
  28        4.7847
  29        5.5922
  30        5.5922
  31        5.5922
  32        5.5922
  33        6.2476
  34        6.2476
  35        6.3087
  36        6.3088
  37        6.3088
  38        6.3088
  39        6.3767
  40        6.3768
  41        7.0939
  42        7.0939
  43        7.7232
  44        7.7232
  45        8.5192
  46        8.5192
  47        8.5192
  48        8.5192
  49        8.6840
  50        8.6840
  51        8.7573
  52        8.7573
  53        9.9720
  54        9.9720
  55       10.1143
  56       10.1143
  57       10.6658
  58       10.6659
  59       10.6659
  60       10.6659
  61       10.6922
  62       10.6923
  63       11.4153
  64       11.4153
  65       11.4307
  66       11.4307
  67       11.5610
  68       11.5610
  69       12.1348
  70       12.1348
  71       12.3373
  72       12.3373
 
  0.5000000E+00  0.5000000E+00  0.0000000E+00  0.9259259E-02
   1       -1.7282
   2       -1.7257
   3       -1.7252
   4       -1.7227
   5        0.5928
   6        0.5950
   7        0.5963
   8        0.5965
   9        0.5968
  10        0.5970
  11        0.5983
  12        0.6005
  13        2.8662
  14        2.8680
  15        2.8698
  16        2.8702
  17        2.8702
  18        2.8706
  19        2.8724
  20        2.8742
  21        4.9133
  22        4.9150
  23        4.9157
  24        4.9163
  25        4.9164
  26        4.9170
  27        4.9177
  28        4.9194
  29        5.3371
  30        5.3375
  31        5.3383
  32        5.3393
  33        5.3394
  34        5.3404
  35        5.3412
  36        5.3416
  37        6.6724
  38        6.6752
  39        6.6756
  40        6.6784
  41        7.1966
  42        7.1971
  43        7.1988
  44        7.1993
  45        8.3979
  46        8.3992
  47        8.4001
  48        8.4013
  49        9.5418
  50        9.5426
  51        9.5429
  52        9.5429
  53        9.5442
  54        9.5442
  55        9.5445
  56        9.5453
  57       10.9877
  58       10.9914
  59       10.9931
  60       10.9935
  61       10.9935
  62       10.9939
  63       10.9956
  64       10.9993
  65       11.7105
  66       11.7124
  67       11.7141
  68       11.7142
  69       11.7145
  70       11.7146
  71       11.7163
  72       11.7181
 
  0.0000000E+00  0.1666667E+00  0.1666667E+00  0.1851852E-01
   1       -2.7708
   2       -1.2059
   3       -1.2059
   4       -0.4321
   5       -0.4288
   6        0.3400
   7        0.3400
   8        0.3407
   9        1.1044
  10        1.1064
  11        1.1078
  12        1.1098
  13        1.8684
  14        1.8684
  15        2.6223
  16        2.6232
  17        2.6247
  18        2.6261
  19        2.6262
  20        2.6282
  21        3.3772
  22        3.9505
  23        3.9505
  24        4.3385
  25        4.3385
  26        4.7853
  27        4.7853
  28        5.6494
  29        5.6529
  30        5.7204
  31        6.2435
  32        6.2435
  33        6.8178
  34        6.8178
  35        7.1422
  36        7.1424
  37        7.1536
  38        7.1538
  39        7.1834
  40        7.6308
  41        7.6309
  42        8.1091
  43        8.1091
  44        8.4612
  45        8.4633
  46        8.4650
  47        8.4671
  48        8.5909
  49        8.5909
  50        8.5916
  51        8.7611
  52        8.7611
  53        9.3150
  54        9.3150
  55        9.9133
  56        9.9134
  57        9.9150
  58        9.9155
  59        9.9187
  60        9.9194
  61       10.0328
  62       10.0329
  63       10.2879
  64       10.7027
  65       10.7027
  66       10.9794
  67       10.9794
  68       11.3050
  69       11.3051
  70       11.4763
  71       11.7354
  72       11.7360
 
  0.1666667E+00  0.1666667E+00  0.1666667E+00  0.3703704E-01
   1       -2.7052
   2       -1.1428
   3       -1.1411
   4       -1.1393
   5        0.4007
   6        0.4039
   7        0.4040
   8        0.4048
   9        0.4050
  10        0.4081
  11        1.9283
  12        1.9305
  13        1.9313
  14        1.9317
  15        1.9325
  16        1.9329
  17        1.9353
  18        3.4290
  19        3.4297
  20        3.4303
  21        3.4377
  22        3.4394
  23        3.4413
  24        4.8459
  25        4.8464
  26        4.8470
  27        4.9792
  28        4.9799
  29        4.9805
  30        6.2945
  31        6.2961
  32        6.2975
  33        6.2975
  34        6.2990
  35        6.3005
  36        6.4509
  37        7.7687
  38        7.7691
  39        7.7707
  40        7.7707
  41        7.7723
  42        7.7727
  43        7.7956
  44        7.7975
  45        7.7993
  46        8.1674
  47        8.1681
  48        8.1687
  49        9.2484
  50        9.2493
  51        9.2506
  52        9.2506
  53        9.2518
  54        9.2527
  55        9.6097
  56        9.6110
  57        9.6121
  58        9.6121
  59        9.6132
  60        9.6145
  61       10.7012
  62       10.7022
  63       10.7032
  64       11.1918
  65       11.1927
  66       11.1937
  67       11.4019
  68       11.4024
  69       11.4036
  70       11.4036
  71       11.4048
  72       11.4052
 
  0.3333333E+00  0.1666667E+00  0.1666667E+00  0.3703704E-01
   1       -2.5087
   2       -1.7254
   3       -0.9469
   4       -0.9468
   5       -0.1728
   6       -0.1728
   7        0.5960
   8        0.5960
   9        0.5968
  10        1.3579
  11        1.3610
  12        1.3616
  13        1.3626
  14        2.1213
  15        2.1213
  16        2.8734
  17        2.8740
  18        2.8759
  19        2.8766
  20        3.6061
  21        3.6245
  22        4.1921
  23        4.3682
  24        4.3682
  25        4.5919
  26        5.0297
  27        5.0297
  28        5.0874
  29        5.0874
  30        5.7589
  31        5.7589
  32        5.8959
  33        5.8959
  34        6.3467
  35        6.3467
  36        6.6047
  37        6.7225
  38        6.7225
  39        7.2528
  40        7.2528
  41        7.3696
  42        7.9687
  43        7.9687
  44        8.0678
  45        8.0678
  46        8.3414
  47        8.3414
  48        8.5610
  49        8.5610
  50        8.7036
  51        8.7036
  52        9.2405
  53        9.2405
  54        9.5286
  55        9.7391
  56        9.8771
  57        9.8771
  58       10.1543
  59       10.1543
  60       10.6425
  61       10.6425
  62       10.8716
  63       10.8716
  64       10.8914
  65       10.8914
  66       11.6039
  67       11.6039
  68       11.8549
  69       11.8549
  70       12.0598
  71       12.0599
  72       12.2265
 
  0.5000000E+00  0.1666667E+00  0.1666667E+00  0.1851852E-01
   1       -2.1832
   2       -2.1803
   3       -0.6263
   4       -0.6242
   5       -0.6233
   6       -0.6213
   7        0.9125
   8        0.9148
   9        0.9149
  10        0.9158
  11        0.9170
  12        0.9184
  13        2.4288
  14        2.4304
  15        2.4350
  16        2.4353
  17        2.4376
  18        2.4386
  19        3.9244
  20        3.9274
  21        3.9307
  22        3.9308
  23        3.9317
  24        3.9320
  25        5.3327
  26        5.3330
  27        5.3358
  28        5.3361
  29        5.3987
  30        5.3989
  31        5.3997
  32        5.3999
  33        5.4680
  34        5.4692
  35        6.8347
  36        6.8368
  37        6.8377
  38        6.8399
  39        6.9307
  40        6.9314
  41        6.9320
  42        6.9326
  43        8.2747
  44        8.2754
  45        8.2779
  46        8.2786
  47        8.3995
  48        8.4008
  49        8.6025
  50        8.6032
  51        8.6053
  52        8.6061
  53        9.8053
  54        9.8059
  55        9.8069
  56        9.8074
  57       10.2040
  58       10.2050
  59       10.2071
  60       10.2081
  61       11.1700
  62       11.1706
  63       11.1717
  64       11.1723
  65       11.4527
  66       11.4535
  67       11.5609
  68       11.5632
  69       11.5643
  70       11.5666
  71       12.5785
  72       12.6098
 
  0.0000000E+00  0.3333333E+00  0.1666667E+00  0.3703704E-01
   1       -2.5742
   2       -1.7905
   3       -1.0116
   4       -0.2395
   5       -0.2372
   6       -0.2350
   7        0.5303
   8        0.5323
   9        0.5348
  10        1.2948
  11        1.2968
  12        1.2975
  13        1.3001
  14        2.0568
  15        2.0602
  16        2.8115
  17        2.8126
  18        2.8153
  19        3.5437
  20        3.5525
  21        3.5558
  22        3.5611
  23        3.5645
  24        4.3080
  25        4.9687
  26        5.0278
  27        5.1011
  28        5.1045
  29        5.6996
  30        5.7490
  31        5.7524
  32        5.8992
  33        6.4763
  34        6.5701
  35        6.5736
  36        6.6156
  37        7.1947
  38        7.1983
  39        7.2737
  40        7.2773
  41        7.3331
  42        7.3651
  43        7.9158
  44        7.9196
  45        7.9738
  46        8.0520
  47        8.2874
  48        8.7369
  49        8.7407
  50        8.7710
  51        8.8082
  52        8.9563
  53        8.9728
  54        9.4908
  55        9.4919
  56        9.6849
  57        9.7310
  58       10.2084
  59       10.4664