 vasp.4.6.28 25Jul05 complex 
 executed on             LinuxIFC date 2016.10.19  17:31:43
 running on    8 nodes
 distr:  one band on    1 nodes,    8 groups


--------------------------------------------------------------------------------------------------------


 INCAR:
 POTCAR:   PAW_PBE Al 04Jan2001                   
 POTCAR:   PAW_PBE Al 04Jan2001                   
   VRHFIN =Al: s2p1                                                             
   LEXCH  = PE                                                                  
   EATOM  =    53.5387 eV,    3.9350 Ry                                         
                                                                                
   TITEL  = PAW_PBE Al 04Jan2001                                                
   LULTRA =        F    use ultrasoft PP ?                                      
   IUNSCR =        1    unscreen: 0-lin 1-nonlin 2-no                           
   RPACOR =    1.500    partial core radius                                     
   POMASS =   26.982; ZVAL   =    3.000    mass and valenz                      
   RCORE  =    1.900    outmost cutoff radius                                   
   RWIGS  =    2.650; RWIGS  =    1.402    wigner-seitz radius (au A)           
   ENMAX  =  240.300; ENMIN  =  180.225 eV                                      
   ICORE  =        2    local potential                                         
   LCOR   =        T    correct aug charges                                     
   LPAW   =        T    paw PP                                                  
   EAUG   =  291.052                                                            
   DEXC   =    -.041                                                            
   RMAX   =    2.974    core radius for proj-oper                               
   RAUG   =    1.300    factor for augmentation sphere                          
   RDEP   =    1.966    radius for radial grids                                 
   QCUT   =   -4.203; QGAM   =    8.405    optimization parameters              
                                                                                
   Description                                                                  
     l     E      TYP  RCUT    TYP  RCUT                                        
     0   .000     23  1.900                                                     
     0   .000     23  1.900                                                     
     1   .000     23  1.900                                                     
     1  1.000     23  1.900                                                     
     2   .000      7  1.900                                                     
  local pseudopotential read in
  partial core-charges read in
  atomic valenz-charges read in
  non local Contribution for L=           0  read in
    real space projection operators read in
  non local Contribution for L=           0  read in
    real space projection operators read in
  non local Contribution for L=           1  read in
    real space projection operators read in
  non local Contribution for L=           1  read in
    real space projection operators read in
    PAW grid and wavefunctions read in
 
   number of l-projection  operators is LMAX  =           4
   number of lm-projection operators is LMMAX =           8
 

 ----------------------------------------------------------------------------- 
|                                                                             |
|  ADVICE TO THIS USER RUNNING 'VASP/VAMP'   (HEAR YOUR MASTER'S VOICE ...):  |
|                                                                             |
|      You have a (more or less) 'large supercell' and for larger cells       |
|      it might be more efficient to use real space projection operators      |
|      So try LREAL= Auto  in the INCAR   file.                               |
|      Mind: If you want to do an extremely accurate calculations keep the    |
|      reciprocal projection scheme          (i.e. LREAL=.FALSE.)             |
|                                                                             |
 ----------------------------------------------------------------------------- 

 PAW_PBE Al 04Jan2001                   :
 energy of atom  1       EATOM=  -53.5387
 kinetic energy error for atom=    0.0003 (will be added to EATOM!!)
 
 EXHCAR: internal setup
 exchange correlation table for  LEXCH =        8
   RHO(1)=    0.500       N(1)  =     2000
   RHO(2)=  100.500       N(2)  =     4000
 
 POSCAR: Al                                      
  positions in direct lattice
  No initial velocities read in
 


--------------------------------------------------------------------------------------------------------


 ion  position               nearest neighbor table
   1  0.251  0.250  0.000-  18 2.99  22 2.99  26 2.99  28 2.99   9 3.00  11 3.00  13 3.00  15 3.00
                            25 3.00  21 3.00  27 3.00  17 3.00
   2  0.750  0.250  0.000-  10 3.00  12 3.00  14 3.00  16 3.00  17 3.00  18 3.00  21 3.00  22 3.00
                            25 3.00  26 3.00  27 3.00  28 3.00
   3  0.250  0.750  0.000-   9 3.00  11 3.00  13 3.00  15 3.00  19 3.00  20 3.00  23 3.00  24 3.00
                            25 3.00  26 3.00  27 3.00  28 3.00
   4  0.750  0.750  0.000-  10 3.00  12 3.00  14 3.00  16 3.00  19 3.00  20 3.00  23 3.00  24 3.00
                            25 3.00  26 3.00  27 3.00  28 3.00
   5  0.250  0.250  0.500-   9 3.00  11 3.00  13 3.00  15 3.00  17 3.00  18 3.00  21 3.00  22 3.00
                            29 3.00  30 3.00  31 3.00  32 3.00
   6  0.750  0.250  0.500-  10 3.00  12 3.00  14 3.00  16 3.00  17 3.00  18 3.00  21 3.00  22 3.00
                            29 3.00  30 3.00  31 3.00  32 3.00
   7  0.250  0.750  0.500-   9 3.00  11 3.00  13 3.00  15 3.00  19 3.00  20 3.00  23 3.00  24 3.00
                            29 3.00  30 3.00  31 3.00  32 3.00
   8  0.750  0.750  0.500-  10 3.00  12 3.00  14 3.00  16 3.00  19 3.00  20 3.00  23 3.00  24 3.00
                            29 3.00  30 3.00  31 3.00  32 3.00
   9  0.250  0.000  0.250-   3 3.00   5 3.00   7 3.00  17 3.00  18 3.00  19 3.00  20 3.00  25 3.00
                            26 3.00  29 3.00  30 3.00   1 3.00
  10  0.750  0.000  0.250-   2 3.00   4 3.00   6 3.00   8 3.00  17 3.00  18 3.00  19 3.00  20 3.00
                            25 3.00  26 3.00  29 3.00  30 3.00
  11  0.250  0.500  0.250-   3 3.00   5 3.00   7 3.00  17 3.00  18 3.00  19 3.00  20 3.00  27 3.00
                            28 3.00  31 3.00  32 3.00   1 3.00
  12  0.750  0.500  0.250-   2 3.00   4 3.00   6 3.00   8 3.00  17 3.00  18 3.00  19 3.00  20 3.00
                            27 3.00  28 3.00  31 3.00  32 3.00
  13  0.250  0.000  0.750-   3 3.00   5 3.00   7 3.00  21 3.00  22 3.00  23 3.00  24 3.00  25 3.00
                            26 3.00  29 3.00  30 3.00   1 3.00
  14  0.750  0.000  0.750-   2 3.00   4 3.00   6 3.00   8 3.00  21 3.00  22 3.00  23 3.00  24 3.00
                            25 3.00  26 3.00  29 3.00  30 3.00
  15  0.250  0.500  0.750-   3 3.00   5 3.00   7 3.00  21 3.00  22 3.00  23 3.00  24 3.00  27 3.00
                            28 3.00  31 3.00  32 3.00   1 3.00
  16  0.750  0.500  0.750-   2 3.00   4 3.00   6 3.00   8 3.00  21 3.00  22 3.00  23 3.00  24 3.00
                            27 3.00  28 3.00  31 3.00  32 3.00
  17  0.000  0.250  0.250-   2 3.00   5 3.00   6 3.00   9 3.00  10 3.00  11 3.00  12 3.00  25 3.00
                            27 3.00  29 3.00  31 3.00   1 3.00
  18  0.500  0.250  0.250-   1 2.99   2 3.00   5 3.00   6 3.00   9 3.00  10 3.00  11 3.00  12 3.00
                            26 3.00  28 3.00  30 3.00  32 3.00
  19  0.000  0.750  0.250-   3 3.00   4 3.00   7 3.00   8 3.00   9 3.00  10 3.00  11 3.00  12 3.00
                            25 3.00  27 3.00  29 3.00  31 3.00
  20  0.500  0.750  0.250-   3 3.00   4 3.00   7 3.00   8 3.00   9 3.00  10 3.00  11 3.00  12 3.00
                            26 3.00  28 3.00  30 3.00  32 3.00
  21  0.000  0.250  0.750-   2 3.00   5 3.00   6 3.00  13 3.00  14 3.00  15 3.00  16 3.00  25 3.00
                            27 3.00  29 3.00  31 3.00   1 3.00
  22  0.500  0.250  0.750-   1 2.99   2 3.00   5 3.00   6 3.00  13 3.00  14 3.00  15 3.00  16 3.00
                            26 3.00  28 3.00  30 3.00  32 3.00
  23  0.000  0.750  0.750-   3 3.00   4 3.00   7 3.00   8 3.00  13 3.00  14 3.00  15 3.00  16 3.00
                            25 3.00  27 3.00  29 3.00  31 3.00
  24  0.500  0.750  0.750-   3 3.00   4 3.00   7 3.00   8 3.00  13 3.00  14 3.00  15 3.00  16 3.00
                            26 3.00  28 3.00  30 3.00  32 3.00
  25  0.000  0.000  0.000-   2 3.00   3 3.00   4 3.00   9 3.00  10 3.00  13 3.00  14 3.00  17 3.00
                            19 3.00  21 3.00  23 3.00   1 3.00
  26  0.500  0.000  0.000-   1 2.99   2 3.00   3 3.00   4 3.00   9 3.00  10 3.00  13 3.00  14 3.00
                            18 3.00  20 3.00  22 3.00  24 3.00
  27  0.000  0.500  0.000-   2 3.00   3 3.00   4 3.00  11 3.00  12 3.00  15 3.00  16 3.00  17 3.00
                            19 3.00  21 3.00  23 3.00   1 3.00
  28  0.500  0.500  0.000-   1 2.99   2 3.00   3 3.00   4 3.00  11 3.00  12 3.00  15 3.00  16 3.00
                            18 3.00  20 3.00  22 3.00  24 3.00
  29  0.000  0.000  0.500-   5 3.00   6 3.00   7 3.00   8 3.00   9 3.00  10 3.00  13 3.00  14 3.00
                            17 3.00  19 3.00  21 3.00  23 3.00
  30  0.500  0.000  0.500-   5 3.00   6 3.00   7 3.00   8 3.00   9 3.00  10 3.00  13 3.00  14 3.00
                            18 3.00  20 3.00  22 3.00  24 3.00
  31  0.000  0.500  0.500-   5 3.00   6 3.00   7 3.00   8 3.00  11 3.00  12 3.00  15 3.00  16 3.00
                            17 3.00  19 3.00  21 3.00  23 3.00
  32  0.500  0.500  0.500-   5 3.00   6 3.00   7 3.00   8 3.00  11 3.00  12 3.00  15 3.00  16 3.00
                            18 3.00  20 3.00  22 3.00  24 3.00
 
  LATTYP: Found a simple cubic cell.
 ALAT       =     8.4783433763
  
  Lattice vectors:
  
 A1 = (   8.4783433763,   0.0000000000,   0.0000000000)
 A2 = (   0.0000000000,   8.4783433763,   0.0000000000)
 A3 = (   0.0000000000,   0.0000000000,   8.4783433763)
 Subroutine PRICEL returns:
 Original cell was already a primitive cell.
 

Analysis of symmetry for initial positions (statically):

 Routine SETGRP: Setting up the symmetry group for a 
 simple cubic supercell.


 Subroutine GETGRP returns: Found  8 space group operations
 (whereof  2 operations were pure point group operations)
 out of a pool of 48 trial point group operations.


The static configuration has the point symmetry C_1h.
 The point group associated with its full space group is C_4v.

Analysis of symmetry for dynamics (positions and initial velocities):

 Subroutine DYNSYM returns: Found  8 space group operations
 (whereof  2 operations were pure point group operations)
 out of a pool of  8 trial space group operations
 (whereof  2 operations were pure point group operations)
 and found also     1 'primitive' translations


The dynamic configuration has the point symmetry C_1h.
 The point group associated with its full space group is C_4v.
 
 
 KPOINTS: Automatic mesh                          

Automatic generation of k-mesh.
 generate k-points for:   6   6   6
 
 Subroutine IBZKPT returns following result:
 ===========================================
 
 Found     40 irreducible k-points:
 
 Following reciprocal coordinates:
            Coordinates               Weight
  0.000000  0.000000  0.000000      1.000000
  0.166667  0.000000  0.000000      2.000000
  0.333333  0.000000  0.000000      2.000000
  0.500000  0.000000  0.000000      1.000000
  0.000000  0.166667  0.000000      4.000000
  0.166667  0.166667  0.000000      8.000000
  0.333333  0.166667  0.000000      8.000000
  0.500000  0.166667  0.000000      4.000000
  0.000000  0.333333  0.000000      4.000000
  0.166667  0.333333  0.000000      8.000000
  0.333333  0.333333  0.000000      8.000000
  0.500000  0.333333  0.000000      4.000000
  0.000000  0.500000  0.000000      2.000000
  0.166667  0.500000  0.000000      4.000000
  0.333333  0.500000  0.000000      4.000000
  0.500000  0.500000  0.000000      2.000000
  0.000000  0.166667  0.166667      4.000000
  0.166667  0.166667  0.166667      8.000000
  0.333333  0.166667  0.166667      8.000000
  0.500000  0.166667  0.166667      4.000000
  0.000000  0.333333  0.166667      8.000000
  0.166667  0.333333  0.166667     16.000000
  0.333333  0.333333  0.166667     16.000000
  0.500000  0.333333  0.166667      8.000000
  0.000000  0.500000  0.166667      4.000000
  0.166667  0.500000  0.166667      8.000000
  0.333333  0.500000  0.166667      8.000000
  0.500000  0.500000  0.166667      4.000000
  0.000000  0.333333  0.333333      4.000000
  0.166667  0.333333  0.333333      8.000000
  0.333333  0.333333  0.333333      8.000000
  0.500000  0.333333  0.333333      4.000000
  0.000000  0.500000  0.333333      4.000000
  0.166667  0.500000  0.333333      8.000000
  0.333333  0.500000  0.333333      8.000000
  0.500000  0.500000  0.333333      4.000000
  0.000000  0.500000  0.500000      1.000000
  0.166667  0.500000  0.500000      2.000000
  0.333333  0.500000  0.500000      2.000000
  0.500000  0.500000  0.500000      1.000000
 
 Following cartesian coordinates:
            Coordinates               Weight
  0.000000  0.000000  0.000000      1.000000
  0.019658  0.000000  0.000000      2.000000
  0.039316  0.000000  0.000000      2.000000
  0.058974  0.000000  0.000000      1.000000
  0.000000  0.019658  0.000000      4.000000
  0.019658  0.019658  0.000000      8.000000
  0.039316  0.019658  0.000000      8.000000
  0.058974  0.019658  0.000000      4.000000
  0.000000  0.039316  0.000000      4.000000
  0.019658  0.039316  0.000000      8.000000
  0.039316  0.039316  0.000000      8.000000
  0.058974  0.039316  0.000000      4.000000
  0.000000  0.058974  0.000000      2.000000
  0.019658  0.058974  0.000000      4.000000
  0.039316  0.058974  0.000000      4.000000
  0.058974  0.058974  0.000000      2.000000
  0.000000  0.019658  0.019658      4.000000
  0.019658  0.019658  0.019658      8.000000
  0.039316  0.019658  0.019658      8.000000
  0.058974  0.019658  0.019658      4.000000
  0.000000  0.039316  0.019658      8.000000
  0.019658  0.039316  0.019658     16.000000
  0.039316  0.039316  0.019658     16.000000
  0.058974  0.039316  0.019658      8.000000
  0.000000  0.058974  0.019658      4.000000
  0.019658  0.058974  0.019658      8.000000
  0.039316  0.058974  0.019658      8.000000
  0.058974  0.058974  0.019658      4.000000
  0.000000  0.039316  0.039316      4.000000
  0.019658  0.039316  0.039316      8.000000
  0.039316  0.039316  0.039316      8.000000
  0.058974  0.039316  0.039316      4.000000
  0.000000  0.058974  0.039316      4.000000
  0.019658  0.058974  0.039316      8.000000
  0.039316  0.058974  0.039316      8.000000
  0.058974  0.058974  0.039316      4.000000
  0.000000  0.058974  0.058974      1.000000
  0.019658  0.058974  0.058974      2.000000
  0.039316  0.058974  0.058974      2.000000
  0.058974  0.058974  0.058974      1.000000
 


--------------------------------------------------------------------------------------------------------




 Dimension of arrays:
   k-Points           NKPTS =     40   number of bands    NBANDS=     72
   number of dos      NEDOS =    301   number of ions     NIONS =     32
   non local maximal  LDIM  =      4   non local SUM 2l+1 LMDIM =      8
   total plane-waves  NPLWV = 262144
   max r-space proj   IRMAX =      1   max aug-charges    IRDMAX=  16938
   dimension x,y,z NGX =    64 NGY =   64 NGZ =   64
   dimension x,y,z NGXF=   128 NGYF=  128 NGZF=  128
   support grid    NGXF=   128 NGYF=  128 NGZF=  128
   ions per type =              32
 NGX,Y,Z   is equivalent  to a cutoff of  12.55, 12.55, 12.55 a.u.
 NGXF,Y,Z  is equivalent  to a cutoff of  25.10, 25.10, 25.10 a.u.


 I would recommend the setting:
   dimension x,y,z NGX =    62 NGY =   62 NGZ =   62
 SYSTEM =  unknown system                          
 POSCAR =  Al                                      

 Startparameter for this run:
   NWRITE =      2    write-flag & timer
   PREC   = accura    medium, high low
   ISTART =      0    job   : 0-new  1-cont  2-samecut
   ICHARG =      2    charge: 1-file 2-atom 10-const
   ISPIN  =      1    spin polarized calculation?
   LNONCOLLINEAR =      F non collinear calculations
   LSORBIT =      F    spin-orbit coupling
   INIWAV =      1    electr: 0-lowe 1-rand  2-diag
   LASPH  =      F    aspherical Exc in radial PAW
   METAGGA=      F    non-selfconsistent MetaGGA calc.

 Electronic Relaxation 1
   ENCUT  =  500.0 eV  36.75 Ry    6.06 a.u.  15.46 15.46 15.46*2*pi/ulx,y,z
   ENINI  =  500.0     initial cutoff
   ENAUG  =  291.1 eV  augmentation charge cutoff
   NELM   =     60;   NELMIN=  2; NELMDL=  0     # of ELM steps 
   EDIFF  = 0.1E-07   stopping-criterion for ELM
   LREAL  =      F    real-space projection
   LCOMPAT=      F    compatible to vasp.4.4
   LREAL_COMPAT= F    compatible to vasp.4.5.1-3
   GGA_COMPAT  = T    GGA compatible to vasp.4.4-vasp.4.6
   LMAXPAW     = -100 max onsite density
   LMAXMIX     =    2 max onsite mixed and CHGCAR
   VOSKOWN=      0    Vosko Wilk Nusair interpolation
   ROPT   =    0.00000
 Ionic relaxation
   EDIFFG = 0.1E-06   stopping-criterion for IOM
   NSW    =      0    number of steps for IOM
   NBLOCK =      1;   KBLOCK =      1    inner block; outer block 
   IBRION =     -1    ionic relax: 0-MD 1-quasi-New 2-CG
   NFREE  =      0    steps in history (QN), initial steepest desc. (CG)
   ISIF   =      2    stress and relaxation
   IWAVPR =     10    prediction:  0-non 1-charg 2-wave 3-comb
   ISYM   =      2    0-nonsym 1-usesym 2-fastsym
   LCORR  =      T    Harris-Foulkes like correction to forces

   POTIM  =   0.50    time-step for ionic-motion
   TEIN   =    0.0    initial temperature
   TEBEG  =    0.0;   TEEND  =   0.0 temperature during run
   SMASS  =  -3.00    Nose mass-parameter (am)
   estimated Nose-frequenzy (Omega)   =  0.10E-29 period in steps =****** mass=  -0.164E-26a.u.
   NPACO  =    256;   APACO  = 16.0  distance and # of slots for P.C.
   PSTRESS=    0.0 pullay stress

  Mass of Ions in am
   POMASS =  26.98
  Ionic Valenz
   ZVAL   =   3.00
  Atomic Wigner-Seitz radii
   RWIGS  =  -1.00
   NELECT =      96.0000    total number of electrons
   NUPDOWN=      -1.0000    fix difference up-down

 DOS related values:
   EMIN   =  10.00;   EMAX   =-10.00  energy-range for DOS
   ISMEAR =     0;   SIGMA  =   0.01  broadening in eV -4-tet -1-fermi 0-gaus

 Electronic relaxation 2 (details)
   IALGO  =     38    algorithm
   LDIAG  =      T    sub-space diagonalisation
   IMIX   =      4    mixing-type and parameters
     AMIX     =   0.40;   BMIX     =  1.00
     AMIX_MAG =   1.60;   BMIX_MAG =  1.00
     AMIN     =   0.10
     WC   =   100.;   INIMIX=   1;  MIXPRE=   1

 Intra band minimization:
   WEIMIN = 0.0000     energy-eigenvalue tresh-hold
   EBREAK =  0.38E-10  absolut break condition
   DEPER  =   0.30     relativ break condition  

   TIME   =   0.10     timestep for ELM

  volume/ion in A,a.u.               =      19.05       128.52
  Fermi-wavevector in a.u.,eV,Ry     =   0.884140 10.635716  0.781703

 Second variation
   LSECVAR=     F    do a second variation
 
 Write flags
   LWAVE  =      F    write WAVECAR
   LCHARG =      F    write CHGCAR
   LVTOT  =      F    write LOCPOT, local potential
   LELF   =      F    write electronic localiz. function (ELF)
   LORBIT =      0    0 simple, 1 ext, 2 COOP (PROOUT)


 Dipole corrections
   IDIPOL =      0    1-x, 2-y, 3-z
   LDIPOL =      F    correct potential



--------------------------------------------------------------------------------------------------------


 Static calculation
 charge density will be updated during run
 non-spin polarized calculation
 Variant of blocked Davidson
 Davidson routine will perform the subspace rotation
 performe sub-space diagonalisation
    after iterative eigenvector-optimisation
 modified Broyden-mixing scheme, WC =      100.0
 initial mixing is a Kerker type mixing with AMIX =  0.4000 and BMIX =      1.0000
 Hartree-type preconditioning will be used
 using additional bands           24
 reciprocal scheme for non local part
 use partial core corrections
 calculate Harris-corrections to forces 
   (improved forces if not selfconsistent)
 use gradient corrections 
 use of overlap-Matrix (Vanderbilt PP)
 Gauss-broadening in eV      SIGMA  =   0.01


--------------------------------------------------------------------------------------------------------


  energy-cutoff  :      500.00
  volume of cell :      609.44
      direct lattice vectors                 reciprocal lattice vectors
     8.478343376  0.000000000  0.000000000     0.117947570  0.000000000  0.000000000
     0.000000000  8.478343376  0.000000000     0.000000000  0.117947570  0.000000000
     0.000000000  0.000000000  8.478343376     0.000000000  0.000000000  0.117947570

  length of vectors
     8.478343376  8.478343376  8.478343376     0.117947570  0.117947570  0.117947570


 
 k-points in units of 2pi/SCALE and weight: Automatic mesh                          
   0.00000000  0.00000000  0.00000000       0.005
   0.01965793  0.00000000  0.00000000       0.009
   0.03931586  0.00000000  0.00000000       0.009
   0.05897379  0.00000000  0.00000000       0.005
   0.00000000  0.01965793  0.00000000       0.019
   0.01965793  0.01965793  0.00000000       0.037
   0.03931586  0.01965793  0.00000000       0.037
   0.05897379  0.01965793  0.00000000       0.019
   0.00000000  0.03931586  0.00000000       0.019
   0.01965793  0.03931586  0.00000000       0.037
   0.03931586  0.03931586  0.00000000       0.037
   0.05897379  0.03931586  0.00000000       0.019
   0.00000000  0.05897379  0.00000000       0.009
   0.01965793  0.05897379  0.00000000       0.019
   0.03931586  0.05897379  0.00000000       0.019
   0.05897379  0.05897379  0.00000000       0.009
   0.00000000  0.01965793  0.01965793       0.019
   0.01965793  0.01965793  0.01965793       0.037
   0.03931586  0.01965793  0.01965793       0.037
   0.05897379  0.01965793  0.01965793       0.019
   0.00000000  0.03931586  0.01965793       0.037
   0.01965793  0.03931586  0.01965793       0.074
   0.03931586  0.03931586  0.01965793       0.074
   0.05897379  0.03931586  0.01965793       0.037
   0.00000000  0.05897379  0.01965793       0.019
   0.01965793  0.05897379  0.01965793       0.037
   0.03931586  0.05897379  0.01965793       0.037
   0.05897379  0.05897379  0.01965793       0.019
   0.00000000  0.03931586  0.03931586       0.019
   0.01965793  0.03931586  0.03931586       0.037
   0.03931586  0.03931586  0.03931586       0.037
   0.05897379  0.03931586  0.03931586       0.019
   0.00000000  0.05897379  0.03931586       0.019
   0.01965793  0.05897379  0.03931586       0.037
   0.03931586  0.05897379  0.03931586       0.037
   0.05897379  0.05897379  0.03931586       0.019
   0.00000000  0.05897379  0.05897379       0.005
   0.01965793  0.05897379  0.05897379       0.009
   0.03931586  0.05897379  0.05897379       0.009
   0.05897379  0.05897379  0.05897379       0.005
 
 k-points in reciprocal lattice and weights: Automatic mesh                          
   0.00000000  0.00000000  0.00000000       0.005
   0.16666667  0.00000000  0.00000000       0.009
   0.33333333  0.00000000  0.00000000       0.009
   0.50000000  0.00000000  0.00000000       0.005
   0.00000000  0.16666667  0.00000000       0.019
   0.16666667  0.16666667  0.00000000       0.037
   0.33333333  0.16666667  0.00000000       0.037
   0.50000000  0.16666667  0.00000000       0.019
   0.00000000  0.33333333  0.00000000       0.019
   0.16666667  0.33333333  0.00000000       0.037
   0.33333333  0.33333333  0.00000000       0.037
   0.50000000  0.33333333  0.00000000       0.019
   0.00000000  0.50000000  0.00000000       0.009
   0.16666667  0.50000000  0.00000000       0.019
   0.33333333  0.50000000  0.00000000       0.019
   0.50000000  0.50000000  0.00000000       0.009
   0.00000000  0.16666667  0.16666667       0.019
   0.16666667  0.16666667  0.16666667       0.037
   0.33333333  0.16666667  0.16666667       0.037
   0.50000000  0.16666667  0.16666667       0.019
   0.00000000  0.33333333  0.16666667       0.037
   0.16666667  0.33333333  0.16666667       0.074
   0.33333333  0.33333333  0.16666667       0.074
   0.50000000  0.33333333  0.16666667       0.037
   0.00000000  0.50000000  0.16666667       0.019
   0.16666667  0.50000000  0.16666667       0.037
   0.33333333  0.50000000  0.16666667       0.037
   0.50000000  0.50000000  0.16666667       0.019
   0.00000000  0.33333333  0.33333333       0.019
   0.16666667  0.33333333  0.33333333       0.037
   0.33333333  0.33333333  0.33333333       0.037
   0.50000000  0.33333333  0.33333333       0.019
   0.00000000  0.50000000  0.33333333       0.019
   0.16666667  0.50000000  0.33333333       0.037
   0.33333333  0.50000000  0.33333333       0.037
   0.50000000  0.50000000  0.33333333       0.019
   0.00000000  0.50000000  0.50000000       0.005
   0.16666667  0.50000000  0.50000000       0.009
   0.33333333  0.50000000  0.50000000       0.009
   0.50000000  0.50000000  0.50000000       0.005
 
 position of ions in fractional coordinates (direct lattice) 
   0.25117948  0.25000000  0.00000000
   0.75000000  0.25000000  0.00000000
   0.25000000  0.75000000  0.00000000
   0.75000000  0.75000000  0.00000000
   0.25000000  0.25000000  0.50000000
   0.75000000  0.25000000  0.50000000
   0.25000000  0.75000000  0.50000000
   0.75000000  0.75000000  0.50000000
   0.25000000  0.00000000  0.25000000
   0.75000000  0.00000000  0.25000000
   0.25000000  0.50000000  0.25000000
   0.75000000  0.50000000  0.25000000
   0.25000000  0.00000000  0.75000000
   0.75000000  0.00000000  0.75000000
   0.25000000  0.50000000  0.75000000
   0.75000000  0.50000000  0.75000000
   0.00000000  0.25000000  0.25000000
   0.50000000  0.25000000  0.25000000
   0.00000000  0.75000000  0.25000000
   0.50000000  0.75000000  0.25000000
   0.00000000  0.25000000  0.75000000
   0.50000000  0.25000000  0.75000000
   0.00000000  0.75000000  0.75000000
   0.50000000  0.75000000  0.75000000
   0.00000000  0.00000000  0.00000000
   0.50000000  0.00000000  0.00000000
   0.00000000  0.50000000  0.00000000
   0.50000000  0.50000000  0.00000000
   0.00000000  0.00000000  0.50000000
   0.50000000  0.00000000  0.50000000
   0.00000000  0.50000000  0.50000000
   0.50000000  0.50000000  0.50000000
 
 position of ions in cartesian coordinates  (Angst):
   2.12958584  2.11958584  0.00000000
   6.35875753  2.11958584  0.00000000
   2.11958584  6.35875753  0.00000000
   6.35875753  6.35875753  0.00000000
   2.11958584  2.11958584  4.23917169
   6.35875753  2.11958584  4.23917169
   2.11958584  6.35875753  4.23917169
   6.35875753  6.35875753  4.23917169
   2.11958584  0.00000000  2.11958584
   6.35875753  0.00000000  2.11958584
   2.11958584  4.23917169  2.11958584
   6.35875753  4.23917169  2.11958584
   2.11958584  0.00000000  6.35875753
   6.35875753  0.00000000  6.35875753
   2.11958584  4.23917169  6.35875753
   6.35875753  4.23917169  6.35875753
   0.00000000  2.11958584  2.11958584
   4.23917169  2.11958584  2.11958584
   0.00000000  6.35875753  2.11958584
   4.23917169  6.35875753  2.11958584
   0.00000000  2.11958584  6.35875753
   4.23917169  2.11958584  6.35875753
   0.00000000  6.35875753  6.35875753
   4.23917169  6.35875753  6.35875753
   0.00000000  0.00000000  0.00000000
   4.23917169  0.00000000  0.00000000
   0.00000000  4.23917169  0.00000000
   4.23917169  4.23917169  0.00000000
   0.00000000  0.00000000  4.23917169
   4.23917169  0.00000000  4.23917169
   0.00000000  4.23917169  4.23917169
   4.23917169  4.23917169  4.23917169
 


--------------------------------------------------------------------------------------------------------


 k-point  1 :  0.00000.00000.0000  plane waves:  15515
 k-point  2 :  0.16670.00000.0000  plane waves:  15475
 k-point  3 :  0.33330.00000.0000  plane waves:  15487
 k-point  4 :  0.50000.00000.0000  plane waves:  15494
 k-point  5 :  0.00000.16670.0000  plane waves:  15475
 k-point  6 :  0.16670.16670.0000  plane waves:  15472
 k-point  7 :  0.33330.16670.0000  plane waves:  15458
 k-point  8 :  0.50000.16670.0000  plane waves:  15502
 k-point  9 :  0.00000.33330.0000  plane waves:  15487
 k-point 10 :  0.16670.33330.0000  plane waves:  15458
 k-point 11 :  0.33330.33330.0000  plane waves:  15506
 k-point 12 :  0.50000.33330.0000  plane waves:  15458
 k-point 13 :  0.00000.50000.0000  plane waves:  15494
 k-point 14 :  0.16670.50000.0000  plane waves:  15502
 k-point 15 :  0.33330.50000.0000  plane waves:  15458
 k-point 16 :  0.50000.50000.0000  plane waves:  15500
 k-point 17 :  0.00000.16670.1667  plane waves:  15472
 k-point 18 :  0.16670.16670.1667  plane waves:  15495
 k-point 19 :  0.33330.16670.1667  plane waves:  15472
 k-point 20 :  0.50000.16670.1667  plane waves:  15472
 k-point 21 :  0.00000.33330.1667  plane waves:  15458
 k-point 22 :  0.16670.33330.1667  plane waves:  15472
 k-point 23 :  0.33330.33330.1667  plane waves:  15503
 k-point 24 :  0.50000.33330.1667  plane waves:  15454
 k-point 25 :  0.00000.50000.1667  plane waves:  15502
 k-point 26 :  0.16670.50000.1667  plane waves:  15472
 k-point 27 :  0.33330.50000.1667  plane waves:  15454
 k-point 28 :  0.50000.50000.1667  plane waves:  15444
 k-point 29 :  0.00000.33330.3333  plane waves:  15506
 k-point 30 :  0.16670.33330.3333  plane waves:  15503
 k-point 31 :  0.33330.33330.3333  plane waves:  15465
 k-point 32 :  0.50000.33330.3333  plane waves:  15450
 k-point 33 :  0.00000.50000.3333  plane waves:  15458
 k-point 34 :  0.16670.50000.3333  plane waves:  15454
 k-point 35 :  0.33330.50000.3333  plane waves:  15450
 k-point 36 :  0.50000.50000.3333  plane waves:  15460
 k-point 37 :  0.00000.50000.5000  plane waves:  15500
 k-point 38 :  0.16670.50000.5000  plane waves:  15444
 k-point 39 :  0.33330.50000.5000  plane waves:  15460
 k-point 40 :  0.50000.50000.5000  plane waves:  15408

 maximum and minimum number of plane-waves per node :  15515 15408

 maximum number of plane-waves:  15515
 maximal index in each direction: 
   IXMAX= 15   IYMAX= 15   IZMAX= 15
   IXMIN=-15   IYMIN=-15   IZMIN=-15

 NGX is ok and might be reduce to  62
 NGY is ok and might be reduce to  62
 NGZ is ok and might be reduce to  62

 parallel 3dFFT wavefunction:
    minimum data exchange during FFTs selected (reduces bandwidth)
 parallel 3dFFT charge:
    minimum data exchange during FFTs selected (reduces bandwidth)

 For storing wavefunctions  713.05 MBYTES are necessary
 For predicting wavefunctions   39.48 MBYTES are necessary
Broyden mixing: mesh for mixing (old mesh)
   NGX = 31   NGY = 31   NGZ = 31
  (NGX  =128   NGY  =128   NGZ  =128)
 gives a total of  29791 points
 initial charge density was supplied:
 charge density of overlapping atoms calculated
 number of electron   96.0000000 magnetization 
 keeping initial charge density in first step


--------------------------------------------------------------------------------------------------------


 Maximum index for augmentation-charges         1939 (set IRDMAX)


--------------------------------------------------------------------------------------------------------


 First call to EWALD:  gamma=   0.209
 Maximum number of real-space cells 3x 3x 3
 Maximum number of reciprocal cells 3x 3x 3

    FEWALD:  VPU time    0.00: CPU time    0.00


----------------------------------------- Iteration    1(   1)  ---------------------------------------


    POTLOK:  VPU time    0.21: CPU time    0.21
    SETDIJ:  VPU time    0.02: CPU time    0.02
    EDDAV :  VPU time   38.44: CPU time   38.44
    DOS   :  VPU time    0.00: CPU time   -0.00
    ------------------------------------------
      LOOP:  VPU time   38.67: CPU time   38.68

 eigenvalue-minimisations  :  5760
 total energy-change (2. order) : 0.1073587E+03  (-0.3176410E+04)
 number of electron   96.0000000 magnetization 
 augmentation part    96.0000000 magnetization 

 Free energy of the ion-electron system (eV)
  ---------------------------------------------------
  alpha Z        PSCENC =        -5.64355352
  Ewald energy   TEWEN  =     -2242.66093683
  -1/2 Hartree   DENC   =        -5.70768390
  -V(xc)+E(xc)   XCENC  =      -847.69236787
  PAW double counting   =      1137.73615723     -115.16745734
  entropy T*S    EENTRO =        -0.00043031
  eigenvalues    EBANDS =       473.26582603
  atomic energy  EATOM  =      1713.22913220
  ---------------------------------------------------
  free energy    TOTEN  =       107.35868569 eV

  energy without entropy =      107.35911600  energy(sigma->0) =      107.35890085


--------------------------------------------------------------------------------------------------------




----------------------------------------- Iteration    1(   2)  ---------------------------------------


    EDDAV :  VPU time   36.81: CPU time   36.80
    DOS   :  VPU time    0.00: CPU time   -0.00
    ------------------------------------------
      LOOP:  VPU time   36.82: CPU time   36.81

 eigenvalue-minimisations  :  6752
 total energy-change (2. order) :-0.2126028E+03  (-0.1971360E+03)
 number of electron   96.0000000 magnetization 
 augmentation part    96.0000000 magnetization 

 Free energy of the ion-electron system (eV)
  ---------------------------------------------------
  alpha Z        PSCENC =        -5.64355352
  Ewald energy   TEWEN  =     -2242.66093683
  -1/2 Hartree   DENC   =        -5.70768390
  -V(xc)+E(xc)   XCENC  =      -847.69236787
  PAW double counting   =      1137.73615723     -115.16745734
  entropy T*S    EENTRO =        -0.00077108
  eigenvalues    EBANDS =       260.66335867
  atomic energy  EATOM  =      1713.22913220
  ---------------------------------------------------
  free energy    TOTEN  =      -105.24412243 eV

  energy without entropy =     -105.24335135  energy(sigma->0) =     -105.24373689


--------------------------------------------------------------------------------------------------------




----------------------------------------- Iteration    1(   3)  ---------------------------------------


    EDDAV :  VPU time   44.20: CPU time   44.19
    DOS   :  VPU time    0.00: CPU time   -0.00
    ------------------------------------------
      LOOP:  VPU time   44.24: CPU time   44.24

 eigenvalue-minimisations  :  7208
 total energy-change (2. order) :-0.1260957E+02  (-0.1199060E+02)
 number of electron   96.0000000 magnetization 
 augmentation part    96.0000000 magnetization 

 Free energy of the ion-electron system (eV)
  ---------------------------------------------------
  alpha Z        PSCENC =        -5.64355352
  Ewald energy   TEWEN  =     -2242.66093683
  -1/2 Hartree   DENC   =        -5.70768390
  -V(xc)+E(xc)   XCENC  =      -847.69236787
  PAW double counting   =      1137.73615723     -115.16745734
  entropy T*S    EENTRO =        -0.00065955
  eigenvalues    EBANDS =       248.05368128
  atomic energy  EATOM  =      1713.22913220
  ---------------------------------------------------
  free energy    TOTEN  =      -117.85368830 eV

  energy without entropy =     -117.85302875  energy(sigma->0) =     -117.85335852


--------------------------------------------------------------------------------------------------------




----------------------------------------- Iteration    1(   4)  ---------------------------------------


    EDDAV :  VPU time   33.30: CPU time   33.29
    DOS   :  VPU time    0.00: CPU time   -0.00
    ------------------------------------------
      LOOP:  VPU time   33.31: CPU time   33.31

 eigenvalue-minimisations  :  6744
 total energy-change (2. order) :-0.2541600E+00  (-0.2518136E+00)
 number of electron   96.0000000 magnetization 
 augmentation part    96.0000000 magnetization 

 Free energy of the ion-electron system (eV)
  ---------------------------------------------------
  alpha Z        PSCENC =        -5.64355352
  Ewald energy   TEWEN  =     -2242.66093683
  -1/2 Hartree   DENC   =        -5.70768390
  -V(xc)+E(xc)   XCENC  =      -847.69236787
  PAW double counting   =      1137.73615723     -115.16745734
  entropy T*S    EENTRO =        -0.00074243
  eigenvalues    EBANDS =       247.79960417
  atomic energy  EATOM  =      1713.22913220
  ---------------------------------------------------
  free energy    TOTEN  =      -118.10784829 eV

  energy without entropy =     -118.10710586  energy(sigma->0) =     -118.10747707


--------------------------------------------------------------------------------------------------------




----------------------------------------- Iteration    1(   5)  ---------------------------------------


    EDDAV :  VPU time   37.62: CPU time   37.61
    DOS   :  VPU time    0.00: CPU time   -0.00
    CHARGE:  VPU time    1.64: CPU time    1.64
    MIXING:  VPU time    0.01: CPU time    0.01
    ------------------------------------------
      LOOP:  VPU time   39.27: CPU time   39.26

 eigenvalue-minimisations  :  6688
 total energy-change (2. order) :-0.3266827E-02  (-0.3265439E-02)
 number of electron   96.0000002 magnetization 
 augmentation part    -1.3003976 magnetization 

 Broyden mixing:
  rms(total) = 0.49046E+00    rms(broyden)= 0.49046E+00
  rms(prec ) = 0.71735E+00
  weight for this iteration     100.00

 Free energy of the ion-electron system (eV)
  ---------------------------------------------------
  alpha Z        PSCENC =        -5.64355352
  Ewald energy   TEWEN  =     -2242.66093683
  -1/2 Hartree   DENC   =        -5.70768390
  -V(xc)+E(xc)   XCENC  =      -847.69236787
  PAW double counting   =      1137.73615723     -115.16745734
  entropy T*S    EENTRO =        -0.00074666
  eigenvalues    EBANDS =       247.79634158
  atomic energy  EATOM  =      1713.22913220
  ---------------------------------------------------
  free energy    TOTEN  =      -118.11111511 eV

  energy without entropy =     -118.11036845  energy(sigma->0) =     -118.11074178


--------------------------------------------------------------------------------------------------------




----------------------------------------- Iteration    1(   6)  ---------------------------------------


    POTLOK:  VPU time    0.18: CPU time    0.18
    SETDIJ:  VPU time    0.01: CPU time    0.01
    EDDAV :  VPU time   30.04: CPU time   30.03
    DOS   :  VPU time   -0.00: CPU time   -0.00
    CHARGE:  VPU time    1.35: CPU time    1.36
    MIXING:  VPU time    0.01: CPU time    0.01
    ------------------------------------------
      LOOP:  VPU time   31.60: CPU time   31.59

 eigenvalue-minimisations  :  6656
 total energy-change (2. order) : 0.3865526E+00  (-0.7226251E-02)
 number of electron   96.0000002 magnetization 
 augmentation part    -1.3217885 magnetization 

 Broyden mixing:
  rms(total) = 0.30375E+00    rms(broyden)= 0.30375E+00
  rms(prec ) = 0.44578E+00
  weight for this iteration     100.00

 eigenvalues of (default mixing * dielectric matrix)
  average eigenvalue GAMMA=   2.6165
  2.6165

 Free energy of the ion-electron system (eV)
  ---------------------------------------------------
  alpha Z        PSCENC =        -5.64355352
  Ewald energy   TEWEN  =     -2242.66093683
  -1/2 Hartree   DENC   =        -4.25655645
  -V(xc)+E(xc)   XCENC  =      -846.93964548
  PAW double counting   =      1134.03809338     -111.33279281
  entropy T*S    EENTRO =        -0.00070449
  eigenvalues    EBANDS =       245.84240146
  atomic energy  EATOM  =      1713.22913220
  ---------------------------------------------------
  free energy    TOTEN  =      -117.72456254 eV

  energy without entropy =     -117.72385805  energy(sigma->0) =     -117.72421029


--------------------------------------------------------------------------------------------------------




----------------------------------------- Iteration    1(   7)  ---------------------------------------


    POTLOK:  VPU time    0.26: CPU time    0.26
    SETDIJ:  VPU time    0.01: CPU time    0.01
    EDDAV :  VPU time   31.02: CPU time   31.01
    DOS   :  VPU time    0.00: CPU time   -0.00
    CHARGE:  VPU time    1.70: CPU time    1.69
    MIXING:  VPU time    0.01: CPU time    0.01
    ------------------------------------------
      LOOP:  VPU time   32.99: CPU time   33.00

 eigenvalue-minimisations  :  6328
 total energy-change (2. order) : 0.2767860E+00  (-0.2089721E-01)
 number of electron   96.0000002 magnetization 
 augmentation part    -1.3609737 magnetization 

 Broyden mixing:
  rms(total) = 0.13644E-01    rms(broyden)= 0.13643E-01
  rms(prec ) = 0.16352E-01
  weight for this iteration     100.00

 eigenvalues of (default mixing * dielectric matrix)
  average eigenvalue GAMMA=   2.5142
  2.5142  2.5142

 Free energy of the ion-electron system (eV)
  ---------------------------------------------------
  alpha Z        PSCENC =        -5.64355352
  Ewald energy   TEWEN  =     -2242.66093683
  -1/2 Hartree   DENC   =        -3.21875262
  -V(xc)+E(xc)   XCENC  =      -845.30216911
  PAW double counting   =      1128.75412215     -105.89156347
  entropy T*S    EENTRO =        -0.00058193
  eigenvalues    EBANDS =       243.28652655
  atomic energy  EATOM  =      1713.22913220
  ---------------------------------------------------
  free energy    TOTEN  =      -117.44777657 eV

  energy without entropy =     -117.44719464  energy(sigma->0) =     -117.44748560


--------------------------------------------------------------------------------------------------------




----------------------------------------- Iteration    1(   8)  ---------------------------------------


    POTLOK:  VPU time    0.25: CPU time    0.25
    SETDIJ:  VPU time    0.01: CPU time    0.01
    EDDAV :  VPU time   33.74: CPU time   33.73
    DOS   :  VPU time   -0.00: CPU time   -0.00
    CHARGE:  VPU time    1.46: CPU time    1.45
    MIXING:  VPU time    0.00: CPU time    0.01
    ------------------------------------------
      LOOP:  VPU time   35.47: CPU time   35.46

 eigenvalue-minimisations  :  6888
 total energy-change (2. order) : 0.1583429E-03  (-0.1548502E-03)
 number of electron   96.0000002 magnetization 
 augmentation part    -1.3626713 magnetization 

 Broyden mixing:
  rms(total) = 0.39108E-02    rms(broyden)= 0.39108E-02
  rms(prec ) = 0.53496E-02
  weight for this iteration     100.00

 eigenvalues of (default mixing * dielectric matrix)
  average eigenvalue GAMMA=   2.0660
  0.9716  2.6785  2.5479

 Free energy of the ion-electron system (eV)
  ---------------------------------------------------
  alpha Z        PSCENC =        -5.64355352
  Ewald energy   TEWEN  =     -2242.66093683
  -1/2 Hartree   DENC   =        -3.28154423
  -V(xc)+E(xc)   XCENC  =      -845.26079965
  PAW double counting   =      1130.23754811     -107.46783203
  entropy T*S    EENTRO =        -0.00057949
  eigenvalues    EBANDS =       243.40094720
  atomic energy  EATOM  =      1713.22913220
  ---------------------------------------------------
  free energy    TOTEN  =      -117.44761823 eV

  energy without entropy =     -117.44703873  energy(sigma->0) =     -117.44732848


--------------------------------------------------------------------------------------------------------




----------------------------------------- Iteration    1(   9)  ---------------------------------------


    POTLOK:  VPU time    0.28: CPU time    0.28
    SETDIJ:  VPU time    0.01: CPU time    0.01
    EDDAV :  VPU time   29.95: CPU time   29.94
    DOS   :  VPU time    0.00: CPU time   -0.00
    CHARGE:  VPU time    1.44: CPU time    1.44
    MIXING:  VPU time    0.01: CPU time    0.01
    ------------------------------------------
      LOOP:  VPU time   31.69: CPU time   31.70

 eigenvalue-minimisations  :  6792
 total energy-change (2. order) :-0.1458030E-04  (-0.4894720E-05)
 number of electron   96.0000002 magnetization 
 augmentation part    -1.3635899 magnetization 

 Broyden mixing:
  rms(total) = 0.31463E-03    rms(broyden)= 0.31461E-03
  rms(prec ) = 0.43914E-03
  weight for this iteration     100.00

 eigenvalues of (default mixing * dielectric matrix)
  average eigenvalue GAMMA=   1.9781
  1.0042  2.6631  2.5623  1.6829

 Free energy of the ion-electron system (eV)
  ---------------------------------------------------
  alpha Z        PSCENC =        -5.64355352
  Ewald energy   TEWEN  =     -2242.66093683
  -1/2 Hartree   DENC   =        -3.30321408
  -V(xc)+E(xc)   XCENC  =      -845.22570424
  PAW double counting   =      1130.62968910     -107.88929190
  entropy T*S    EENTRO =        -0.00057745
  eigenvalues    EBANDS =       243.41682390
  atomic energy  EATOM  =      1713.22913220
  ---------------------------------------------------
  free energy    TOTEN  =      -117.44763281 eV

  energy without entropy =     -117.44705536  energy(sigma->0) =     -117.44734408


--------------------------------------------------------------------------------------------------------




----------------------------------------- Iteration    1(  10)  ---------------------------------------


    POTLOK:  VPU time    0.54: CPU time    0.54
    SETDIJ:  VPU time    0.02: CPU time    0.02
    EDDAV :  VPU time   31.82: CPU time   31.82
    DOS   :  VPU time    0.00: CPU time   -0.00
    CHARGE:  VPU time    1.31: CPU time    1.31
    MIXING:  VPU time    0.01: CPU time    0.01
    ------------------------------------------
      LOOP:  VPU time   33.70: CPU time   33.71

 eigenvalue-minimisations  :  6936
 total energy-change (2. order) : 0.2397553E-05  (-0.1545122E-06)
 number of electron   96.0000002 magnetization 
 augmentation part    -1.3636624 magnetization 

 Broyden mixing:
  rms(total) = 0.17930E-03    rms(broyden)= 0.17930E-03
  rms(prec ) = 0.23670E-03
  weight for this iteration     100.00

 eigenvalues of (default mixing * dielectric matrix)
  average eigenvalue GAMMA=   1.9254
  2.6622  2.6622  2.3820  1.0365  0.8840

 Free energy of the ion-electron system (eV)
  ---------------------------------------------------
  alpha Z        PSCENC =        -5.64355352
  Ewald energy   TEWEN  =     -2242.66093683
  -1/2 Hartree   DENC   =        -3.30408237
  -V(xc)+E(xc)   XCENC  =      -845.22493182
  PAW double counting   =      1130.57560280     -107.83365770
  entropy T*S    EENTRO =        -0.00057733
  eigenvalues    EBANDS =       243.41537415
  atomic energy  EATOM  =      1713.22913220
  ---------------------------------------------------
  free energy    TOTEN  =      -117.44763041 eV

  energy without entropy =     -117.44705308  energy(sigma->0) =     -117.44734174


--------------------------------------------------------------------------------------------------------




----------------------------------------- Iteration    1(  11)  ---------------------------------------


    POTLOK:  VPU time    0.30: CPU time    0.30
    SETDIJ:  VPU time    0.01: CPU time    0.01
    EDDAV :  VPU time   37.15: CPU time   37.13
    DOS   :  VPU time    0.00: CPU time   -0.00
    CHARGE:  VPU time    1.35: CPU time    1.35
    MIXING:  VPU time    0.01: CPU time    0.01
    ------------------------------------------
      LOOP:  VPU time   38.82: CPU time   38.81

 eigenvalue-minimisations  :  6768
 total energy-change (2. order) : 0.3619602E-05  (-0.1150657E-07)
 number of electron   96.0000002 magnetization 
 augmentation part    -1.3636770 magnetization 

 Broyden mixing:
  rms(total) = 0.57248E-04    rms(broyden)= 0.57247E-04
  rms(prec ) = 0.77717E-04
  weight for this iteration     100.00

 eigenvalues of (default mixing * dielectric matrix)
  average eigenvalue GAMMA=   1.8263
  2.7206  2.7206  2.4725  1.2240  0.9876  0.8325

 Free energy of the ion-electron system (eV)
  ---------------------------------------------------
  alpha Z        PSCENC =        -5.64355352
  Ewald energy   TEWEN  =     -2242.66093683
  -1/2 Hartree   DENC   =        -3.30457622
  -V(xc)+E(xc)   XCENC  =      -845.22528875
  PAW double counting   =      1130.51283880     -107.76875160
  entropy T*S    EENTRO =        -0.00057727
  eigenvalues    EBANDS =       243.41408640
  atomic energy  EATOM  =      1713.22913220
  ---------------------------------------------------
  free energy    TOTEN  =      -117.44762679 eV

  energy without entropy =     -117.44704952  energy(sigma->0) =     -117.44733815


--------------------------------------------------------------------------------------------------------




----------------------------------------- Iteration    1(  12)  ---------------------------------------


    POTLOK:  VPU time    0.37: CPU time    0.37
    SETDIJ:  VPU time    0.01: CPU time    0.01
    EDDAV :  VPU time   24.94: CPU time   24.93
    DOS   :  VPU time    0.00: CPU time   -0.00
    CHARGE:  VPU time    1.25: CPU time    1.25
    MIXING:  VPU time    0.00: CPU time    0.01
    ------------------------------------------
      LOOP:  VPU time   26.59: CPU time   26.59

 eigenvalue-minimisations  :  4144
 total energy-change (2. order) : 0.9137577E-06  (-0.1628571E-08)
 number of electron   96.0000002 magnetization 
 augmentation part    -1.3636845 magnetization 

 Broyden mixing:
  rms(total) = 0.84233E-05    rms(broyden)= 0.84233E-05
  rms(prec ) = 0.14095E-04
  weight for this iteration     100.00

 eigenvalues of (default mixing * dielectric matrix)
  average eigenvalue GAMMA=   1.7788
  2.7054  2.7054  2.4616  1.6391  1.0210  1.1068  0.8126

 Free energy of the ion-electron system (eV)
  ---------------------------------------------------
  alpha Z        PSCENC =        -5.64355352
  Ewald energy   TEWEN  =     -2242.66093683
  -1/2 Hartree   DENC   =        -3.30481955
  -V(xc)+E(xc)   XCENC  =      -845.22510282
  PAW double counting   =      1130.49405448     -107.74940521
  entropy T*S    EENTRO =        -0.00057724
  eigenvalues    EBANDS =       243.41358260
  atomic energy  EATOM  =      1713.22913220
  ---------------------------------------------------
  free energy    TOTEN  =      -117.44762587 eV

  energy without entropy =     -117.44704863  energy(sigma->0) =     -117.44733725


--------------------------------------------------------------------------------------------------------




----------------------------------------- Iteration    1(  13)  ---------------------------------------


    POTLOK:  VPU time    0.19: CPU time    0.19
    SETDIJ:  VPU time    0.01: CPU time    0.01
    EDDAV :  VPU time   18.87: CPU time   18.88
    DOS   :  VPU time    0.00: CPU time   -0.00
    CHARGE:  VPU time    1.47: CPU time    1.47
    MIXING:  VPU time    0.01: CPU time    0.01
    ------------------------------------------
      LOOP:  VPU time   20.54: CPU time   20.57

 eigenvalue-minimisations  :  3744
 total energy-change (2. order) : 0.5278616E-07  (-0.2755460E-09)
 number of electron   96.0000002 magnetization 
 augmentation part    -1.3636841 magnetization 

 Broyden mixing:
  rms(total) = 0.28570E-05    rms(broyden)= 0.28570E-05
  rms(prec ) = 0.44340E-05
  weight for this iteration     100.00

 eigenvalues of (default mixing * dielectric matrix)
  average eigenvalue GAMMA=   1.7294
  2.7225  2.7225  2.4883  1.7462  1.3521  1.0419  0.9476  0.8144

 Free energy of the ion-electron system (eV)
  ---------------------------------------------------
  alpha Z        PSCENC =        -5.64355352
  Ewald energy   TEWEN  =     -2242.66093683
  -1/2 Hartree   DENC   =        -3.30481454
  -V(xc)+E(xc)   XCENC  =      -845.22516212
  PAW double counting   =      1130.49431958     -107.74966729
  entropy T*S    EENTRO =        -0.00057725
  eigenvalues    EBANDS =       243.41363394
  atomic energy  EATOM  =      1713.22913220
  ---------------------------------------------------
  free energy    TOTEN  =      -117.44762582 eV

  energy without entropy =     -117.44704857  energy(sigma->0) =     -117.44733720


--------------------------------------------------------------------------------------------------------




----------------------------------------- Iteration    1(  14)  ---------------------------------------


    POTLOK:  VPU time    0.20: CPU time    0.20
    SETDIJ:  VPU time    0.01: CPU time    0.01
    EDDAV :  VPU time   24.81: CPU time   24.85
    DOS   :  VPU time    0.00: CPU time   -0.00
    CHARGE:  VPU time    1.35: CPU time    1.35
    MIXING:  VPU time    0.01: CPU time    0.01
    ------------------------------------------
      LOOP:  VPU time   26.37: CPU time   26.42

 eigenvalue-minimisations  :  3760
 total energy-change (2. order) :-0.1037870E-07  (-0.4131880E-10)
 number of electron   96.0000002 magnetization 
 augmentation part    -1.3636854 magnetization 

 Broyden mixing:
  rms(total) = 0.95025E-06    rms(broyden)= 0.95024E-06
  rms(prec ) = 0.12125E-05
  weight for this iteration     100.00

 eigenvalues of (default mixing * dielectric matrix)
  average eigenvalue GAMMA=   1.7064
  2.7476  2.7476  2.4927  2.0865  1.3571  1.2026  0.8215  0.9718  0.9303

 Free energy of the ion-electron system (eV)
  ---------------------------------------------------
  alpha Z        PSCENC =        -5.64355352
  Ewald energy   TEWEN  =     -2242.66093683
  -1/2 Hartree   DENC   =        -3.30482094
  -V(xc)+E(xc)   XCENC  =      -845.22515613
  PAW double counting   =      1130.49460969     -107.74997082
  entropy T*S    EENTRO =        -0.00057725
  eigenvalues    EBANDS =       243.41364775
  atomic energy  EATOM  =      1713.22913220
  ---------------------------------------------------
  free energy    TOTEN  =      -117.44762583 eV

  energy without entropy =     -117.44704858  energy(sigma->0) =     -117.44733721


--------------------------------------------------------------------------------------------------------




----------------------------------------- Iteration    1(  15)  ---------------------------------------


    POTLOK:  VPU time    0.20: CPU time    0.20
    SETDIJ:  VPU time    0.01: CPU time    0.01
    EDDAV :  VPU time   20.27: CPU time   20.27
    DOS   :  VPU time   -0.00: CPU time   -0.00
    CHARGE:  VPU time    1.63: CPU time    1.63
    MIXING:  VPU time    0.01: CPU time    0.01
    ------------------------------------------
      LOOP:  VPU time   22.12: CPU time   22.12

 eigenvalue-minimisations  :  3720
 total energy-change (2. order) :-0.2112279E-07  (-0.1147896E-10)
 number of electron   96.0000002 magnetization 
 augmentation part    -1.3636853 magnetization 

 Broyden mixing:
  rms(total) = 0.44805E-06    rms(broyden)= 0.44804E-06
  rms(prec ) = 0.69828E-06
  weight for this iteration     100.00

 eigenvalues of (default mixing * dielectric matrix)
  average eigenvalue GAMMA=   1.6752
  2.7862  2.6454  2.5855  2.2737  1.6394  1.2461  1.0035  0.9137  0.8294  0.8294

 Free energy of the ion-electron system (eV)
  ---------------------------------------------------
  alpha Z        PSCENC =        -5.64355352
  Ewald energy   TEWEN  =     -2242.66093683
  -1/2 Hartree   DENC   =        -3.30482309
  -V(xc)+E(xc)   XCENC  =      -845.22516039
  PAW double counting   =      1130.49498885     -107.75036480
  entropy T*S    EENTRO =        -0.00057725
  eigenvalues    EBANDS =       243.41366897
  atomic energy  EATOM  =      1713.22913220
  ---------------------------------------------------
  free energy    TOTEN  =      -117.44762585 eV

  energy without entropy =     -117.44704860  energy(sigma->0) =     -117.44733723


--------------------------------------------------------------------------------------------------------




----------------------------------------- Iteration    1(  16)  ---------------------------------------


    POTLOK:  VPU time    0.49: CPU time    0.49
    SETDIJ:  VPU time    0.01: CPU time    0.01
    EDDAV :  VPU time   26.91: CPU time   26.90
    DOS   :  VPU time    0.00: CPU time   -0.00
    ------------------------------------------
      LOOP:  VPU time   27.42: CPU time   27.41

 eigenvalue-minimisations  :  3712
 total energy-change (2. order) :-0.4552248E-08  (-0.2635859E-11)
 number of electron   96.0000002 magnetization 
 augmentation part    -1.3636853 magnetization 

 Free energy of the ion-electron system (eV)
  ---------------------------------------------------
  alpha Z        PSCENC =        -5.64355352
  Ewald energy   TEWEN  =     -2242.66093683
  -1/2 Hartree   DENC   =        -3.30482193
  -V(xc)+E(xc)   XCENC  =      -845.22516069
  PAW double counting   =      1130.49510689     -107.75048695
  entropy T*S    EENTRO =        -0.00057725
  eigenvalues    EBANDS =       243.41367221
  atomic energy  EATOM  =      1713.22913220
  ---------------------------------------------------
  free energy    TOTEN  =      -117.44762586 eV

  energy without entropy =     -117.44704861  energy(sigma->0) =     -117.44733723


--------------------------------------------------------------------------------------------------------




 average (electrostatic) potential at core
  the test charge radii are     1.0406
  (the norm of the test charge is              1.0000)
       1 -74.2335       2 -74.2336       3 -74.2336       4 -74.2336       5 -74.2336
       6 -74.2336       7 -74.2336       8 -74.2336       9 -74.2336      10 -74.2336
      11 -74.2336      12 -74.2336      13 -74.2336      14 -74.2336      15 -74.2336
      16 -74.2336      17 -74.2340      18 -74.2331      19 -74.2336      20 -74.2335
      21 -74.2340      22 -74.2331      23 -74.2336      24 -74.2335      25 -74.2340
      26 -74.2331      27 -74.2340      28 -74.2331      29 -74.2336      30 -74.2335
      31 -74.2336      32 -74.2335
 
 
 
 E-fermi :   6.6016     XC(G=0):  -9.6881     alpha+bet :-12.8884
   add alpha+bet to get absolut eigen values

 k-point   1 :       0.0000    0.0000    0.0000
  band No.  band energies     occupation 
      1      -3.5982      2.00000
      2      -1.5554      2.00000
      3      -1.5520      2.00000
      4      -1.5520      2.00000
      5      -1.5520      2.00000
      6      -1.5520      2.00000
      7      -1.5485      2.00000
      8       0.4623      2.00000
      9       0.4666      2.00000
     10       0.4666      2.00000
     11       0.4681      2.00000
     12       0.4683      2.00000
     13       0.4683      2.00000
     14       0.4683      2.00000
     15       0.4683      2.00000
     16       0.4684      2.00000
     17       0.4699      2.00000
     18       0.4699      2.00000
     19       0.4742      2.00000
     20       2.3832      2.00000
     21       2.3832      2.00000
     22       2.3832      2.00000
     23       2.3832      2.00000
     24       2.5472      2.00000
     25       2.5472      2.00000
     26       2.5472      2.00000
     27       2.5472      2.00000
     28       4.0042      2.00000
     29       4.0042      2.00000
     30       4.0042      2.00000
     31       4.9684      2.00000
     32       4.9684      2.00000
     33       4.9684      2.00000
     34       5.9141      2.00000
     35       5.9141      2.00000
     36       5.9180      2.00000
     37       5.9180      2.00000
     38       5.9182      2.00000
     39       5.9182      2.00000
     40       5.9182      2.00000
     41       5.9182      2.00000
     42       5.9183      2.00000
     43       5.9183      2.00000
     44       5.9222      2.00000
     45       5.9222      2.00000
     46       6.9393      0.00000
     47       6.9402      0.00000
     48       6.9402      0.00000
     49       6.9402      0.00000
     50       6.9402      0.00000
     51       6.9410      0.00000
     52       6.9844      0.00000
     53       6.9882      0.00000
     54       6.9882      0.00000
     55       6.9882      0.00000
     56       6.9882      0.00000
     57       6.9919      0.00000
     58       7.8291      0.00000
     59       7.8291      0.00000
     60       7.8309      0.00000
     61       7.8328      0.00000
     62       7.8329      0.00000
     63       7.8329      0.00000
     64       7.8329      0.00000
     65       7.8330      0.00000
     66       7.8330      0.00000
     67       7.8349      0.00000
     68       7.8368      0.00000
     69       7.8368      0.00000
     70       8.9034      0.00000
     71       8.9054      0.00000
     72       8.9063      0.00000

 k-point   2 :       0.1667    0.0000    0.0000
  band No.  band energies     occupation 
      1      -3.5411      2.00000
      2      -2.1745      2.00000
      3      -1.4955      2.00000
      4      -1.4955      2.00000
      5      -1.4955      2.00000
      6      -1.4955      2.00000
      7      -0.8196      2.00000
      8      -0.1464      2.00000
      9      -0.1464      2.00000
     10      -0.1464      2.00000
     11      -0.1464      2.00000
     12       0.5240      2.00000
     13       0.5240      2.00000
     14       0.5240      2.00000
     15       0.5240      2.00000
     16       1.1916      2.00000
     17       1.1916      2.00000
     18       1.1916      2.00000
     19       1.1916      2.00000
     20       1.8528      2.00000
     21       1.8528      2.00000
     22       1.8528      2.00000
     23       1.8528      2.00000
     24       3.1339      2.00000
     25       3.1850      2.00000
     26       3.1850      2.00000
     27       3.1850      2.00000
     28       3.1850      2.00000
     29       4.0573      2.00000
     30       4.0573      2.00000
     31       5.0246      2.00000
     32       5.0247      2.00000
     33       5.0877      2.00000
     34       5.0877      2.00000
     35       5.0877      2.00000
     36       5.0878      2.00000
     37       5.3329      2.00000
     38       5.3329      2.00000
     39       5.9394      2.00000
     40       5.9713      2.00000
     41       5.9713      2.00000
     42       5.9713      2.00000
     43       5.9713      2.00000
     44       6.3610      2.00000
     45       6.3610      2.00000
     46       6.6102      0.22752
     47       6.6102      0.22752
     48       7.0184      0.00000
     49       7.0187      0.00000
     50       7.0187      0.00000
     51       7.0189      0.00000
     52       7.0259      0.00000
     53       7.0262      0.00000
     54       7.0262      0.00000
     55       7.0265      0.00000
     56       7.2478      0.00000
     57       7.2478      0.00000
     58       7.2478      0.00000
     59       7.2478      0.00000
     60       7.6675      0.00000
     61       7.6675      0.00000
     62       7.8926      0.00000
     63       7.8926      0.00000
     64       7.8926      0.00000
     65       7.8926      0.00000
     66       8.3197      0.00000
     67       8.3197      0.00000
     68       8.3197      0.00000
     69       8.3197      0.00000
     70       8.5244      0.00000
     71       8.5244      0.00000
     72       8.5244      0.00000

 k-point   3 :       0.3333    0.0000    0.0000
  band No.  band energies     occupation 
      1      -3.3696      2.00000
      2      -2.6856      2.00000
      3      -1.3263      2.00000
      4      -1.3263      2.00000
      5      -1.3263      2.00000
      6      -1.3263      2.00000
      7      -0.6511      2.00000
      8      -0.6511      2.00000
      9      -0.6511      2.00000
     10      -0.6511      2.00000
     11       0.0209      2.00000
     12       0.6909      2.00000
     13       0.6909      2.00000
     14       0.6909      2.00000
     15       0.6909      2.00000
     16       1.3567      2.00000
     17       1.3567      2.00000
     18       1.3567      2.00000
     19       1.3567      2.00000
     20       2.0114      2.00000
     21       2.0216      2.00000
     22       2.0216      2.00000
     23       2.0216      2.00000
     24       2.0218      2.00000
     25       3.9856      2.00000
     26       3.9856      2.00000
     27       3.9857      2.00000
     28       3.9857      2.00000
     29       4.0026      2.00000
     30       4.0027      2.00000
     31       4.0027      2.00000
     32       4.0027      2.00000
     33       4.2167      2.00000
     34       4.2167      2.00000
     35       4.8544      2.00000
     36       4.8544      2.00000
     37       5.1933      2.00000
     38       5.1933      2.00000
     39       5.8632      2.00000
     40       5.8633      2.00000
     41       5.9409      2.00000
     42       5.9409      2.00000
     43       5.9410      2.00000
     44       5.9410      2.00000
     45       6.1308      2.00000
     46       6.1308      2.00000
     47       6.1309      2.00000
     48       6.1309      2.00000
     49       6.7690      0.00000
     50       6.7690      0.00000
     51       6.7690      0.00000
     52       6.7690      0.00000
     53       7.1832      0.00000
     54       7.1832      0.00000
     55       7.1832      0.00000
     56       7.1832      0.00000
     57       7.3633      0.00000
     58       7.4091      0.00000
     59       7.4091      0.00000
     60       7.8352      0.00000
     61       7.8352      0.00000
     62       7.8352      0.00000
     63       7.8352      0.00000
     64       8.4627      0.00000
     65       8.4627      0.00000
     66       9.2861      0.00000
     67       9.2864      0.00000
     68       9.2868      0.00000
     69       9.2875      0.00000
     70       9.3217      0.00000
     71       9.3221      0.00000
     72       9.3242      0.00000

 k-point   4 :       0.5000    0.0000    0.0000
  band No.  band energies     occupation 
      1      -3.0856      2.00000
      2      -3.0829      2.00000
      3      -1.0484      2.00000
      4      -1.0454      2.00000
      5      -1.0454      2.00000
      6      -1.0447      2.00000
      7      -1.0446      2.00000
      8      -1.0439      2.00000
      9      -1.0439      2.00000
     10      -1.0409      2.00000
     11       0.9631      2.00000
     12       0.9665      2.00000
     13       0.9676      2.00000
     14       0.9676      2.00000
     15       0.9682      2.00000
     16       0.9684      2.00000
     17       0.9691      2.00000
     18       0.9699      2.00000
     19       0.9699      2.00000
     20       0.9728      2.00000
     21       2.9537      2.00000
     22       2.9545      2.00000
     23       2.9545      2.00000
     24       2.9551      2.00000
     25       2.9553      2.00000
     26       2.9559      2.00000
     27       2.9559      2.00000
     28       2.9567      2.00000
     29       4.4809      2.00000
     30       4.4809      2.00000
     31       4.4837      2.00000
     32       4.4837      2.00000
     33       4.9229      2.00000
     34       4.9229      2.00000
     35       4.9237      2.00000
     36       4.9237      2.00000
     37       4.9244      2.00000
     38       4.9245      2.00000
     39       4.9252      2.00000
     40       4.9252      2.00000
     41       5.4717      2.00000
     42       5.4724      2.00000
     43       5.4742      2.00000
     44       5.4749      2.00000
     45       6.3946      2.00000
     46       6.3946      2.00000
     47       6.3956      2.00000
     48       6.3967      2.00000
     49       6.3968      2.00000
     50       6.3979      2.00000
     51       6.3989      2.00000
     52       6.3989      2.00000
     53       7.4534      0.00000
     54       7.4548      0.00000
     55       7.4548      0.00000
     56       7.4548      0.00000
     57       7.4565      0.00000
     58       7.4566      0.00000
     59       7.4566      0.00000
     60       7.4580      0.00000
     61       8.3136      0.00000
     62       8.3136      0.00000
     63       8.3158      0.00000
     64       8.3158      0.00000
     65       8.9084      0.00000
     66       8.9100      0.00000
     67       9.3354      0.00000
     68       9.3360      0.00000
     69       9.3371      0.00000
     70       9.3377      0.00000
     71      10.2240      0.00000
     72      10.2260      0.00000

 k-point   5 :       0.0000    0.1667    0.0000
  band No.  band energies     occupation 
      1      -3.5411      2.00000
      2      -2.1745      2.00000
      3      -1.4982      2.00000
      4      -1.4955      2.00000
      5      -1.4955      2.00000
      6      -1.4929      2.00000
      7      -0.8196      2.00000
      8      -0.1491      2.00000
      9      -0.1464      2.00000
     10      -0.1464      2.00000
     11      -0.1438      2.00000
     12       0.5218      2.00000
     13       0.5230      2.00000
     14       0.5250      2.00000
     15       0.5261      2.00000
     16       1.1889      2.00000
     17       1.1916      2.00000
     18       1.1916      2.00000
     19       1.1943      2.00000
     20       1.8507      2.00000
     21       1.8518      2.00000
     22       1.8538      2.00000
     23       1.8549      2.00000
     24       3.1339      2.00000
     25       3.1829      2.00000
     26       3.1840      2.00000
     27       3.1860      2.00000
     28       3.1871      2.00000
     29       4.0573      2.00000
     30       4.0573      2.00000
     31       5.0247      2.00000
     32       5.0247      2.00000
     33       5.0849      2.00000
     34       5.0877      2.00000
     35       5.0877      2.00000
     36       5.0904      2.00000
     37       5.3329      2.00000
     38       5.3330      2.00000
     39       5.9393      2.00000
     40       5.9688      2.00000
     41       5.9713      2.00000
     42       5.9714      2.00000
     43       5.9738      2.00000
     44       6.3610      2.00000
     45       6.3610      2.00000
     46       6.6102      0.22724
     47       6.6102      0.22695
     48       7.0170      0.00000
     49       7.0188      0.00000
     50       7.0189      0.00000
     51       7.0207      0.00000
     52       7.0237      0.00000
     53       7.0250      0.00000
     54       7.0269      0.00000
     55       7.0283      0.00000
     56       7.2453      0.00000
     57       7.2478      0.00000
     58       7.2478      0.00000
     59       7.2503      0.00000
     60       7.6675      0.00000
     61       7.6675      0.00000
     62       7.8900      0.00000
     63       7.8925      0.00000
     64       7.8926      0.00000
     65       7.8951      0.00000
     66       8.3178      0.00000
     67       8.3197      0.00000
     68       8.3197      0.00000
     69       8.3216      0.00000
     70       8.5219      0.00000
     71       8.5244      0.00000
     72       8.5249      0.00000

 k-point   6 :       0.1667    0.1667    0.0000
  band No.  band energies     occupation 
      1      -3.4839      2.00000
      2      -2.1189      2.00000
      3      -2.1167      2.00000
      4      -1.4391      2.00000
      5      -1.4391      2.00000
      6      -0.7652      2.00000
      7      -0.7634      2.00000
      8      -0.7616      2.00000
      9      -0.0920      2.00000
     10      -0.0911      2.00000
     11      -0.0899      2.00000
     12      -0.0890      2.00000
     13       0.5791      2.00000
     14       0.5802      2.00000
     15       1.2441      2.00000
     16       1.2451      2.00000
     17       1.2465      2.00000
     18       1.2467      2.00000
     19       1.2479      2.00000
     20       1.2491      2.00000
     21       1.9117      2.00000
     22       2.4964      2.00000
     23       2.4964      2.00000
     24       2.6539      2.00000
     25       2.6539      2.00000
     26       3.1879      2.00000
     27       3.1890      2.00000
     28       3.8945      2.00000
     29       3.8945      2.00000
     30       4.1104      2.00000
     31       4.4915      2.00000
     32       4.4937      2.00000
     33       5.0809      2.00000
     34       5.1222      2.00000
     35       5.1223      2.00000
     36       5.1616      2.00000
     37       5.1616      2.00000
     38       5.3849      2.00000
     39       5.3873      2.00000
     40       5.7879      2.00000
     41       5.7888      2.00000
     42       5.9937      2.00000
     43       5.9947      2.00000
     44       6.4162      2.00000
     45       6.4182      2.00000
     46       6.4342      2.00000
     47       6.4350      2.00000
     48       6.4364      2.00000
     49       6.4374      2.00000
     50       6.6609      0.00000
     51       6.6631      0.00000
     52       6.6652      0.00000
     53       7.2997      0.00000
     54       7.3005      0.00000
     55       7.7194      0.00000
     56       7.7209      0.00000
     57       7.7211      0.00000
     58       7.7212      0.00000
     59       7.7220      0.00000
     60       7.7236      0.00000
     61       7.7287      0.00000
     62       7.9348      0.00000
     63       7.9350      0.00000
     64       7.9387      0.00000
     65       7.9406      0.00000
     66       7.9573      0.00000
     67       7.9574      0.00000
     68       8.5830      0.00000
     69       8.5851      0.00000
     70       9.0089      0.00000
     71       9.0091      0.00000
     72       9.2194      0.00000

 k-point   7 :       0.3333    0.1667    0.0000
  band No.  band energies     occupation 
      1      -3.3125      2.00000
      2      -2.6287      2.00000
      3      -1.9479      2.00000
      4      -1.2713      2.00000
      5      -1.2699      2.00000
      6      -1.2687      2.00000
      7      -0.5962      2.00000
      8      -0.5950      2.00000
      9      -0.5937      2.00000
     10       0.0751      2.00000
     11       0.0772      2.00000
     12       0.0772      2.00000
     13       0.0790      2.00000
     14       0.7460      2.00000
     15       0.7460      2.00000
     16       1.4123      2.00000
     17       1.4132      2.00000
     18       1.4136      2.00000
     19       2.0663      2.00000
     20       2.0737      2.00000
     21       2.0740      2.00000
     22       2.0770      2.00000
     23       2.0777      2.00000
     24       2.7381      2.00000
     25       3.3518      2.00000
     26       3.3848      2.00000
     27       3.4025      2.00000
     28       3.4026      2.00000
     29       4.0044      2.00000
     30       4.0399      2.00000
     31       4.0399      2.00000
     32       4.2698      2.00000
     33       4.6929      2.00000
     34       4.7104      2.00000
     35       4.7105      2.00000
     36       4.9075      2.00000
     37       5.2493      2.00000
     38       5.3045      2.00000
     39       5.3046      2.00000
     40       5.3462      2.00000
     41       5.3463      2.00000
     42       5.5456      2.00000
     43       5.9184      2.00000
     44       5.9516      2.00000
     45       5.9516      2.00000
     46       6.1585      2.00000
     47       6.1837      2.00000
     48       6.5825      1.99330
     49       6.5951      1.64184
     50       6.6411      0.00000
     51       6.6411      0.00000
     52       6.8129      0.00000
     53       6.8229      0.00000
     54       7.2399      0.00000
     55       7.4173      0.00000
     56       7.4600      0.00000
     57       7.4633      0.00000
     58       7.8836      0.00000
     59       8.1073      0.00000
     60       8.1073      0.00000
     61       8.5041      0.00000
     62       8.5162      0.00000
     63       8.5196      0.00000
     64       8.5196      0.00000
     65       8.5294      0.00000
     66       8.7046      0.00000
     67       8.7377      0.00000
     68       8.7494      0.00000
     69       8.7495      0.00000
     70       9.3392      0.00000
     71       9.3401      0.00000
     72       9.3696      0.00000

 k-point   8 :       0.5000    0.1667    0.0000
  band No.  band energies     occupation 
      1      -3.0286      2.00000
      2      -3.0259      2.00000
      3      -1.6665      2.00000
      4      -1.6638      2.00000
      5      -0.9903      2.00000
      6      -0.9891      2.00000
      7      -0.9876      2.00000
      8      -0.9865      2.00000
      9      -0.3159      2.00000
     10      -0.3132      2.00000
     11       0.3543      2.00000
     12       0.3554      2.00000
     13       0.3569      2.00000
     14       0.3581      2.00000
     15       1.0213      2.00000
     16       1.0228      2.00000
     17       1.6876      2.00000
     18       1.6887      2.00000
     19       1.6903      2.00000
     20       1.6913      2.00000
     21       2.3492      2.00000
     22       2.3507      2.00000
     23       3.0091      2.00000
     24       3.0092      2.00000
     25       3.0106      2.00000
     26       3.0107      2.00000
     27       3.6227      2.00000
     28       3.6253      2.00000
     29       3.6667      2.00000
     30       3.6682      2.00000
     31       4.3250      2.00000
     32       4.3251      2.00000
     33       4.3265      2.00000
     34       4.3265      2.00000
     35       4.5340      2.00000
     36       4.5368      2.00000
     37       5.5278      2.00000
     38       5.5303      2.00000
     39       5.5723      2.00000
     40       5.5736      2.00000
     41       5.5750      2.00000
     42       5.5763      2.00000
     43       5.6277      2.00000
     44       5.6277      2.00000
     45       5.6292      2.00000
     46       5.6292      2.00000
     47       5.8100      2.00000
     48       5.8128      2.00000
     49       6.4304      2.00000
     50       6.4330      2.00000
     51       6.8560      0.00000
     52       6.8585      0.00000
     53       7.0874      0.00000
     54       7.0902      0.00000
     55       7.5009      0.00000
     56       7.5026      0.00000
     57       8.1522      0.00000
     58       8.1547      0.00000
     59       8.3665      0.00000
     60       8.3688      0.00000
     61       8.3737      0.00000
     62       8.3748      0.00000
     63       8.3765      0.00000
     64       8.3772      0.00000
     65       8.9617      0.00000
     66       8.9633      0.00000
     67       9.3890      0.00000
     68       9.3896      0.00000
     69       9.4172      0.00000
     70       9.4174      0.00000
     71       9.4190      0.00000
     72       9.4193      0.00000

 k-point   9 :       0.0000    0.3333    0.0000
  band No.  band energies     occupation 
      1      -3.3696      2.00000
      2      -2.6856      2.00000
      3      -1.3290      2.00000
      4      -1.3263      2.00000
      5      -1.3263      2.00000
      6      -1.3236      2.00000
      7      -0.6538      2.00000
      8      -0.6511      2.00000
      9      -0.6511      2.00000
     10      -0.6484      2.00000
     11       0.0209      2.00000
     12       0.6888      2.00000
     13       0.6899      2.00000
     14       0.6919      2.00000
     15       0.6931      2.00000
     16       1.3546      2.00000
     17       1.3557      2.00000
     18       1.3577      2.00000
     19       1.3589      2.00000
     20       2.0115      2.00000
     21       2.0189      2.00000
     22       2.0216      2.00000
     23       2.0216      2.00000
     24       2.0243      2.00000
     25       3.9830      2.00000
     26       3.9857      2.00000
     27       3.9857      2.00000
     28       3.9884      2.00000
     29       4.0005      2.00000
     30       4.0016      2.00000
     31       4.0036      2.00000
     32       4.0048      2.00000
     33       4.2166      2.00000
     34       4.2167      2.00000
     35       4.8543      2.00000
     36       4.8544      2.00000
     37       5.1932      2.00000
     38       5.1933      2.00000
     39       5.8632      2.00000
     40       5.8633      2.00000
     41       5.9388      2.00000
     42       5.9400      2.00000
     43       5.9420      2.00000
     44       5.9432      2.00000
     45       6.1283      2.00000
     46       6.1308      2.00000
     47       6.1309      2.00000
[...]
      6      -1.1575      2.00000
      7      -1.1575      2.00000
      8      -1.1575      2.00000
      9       0.1888      2.00000
     10       0.1888      2.00000
     11       0.1888      2.00000
     12       0.1888      2.00000
     13       1.5212      2.00000
     14       1.5212      2.00000
     15       1.5212      2.00000
     16       1.5212      2.00000
     17       1.5212      2.00000
     18       1.5212      2.00000
     19       1.5212      2.00000
     20       1.5212      2.00000
     21       2.8434      2.00000
     22       2.8434      2.00000
     23       2.8435      2.00000
     24       2.8435      2.00000
     25       2.8435      2.00000
     26       2.8435      2.00000
     27       2.8437      2.00000
     28       2.8437      2.00000
     29       4.1125      2.00000
     30       4.1125      2.00000
     31       4.1126      2.00000
     32       4.1126      2.00000
     33       4.1620      2.00000
     34       4.1620      2.00000
     35       4.1621      2.00000
     36       4.1621      2.00000
     37       4.1621      2.00000
     38       4.1621      2.00000
     39       4.1622      2.00000
     40       4.1622      2.00000
     41       5.4592      2.00000
     42       5.4592      2.00000
     43       5.4592      2.00000
     44       5.4592      2.00000
     45       6.7551      0.00000
     46       6.7551      0.00000
     47       6.7551      0.00000
     48       6.7552      0.00000
     49       6.9222      0.00000
     50       6.9222      0.00000
     51       6.9222      0.00000
     52       6.9222      0.00000
     53       7.9825      0.00000
     54       7.9825      0.00000
     55       7.9825      0.00000
     56       7.9825      0.00000
     57       7.9825      0.00000
     58       7.9825      0.00000
     59       7.9825      0.00000
     60       7.9826      0.00000
     61       8.0408      0.00000
     62       8.0409      0.00000
     63       8.0409      0.00000
     64       8.0409      0.00000
     65       9.4407      0.00000
     66       9.4407      0.00000
     67       9.4407      0.00000
     68       9.4407      0.00000
     69       9.4407      0.00000
     70       9.4407      0.00000
     71       9.4408      0.00000
     72       9.4408      0.00000

 k-point  39 :       0.3333    0.5000    0.5000
  band No.  band energies     occupation 
      1      -2.3449      2.00000
      2      -2.3448      2.00000
      3      -2.3448      2.00000
      4      -2.3448      2.00000
      5      -1.6653      2.00000
      6      -1.6653      2.00000
      7      -1.6653      2.00000
      8      -1.6653      2.00000
      9       1.0239      2.00000
     10       1.0239      2.00000
     11       1.0239      2.00000
     12       1.0239      2.00000
     13       1.6871      2.00000
     14       1.6871      2.00000
     15       1.6871      2.00000
     16       1.6871      2.00000
     17       1.6871      2.00000
     18       1.6871      2.00000
     19       1.6872      2.00000
     20       1.6872      2.00000
     21       2.3492      2.00000
     22       2.3492      2.00000
     23       2.3493      2.00000
     24       2.3493      2.00000
     25       2.3493      2.00000
     26       2.3493      2.00000
     27       2.3493      2.00000
     28       2.3493      2.00000
     29       3.0009      2.00000
     30       3.0009      2.00000
     31       3.0009      2.00000
     32       3.0010      2.00000
     33       4.9760      2.00000
     34       4.9760      2.00000
     35       4.9760      2.00000
     36       4.9760      2.00000
     37       4.9760      2.00000
     38       4.9760      2.00000
     39       4.9761      2.00000
     40       4.9761      2.00000
     41       5.6218      2.00000
     42       5.6218      2.00000
     43       5.6219      2.00000
     44       5.6219      2.00000
     45       6.2703      2.00000
     46       6.2703      2.00000
     47       6.2703      2.00000
     48       6.2703      2.00000
     49       6.9033      0.00000
     50       6.9033      0.00000
     51       6.9033      0.00000
     52       6.9033      0.00000
     53       6.9033      0.00000
     54       6.9033      0.00000
     55       6.9033      0.00000
     56       6.9033      0.00000
     57       8.3319      0.00000
     58       8.3319      0.00000
     59       8.3319      0.00000
     60       8.3319      0.00000
     61       8.8382      0.00000
     62       8.8382      0.00000
     63       8.8382      0.00000
     64       8.8382      0.00000
     65       9.5997      0.00000
     66       9.5997      0.00000
     67       9.5997      0.00000
     68       9.5998      0.00000
     69       9.5998      0.00000
     70       9.5998      0.00000
     71       9.5998      0.00000
     72       9.5998      0.00000

 k-point  40 :       0.5000    0.5000    0.5000
  band No.  band energies     occupation 
      1      -2.0658      2.00000
      2      -2.0618      2.00000
      3      -2.0618      2.00000
      4      -2.0614      2.00000
      5      -2.0613      2.00000
      6      -2.0610      2.00000
      7      -2.0610      2.00000
      8      -2.0570      2.00000
      9       1.9534      2.00000
     10       1.9597      2.00000
     11       1.9597      2.00000
     12       1.9627      2.00000
     13       1.9629      2.00000
     14       1.9629      2.00000
     15       1.9633      2.00000
     16       1.9633      2.00000
     17       1.9633      2.00000
     18       1.9633      2.00000
     19       1.9634      2.00000
     20       1.9634      2.00000
     21       1.9634      2.00000
     22       1.9634      2.00000
     23       1.9634      2.00000
     24       1.9634      2.00000
     25       1.9635      2.00000
     26       1.9635      2.00000
     27       1.9638      2.00000
     28       1.9639      2.00000
     29       1.9640      2.00000
     30       1.9671      2.00000
     31       1.9671      2.00000
     32       1.9734      2.00000
     33       5.8868      2.00000
     34       5.8868      2.00000
     35       5.8882      2.00000
     36       5.8905      2.00000
     37       5.8917      2.00000
     38       5.8921      2.00000
     39       5.8921      2.00000
     40       5.8921      2.00000
     41       5.8923      2.00000
     42       5.8923      2.00000
     43       5.8923      2.00000
     44       5.8923      2.00000
     45       5.8924      2.00000
     46       5.8924      2.00000
     47       5.8924      2.00000
     48       5.8924      2.00000
     49       5.8926      2.00000
     50       5.8926      2.00000
     51       5.8926      2.00000
     52       5.8930      2.00000
     53       5.8942      2.00000
     54       5.8965      2.00000
     55       5.8979      2.00000
     56       5.8979      2.00000
     57       9.7329      0.00000
     58       9.7330      0.00000
     59       9.7333      0.00000
     60       9.7338      0.00000
     61       9.7350      0.00000
     62       9.7357      0.00000
     63       9.7358      0.00000
     64       9.7358      0.00000
     65       9.8605      0.00000
     66       9.8621      0.00000
     67       9.8625      0.00000
     68       9.8628      0.00000
     69       9.8637      0.00000
     70       9.8639      0.00000
     71       9.8642      0.00000
     72       9.8650      0.00000


--------------------------------------------------------------------------------------------------------


 soft charge-density along one line, spin component           1
         0         1         2         3         4         5         6         7         8         9
 total charge-density along one line
 
 pseudopotential strength for first ion, spin component:           1
  8.490  -0.004  -0.000   0.000  -0.000  -0.000   0.000  -0.000
 -0.004   0.000  -0.000   0.000  -0.000   0.000  -0.000   0.000
 -0.000  -0.000   1.982   0.000   0.000  -0.022  -0.000  -0.000
  0.000   0.000   0.000   1.982  -0.000  -0.000  -0.022   0.000
 -0.000  -0.000   0.000  -0.000   1.982  -0.000   0.000  -0.022
 -0.000   0.000  -0.022  -0.000  -0.000  -0.013  -0.000  -0.000
  0.000  -0.000  -0.000  -0.022   0.000  -0.000  -0.013   0.000
 -0.000   0.000  -0.000   0.000  -0.022  -0.000   0.000  -0.013
 total augmentation occupancy for first ion, spin component:           1
  1.401  -0.318   0.000   0.000   0.001   0.000  -0.000  -0.001
 -0.318   0.345   0.000   0.000  -0.003   0.000  -0.000   0.001
  0.000   0.000   0.624   0.003   0.009  -0.115  -0.001  -0.001
  0.000   0.000   0.003   0.628  -0.002  -0.001  -0.113  -0.000
  0.001  -0.003   0.009  -0.002   0.626  -0.001  -0.000  -0.114
  0.000   0.000  -0.115  -0.001  -0.001   0.025   0.000   0.000
 -0.000  -0.000  -0.001  -0.113  -0.000   0.000   0.024   0.000
 -0.001   0.001  -0.001  -0.000  -0.114   0.000   0.000   0.024


------------------------ aborting loop because EDIFF is reached ----------------------------------------




--------------------------------------------------------------------------------------------------------


    CHARGE:  VPU time    1.80: CPU time    1.80
    FORLOC:  VPU time    0.07: CPU time    0.07
    FORNL :  VPU time    8.19: CPU time    8.19
    STRESS:  VPU time   20.48: CPU time   20.47
    FORCOR:  VPU time    0.36: CPU time    0.36
    FORHAR:  VPU time    0.07: CPU time    0.07
    MIXING:  VPU time    0.01: CPU time    0.01


--------------------------------------------------------------------------------------------------------



  FREE ENERGIE OF THE ION-ELECTRON SYSTEM (eV)
  ---------------------------------------------------
  free  energy   TOTEN  =      -117.447626 eV

  energy  without entropy=     -117.447049  energy(sigma->0) =     -117.447337
 

  FORCE on cell =-STRESS in cart. coord.  units (eV/reduce length):
  Direction    X        Y        Z        XY       YZ       ZX
  --------------------------------------------------------------------------------------
  Alpha Z     -5.64     -5.64     -5.64
  Ewald     -747.56   -747.56   -747.56      0.00     -0.00      0.00
  Hartree      1.10      1.10      1.10     -0.00     -0.00     -0.00
  E(xc)     -262.73   -262.73   -262.73     -0.00     -0.00     -0.00
  Local      -10.71    -10.71    -10.71      0.00     -0.00      0.00
  n-local    592.93    594.01    591.84     -0.40     -0.20     -0.01
  augment    -36.45    -36.45    -36.45      0.00      0.00      0.00
  Kinetic    439.41    434.21    444.60      7.28      2.88     -1.52
  -------------------------------------------------------------------------------------
  Total      -29.66    -29.66    -29.66     -0.00      0.00      0.00
  in kB      -77.97    -77.98    -77.98     -0.00      0.00      0.00
  external pressure =      -77.98 kB  Pullay stress =        0.00 kB


 VOLUME and BASIS-vectors are now :
 -----------------------------------------------------------------------------
  energy-cutoff  :      500.00
  volume of cell :      609.44
      direct lattice vectors                 reciprocal lattice vectors
     8.478343376  0.000000000  0.000000000     0.117947570  0.000000000  0.000000000
     0.000000000  8.478343376  0.000000000     0.000000000  0.117947570  0.000000000
     0.000000000  0.000000000  8.478343376     0.000000000  0.000000000  0.117947570

  length of vectors
     8.478343376  8.478343376  8.478343376     0.117947570  0.117947570  0.117947570


 FORCES acting on ions
    electron-ion (+dipol)            ewald-force                    non-local-force                 convergence-correction
 -----------------------------------------------------------------------------------------------
   0.327E+00 -.216E-13 -.131E-07   -.276E+00 0.178E-14 -.277E-14   -.755E-01 0.829E-19 0.385E-19   0.113E-06 -.644E-14 -.298E-14
   -.748E-01 -.611E-13 0.941E-13   0.729E-01 -.844E-14 -.419E-14   0.323E-02 -.516E-21 0.238E-20   -.112E-06 -.886E-14 -.238E-14
   0.237E-01 0.694E-14 -.648E-14   -.231E-01 -.118E-13 -.197E-14   -.101E-02 -.603E-20 -.258E-20   -.953E-06 0.636E-14 -.127E-14
   -.192E-01 -.149E-12 -.337E-12   0.181E-01 -.118E-13 -.553E-14   0.138E-02 -.536E-20 0.433E-20   0.114E-05 0.885E-14 -.415E-15
   0.237E-01 -.428E-13 -.204E-14   -.231E-01 -.711E-14 -.700E-14   -.101E-02 0.575E-19 -.310E-20   -.944E-06 -.305E-14 0.294E-14
   -.192E-01 -.387E-12 0.516E-13   0.181E-01 -.711E-14 -.345E-14   0.138E-02 0.420E-19 -.106E-20   0.114E-05 -.432E-14 0.236E-14
   0.720E-02 0.426E-13 -.144E-14   -.952E-02 -.107E-13 -.167E-14   0.241E-02 0.289E-19 -.121E-19   -.398E-06 0.295E-14 0.123E-14
   -.661E-02 0.314E-12 0.253E-13   0.891E-02 -.107E-13 0.188E-14   -.237E-02 0.118E-19 -.652E-20   0.567E-06 0.433E-14 0.447E-15
   0.423E-01 -.183E-03 0.183E-03   -.435E-01 0.161E-03 -.161E-03   0.102E-03 0.323E-04 -.323E-04   -.582E-06 0.308E-08 -.309E-08
   -.247E-01 0.617E-04 -.617E-04   0.245E-01 -.484E-04 0.484E-04   -.357E-03 -.109E-04 0.109E-04   0.730E-06 0.360E-08 -.359E-08
   0.423E-01 0.183E-03 0.183E-03   -.435E-01 -.161E-03 -.161E-03   0.102E-03 -.323E-04 -.323E-04   -.582E-06 -.308E-08 -.309E-08
   -.247E-01 -.617E-04 -.617E-04   0.245E-01 0.484E-04 0.484E-04   -.357E-03 0.109E-04 0.109E-04   0.730E-06 -.360E-08 -.359E-08
   0.423E-01 -.183E-03 -.183E-03   -.435E-01 0.161E-03 0.161E-03   0.102E-03 0.323E-04 0.323E-04   -.582E-06 0.308E-08 0.309E-08
   -.247E-01 0.617E-04 0.617E-04   0.245E-01 -.484E-04 -.484E-04   -.357E-03 -.109E-04 -.109E-04   0.730E-06 0.360E-08 0.359E-08
   0.423E-01 0.183E-03 -.183E-03   -.435E-01 -.161E-03 0.161E-03   0.102E-03 -.323E-04 0.323E-04   -.582E-06 -.308E-08 0.309E-08
   -.247E-01 -.617E-04 0.617E-04   0.245E-01 0.484E-04 -.484E-04   -.357E-03 0.109E-04 -.109E-04   0.730E-06 -.360E-08 0.359E-08
   -.405E-01 -.441E-14 0.722E-01   0.352E-01 -.111E-14 -.668E-01   0.922E-02 0.849E-20 -.947E-02   -.993E-07 -.568E-14 0.589E-06
   -.404E-01 0.242E-12 -.729E-01   0.350E-01 -.178E-14 0.673E-01   0.940E-02 -.289E-20 0.976E-02   -.634E-08 -.320E-14 -.571E-06
   -.114E-02 -.115E-13 0.653E-02   0.117E-02 0.888E-15 -.552E-02   -.238E-03 -.150E-19 -.431E-03   -.135E-06 0.571E-14 -.303E-06
   -.103E-02 0.636E-13 -.653E-02   0.107E-02 -.178E-14 0.553E-02   -.241E-03 0.786E-20 0.429E-03   -.464E-07 0.313E-14 0.262E-06
   -.405E-01 -.407E-14 -.722E-01   0.352E-01 -.111E-14 0.668E-01   0.922E-02 -.108E-19 0.947E-02   -.993E-07 -.769E-14 -.589E-06
   -.404E-01 -.623E-13 0.729E-01   0.350E-01 -.178E-14 -.673E-01   0.940E-02 -.235E-20 -.976E-02   -.634E-08 -.610E-14 0.571E-06
   -.114E-02 -.146E-13 -.653E-02   0.117E-02 0.888E-15 0.552E-02   -.238E-03 -.203E-20 0.431E-03   -.135E-06 0.768E-14 0.303E-06
   -.103E-02 -.221E-12 0.653E-02   0.107E-02 0.178E-14 -.553E-02   -.241E-03 0.452E-20 -.429E-03   -.464E-07 0.600E-14 -.262E-06
   -.405E-01 -.722E-01 0.888E-14   0.352E-01 0.668E-01 0.257E-14   0.922E-02 0.947E-02 0.169E-20   -.983E-07 -.592E-06 -.201E-14
   -.404E-01 0.729E-01 -.419E-12   0.350E-01 -.673E-01 0.146E-14   0.940E-02 -.976E-02 -.304E-20   -.538E-08 0.574E-06 -.394E-14
   -.405E-01 0.722E-01 0.768E-15   0.352E-01 -.668E-01 0.257E-14   0.922E-02 -.947E-02 -.583E-20   -.983E-07 0.592E-06 -.238E-16
   -.404E-01 -.729E-01 -.638E-14   0.350E-01 0.673E-01 0.146E-14   0.940E-02 0.976E-02 0.823E-21   -.538E-08 -.574E-06 -.106E-14
   -.114E-02 -.653E-02 -.313E-14   0.117E-02 0.552E-02 0.118E-14   -.238E-03 0.431E-03 -.565E-21   -.135E-06 0.300E-06 0.202E-14
   -.103E-02 0.653E-02 0.166E-12   0.107E-02 -.553E-02 0.562E-14   -.241E-03 -.429E-03 -.385E-20   -.471E-07 -.259E-06 0.393E-14
   -.114E-02 0.653E-02 0.122E-14   0.117E-02 -.552E-02 0.296E-14   -.238E-03 -.431E-03 -.301E-20   -.135E-06 -.300E-06 0.319E-16
   -.103E-02 -.653E-02 -.335E-14   0.107E-02 0.553E-02 0.740E-14   -.241E-03 0.429E-03 0.532E-20   -.471E-07 0.259E-06 0.105E-14
 -----------------------------------------------------------------------------------------------
   0.116E-05 -.598E-12 -.131E-07   0.210E-14 -.536E-15 -.803E-15   -.314E-05 0.542E-19 -.440E-17   -.314E-08 0.280E-16 0.384E-17
 
 
 POSITION                                       TOTAL-FORCE (eV/Angst)
 -----------------------------------------------------------------------------------
      2.12959      2.11959      0.00000        -0.024931      0.000000      0.000000
      6.35876      2.11959      0.00000         0.001263      0.000000      0.000000
      2.11959      6.35876      0.00000        -0.000402     -0.000000     -0.000000
      6.35876      6.35876      0.00000         0.000338      0.000000      0.000000
      2.11959      2.11959      4.23917        -0.000402     -0.000000      0.000000
      6.35876      2.11959      4.23917         0.000338      0.000000     -0.000000
      2.11959      6.35876      4.23917         0.000086     -0.000000     -0.000000
      6.35876      6.35876      4.23917        -0.000076      0.000000     -0.000000
      2.11959      0.00000      2.11959        -0.001108      0.000011     -0.000011
      6.35876      0.00000      2.11959        -0.000559      0.000002     -0.000002
      2.11959      4.23917      2.11959        -0.001108     -0.000011     -0.000011
      6.35876      4.23917      2.11959        -0.000559     -0.000002     -0.000002
      2.11959      0.00000      6.35876        -0.001108      0.000011      0.000011
      6.35876      0.00000      6.35876        -0.000559      0.000002      0.000002
      2.11959      4.23917      6.35876        -0.001108     -0.000011      0.000011
      6.35876      4.23917      6.35876        -0.000559     -0.000002      0.000002
      0.00000      2.11959      2.11959         0.003966     -0.000000     -0.004023
      4.23917      2.11959      2.11959         0.004059      0.000000      0.004151
      0.00000      6.35876      2.11959        -0.000205      0.000000      0.000573
      4.23917      6.35876      2.11959        -0.000207     -0.000000     -0.000571
      0.00000      2.11959      6.35876         0.003966      0.000000      0.004023
      4.23917      2.11959      6.35876         0.004059     -0.000000     -0.004151
      0.00000      6.35876      6.35876        -0.000205      0.000000     -0.000573
      4.23917      6.35876      6.35876        -0.000207     -0.000000      0.000571
      0.00000      0.00000      0.00000         0.003966      0.004023      0.000000
      4.23917      0.00000      0.00000         0.004059     -0.004151     -0.000000
      0.00000      4.23917      0.00000         0.003966     -0.004023     -0.000000
      4.23917      4.23917      0.00000         0.004059      0.004151     -0.000000
      0.00000      0.00000      4.23917        -0.000205     -0.000573     -0.000000
      4.23917      0.00000      4.23917        -0.000207      0.000571     -0.000000
      0.00000      4.23917      4.23917        -0.000205      0.000573      0.000000
      4.23917      4.23917      4.23917        -0.000207     -0.000571     -0.000000
 -----------------------------------------------------------------------------------
    total drift:                               -0.000002     -0.000000     -0.000000


--------------------------------------------------------------------------------------------------------



 mean value of Nose-termostat <S>:     1.000 mean value of <T> :     0.000
 mean temperature <T/S>/<1/S>  :     0.000

     LOOP+:  VPU time  550.63: CPU time  550.65
  
  
 General timing and accounting informations for this job:
 ========================================================
  
                  Total CPU time used (sec):      562.167
                            User time (sec):      450.723
                          System time (sec):      111.443
                         Elapsed time (sec):      562.201
  
                   Maximum memory used (kb):     1079804.
                   Average memory used (kb):           0.
  
                          Minor page faults:       255148
                          Major page faults:            0
                 Voluntary context switches:          902
