<?xml version="1.0" encoding="ISO-8859-1"?>
<modeling>
 <generator>
  <i name="program" type="string">vasp</i>
  <i name="version" type="string">4.6.28 </i>
  <i name="subversion" type="string">25Jul05 complex  parallel</i>
  <i name="platform" type="string">LinuxIFC</i>
  <i name="date" type="string">2016 10 19</i>
  <i name="time" type="string">17:31:43</i>
 </generator>
 <incar>
  <i type="string" name="PREC">accurate</i>
  <i type="int" name="IALGO">    38</i>
  <i name="EDIFF">      0.00000001</i>
  <i type="int" name="IBRION">    -1</i>
  <i name="ENCUT">    500.00000000</i>
  <i type="logical" name="LREAL"> F  </i>
  <i type="int" name="ISMEAR">     0</i>
  <i name="SIGMA">      0.01000000</i>
  <i type="logical" name="LWAVE"> F  </i>
  <i type="logical" name="LCHARG"> F  </i>
 </incar>
 <kpoints>
  <generation param="Auto">
   <i name="subdivisionlength">     50.00000000</i>
   <v type="int" name="divisions">       6       6       6</v>
   <v name="usershift">      0.00000000      0.00000000      0.00000000</v>
   <v name="genvec1">      0.16666667      0.00000000      0.00000000</v>
   <v name="genvec2">      0.00000000      0.16666667      0.00000000</v>
   <v name="genvec3">      0.00000000      0.00000000      0.16666667</v>
   <v name="shift">      0.00000000      0.00000000      0.00000000</v>
  </generation>
  <varray name="kpointlist" >
   <v>       0.00000000      0.00000000      0.00000000</v>
   <v>       0.16666667      0.00000000      0.00000000</v>
   <v>       0.33333333      0.00000000      0.00000000</v>
   <v>       0.50000000      0.00000000      0.00000000</v>
   <v>       0.00000000      0.16666667      0.00000000</v>
   <v>       0.16666667      0.16666667      0.00000000</v>
   <v>       0.33333333      0.16666667      0.00000000</v>
   <v>       0.50000000      0.16666667      0.00000000</v>
   <v>       0.00000000      0.33333333      0.00000000</v>
   <v>       0.16666667      0.33333333      0.00000000</v>
   <v>       0.33333333      0.33333333      0.00000000</v>
   <v>       0.50000000      0.33333333      0.00000000</v>
   <v>       0.00000000      0.50000000      0.00000000</v>
   <v>       0.16666667      0.50000000      0.00000000</v>
   <v>       0.33333333      0.50000000      0.00000000</v>
   <v>       0.50000000      0.50000000      0.00000000</v>
   <v>       0.00000000      0.16666667      0.16666667</v>
   <v>       0.16666667      0.16666667      0.16666667</v>
   <v>       0.33333333      0.16666667      0.16666667</v>
   <v>       0.50000000      0.16666667      0.16666667</v>
   <v>       0.00000000      0.33333333      0.16666667</v>
   <v>       0.16666667      0.33333333      0.16666667</v>
   <v>       0.33333333      0.33333333      0.16666667</v>
   <v>       0.50000000      0.33333333      0.16666667</v>
   <v>       0.00000000      0.50000000      0.16666667</v>
   <v>       0.16666667      0.50000000      0.16666667</v>
   <v>       0.33333333      0.50000000      0.16666667</v>
   <v>       0.50000000      0.50000000      0.16666667</v>
   <v>       0.00000000      0.33333333      0.33333333</v>
   <v>       0.16666667      0.33333333      0.33333333</v>
   <v>       0.33333333      0.33333333      0.33333333</v>
   <v>       0.50000000      0.33333333      0.33333333</v>
   <v>       0.00000000      0.50000000      0.33333333</v>
   <v>       0.16666667      0.50000000      0.33333333</v>
   <v>       0.33333333      0.50000000      0.33333333</v>
   <v>       0.50000000      0.50000000      0.33333333</v>
   <v>       0.00000000      0.50000000      0.50000000</v>
   <v>       0.16666667      0.50000000      0.50000000</v>
   <v>       0.33333333      0.50000000      0.50000000</v>
   <v>       0.50000000      0.50000000      0.50000000</v>
  </varray>
  <varray name="weights" >
   <v>       0.00462963</v>
   <v>       0.00925926</v>
   <v>       0.00925926</v>
   <v>       0.00462963</v>
   <v>       0.01851852</v>
   <v>       0.03703704</v>
   <v>       0.03703704</v>
   <v>       0.01851852</v>
   <v>       0.01851852</v>
   <v>       0.03703704</v>
   <v>       0.03703704</v>
   <v>       0.01851852</v>
   <v>       0.00925926</v>
   <v>       0.01851852</v>
   <v>       0.01851852</v>
   <v>       0.00925926</v>
   <v>       0.01851852</v>
   <v>       0.03703704</v>
   <v>       0.03703704</v>
   <v>       0.01851852</v>
   <v>       0.03703704</v>
   <v>       0.07407407</v>
   <v>       0.07407407</v>
   <v>       0.03703704</v>
   <v>       0.01851852</v>
   <v>       0.03703704</v>
   <v>       0.03703704</v>
   <v>       0.01851852</v>
   <v>       0.01851852</v>
   <v>       0.03703704</v>
   <v>       0.03703704</v>
   <v>       0.01851852</v>
   <v>       0.01851852</v>
   <v>       0.03703704</v>
   <v>       0.03703704</v>
   <v>       0.01851852</v>
   <v>       0.00462963</v>
   <v>       0.00925926</v>
   <v>       0.00925926</v>
   <v>       0.00462963</v>
  </varray>
 </kpoints>
 <parameters>
  <separator name="general" >
   <i type="string" name="SYSTEM">unknown system</i>
   <i type="logical" name="LCOMPAT"> F  </i>
  </separator>
  <separator name="electronic" >
   <i type="string" name="PREC">accura</i>
   <i name="ENMAX">    500.00000000</i>
   <i name="ENAUG">    291.05200000</i>
   <i name="EDIFF">      0.00000001</i>
   <i type="int" name="IALGO">    38</i>
   <i type="int" name="IWAVPR">    10</i>
   <i type="int" name="NBANDS">    65</i>
   <i name="NELECT">     96.00000000</i>
   <separator name="electronic smearing" >
    <i type="int" name="ISMEAR">     0</i>
    <i name="SIGMA">      0.01000000</i>
   </separator>
   <separator name="electronic projectors" >
    <i type="logical" name="LREAL"> F  </i>
    <v name="ROPT">      0.00000000</v>
    <i type="int" name="LMAXPAW">  -100</i>
    <i type="int" name="LMAXMIX">     2</i>
   </separator>
   <separator name="electronic startup" >
    <i type="int" name="ISTART">     0</i>
    <i type="int" name="ICHARG">     2</i>
    <i type="int" name="INIWAV">     1</i>
   </separator>
   <separator name="electronic spin" >
    <i type="int" name="ISPIN">     1</i>
    <i type="logical" name="LNONCOLLINEAR"> F  </i>
    <v name="MAGMOM">      1.00000000      1.00000000      1.00000000      1.00000000      1.00000000      1.00000000      1.00000000      1.00000000      1.00000000      1.00000000      1.00000000      1.00000000      1.00000000      1.00000000      1.00000000      1.00000000      1.00000000      1.00000000      1.00000000      1.00000000
      1.00000000      1.00000000      1.00000000      1.00000000      1.00000000      1.00000000      1.00000000      1.00000000      1.00000000      1.00000000      1.00000000      1.00000000</v>
    <i name="NUPDOWN">     -1.00000000</i>
    <i type="logical" name="LSORBIT"> F  </i>
    <v name="SAXIS">      0.00000000      0.00000000      1.00000000</v>
    <i type="logical" name="LSPIRAL"> F  </i>
    <v name="QSPIRAL">      0.00000000      0.00000000      0.00000000</v>
    <i type="logical" name="LZEROZ"> F  </i>
   </separator>
   <separator name="electronic exchange-correlation" >
    <i type="string" name="GGA">--</i>
    <i type="int" name="VOSKOWN">     0</i>
    <i type="logical" name="LASPH"> F  </i>
    <i type="logical" name="LMETAGGA"> F  </i>
    <i type="string" name="GGA2">--</i>
   </separator>
   <separator name="electronic convergence" >
    <i type="int" name="NELM">    60</i>
    <i type="int" name="NELMDL">     0</i>
    <i type="int" name="NELMIN">     2</i>
    <i name="ENINI">    500.00000000</i>
    <separator name="electronic convergence detail" >
     <i type="logical" name="LDIAG"> T  </i>
     <i name="WEIMIN">      0.00000000</i>
     <i name="EBREAK">      0.00000000</i>
     <i name="DEPER">      0.30000000</i>
     <i type="int" name="NRMM">     4</i>
     <i name="TIME">      0.10000000</i>
    </separator>
   </separator>
   <separator name="electronic mixer" >
    <i name="AMIX">      0.40000000</i>
    <i name="BMIX">      1.00000000</i>
    <i name="AMIN">      0.10000000</i>
    <i name="AMIX_MAG">      1.60000000</i>
    <i name="BMIX_MAG">      1.00000000</i>
    <separator name="electronic mixer details" >
     <i type="int" name="IMIX">     4</i>
     <i type="int" name="MAXMIX">   -45</i>
     <i name="WC">    100.00000000</i>
     <i type="int" name="INIMIX">     1</i>
     <i type="int" name="MIXPRE">     1</i>
     <i type="int" name="MREMOVE">     5</i>
    </separator>
   </separator>
   <separator name="electronic dipolcorrection" >
    <i type="int" name="IDIPOL">     0</i>
    <i type="logical" name="LDIPOL"> F  </i>
    <v name="DIPOL">   -100.00000000</v>
    <i name="EFIELD">      0.00000000</i>
   </separator>
  </separator>
  <separator name="grids" >
   <i type="int" name="NGX">    64</i>
   <i type="int" name="NGY">    64</i>
   <i type="int" name="NGZ">    64</i>
   <i type="int" name="NGXF">   128</i>
   <i type="int" name="NGYF">   128</i>
   <i type="int" name="NGZF">   128</i>
   <i type="logical" name="ADDGRID"> F  </i>
  </separator>
  <separator name="ionic" >
   <i type="int" name="NSW">     0</i>
   <i type="int" name="IBRION">    -1</i>
   <i type="int" name="ISIF">     2</i>
   <i name="PSTRESS">      0.00000000</i>
   <i name="EDIFFG">      0.00000010</i>
   <i type="int" name="NFREE">     0</i>
   <i name="POTIM">      0.50000000</i>
   <i name="SMASS">     -3.00000000</i>
  </separator>
  <separator name="ionic md" >
   <i name="TEBEG">      0.00010000</i>
   <i name="TEEND">      0.00010000</i>
   <i type="int" name="NBLOCK">     1</i>
   <i type="int" name="KBLOCK">     1</i>
   <i type="int" name="NPACO">   256</i>
   <i name="APACO">     16.00000000</i>
  </separator>
  <separator name="symmetry" >
   <i type="int" name="ISYM">     2</i>
   <i name="SYMPREC">      0.00001000</i>
  </separator>
  <separator name="dos" >
   <i type="logical" name="LORBIT"> F  </i>
   <v name="RWIGS">     -1.00000000</v>
   <i type="int" name="NEDOS">   301</i>
   <i name="EMIN">     10.00000000</i>
   <i name="EMAX">    -10.00000000</i>
  </separator>
  <separator name="writing" >
   <i type="int" name="NWRITE">     2</i>
   <i type="logical" name="LWAVE"> F  </i>
   <i type="logical" name="LCHARG"> F  </i>
   <i type="logical" name="LPARD"> F  </i>
   <i type="logical" name="LVTOT"> F  </i>
   <i type="logical" name="LELF"> F  </i>
   <i type="logical" name="LOPTICS"> F  </i>
   <i name="STM">      0.00000000</i>
  </separator>
  <separator name="performance" >
   <i type="int" name="NPAR">     8</i>
   <i type="int" name="NSIM">     4</i>
   <i type="int" name="NBLK">   256</i>
   <i type="logical" name="LPLANE"> T  </i>
   <i type="logical" name="LCRITICAL_MEM"> F  </i>
   <i type="logical" name="LSCALAPACK"> F  </i>
   <i type="logical" name="LSCALU"> F  </i>
   <i type="logical" name="LASYNC"> F  </i>
  </separator>
  <separator name="miscellaneous" >
   <i type="int" name="IDIOT">     3</i>
   <i type="logical" name="LMUSIC"> F  </i>
   <v name="POMASS">     26.98200000</v>
   <i type="logical" name="LCORR"> T  </i>
  </separator>
  <i type="logical" name="LREAL_COMPAT"> F  </i>
  <i type="logical" name="GGA_COMPAT"> T  </i>
  <i type="logical" name="LBERRY"> F  </i>
  <i type="int" name="ICORELEVEL">     0</i>
  <i type="logical" name="LDAU"> F  </i>
  <i type="int" name="I_CONSTRAINED_M">     0</i>
 </parameters>
 <atominfo>
  <atoms>      32</atoms>
  <types>       1</types>
  <array name="atoms" >
   <dimension dim="1">ion</dimension>
   <field type="string">element</field>
   <field type="int">atomtype</field>
   <set>
    <rc><c>Al</c><c>   1</c></rc>
    <rc><c>Al</c><c>   1</c></rc>
    <rc><c>Al</c><c>   1</c></rc>
    <rc><c>Al</c><c>   1</c></rc>
    <rc><c>Al</c><c>   1</c></rc>
    <rc><c>Al</c><c>   1</c></rc>
    <rc><c>Al</c><c>   1</c></rc>
    <rc><c>Al</c><c>   1</c></rc>
    <rc><c>Al</c><c>   1</c></rc>
    <rc><c>Al</c><c>   1</c></rc>
    <rc><c>Al</c><c>   1</c></rc>
    <rc><c>Al</c><c>   1</c></rc>
    <rc><c>Al</c><c>   1</c></rc>
    <rc><c>Al</c><c>   1</c></rc>
    <rc><c>Al</c><c>   1</c></rc>
    <rc><c>Al</c><c>   1</c></rc>
    <rc><c>Al</c><c>   1</c></rc>
    <rc><c>Al</c><c>   1</c></rc>
    <rc><c>Al</c><c>   1</c></rc>
    <rc><c>Al</c><c>   1</c></rc>
    <rc><c>Al</c><c>   1</c></rc>
    <rc><c>Al</c><c>   1</c></rc>
    <rc><c>Al</c><c>   1</c></rc>
    <rc><c>Al</c><c>   1</c></rc>
    <rc><c>Al</c><c>   1</c></rc>
    <rc><c>Al</c><c>   1</c></rc>
    <rc><c>Al</c><c>   1</c></rc>
    <rc><c>Al</c><c>   1</c></rc>
    <rc><c>Al</c><c>   1</c></rc>
    <rc><c>Al</c><c>   1</c></rc>
    <rc><c>Al</c><c>   1</c></rc>
    <rc><c>Al</c><c>   1</c></rc>
   </set>
  </array>
  <array name="atomtypes" >
   <dimension dim="1">type</dimension>
   <field type="int">atomspertype</field>
   <field type="string">element</field>
   <field>mass</field>
   <field>valence</field>
   <field type="string">pseudopotential</field>
   <set>
    <rc><c>  32</c><c>Al</c><c>     26.98200000</c><c>      3.00000000</c><c> PAW_PBE Al 04Jan2001                   </c></rc>
   </set>
  </array>
 </atominfo>
 <structure name="initialpos" >
  <crystal>
   <varray name="basis" >
    <v>       8.47834338      0.00000000      0.00000000</v>
    <v>       0.00000000      8.47834338      0.00000000</v>
    <v>       0.00000000      0.00000000      8.47834338</v>
   </varray>
   <i name="volume">    609.44287640</i>
   <varray name="rec_basis" >
    <v>       0.11794757      0.00000000      0.00000000</v>
    <v>       0.00000000      0.11794757      0.00000000</v>
    <v>       0.00000000      0.00000000      0.11794757</v>
   </varray>
  </crystal>
  <varray name="positions" >
   <v>       0.25117948      0.25000000      0.00000000</v>
   <v>       0.75000000      0.25000000      0.00000000</v>
   <v>       0.25000000      0.75000000      0.00000000</v>
   <v>       0.75000000      0.75000000      0.00000000</v>
   <v>       0.25000000      0.25000000      0.50000000</v>
   <v>       0.75000000      0.25000000      0.50000000</v>
   <v>       0.25000000      0.75000000      0.50000000</v>
   <v>       0.75000000      0.75000000      0.50000000</v>
   <v>       0.25000000      0.00000000      0.25000000</v>
   <v>       0.75000000      0.00000000      0.25000000</v>
   <v>       0.25000000      0.50000000      0.25000000</v>
   <v>       0.75000000      0.50000000      0.25000000</v>
   <v>       0.25000000      0.00000000      0.75000000</v>
   <v>       0.75000000      0.00000000      0.75000000</v>
   <v>       0.25000000      0.50000000      0.75000000</v>
   <v>       0.75000000      0.50000000      0.75000000</v>
   <v>       0.00000000      0.25000000      0.25000000</v>
   <v>       0.50000000      0.25000000      0.25000000</v>
   <v>       0.00000000      0.75000000      0.25000000</v>
   <v>       0.50000000      0.75000000      0.25000000</v>
   <v>       0.00000000      0.25000000      0.75000000</v>
   <v>       0.50000000      0.25000000      0.75000000</v>
   <v>       0.00000000      0.75000000      0.75000000</v>
   <v>       0.50000000      0.75000000      0.75000000</v>
   <v>       0.00000000      0.00000000      0.00000000</v>
   <v>       0.50000000      0.00000000      0.00000000</v>
   <v>       0.00000000      0.50000000      0.00000000</v>
   <v>       0.50000000      0.50000000      0.00000000</v>
   <v>       0.00000000      0.00000000      0.50000000</v>
   <v>       0.50000000      0.00000000      0.50000000</v>
   <v>       0.00000000      0.50000000      0.50000000</v>
   <v>       0.50000000      0.50000000      0.50000000</v>
  </varray>
 </structure>
 <calculation>
  <scstep>
   <time name="dav">   38.44   38.44</time>
   <time name="total">   38.67   38.68</time>
   <energy>
    <i name="alphaZ">     -5.64355352</i>
    <i name="ewald">  -2242.66093683</i>
    <i name="hartreedc">     -5.70768390</i>
    <i name="XCdc">   -847.69236787</i>
    <i name="pawpsdc">   1137.73615723</i>
    <i name="pawaedc">   -115.16745734</i>
    <i name="eentropy">     -0.00043031</i>
    <i name="bandstr">    473.26582603</i>
    <i name="atom">   1713.22913220</i>
    <i name="e_fr_energy">    107.35868569</i>
    <i name="e_wo_entrp">    107.35911600</i>
    <i name="e_0_energy">    107.35890085</i>
   </energy>
  </scstep>
  <scstep>
   <time name="dav">   36.81   36.80</time>
   <time name="total">   36.82   36.81</time>
   <energy>
    <i name="e_fr_energy">   -105.24412243</i>
    <i name="e_wo_entrp">   -105.24335135</i>
    <i name="e_0_energy">   -105.24373689</i>
   </energy>
  </scstep>
  <scstep>
   <time name="dav">   44.20   44.19</time>
   <time name="total">   44.24   44.24</time>
   <energy>
    <i name="e_fr_energy">   -117.85368830</i>
    <i name="e_wo_entrp">   -117.85302875</i>
    <i name="e_0_energy">   -117.85335852</i>
   </energy>
  </scstep>
  <scstep>
   <time name="dav">   33.30   33.29</time>
   <time name="total">   33.31   33.31</time>
   <energy>
    <i name="e_fr_energy">   -118.10784829</i>
    <i name="e_wo_entrp">   -118.10710586</i>
    <i name="e_0_energy">   -118.10747707</i>
   </energy>
  </scstep>
  <scstep>
   <time name="dav">   37.62   37.61</time>
   <time name="total">   39.27   39.26</time>
   <energy>
    <i name="e_fr_energy">   -118.11111511</i>
    <i name="e_wo_entrp">   -118.11036845</i>
    <i name="e_0_energy">   -118.11074178</i>
   </energy>
  </scstep>
  <scstep>
   <time name="dav">   30.04   30.03</time>
   <time name="total">   31.60   31.59</time>
   <energy>
    <i name="e_fr_energy">   -117.72456254</i>
    <i name="e_wo_entrp">   -117.72385805</i>
    <i name="e_0_energy">   -117.72421029</i>
   </energy>
  </scstep>
  <scstep>
   <time name="dav">   31.02   31.01</time>
   <time name="total">   32.99   33.00</time>
   <energy>
    <i name="e_fr_energy">   -117.44777657</i>
    <i name="e_wo_entrp">   -117.44719464</i>
    <i name="e_0_energy">   -117.44748560</i>
   </energy>
  </scstep>
  <scstep>
   <time name="dav">   33.74   33.73</time>
   <time name="total">   35.47   35.46</time>
   <energy>
    <i name="e_fr_energy">   -117.44761823</i>
    <i name="e_wo_entrp">   -117.44703873</i>
    <i name="e_0_energy">   -117.44732848</i>
   </energy>
  </scstep>
  <scstep>
   <time name="dav">   29.95   29.94</time>
   <time name="total">   31.69   31.70</time>
   <energy>
    <i name="e_fr_energy">   -117.44763281</i>
    <i name="e_wo_entrp">   -117.44705536</i>
    <i name="e_0_energy">   -117.44734408</i>
   </energy>
  </scstep>
  <scstep>
   <time name="dav">   31.82   31.82</time>
   <time name="total">   33.70   33.71</time>
   <energy>
    <i name="e_fr_energy">   -117.44763041</i>
    <i name="e_wo_entrp">   -117.44705308</i>
    <i name="e_0_energy">   -117.44734174</i>
   </energy>
  </scstep>
  <scstep>
   <time name="dav">   37.15   37.13</time>
   <time name="total">   38.82   38.81</time>
   <energy>
    <i name="e_fr_energy">   -117.44762679</i>
    <i name="e_wo_entrp">   -117.44704952</i>
    <i name="e_0_energy">   -117.44733815</i>
   </energy>
  </scstep>
  <scstep>
   <time name="dav">   24.94   24.93</time>
   <time name="total">   26.59   26.59</time>
   <energy>
    <i name="e_fr_energy">   -117.44762587</i>
    <i name="e_wo_entrp">   -117.44704863</i>
    <i name="e_0_energy">   -117.44733725</i>
   </energy>
  </scstep>
  <scstep>
   <time name="dav">   18.87   18.88</time>
   <time name="total">   20.54   20.57</time>
   <energy>
    <i name="e_fr_energy">   -117.44762582</i>
    <i name="e_wo_entrp">   -117.44704857</i>
    <i name="e_0_energy">   -117.44733720</i>
   </energy>
  </scstep>
  <scstep>
   <time name="dav">   24.81   24.85</time>
   <time name="total">   26.37   26.42</time>
   <energy>
    <i name="e_fr_energy">   -117.44762583</i>
    <i name="e_wo_entrp">   -117.44704858</i>
    <i name="e_0_energy">   -117.44733721</i>
   </energy>
  </scstep>
  <scstep>
   <time name="dav">   20.27   20.27</time>
   <time name="total">   22.12   22.12</time>
   <energy>
    <i name="e_fr_energy">   -117.44762585</i>
    <i name="e_wo_entrp">   -117.44704860</i>
    <i name="e_0_energy">   -117.44733723</i>
   </energy>
  </scstep>
  <scstep>
   <time name="dav">   26.91   26.90</time>
   <time name="total">   27.42   27.41</time>
   <energy>
    <i name="alphaZ">     -5.64355352</i>
    <i name="ewald">  -2242.66093683</i>
    <i name="hartreedc">     -3.30482193</i>
    <i name="XCdc">   -845.22516069</i>
    <i name="pawpsdc">   1130.49510689</i>
    <i name="pawaedc">   -107.75048695</i>
    <i name="eentropy">     -0.00057725</i>
    <i name="bandstr">    243.41367221</i>
    <i name="atom">   1713.22913220</i>
    <i name="e_fr_energy">   -117.44762586</i>
    <i name="e_wo_entrp">   -117.44704861</i>
    <i name="e_0_energy">   -117.44733723</i>
   </energy>
  </scstep>
  <structure>
   <crystal>
    <varray name="basis" >
     <v>       8.47834338      0.00000000      0.00000000</v>
     <v>       0.00000000      8.47834338      0.00000000</v>
     <v>       0.00000000      0.00000000      8.47834338</v>
    </varray>
    <i name="volume">    609.44287640</i>
    <varray name="rec_basis" >
     <v>       0.11794757      0.00000000      0.00000000</v>
     <v>       0.00000000      0.11794757      0.00000000</v>
     <v>       0.00000000      0.00000000      0.11794757</v>
    </varray>
   </crystal>
   <varray name="positions" >
    <v>       0.25117948      0.25000000      0.00000000</v>
    <v>       0.75000000      0.25000000      0.00000000</v>
    <v>       0.25000000      0.75000000      0.00000000</v>
    <v>       0.75000000      0.75000000      0.00000000</v>
    <v>       0.25000000      0.25000000      0.50000000</v>
    <v>       0.75000000      0.25000000      0.50000000</v>
    <v>       0.25000000      0.75000000      0.50000000</v>
    <v>       0.75000000      0.75000000      0.50000000</v>
    <v>       0.25000000      0.00000000      0.25000000</v>
    <v>       0.75000000      0.00000000      0.25000000</v>
    <v>       0.25000000      0.50000000      0.25000000</v>
    <v>       0.75000000      0.50000000      0.25000000</v>
    <v>       0.25000000      0.00000000      0.75000000</v>
    <v>       0.75000000      0.00000000      0.75000000</v>
    <v>       0.25000000      0.50000000      0.75000000</v>
    <v>       0.75000000      0.50000000      0.75000000</v>
    <v>       0.00000000      0.25000000      0.25000000</v>
    <v>       0.50000000      0.25000000      0.25000000</v>
    <v>       0.00000000      0.75000000      0.25000000</v>
    <v>       0.50000000      0.75000000      0.25000000</v>
    <v>       0.00000000      0.25000000      0.75000000</v>
    <v>       0.50000000      0.25000000      0.75000000</v>
    <v>       0.00000000      0.75000000      0.75000000</v>
    <v>       0.50000000      0.75000000      0.75000000</v>
    <v>       0.00000000      0.00000000      0.00000000</v>
    <v>       0.50000000      0.00000000      0.00000000</v>
    <v>       0.00000000      0.50000000      0.00000000</v>
    <v>       0.50000000      0.50000000      0.00000000</v>
    <v>       0.00000000      0.00000000      0.50000000</v>
    <v>       0.50000000      0.00000000      0.50000000</v>
    <v>       0.00000000      0.50000000      0.50000000</v>
    <v>       0.50000000      0.50000000      0.50000000</v>
   </varray>
  </structure>
  <varray name="forces" >
   <v>      -0.02493114      0.00000000      0.00000000</v>
   <v>       0.00126331      0.00000000      0.00000000</v>
   <v>      -0.00040181     -0.00000000     -0.00000000</v>
   <v>       0.00033789      0.00000000      0.00000000</v>
   <v>      -0.00040181     -0.00000000      0.00000000</v>
   <v>       0.00033789      0.00000000     -0.00000000</v>
   <v>       0.00008573     -0.00000000     -0.00000000</v>
   <v>      -0.00007642      0.00000000     -0.00000000</v>
   <v>      -0.00110770      0.00001074     -0.00001074</v>
   <v>      -0.00055879      0.00000242     -0.00000242</v>
   <v>      -0.00110770     -0.00001074     -0.00001074</v>
   <v>      -0.00055879     -0.00000242     -0.00000242</v>
   <v>      -0.00110770      0.00001074      0.00001074</v>
   <v>      -0.00055879      0.00000242      0.00000242</v>
   <v>      -0.00110770     -0.00001074      0.00001074</v>
   <v>      -0.00055879     -0.00000242      0.00000242</v>
   <v>       0.00396611     -0.00000000     -0.00402264</v>
   <v>       0.00405880      0.00000000      0.00415084</v>
   <v>      -0.00020473      0.00000000      0.00057285</v>
   <v>      -0.00020710     -0.00000000     -0.00057105</v>
   <v>       0.00396611      0.00000000      0.00402264</v>
   <v>       0.00405880     -0.00000000     -0.00415084</v>
   <v>      -0.00020473      0.00000000     -0.00057285</v>
   <v>      -0.00020710     -0.00000000      0.00057105</v>
   <v>       0.00396611      0.00402264      0.00000000</v>
   <v>       0.00405880     -0.00415084     -0.00000000</v>
   <v>       0.00396611     -0.00402264     -0.00000000</v>
   <v>       0.00405880      0.00415084     -0.00000000</v>
   <v>      -0.00020473     -0.00057285     -0.00000000</v>
   <v>      -0.00020710      0.00057105     -0.00000000</v>
   <v>      -0.00020473      0.00057285      0.00000000</v>
   <v>      -0.00020710     -0.00057105     -0.00000000</v>
  </varray>
  <varray name="stress" >
   <v>     -77.97425400      0.00000000      0.00000000</v>
   <v>      -0.00000000    -77.97547459      0.00000000</v>
   <v>      -0.00000000      0.00000000    -77.97547459</v>
  </varray>
  <energy>
   <i name="e_fr_energy">   -117.44762586</i>
   <i name="e_wo_entrp">   -117.44733723</i>
   <i name="e_0_energy">     -0.00057725</i>
  </energy>
  <eigenvalues>
   <array>
    <dimension dim="1">band</dimension>
    <dimension dim="2">kpoint</dimension>
    <dimension dim="3">spin</dimension>
    <field>eigene</field>
    <field>occ</field>
    <set>
     <set comment="spin 1">
      <set comment="kpoint 1">
       <r>  -3.5982  1.0000</r>
       <r>  -1.5554  1.0000</r>
       <r>  -1.5520  1.0000</r>
       <r>  -1.5520  1.0000</r>
       <r>  -1.5520  1.0000</r>
       <r>  -1.5520  1.0000</r>
       <r>  -1.5485  1.0000</r>
       <r>   0.4623  1.0000</r>
       <r>   0.4666  1.0000</r>
       <r>   0.4666  1.0000</r>
       <r>   0.4681  1.0000</r>
       <r>   0.4683  1.0000</r>
       <r>   0.4683  1.0000</r>
       <r>   0.4683  1.0000</r>
       <r>   0.4683  1.0000</r>
       <r>   0.4684  1.0000</r>
       <r>   0.4699  1.0000</r>
       <r>   0.4699  1.0000</r>
       <r>   0.4742  1.0000</r>
       <r>   2.3832  1.0000</r>
       <r>   2.3832  1.0000</r>
       <r>   2.3832  1.0000</r>
       <r>   2.3832  1.0000</r>
       <r>   2.5472  1.0000</r>
       <r>   2.5472  1.0000</r>
       <r>   2.5472  1.0000</r>
       <r>   2.5472  1.0000</r>
       <r>   4.0042  1.0000</r>
       <r>   4.0042  1.0000</r>
       <r>   4.0042  1.0000</r>
       <r>   4.9684  1.0000</r>
       <r>   4.9684  1.0000</r>
       <r>   4.9684  1.0000</r>
       <r>   5.9141  1.0000</r>
       <r>   5.9141  1.0000</r>
       <r>   5.9180  1.0000</r>
       <r>   5.9180  1.0000</r>
       <r>   5.9182  1.0000</r>
       <r>   5.9182  1.0000</r>
       <r>   5.9182  1.0000</r>
       <r>   5.9182  1.0000</r>
       <r>   5.9183  1.0000</r>
       <r>   5.9183  1.0000</r>
       <r>   5.9222  1.0000</r>
       <r>   5.9222  1.0000</r>
       <r>   6.9393  0.0000</r>
       <r>   6.9402  0.0000</r>
       <r>   6.9402  0.0000</r>
       <r>   6.9402  0.0000</r>
       <r>   6.9402  0.0000</r>
       <r>   6.9410  0.0000</r>
       <r>   6.9844  0.0000</r>
       <r>   6.9882  0.0000</r>
       <r>   6.9882  0.0000</r>
       <r>   6.9882  0.0000</r>
       <r>   6.9882  0.0000</r>
       <r>   6.9919  0.0000</r>
       <r>   7.8291  0.0000</r>
       <r>   7.8291  0.0000</r>
       <r>   7.8309  0.0000</r>
       <r>   7.8328  0.0000</r>
       <r>   7.8329  0.0000</r>
       <r>   7.8329  0.0000</r>
       <r>   7.8329  0.0000</r>
       <r>   7.8330  0.0000</r>
       <r>   7.8330  0.0000</r>
       <r>   7.8349  0.0000</r>
       <r>   7.8368  0.0000</r>
       <r>   7.8368  0.0000</r>
       <r>   8.9034  0.0000</r>
       <r>   8.9054  0.0000</r>
       <r>   8.9063  0.0000</r>
      </set>
      <set comment="kpoint 2">
       <r>  -3.5411  1.0000</r>
       <r>  -2.1745  1.0000</r>
       <r>  -1.4955  1.0000</r>
       <r>  -1.4955  1.0000</r>
       <r>  -1.4955  1.0000</r>
       <r>  -1.4955  1.0000</r>
       <r>  -0.8196  1.0000</r>
       <r>  -0.1464  1.0000</r>
       <r>  -0.1464  1.0000</r>
       <r>  -0.1464  1.0000</r>
       <r>  -0.1464  1.0000</r>
       <r>   0.5240  1.0000</r>
       <r>   0.5240  1.0000</r>
       <r>   0.5240  1.0000</r>
       <r>   0.5240  1.0000</r>
       <r>   1.1916  1.0000</r>
       <r>   1.1916  1.0000</r>
       <r>   1.1916  1.0000</r>
       <r>   1.1916  1.0000</r>
       <r>   1.8528  1.0000</r>
       <r>   1.8528  1.0000</r>
       <r>   1.8528  1.0000</r>
       <r>   1.8528  1.0000</r>
       <r>   3.1339  1.0000</r>
       <r>   3.1850  1.0000</r>
       <r>   3.1850  1.0000</r>
       <r>   3.1850  1.0000</r>
       <r>   3.1850  1.0000</r>
       <r>   4.0573  1.0000</r>
       <r>   4.0573  1.0000</r>
       <r>   5.0246  1.0000</r>
       <r>   5.0247  1.0000</r>
       <r>   5.0877  1.0000</r>
       <r>   5.0877  1.0000</r>
       <r>   5.0877  1.0000</r>
       <r>   5.0878  1.0000</r>
       <r>   5.3329  1.0000</r>
       <r>   5.3329  1.0000</r>
       <r>   5.9394  1.0000</r>
       <r>   5.9713  1.0000</r>
       <r>   5.9713  1.0000</r>
       <r>   5.9713  1.0000</r>
       <r>   5.9713  1.0000</r>
       <r>   6.3610  1.0000</r>
       <r>   6.3610  1.0000</r>
       <r>   6.6102  0.1138</r>
       <r>   6.6102  0.1138</r>
       <r>   7.0184  0.0000</r>
       <r>   7.0187  0.0000</r>
       <r>   7.0187  0.0000</r>
       <r>   7.0189  0.0000</r>
       <r>   7.0259  0.0000</r>
       <r>   7.0262  0.0000</r>
       <r>   7.0262  0.0000</r>
       <r>   7.0265  0.0000</r>
       <r>   7.2478  0.0000</r>
       <r>   7.2478  0.0000</r>
       <r>   7.2478  0.0000</r>
       <r>   7.2478  0.0000</r>
       <r>   7.6675  0.0000</r>
       <r>   7.6675  0.0000</r>
       <r>   7.8926  0.0000</r>
       <r>   7.8926  0.0000</r>
       <r>   7.8926  0.0000</r>
       <r>   7.8926  0.0000</r>
       <r>   8.3197  0.0000</r>
       <r>   8.3197  0.0000</r>
       <r>   8.3197  0.0000</r>
       <r>   8.3197  0.0000</r>
       <r>   8.5244  0.0000</r>
       <r>   8.5244  0.0000</r>
       <r>   8.5244  0.0000</r>
      </set>
      <set comment="kpoint 3">
       <r>  -3.3696  1.0000</r>
       <r>  -2.6856  1.0000</r>
       <r>  -1.3263  1.0000</r>
       <r>  -1.3263  1.0000</r>
       <r>  -1.3263  1.0000</r>
       <r>  -1.3263  1.0000</r>
       <r>  -0.6511  1.0000</r>
       <r>  -0.6511  1.0000</r>
       <r>  -0.6511  1.0000</r>
       <r>  -0.6511  1.0000</r>
       <r>   0.0209  1.0000</r>
       <r>   0.6909  1.0000</r>
       <r>   0.6909  1.0000</r>
       <r>   0.6909  1.0000</r>
       <r>   0.6909  1.0000</r>
       <r>   1.3567  1.0000</r>
       <r>   1.3567  1.0000</r>
       <r>   1.3567  1.0000</r>
       <r>   1.3567  1.0000</r>
       <r>   2.0114  1.0000</r>
       <r>   2.0216  1.0000</r>
       <r>   2.0216  1.0000</r>
       <r>   2.0216  1.0000</r>
       <r>   2.0218  1.0000</r>
       <r>   3.9856  1.0000</r>
       <r>   3.9856  1.0000</r>
       <r>   3.9857  1.0000</r>
       <r>   3.9857  1.0000</r>
       <r>   4.0026  1.0000</r>
       <r>   4.0027  1.0000</r>
       <r>   4.0027  1.0000</r>
       <r>   4.0027  1.0000</r>
       <r>   4.2167  1.0000</r>
       <r>   4.2167  1.0000</r>
       <r>   4.8544  1.0000</r>
       <r>   4.8544  1.0000</r>
       <r>   5.1933  1.0000</r>
       <r>   5.1933  1.0000</r>
       <r>   5.8632  1.0000</r>
       <r>   5.8633  1.0000</r>
       <r>   5.9409  1.0000</r>
       <r>   5.9409  1.0000</r>
       <r>   5.9410  1.0000</r>
       <r>   5.9410  1.0000</r>
       <r>   6.1308  1.0000</r>
       <r>   6.1308  1.0000</r>
       <r>   6.1309  1.0000</r>
       <r>   6.1309  1.0000</r>
       <r>   6.7690  0.0000</r>
       <r>   6.7690  0.0000</r>
       <r>   6.7690  0.0000</r>
       <r>   6.7690  0.0000</r>
       <r>   7.1832  0.0000</r>
       <r>   7.1832  0.0000</r>
       <r>   7.1832  0.0000</r>
       <r>   7.1832  0.0000</r>
       <r>   7.3633  0.0000</r>
       <r>   7.4091  0.0000</r>
       <r>   7.4091  0.0000</r>
       <r>   7.8352  0.0000</r>
       <r>   7.8352  0.0000</r>
       <r>   7.8352  0.0000</r>
       <r>   7.8352  0.0000</r>
       <r>   8.4627  0.0000</r>
       <r>   8.4627  0.0000</r>
       <r>   9.2861  0.0000</r>
       <r>   9.2864  0.0000</r>
       <r>   9.2868  0.0000</r>
       <r>   9.2875  0.0000</r>
       <r>   9.3217  0.0000</r>
       <r>   9.3221  0.0000</r>
       <r>   9.3242  0.0000</r>
      </set>
      <set comment="kpoint 4">
       <r>  -3.0856  1.0000</r>
       <r>  -3.0829  1.0000</r>
       <r>  -1.0484  1.0000</r>
       <r>  -1.0454  1.0000</r>
       <r>  -1.0454  1.0000</r>
       <r>  -1.0447  1.0000</r>
       <r>  -1.0446  1.0000</r>
       <r>  -1.0439  1.0000</r>
       <r>  -1.0439  1.0000</r>
       <r>  -1.0409  1.0000</r>
       <r>   0.9631  1.0000</r>
       <r>   0.9665  1.0000</r>
       <r>   0.9676  1.0000</r>
       <r>   0.9676  1.0000</r>
       <r>   0.9682  1.0000</r>
       <r>   0.9684  1.0000</r>
       <r>   0.9691  1.0000</r>
       <r>   0.9699  1.0000</r>
       <r>   0.9699  1.0000</r>
       <r>   0.9728  1.0000</r>
       <r>   2.9537  1.0000</r>
       <r>   2.9545  1.0000</r>
       <r>   2.9545  1.0000</r>
       <r>   2.9551  1.0000</r>
       <r>   2.9553  1.0000</r>
       <r>   2.9559  1.0000</r>
       <r>   2.9559  1.0000</r>
       <r>   2.9567  1.0000</r>
       <r>   4.4809  1.0000</r>
       <r>   4.4809  1.0000</r>
       <r>   4.4837  1.0000</r>
       <r>   4.4837  1.0000</r>
       <r>   4.9229  1.0000</r>
       <r>   4.9229  1.0000</r>
       <r>   4.9237  1.0000</r>
       <r>   4.9237  1.0000</r>
       <r>   4.9244  1.0000</r>
       <r>   4.9245  1.0000</r>
       <r>   4.9252  1.0000</r>
       <r>   4.9252  1.0000</r>
       <r>   5.4717  1.0000</r>
       <r>   5.4724  1.0000</r>
       <r>   5.4742  1.0000</r>
       <r>   5.4749  1.0000</r>
       <r>   6.3946  1.0000</r>
       <r>   6.3946  1.0000</r>
       <r>   6.3956  1.0000</r>
       <r>   6.3967  1.0000</r>
       <r>   6.3968  1.0000</r>
       <r>   6.3979  1.0000</r>
       <r>   6.3989  1.0000</r>
       <r>   6.3989  1.0000</r>
       <r>   7.4534  0.0000</r>
       <r>   7.4548  0.0000</r>
       <r>   7.4548  0.0000</r>
       <r>   7.4548  0.0000</r>
       <r>   7.4565  0.0000</r>
       <r>   7.4566  0.0000</r>
       <r>   7.4566  0.0000</r>
       <r>   7.4580  0.0000</r>
       <r>   8.3136  0.0000</r>
       <r>   8.3136  0.0000</r>
       <r>   8.3158  0.0000</r>
       <r>   8.3158  0.0000</r>
       <r>   8.9084  0.0000</r>
       <r>   8.9100  0.0000</r>
       <r>   9.3354  0.0000</r>
       <r>   9.3360  0.0000</r>
       <r>   9.3371  0.0000</r>
       <r>   9.3377  0.0000</r>
       <r>  10.2240  0.0000</r>
       <r>  10.2260  0.0000</r>
      </set>
      <set comment="kpoint 5">
       <r>  -3.5411  1.0000</r>
       <r>  -2.1745  1.0000</r>
       <r>  -1.4982  1.0000</r>
       <r>  -1.4955  1.0000</r>
       <r>  -1.4955  1.0000</r>
       <r>  -1.4929  1.0000</r>
       <r>  -0.8196  1.0000</r>
       <r>  -0.1491  1.0000</r>
       <r>  -0.1464  1.0000</r>
       <r>  -0.1464  1.0000</r>
       <r>  -0.1438  1.0000</r>
       <r>   0.5218  1.0000</r>
       <r>   0.5230  1.0000</r>
       <r>   0.5250  1.0000</r>
       <r>   0.5261  1.0000</r>
       <r>   1.1889  1.0000</r>
       <r>   1.1916  1.0000</r>
       <r>   1.1916  1.0000</r>
       <r>   1.1943  1.0000</r>
       <r>   1.8507  1.0000</r>
       <r>   1.8518  1.0000</r>
       <r>   1.8538  1.0000</r>
       <r>   1.8549  1.0000</r>
       <r>   3.1339  1.0000</r>
       <r>   3.1829  1.0000</r>
       <r>   3.1840  1.0000</r>
       <r>   3.1860  1.0000</r>
       <r>   3.1871  1.0000</r>
       <r>   4.0573  1.0000</r>
       <r>   4.0573  1.0000</r>
       <r>   5.0247  1.0000</r>
       <r>   5.0247  1.0000</r>
       <r>   5.0849  1.0000</r>
       <r>   5.0877  1.0000</r>
       <r>   5.0877  1.0000</r>
       <r>   5.0904  1.0000</r>
       <r>   5.3329  1.0000</r>
       <r>   5.3330  1.0000</r>
       <r>   5.9393  1.0000</r>
       <r>   5.9688  1.0000</r>
       <r>   5.9713  1.0000</r>
       <r>   5.9714  1.0000</r>
       <r>   5.9738  1.0000</r>
       <r>   6.3610  1.0000</r>
       <r>   6.3610  1.0000</r>
       <r>   6.6102  0.1136</r>
       <r>   6.6102  0.1135</r>
       <r>   7.0170  0.0000</r>
       <r>   7.0188  0.0000</r>
       <r>   7.0189  0.0000</r>
       <r>   7.0207  0.0000</r>
       <r>   7.0237  0.0000</r>
       <r>   7.0250  0.0000</r>
       <r>   7.0269  0.0000</r>
       <r>   7.0283  0.0000</r>
       <r>   7.2453  0.0000</r>
       <r>   7.2478  0.0000</r>
       <r>   7.2478  0.0000</r>
       <r>   7.2503  0.0000</r>
       <r>   7.6675  0.0000</r>
       <r>   7.6675  0.0000</r>
       <r>   7.8900  0.0000</r>
       <r>   7.8925  0.0000</r>
       <r>   7.8926  0.0000</r>
       <r>   7.8951  0.0000</r>
       <r>   8.3178  0.0000</r>
       <r>   8.3197  0.0000</r>
       <r>   8.3197  0.0000</r>
       <r>   8.3216  0.0000</r>
       <r>   8.5219  0.0000</r>
       <r>   8.5244  0.0000</r>
       <r>   8.5249  0.0000</r>
      </set>
      <set comment="kpoint 6">
       <r>  -3.4839  1.0000</r>
       <r>  -2.1189  1.0000</r>
       <r>  -2.1167  1.0000</r>
       <r>  -1.4391  1.0000</r>
       <r>  -1.4391  1.0000</r>
       <r>  -0.7652  1.0000</r>
       <r>  -0.7634  1.0000</r>
       <r>  -0.7616  1.0000</r>
       <r>  -0.0920  1.0000</r>
       <r>  -0.0911  1.0000</r>
       <r>  -0.0899  1.0000</r>
       <r>  -0.0890  1.0000</r>
       <r>   0.5791  1.0000</r>
       <r>   0.5802  1.0000</r>
       <r>   1.2441  1.0000</r>
       <r>   1.2451  1.0000</r>
       <r>   1.2465  1.0000</r>
       <r>   1.2467  1.0000</r>
       <r>   1.2479  1.0000</r>
       <r>   1.2491  1.0000</r>
       <r>   1.9117  1.0000</r>
       <r>   2.4964  1.0000</r>
       <r>   2.4964  1.0000</r>
       <r>   2.6539  1.0000</r>
       <r>   2.6539  1.0000</r>
       <r>   3.1879  1.0000</r>
       <r>   3.1890  1.0000</r>
       <r>   3.8945  1.0000</r>
       <r>   3.8945  1.0000</r>
       <r>   4.1104  1.0000</r>
       <r>   4.4915  1.0000</r>
       <r>   4.4937  1.0000</r>
       <r>   5.0809  1.0000</r>
       <r>   5.1222  1.0000</r>
       <r>   5.1223  1.0000</r>
       <r>   5.1616  1.0000</r>
       <r>   5.1616  1.0000</r>
       <r>   5.3849  1.0000</r>
       <r>   5.3873  1.0000</r>
       <r>   5.7879  1.0000</r>
       <r>   5.7888  1.0000</r>
       <r>   5.9937  1.0000</r>
       <r>   5.9947  1.0000</r>
       <r>   6.4162  1.0000</r>
       <r>   6.4182  1.0000</r>
       <r>   6.4342  1.0000</r>
       <r>   6.4350  1.0000</r>
       <r>   6.4364  1.0000</r>
       <r>   6.4374  1.0000</r>
       <r>   6.6609  0.0000</r>
       <r>   6.6631  0.0000</r>
       <r>   6.6652  0.0000</r>
       <r>   7.2997  0.0000</r>
       <r>   7.3005  0.0000</r>
       <r>   7.7194  0.0000</r>
       <r>   7.7209  0.0000</r>
       <r>   7.7211  0.0000</r>
       <r>   7.7212  0.0000</r>
       <r>   7.7220  0.0000</r>
       <r>   7.7236  0.0000</r>
       <r>   7.7287  0.0000</r>
       <r>   7.9348  0.0000</r>
       <r>   7.9350  0.0000</r>
       <r>   7.9387  0.0000</r>
       <r>   7.9406  0.0000</r>
       <r>   7.9573  0.0000</r>
       <r>   7.9574  0.0000</r>
       <r>   8.5830  0.0000</r>
       <r>   8.5851  0.0000</r>
       <r>   9.0089  0.0000</r>
       <r>   9.0091  0.0000</r>
       <r>   9.2194  0.0000</r>
      </set>
      <set comment="kpoint 7">
       <r>  -3.3125  1.0000</r>
       <r>  -2.6287  1.0000</r>
       <r>  -1.9479  1.0000</r>
       <r>  -1.2713  1.0000</r>
       <r>  -1.2699  1.0000</r>
       <r>  -1.2687  1.0000</r>
       <r>  -0.5962  1.0000</r>
       <r>  -0.5950  1.0000</r>
       <r>  -0.5937  1.0000</r>
       <r>   0.0751  1.0000</r>
       <r>   0.0772  1.0000</r>
       <r>   0.0772  1.0000</r>
       <r>   0.0790  1.0000</r>
       <r>   0.7460  1.0000</r>
       <r>   0.7460  1.0000</r>
       <r>   1.4123  1.0000</r>
       <r>   1.4132  1.0000</r>
       <r>   1.4136  1.0000</r>
       <r>   2.0663  1.0000</r>
       <r>   2.0737  1.0000</r>
       <r>   2.0740  1.0000</r>
       <r>   2.0770  1.0000</r>
       <r>   2.0777  1.0000</r>
       <r>   2.7381  1.0000</r>
       <r>   3.3518  1.0000</r>
       <r>   3.3848  1.0000</r>
       <r>   3.4025  1.0000</r>
       <r>   3.4026  1.0000</r>
       <r>   4.0044  1.0000</r>
       <r>   4.0399  1.0000</r>
       <r>   4.0399  1.0000</r>
       <r>   4.2698  1.0000</r>
       <r>   4.6929  1.0000</r>
       <r>   4.7104  1.0000</r>
       <r>   4.7105  1.0000</r>
       <r>   4.9075  1.0000</r>
       <r>   5.2493  1.0000</r>
       <r>   5.3045  1.0000</r>
       <r>   5.3046  1.0000</r>
       <r>   5.3462  1.0000</r>
       <r>   5.3463  1.0000</r>
       <r>   5.5456  1.0000</r>
       <r>   5.9184  1.0000</r>
       <r>   5.9516  1.0000</r>
       <r>   5.9516  1.0000</r>
       <r>   6.1585  1.0000</r>
       <r>   6.1837  1.0000</r>
       <r>   6.5825  0.9967</r>
       <r>   6.5951  0.8209</r>
       <r>   6.6411  0.0000</r>
       <r>   6.6411  0.0000</r>
       <r>   6.8129  0.0000</r>
       <r>   6.8229  0.0000</r>
       <r>   7.2399  0.0000</r>
       <r>   7.4173  0.0000</r>
       <r>   7.4600  0.0000</r>
       <r>   7.4633  0.0000</r>
       <r>   7.8836  0.0000</r>
       <r>   8.1073  0.0000</r>
       <r>   8.1073  0.0000</r>
       <r>   8.5041  0.0000</r>
       <r>   8.5162  0.0000</r>
       <r>   8.5196  0.0000</r>
       <r>   8.5196  0.0000</r>
       <r>   8.5294  0.0000</r>
       <r>   8.7046  0.0000</r>
       <r>   8.7377  0.0000</r>
       <r>   8.7494  0.0000</r>
       <r>   8.7495  0.0000</r>
       <r>   9.3392  0.0000</r>
       <r>   9.3401  0.0000</r>
       <r>   9.3696  0.0000</r>
      </set>
      <set comment="kpoint 8">
       <r>  -3.0286  1.0000</r>
       <r>  -3.0259  1.0000</r>
       <r>  -1.6665  1.0000</r>
       <r>  -1.6638  1.0000</r>
       <r>  -0.9903  1.0000</r>
       <r>  -0.9891  1.0000</r>
       <r>  -0.9876  1.0000</r>
       <r>  -0.9865  1.0000</r>
       <r>  -0.3159  1.0000</r>
       <r>  -0.3132  1.0000</r>
       <r>   0.3543  1.0000</r>
       <r>   0.3554  1.0000</r>
       <r>   0.3569  1.0000</r>
       <r>   0.3581  1.0000</r>
       <r>   1.0213  1.0000</r>
       <r>   1.0228  1.0000</r>
       <r>   1.6876  1.0000</r>
       <r>   1.6887  1.0000</r>
       <r>   1.6903  1.0000</r>
       <r>   1.6913  1.0000</r>
       <r>   2.3492  1.0000</r>
       <r>   2.3507  1.0000</r>
       <r>   3.0091  1.0000</r>
       <r>   3.0092  1.0000</r>
       <r>   3.0106  1.0000</r>
       <r>   3.0107  1.0000</r>
       <r>   3.6227  1.0000</r>
       <r>   3.6253  1.0000</r>
       <r>   3.6667  1.0000</r>
       <r>   3.6682  1.0000</r>
       <r>   4.3250  1.0000</r>
       <r>   4.3251  1.0000</r>
       <r>   4.3265  1.0000</r>
       <r>   4.3265  1.0000</r>
       <r>   4.5340  1.0000</r>
       <r>   4.5368  1.0000</r>
       <r>   5.5278  1.0000</r>
       <r>   5.5303  1.0000</r>
       <r>   5.5723  1.0000</r>
       <r>   5.5736  1.0000</r>
       <r>   5.5750  1.0000</r>
       <r>   5.5763  1.0000</r>
       <r>   5.6277  1.0000</r>
       <r>   5.6277  1.0000</r>
       <r>   5.6292  1.0000</r>
       <r>   5.6292  1.0000</r>
       <r>   5.8100  1.0000</r>
       <r>   5.8128  1.0000</r>
       <r>   6.4304  1.0000</r>
       <r>   6.4330  1.0000</r>
       <r>   6.8560  0.0000</r>
       <r>   6.8585  0.0000</r>
       <r>   7.0874  0.0000</r>
       <r>   7.0902  0.0000</r>
       <r>   7.5009  0.0000</r>
       <r>   7.5026  0.0000</r>
       <r>   8.1522  0.0000</r>
       <r>   8.1547  0.0000</r>
       <r>   8.3665  0.0000</r>
       <r>   8.3688  0.0000</r>
       <r>   8.3737  0.0000</r>
       <r>   8.3748  0.0000</r>
       <r>   8.3765  0.0000</r>
       <r>   8.3772  0.0000</r>
       <r>   8.9617  0.0000</r>
       <r>   8.9633  0.0000</r>
       <r>   9.3890  0.0000</r>
       <r>   9.3896  0.0000</r>
       <r>   9.4172  0.0000</r>
       <r>   9.4174  0.0000</r>
       <r>   9.4190  0.0000</r>
       <r>   9.4193  0.0000</r>
      </set>
      <set comment="kpoint 9">
       <r>  -3.3696  1.0000</r>
       <r>  -2.6856  1.0000</r>
       <r>  -1.3290  1.0000</r>
       <r>  -1.3263  1.0000</r>
       <r>  -1.3263  1.0000</r>
       <r>  -1.3236  1.0000</r>
       <r>  -0.6538  1.0000</r>
       <r>  -0.6511  1.0000</r>
       <r>  -0.6511  1.0000</r>
       <r>  -0.6484  1.0000</r>
       <r>   0.0209  1.0000</r>
       <r>   0.6888  1.0000</r>
       <r>   0.6899  1.0000</r>
       <r>   0.6919  1.0000</r>
       <r>   0.6931  1.0000</r>
       <r>   1.3546  1.0000</r>
       <r>   1.3557  1.0000</r>
       <r>   1.3577  1.0000</r>
       <r>   1.3589  1.0000</r>
       <r>   2.0115  1.0000</r>
       <r>   2.0189  1.0000</r>
       <r>   2.0216  1.0000</r>
       <r>   2.0216  1.0000</r>
       <r>   2.0243  1.0000</r>
       <r>   3.9830  1.0000</r>
       <r>   3.9857  1.0000</r>
       <r>   3.9857  1.0000</r>
       <r>   3.9884  1.0000</r>
       <r>   4.0005  1.0000</r>
       <r>   4.0016  1.0000</r>
       <r>   4.0036  1.0000</r>
       <r>   4.0048  1.0000</r>
       <r>   4.2166  1.0000</r>
       <r>   4.2167  1.0000</r>
       <r>   4.8543  1.0000</r>
       <r>   4.8544  1.0000</r>
       <r>   5.1932  1.0000</r>
       <r>   5.1933  1.0000</r>
       <r>   5.8632  1.0000</r>
       <r>   5.8633  1.0000</r>
       <r>   5.9388  1.0000</r>
       <r>   5.9400  1.0000</r>
       <r>   5.9420  1.0000</r>
       <r>   5.9432  1.0000</r>
       <r>   6.1283  1.0000</r>
       <r>   6.1308  1.0000</r>
       <r>   6.1309  1.0000</r>
       <r>   6.1333  1.0000</r>
       <r>   6.7665  0.0000</r>
       <r>   6.7690  0.0000</r>
       <r>   6.7691  0.0000</r>
       <r>   6.7716  0.0000</r>
       <r>   7.1813  0.0000</r>
       <r>   7.1832  0.0000</r>
       <r>   7.1832  0.0000</r>
       <r>   7.1851  0.0000</r>
       <r>   7.3632  0.0000</r>
       <r>   7.4091  0.0000</r>
       <r>   7.4091  0.0000</r>
       <r>   7.8333  0.0000</r>
       <r>   7.8352  0.0000</r>
       <r>   7.8352  0.0000</r>
       <r>   7.8371  0.0000</r>
       <r>   8.4627  0.0000</r>
       <r>   8.4627  0.0000</r>
       <r>   9.2835  0.0000</r>
       <r>   9.2861  0.0000</r>
       <r>   9.2865  0.0000</r>
       <r>   9.2888  0.0000</r>
       <r>   9.3213  0.0000</r>
       <r>   9.3226  0.0000</r>
       <r>   9.3242  0.0000</r>
      </set>
      <set comment="kpoint 10">
       <r>  -3.3125  1.0000</r>
       <r>  -2.6287  1.0000</r>
       <r>  -1.9479  1.0000</r>
       <r>  -1.2713  1.0000</r>
       <r>  -1.2699  1.0000</r>
       <r>  -1.2687  1.0000</r>
       <r>  -0.5963  1.0000</r>
       <r>  -0.5950  1.0000</r>
       <r>  -0.5936  1.0000</r>
       <r>   0.0751  1.0000</r>
       <r>   0.0770  1.0000</r>
       <r>   0.0772  1.0000</r>
       <r>   0.0791  1.0000</r>
       <r>   0.7460  1.0000</r>
       <r>   0.7460  1.0000</r>
       <r>   1.4116  1.0000</r>
       <r>   1.4132  1.0000</r>
       <r>   1.4144  1.0000</r>
       <r>   2.0664  1.0000</r>
       <r>   2.0742  1.0000</r>
       <r>   2.0744  1.0000</r>
       <r>   2.0768  1.0000</r>
       <r>   2.0769  1.0000</r>
       <r>   2.7381  1.0000</r>
       <r>   3.3518  1.0000</r>
       <r>   3.3848  1.0000</r>
       <r>   3.4025  1.0000</r>
       <r>   3.4025  1.0000</r>
       <r>   4.0044  1.0000</r>
       <r>   4.0399  1.0000</r>
       <r>   4.0399  1.0000</r>
       <r>   4.2698  1.0000</r>
       <r>   4.6930  1.0000</r>
       <r>   4.7104  1.0000</r>
       <r>   4.7104  1.0000</r>
       <r>   4.9075  1.0000</r>
       <r>   5.2493  1.0000</r>
       <r>   5.3046  1.0000</r>
       <r>   5.3047  1.0000</r>
       <r>   5.3462  1.0000</r>
       <r>   5.3462  1.0000</r>
       <r>   5.5456  1.0000</r>
       <r>   5.9184  1.0000</r>
       <r>   5.9516  1.0000</r>
       <r>   5.9516  1.0000</r>
       <r>   6.1585  1.0000</r>
       <r>   6.1837  1.0000</r>
       <r>   6.5825  0.9966</r>
       <r>   6.5951  0.8214</r>
       <r>   6.6411  0.0000</r>
       <r>   6.6411  0.0000</r>
       <r>   6.8129  0.0000</r>
       <r>   6.8229  0.0000</r>
       <r>   7.2399  0.0000</r>
       <r>   7.4173  0.0000</r>
       <r>   7.4606  0.0000</r>
       <r>   7.4626  0.0000</r>
       <r>   7.8836  0.0000</r>
       <r>   8.1073  0.0000</r>
       <r>   8.1073  0.0000</r>
       <r>   8.5042  0.0000</r>
       <r>   8.5158  0.0000</r>
       <r>   8.5196  0.0000</r>
       <r>   8.5201  0.0000</r>
       <r>   8.5293  0.0000</r>
       <r>   8.7046  0.0000</r>
       <r>   8.7377  0.0000</r>
       <r>   8.7494  0.0000</r>
       <r>   8.7494  0.0000</r>
       <r>   9.3392  0.0000</r>
       <r>   9.3412  0.0000</r>
       <r>   9.3707  0.0000</r>
      </set>
      <set comment="kpoint 11">
       <r>  -3.1413  1.0000</r>
       <r>  -2.4594  1.0000</r>
       <r>  -2.4572  1.0000</r>
       <r>  -1.7782  1.0000</r>
       <r>  -1.1010  1.0000</r>
       <r>  -1.1010  1.0000</r>
       <r>  -0.4283  1.0000</r>
       <r>  -0.4274  1.0000</r>
       <r>  -0.4261  1.0000</r>
       <r>  -0.4252  1.0000</r>
       <r>   0.2425  1.0000</r>
       <r>   0.2444  1.0000</r>
       <r>   0.2444  1.0000</r>
       <r>   0.2463  1.0000</r>
       <r>   0.9124  1.0000</r>
       <r>   0.9136  1.0000</r>
       <r>   2.2312  1.0000</r>
       <r>   2.2323  1.0000</r>
       <r>   2.2404  1.0000</r>
       <r>   2.2412  1.0000</r>
       <r>   2.2425  1.0000</r>
       <r>   2.2435  1.0000</r>
       <r>   2.8346  1.0000</r>
       <r>   2.8346  1.0000</r>
       <r>   2.8905  1.0000</r>
       <r>   2.8927  1.0000</r>
       <r>   2.9736  1.0000</r>
       <r>   2.9736  1.0000</r>
       <r>   3.5602  1.0000</r>
       <r>   4.1659  1.0000</r>
       <r>   4.1659  1.0000</r>
       <r>   4.2424  1.0000</r>
       <r>   4.2424  1.0000</r>
       <r>   4.4291  1.0000</r>
       <r>   4.8566  1.0000</r>
       <r>   4.8575  1.0000</r>
       <r>   4.8588  1.0000</r>
       <r>   4.8597  1.0000</r>
       <r>   5.0658  1.0000</r>
       <r>   5.0681  1.0000</r>
       <r>   5.4173  1.0000</r>
       <r>   5.5037  1.0000</r>
       <r>   5.5045  1.0000</r>
       <r>   5.5230  1.0000</r>
       <r>   5.5230  1.0000</r>
       <r>   5.7050  1.0000</r>
       <r>   6.0859  1.0000</r>
       <r>   6.0880  1.0000</r>
       <r>   6.7481  0.0000</r>
       <r>   7.4268  0.0000</r>
       <r>   7.4436  0.0000</r>
       <r>   7.4445  0.0000</r>
       <r>   7.4447  0.0000</r>
       <r>   7.4456  0.0000</r>
       <r>   7.5788  0.0000</r>
       <r>   7.5799  0.0000</r>
       <r>   7.6205  0.0000</r>
       <r>   7.6229  0.0000</r>
       <r>   8.2236  0.0000</r>
       <r>   8.2244  0.0000</r>
       <r>   8.2586  0.0000</r>
       <r>   8.2605  0.0000</r>
       <r>   8.6759  0.0000</r>
       <r>   8.6779  0.0000</r>
       <r>   9.3143  0.0000</r>
       <r>   9.3144  0.0000</r>
       <r>   9.3447  0.0000</r>
       <r>   9.3447  0.0000</r>
       <r>   9.4852  0.0000</r>
       <r>   9.4862  0.0000</r>
       <r>   9.5113  0.0000</r>
       <r>   9.5123  0.0000</r>
      </set>
      <set comment="kpoint 12">
       <r>  -2.8577  1.0000</r>
       <r>  -2.8550  1.0000</r>
       <r>  -2.1759  1.0000</r>
       <r>  -2.1733  1.0000</r>
       <r>  -0.8216  1.0000</r>
       <r>  -0.8205  1.0000</r>
       <r>  -0.8190  1.0000</r>
       <r>  -0.8179  1.0000</r>
       <r>  -0.1486  1.0000</r>
       <r>  -0.1475  1.0000</r>
       <r>  -0.1460  1.0000</r>
       <r>  -0.1449  1.0000</r>
       <r>   0.5219  1.0000</r>
       <r>   0.5246  1.0000</r>
       <r>   1.1879  1.0000</r>
       <r>   1.1894  1.0000</r>
       <r>   1.8524  1.0000</r>
       <r>   1.8539  1.0000</r>
       <r>   2.5057  1.0000</r>
       <r>   2.5084  1.0000</r>
       <r>   2.5139  1.0000</r>
       <r>   2.5150  1.0000</r>
       <r>   2.5165  1.0000</r>
       <r>   2.5176  1.0000</r>
       <r>   3.1727  1.0000</r>
       <r>   3.1728  1.0000</r>
       <r>   3.1742  1.0000</r>
       <r>   3.1744  1.0000</r>
       <r>   3.8348  1.0000</r>
       <r>   3.8349  1.0000</r>
       <r>   3.8363  1.0000</r>
       <r>   3.8363  1.0000</r>
       <r>   4.4761  1.0000</r>
       <r>   4.4774  1.0000</r>
       <r>   4.4788  1.0000</r>
       <r>   4.4801  1.0000</r>
       <r>   4.4840  1.0000</r>
       <r>   4.4855  1.0000</r>
       <r>   4.6934  1.0000</r>
       <r>   4.6962  1.0000</r>
       <r>   5.3314  1.0000</r>
       <r>   5.3341  1.0000</r>
       <r>   5.6946  1.0000</r>
       <r>   5.6971  1.0000</r>
       <r>   6.3616  1.0000</r>
       <r>   6.3641  1.0000</r>
       <r>   6.4189  1.0000</r>
       <r>   6.4204  1.0000</r>
       <r>   6.4360  1.0000</r>
       <r>   6.4361  1.0000</r>
       <r>   6.4376  1.0000</r>
       <r>   6.4376  1.0000</r>
       <r>   7.8473  0.0000</r>
       <r>   7.8499  0.0000</r>
       <r>   7.8861  0.0000</r>
       <r>   7.8889  0.0000</r>
       <r>   8.3473  0.0000</r>
       <r>   8.3474  0.0000</r>
       <r>   8.3490  0.0000</r>
       <r>   8.3491  0.0000</r>
       <r>   8.5261  0.0000</r>
       <r>   8.5283  0.0000</r>
       <r>   8.9416  0.0000</r>
       <r>   8.9441  0.0000</r>
       <r>   9.1214  0.0000</r>
       <r>   9.1230  0.0000</r>
       <r>   9.1632  0.0000</r>
       <r>   9.1655  0.0000</r>
       <r>   9.5472  0.0000</r>
       <r>   9.5478  0.0000</r>
       <r>   9.7589  0.0000</r>
       <r>   9.7636  0.0000</r>
      </set>
      <set comment="kpoint 13">
       <r>  -3.0842  1.0000</r>
       <r>  -3.0842  1.0000</r>
       <r>  -1.0495  1.0000</r>
       <r>  -1.0451  1.0000</r>
       <r>  -1.0446  1.0000</r>
       <r>  -1.0446  1.0000</r>
       <r>  -1.0446  1.0000</r>
       <r>  -1.0446  1.0000</r>
       <r>  -1.0442  1.0000</r>
       <r>  -1.0397  1.0000</r>
       <r>   0.9636  1.0000</r>
       <r>   0.9661  1.0000</r>
       <r>   0.9669  1.0000</r>
       <r>   0.9673  1.0000</r>
       <r>   0.9685  1.0000</r>
       <r>   0.9686  1.0000</r>
       <r>   0.9689  1.0000</r>
       <r>   0.9694  1.0000</r>
       <r>   0.9706  1.0000</r>
       <r>   0.9731  1.0000</r>
       <r>   2.9523  1.0000</r>
       <r>   2.9526  1.0000</r>
       <r>   2.9552  1.0000</r>
       <r>   2.9552  1.0000</r>
       <r>   2.9552  1.0000</r>
       <r>   2.9552  1.0000</r>
       <r>   2.9577  1.0000</r>
       <r>   2.9580  1.0000</r>
       <r>   4.4823  1.0000</r>
       <r>   4.4823  1.0000</r>
       <r>   4.4823  1.0000</r>
       <r>   4.4823  1.0000</r>
       <r>   4.9214  1.0000</r>
       <r>   4.9224  1.0000</r>
       <r>   4.9229  1.0000</r>
       <r>   4.9232  1.0000</r>
       <r>   4.9249  1.0000</r>
       <r>   4.9253  1.0000</r>
       <r>   4.9257  1.0000</r>
       <r>   4.9267  1.0000</r>
       <r>   5.4732  1.0000</r>
       <r>   5.4733  1.0000</r>
       <r>   5.4733  1.0000</r>
       <r>   5.4733  1.0000</r>
       <r>   6.3921  1.0000</r>
       <r>   6.3964  1.0000</r>
       <r>   6.3967  1.0000</r>
       <r>   6.3967  1.0000</r>
       <r>   6.3967  1.0000</r>
       <r>   6.3968  1.0000</r>
       <r>   6.3971  1.0000</r>
       <r>   6.4014  1.0000</r>
       <r>   7.4522  0.0000</r>
       <r>   7.4553  0.0000</r>
       <r>   7.4557  0.0000</r>
       <r>   7.4557  0.0000</r>
       <r>   7.4557  0.0000</r>
       <r>   7.4557  0.0000</r>
       <r>   7.4561  0.0000</r>
       <r>   7.4592  0.0000</r>
       <r>   8.3147  0.0000</r>
       <r>   8.3147  0.0000</r>
       <r>   8.3147  0.0000</r>
       <r>   8.3147  0.0000</r>
       <r>   8.9092  0.0000</r>
       <r>   8.9092  0.0000</r>
       <r>   9.3365  0.0000</r>
       <r>   9.3365  0.0000</r>
       <r>   9.3365  0.0000</r>
       <r>   9.3366  0.0000</r>
       <r>  10.2243  0.0000</r>
       <r>  10.2253  0.0000</r>
      </set>
      <set comment="kpoint 14">
       <r>  -3.0272  1.0000</r>
       <r>  -3.0272  1.0000</r>
       <r>  -1.6651  1.0000</r>
       <r>  -1.6651  1.0000</r>
       <r>  -0.9884  1.0000</r>
       <r>  -0.9884  1.0000</r>
       <r>  -0.9884  1.0000</r>
       <r>  -0.9884  1.0000</r>
       <r>  -0.3145  1.0000</r>
       <r>  -0.3145  1.0000</r>
       <r>   0.3562  1.0000</r>
       <r>   0.3562  1.0000</r>
       <r>   0.3562  1.0000</r>
       <r>   0.3562  1.0000</r>
       <r>   1.0221  1.0000</r>
       <r>   1.0221  1.0000</r>
       <r>   1.6895  1.0000</r>
       <r>   1.6895  1.0000</r>
       <r>   1.6895  1.0000</r>
       <r>   1.6895  1.0000</r>
       <r>   2.3500  1.0000</r>
       <r>   2.3500  1.0000</r>
       <r>   3.0099  1.0000</r>
       <r>   3.0099  1.0000</r>
       <r>   3.0099  1.0000</r>
       <r>   3.0099  1.0000</r>
       <r>   3.6240  1.0000</r>
       <r>   3.6240  1.0000</r>
       <r>   3.6675  1.0000</r>
       <r>   3.6675  1.0000</r>
       <r>   4.3258  1.0000</r>
       <r>   4.3258  1.0000</r>
       <r>   4.3258  1.0000</r>
       <r>   4.3258  1.0000</r>
       <r>   4.5354  1.0000</r>
       <r>   4.5354  1.0000</r>
       <r>   5.5289  1.0000</r>
       <r>   5.5291  1.0000</r>
       <r>   5.5743  1.0000</r>
       <r>   5.5743  1.0000</r>
       <r>   5.5743  1.0000</r>
       <r>   5.5745  1.0000</r>
       <r>   5.6285  1.0000</r>
       <r>   5.6285  1.0000</r>
       <r>   5.6285  1.0000</r>
       <r>   5.6285  1.0000</r>
       <r>   5.8114  1.0000</r>
       <r>   5.8115  1.0000</r>
       <r>   6.4317  1.0000</r>
       <r>   6.4317  1.0000</r>
       <r>   6.8572  0.0000</r>
       <r>   6.8572  0.0000</r>
       <r>   7.0888  0.0000</r>
       <r>   7.0888  0.0000</r>
       <r>   7.5018  0.0000</r>
       <r>   7.5018  0.0000</r>
       <r>   8.1535  0.0000</r>
       <r>   8.1535  0.0000</r>
       <r>   8.3676  0.0000</r>
       <r>   8.3678  0.0000</r>
       <r>   8.3755  0.0000</r>
       <r>   8.3755  0.0000</r>
       <r>   8.3755  0.0000</r>
       <r>   8.3757  0.0000</r>
       <r>   8.9625  0.0000</r>
       <r>   8.9625  0.0000</r>
       <r>   9.3891  0.0000</r>
       <r>   9.3893  0.0000</r>
       <r>   9.4182  0.0000</r>
       <r>   9.4182  0.0000</r>
       <r>   9.4182  0.0000</r>
       <r>   9.4184  0.0000</r>
      </set>
      <set comment="kpoint 15">
       <r>  -2.8564  1.0000</r>
       <r>  -2.8564  1.0000</r>
       <r>  -2.1746  1.0000</r>
       <r>  -2.1746  1.0000</r>
       <r>  -0.8198  1.0000</r>
       <r>  -0.8197  1.0000</r>
       <r>  -0.8197  1.0000</r>
       <r>  -0.8197  1.0000</r>
       <r>  -0.1468  1.0000</r>
       <r>  -0.1468  1.0000</r>
       <r>  -0.1468  1.0000</r>
       <r>  -0.1468  1.0000</r>
       <r>   0.5233  1.0000</r>
       <r>   0.5233  1.0000</r>
       <r>   1.1886  1.0000</r>
       <r>   1.1886  1.0000</r>
       <r>   1.8532  1.0000</r>
       <r>   1.8532  1.0000</r>
       <r>   2.5068  1.0000</r>
       <r>   2.5070  1.0000</r>
       <r>   2.5158  1.0000</r>
       <r>   2.5158  1.0000</r>
       <r>   2.5158  1.0000</r>
       <r>   2.5160  1.0000</r>
       <r>   3.1735  1.0000</r>
       <r>   3.1735  1.0000</r>
       <r>   3.1735  1.0000</r>
       <r>   3.1735  1.0000</r>
       <r>   3.8356  1.0000</r>
       <r>   3.8356  1.0000</r>
       <r>   3.8356  1.0000</r>
       <r>   3.8356  1.0000</r>
       <r>   4.4781  1.0000</r>
       <r>   4.4781  1.0000</r>
       <r>   4.4781  1.0000</r>
       <r>   4.4781  1.0000</r>
       <r>   4.4847  1.0000</r>
       <r>   4.4848  1.0000</r>
       <r>   4.6948  1.0000</r>
       <r>   4.6948  1.0000</r>
       <r>   5.3327  1.0000</r>
       <r>   5.3328  1.0000</r>
       <r>   5.6958  1.0000</r>
       <r>   5.6958  1.0000</r>
       <r>   6.3629  1.0000</r>
       <r>   6.3629  1.0000</r>
       <r>   6.4195  1.0000</r>
       <r>   6.4197  1.0000</r>
       <r>   6.4368  1.0000</r>
       <r>   6.4368  1.0000</r>
       <r>   6.4368  1.0000</r>
       <r>   6.4369  1.0000</r>
       <r>   7.8486  0.0000</r>
       <r>   7.8486  0.0000</r>
       <r>   7.8875  0.0000</r>
       <r>   7.8875  0.0000</r>
       <r>   8.3482  0.0000</r>
       <r>   8.3482  0.0000</r>
       <r>   8.3482  0.0000</r>
       <r>   8.3482  0.0000</r>
       <r>   8.5272  0.0000</r>
       <r>   8.5272  0.0000</r>
       <r>   8.9429  0.0000</r>
       <r>   8.9429  0.0000</r>
       <r>   9.1222  0.0000</r>
       <r>   9.1222  0.0000</r>
       <r>   9.1644  0.0000</r>
       <r>   9.1644  0.0000</r>
       <r>   9.5475  0.0000</r>
       <r>   9.5475  0.0000</r>
       <r>   9.7588  0.0000</r>
       <r>   9.7626  0.0000</r>
      </set>
      <set comment="kpoint 16">
       <r>  -2.5744  1.0000</r>
       <r>  -2.5722  1.0000</r>
       <r>  -2.5717  1.0000</r>
       <r>  -2.5696  1.0000</r>
       <r>  -0.5424  1.0000</r>
       <r>  -0.5404  1.0000</r>
       <r>  -0.5394  1.0000</r>
       <r>  -0.5391  1.0000</r>
       <r>  -0.5389  1.0000</r>
       <r>  -0.5386  1.0000</r>
       <r>  -0.5376  1.0000</r>
       <r>  -0.5356  1.0000</r>
       <r>   1.4619  1.0000</r>
       <r>   1.4640  1.0000</r>
       <r>   1.4655  1.0000</r>
       <r>   1.4658  1.0000</r>
       <r>   1.4659  1.0000</r>
       <r>   1.4661  1.0000</r>
       <r>   1.4676  1.0000</r>
       <r>   1.4698  1.0000</r>
       <r>   3.3920  1.0000</r>
       <r>   3.3923  1.0000</r>
       <r>   3.3931  1.0000</r>
       <r>   3.3940  1.0000</r>
       <r>   3.3941  1.0000</r>
       <r>   3.3948  1.0000</r>
       <r>   3.3957  1.0000</r>
       <r>   3.3960  1.0000</r>
       <r>   3.5023  1.0000</r>
       <r>   3.5036  1.0000</r>
       <r>   3.5043  1.0000</r>
       <r>   3.5048  1.0000</r>
       <r>   3.5049  1.0000</r>
       <r>   3.5053  1.0000</r>
       <r>   3.5061  1.0000</r>
       <r>   3.5074  1.0000</r>
       <r>   4.9580  1.0000</r>
       <r>   4.9604  1.0000</r>
       <r>   4.9608  1.0000</r>
       <r>   4.9632  1.0000</r>
       <r>   5.4019  1.0000</r>
       <r>   5.4027  1.0000</r>
       <r>   5.4035  1.0000</r>
       <r>   5.4043  1.0000</r>
       <r>   5.9741  1.0000</r>
       <r>   5.9762  1.0000</r>
       <r>   5.9767  1.0000</r>
       <r>   5.9787  1.0000</r>
       <r>   7.3440  0.0000</r>
       <r>   7.3449  0.0000</r>
       <r>   7.3451  0.0000</r>
       <r>   7.3456  0.0000</r>
       <r>   7.3460  0.0000</r>
       <r>   7.3465  0.0000</r>
       <r>   7.3466  0.0000</r>
       <r>   7.3476  0.0000</r>
       <r>   8.7874  0.0000</r>
       <r>   8.7913  0.0000</r>
       <r>   8.7925  0.0000</r>
       <r>   8.7927  0.0000</r>
       <r>   8.7928  0.0000</r>
       <r>   8.7930  0.0000</r>
       <r>   8.7942  0.0000</r>
       <r>   8.7981  0.0000</r>
       <r>   9.3849  0.0000</r>
       <r>   9.3857  0.0000</r>
       <r>   9.3861  0.0000</r>
       <r>   9.3870  0.0000</r>
       <r>   9.3872  0.0000</r>
       <r>   9.3882  0.0000</r>
       <r>   9.3886  0.0000</r>
       <r>   9.3893  0.0000</r>
      </set>
      <set comment="kpoint 17">
       <r>  -3.4839  1.0000</r>
       <r>  -2.1178  1.0000</r>
       <r>  -2.1178  1.0000</r>
       <r>  -1.4407  1.0000</r>
       <r>  -1.4375  1.0000</r>
       <r>  -0.7635  1.0000</r>
       <r>  -0.7634  1.0000</r>
       <r>  -0.7634  1.0000</r>
       <r>  -0.0930  1.0000</r>
       <r>  -0.0911  1.0000</r>
       <r>  -0.0899  1.0000</r>
       <r>  -0.0879  1.0000</r>
       <r>   0.5796  1.0000</r>
       <r>   0.5796  1.0000</r>
       <r>   1.2437  1.0000</r>
       <r>   1.2449  1.0000</r>
       <r>   1.2464  1.0000</r>
       <r>   1.2470  1.0000</r>
       <r>   1.2476  1.0000</r>
       <r>   1.2497  1.0000</r>
       <r>   1.9117  1.0000</r>
       <r>   2.4963  1.0000</r>
       <r>   2.4964  1.0000</r>
       <r>   2.6539  1.0000</r>
       <r>   2.6539  1.0000</r>
       <r>   3.1884  1.0000</r>
       <r>   3.1884  1.0000</r>
       <r>   3.8929  1.0000</r>
       <r>   3.8960  1.0000</r>
       <r>   4.1104  1.0000</r>
       <r>   4.4926  1.0000</r>
       <r>   4.4926  1.0000</r>
       <r>   5.0809  1.0000</r>
       <r>   5.1222  1.0000</r>
       <r>   5.1222  1.0000</r>
       <r>   5.1616  1.0000</r>
       <r>   5.1616  1.0000</r>
       <r>   5.3861  1.0000</r>
       <r>   5.3861  1.0000</r>
       <r>   5.7883  1.0000</r>
       <r>   5.7884  1.0000</r>
       <r>   5.9942  1.0000</r>
       <r>   5.9942  1.0000</r>
       <r>   6.4172  1.0000</r>
       <r>   6.4173  1.0000</r>
       <r>   6.4331  1.0000</r>
       <r>   6.4350  1.0000</r>
       <r>   6.4364  1.0000</r>
       <r>   6.4384  1.0000</r>
       <r>   6.6625  0.0000</r>
       <r>   6.6633  0.0000</r>
       <r>   6.6634  0.0000</r>
       <r>   7.3001  0.0000</r>
       <r>   7.3001  0.0000</r>
       <r>   7.7191  0.0000</r>
       <r>   7.7196  0.0000</r>
       <r>   7.7216  0.0000</r>
       <r>   7.7220  0.0000</r>
       <r>   7.7229  0.0000</r>
       <r>   7.7233  0.0000</r>
       <r>   7.7285  0.0000</r>
       <r>   7.9348  0.0000</r>
       <r>   7.9349  0.0000</r>
       <r>   7.9395  0.0000</r>
       <r>   7.9398  0.0000</r>
       <r>   7.9574  0.0000</r>
       <r>   7.9575  0.0000</r>
       <r>   8.5840  0.0000</r>
       <r>   8.5840  0.0000</r>
       <r>   9.0090  0.0000</r>
       <r>   9.0090  0.0000</r>
       <r>   9.2249  0.0000</r>
      </set>
      <set comment="kpoint 18">
       <r>  -3.4267  1.0000</r>
       <r>  -2.0627  1.0000</r>
       <r>  -2.0611  1.0000</r>
       <r>  -2.0596  1.0000</r>
       <r>  -0.7106  1.0000</r>
       <r>  -0.7076  1.0000</r>
       <r>  -0.7076  1.0000</r>
       <r>  -0.7070  1.0000</r>
       <r>  -0.7069  1.0000</r>
       <r>  -0.7040  1.0000</r>
       <r>   0.6319  1.0000</r>
       <r>   0.6343  1.0000</r>
       <r>   0.6345  1.0000</r>
       <r>   0.6353  1.0000</r>
       <r>   0.6355  1.0000</r>
       <r>   0.6363  1.0000</r>
       <r>   0.6384  1.0000</r>
       <r>   1.9622  1.0000</r>
       <r>   1.9633  1.0000</r>
       <r>   1.9639  1.0000</r>
       <r>   1.9659  1.0000</r>
       <r>   1.9671  1.0000</r>
       <r>   1.9688  1.0000</r>
       <r>   3.2422  1.0000</r>
       <r>   3.2429  1.0000</r>
       <r>   3.2436  1.0000</r>
       <r>   3.2933  1.0000</r>
       <r>   3.2941  1.0000</r>
       <r>   3.2949  1.0000</r>
       <r>   4.5439  1.0000</r>
       <r>   4.5454  1.0000</r>
       <r>   4.5466  1.0000</r>
       <r>   4.5466  1.0000</r>
       <r>   4.5478  1.0000</r>
       <r>   4.5492  1.0000</r>
       <r>   4.6027  1.0000</r>
       <r>   5.8408  1.0000</r>
       <r>   5.8412  1.0000</r>
       <r>   5.8428  1.0000</r>
       <r>   5.8431  1.0000</r>
       <r>   5.8434  1.0000</r>
       <r>   5.8436  1.0000</r>
       <r>   5.8439  1.0000</r>
       <r>   5.8454  1.0000</r>
       <r>   5.8464  1.0000</r>
       <r>   6.0483  1.0000</r>
       <r>   6.0490  1.0000</r>
       <r>   6.0497  1.0000</r>
       <r>   7.1310  0.0000</r>
       <r>   7.1316  0.0000</r>
       <r>   7.1327  0.0000</r>
       <r>   7.1327  0.0000</r>
       <r>   7.1338  0.0000</r>
       <r>   7.1345  0.0000</r>
       <r>   7.3534  0.0000</r>
       <r>   7.3536  0.0000</r>
       <r>   7.3548  0.0000</r>
       <r>   7.3548  0.0000</r>
       <r>   7.3560  0.0000</r>
       <r>   7.3562  0.0000</r>
       <r>   8.4135  0.0000</r>
       <r>   8.4142  0.0000</r>
       <r>   8.4149  0.0000</r>
       <r>   8.6348  0.0000</r>
       <r>   8.6366  0.0000</r>
       <r>   8.6374  0.0000</r>
       <r>   8.6375  0.0000</r>
       <r>   8.6380  0.0000</r>
       <r>   8.6399  0.0000</r>
       <r>   8.6437  0.0000</r>
       <r>   8.6445  0.0000</r>
       <r>   8.6449  0.0000</r>
      </set>
      <set comment="kpoint 19">
       <r>  -3.2554  1.0000</r>
       <r>  -2.5719  1.0000</r>
       <r>  -1.8913  1.0000</r>
       <r>  -1.8913  1.0000</r>
       <r>  -1.2137  1.0000</r>
       <r>  -1.2137  1.0000</r>
       <r>  -0.5390  1.0000</r>
       <r>  -0.5388  1.0000</r>
       <r>  -0.5388  1.0000</r>
       <r>   0.1308  1.0000</r>
       <r>   0.1328  1.0000</r>
       <r>   0.1331  1.0000</r>
       <r>   0.1349  1.0000</r>
       <r>   0.8021  1.0000</r>
       <r>   0.8021  1.0000</r>
       <r>   1.4662  1.0000</r>
       <r>   1.4670  1.0000</r>
       <r>   1.4688  1.0000</r>
       <r>   1.4696  1.0000</r>
       <r>   2.1216  1.0000</r>
       <r>   2.1322  1.0000</r>
       <r>   2.7220  1.0000</r>
       <r>   2.7928  1.0000</r>
       <r>   2.7929  1.0000</r>
       <r>   2.8671  1.0000</r>
       <r>   3.4062  1.0000</r>
       <r>   3.4063  1.0000</r>
       <r>   3.4394  1.0000</r>
       <r>   3.4394  1.0000</r>
       <r>   4.0586  1.0000</r>
       <r>   4.0587  1.0000</r>
       <r>   4.1113  1.0000</r>
       <r>   4.1114  1.0000</r>
       <r>   4.6954  1.0000</r>
       <r>   4.6955  1.0000</r>
       <r>   4.7498  1.0000</r>
       <r>   4.7616  1.0000</r>
       <r>   4.7616  1.0000</r>
       <r>   5.3587  1.0000</r>
       <r>   5.3587  1.0000</r>
       <r>   5.4158  1.0000</r>
       <r>   6.0047  1.0000</r>
       <r>   6.0048  1.0000</r>
       <r>   6.0485  1.0000</r>
       <r>   6.0485  1.0000</r>
       <r>   6.2132  1.0000</r>
       <r>   6.2132  1.0000</r>
       <r>   6.6468  0.0000</r>
       <r>   6.6473  0.0000</r>
       <r>   6.6504  0.0000</r>
       <r>   6.6509  0.0000</r>
       <r>   6.8680  0.0000</r>
       <r>   6.8680  0.0000</r>
       <r>   7.3387  0.0000</r>
       <r>   7.4714  0.0000</r>
       <r>   7.5171  0.0000</r>
       <r>   7.5171  0.0000</r>
       <r>   7.9334  0.0000</r>
       <r>   7.9334  0.0000</r>
       <r>   8.1631  0.0000</r>
       <r>   8.1631  0.0000</r>
       <r>   8.5574  0.0000</r>
       <r>   8.5574  0.0000</r>
       <r>   8.7552  0.0000</r>
       <r>   8.7552  0.0000</r>
       <r>   8.8001  0.0000</r>
       <r>   8.8001  0.0000</r>
       <r>   9.2099  0.0000</r>
       <r>   9.2099  0.0000</r>
       <r>   9.4212  0.0000</r>
       <r>   9.4232  0.0000</r>
       <r>   9.4347  0.0000</r>
      </set>
      <set comment="kpoint 20">
       <r>  -2.9716  1.0000</r>
       <r>  -2.9689  1.0000</r>
       <r>  -1.6109  1.0000</r>
       <r>  -1.6091  1.0000</r>
       <r>  -1.6082  1.0000</r>
       <r>  -1.6064  1.0000</r>
       <r>  -0.2612  1.0000</r>
       <r>  -0.2598  1.0000</r>
       <r>  -0.2589  1.0000</r>
       <r>  -0.2581  1.0000</r>
       <r>  -0.2578  1.0000</r>
       <r>  -0.2560  1.0000</r>
       <r>   1.0754  1.0000</r>
       <r>   1.0777  1.0000</r>
       <r>   1.0786  1.0000</r>
       <r>   1.0794  1.0000</r>
       <r>   1.0810  1.0000</r>
       <r>   1.0823  1.0000</r>
       <r>   2.4035  1.0000</r>
       <r>   2.4046  1.0000</r>
       <r>   2.4048  1.0000</r>
       <r>   2.4054  1.0000</r>
       <r>   2.4061  1.0000</r>
       <r>   2.4077  1.0000</r>
       <r>   3.6768  1.0000</r>
       <r>   3.6771  1.0000</r>
       <r>   3.6796  1.0000</r>
       <r>   3.6797  1.0000</r>
       <r>   3.7205  1.0000</r>
       <r>   3.7212  1.0000</r>
       <r>   3.7221  1.0000</r>
       <r>   3.7227  1.0000</r>
       <r>   3.7259  1.0000</r>
       <r>   3.7274  1.0000</r>
       <r>   4.9786  1.0000</r>
       <r>   4.9803  1.0000</r>
       <r>   4.9813  1.0000</r>
       <r>   4.9830  1.0000</r>
       <r>   5.0311  1.0000</r>
       <r>   5.0318  1.0000</r>
       <r>   5.0326  1.0000</r>
       <r>   5.0334  1.0000</r>
       <r>   6.2722  1.0000</r>
       <r>   6.2727  1.0000</r>
       <r>   6.2750  1.0000</r>
       <r>   6.2754  1.0000</r>
       <r>   6.3294  1.0000</r>
       <r>   6.3310  1.0000</r>
       <r>   6.4847  1.0000</r>
       <r>   6.4852  1.0000</r>
       <r>   6.4873  1.0000</r>
       <r>   6.4878  1.0000</r>
       <r>   7.5541  0.0000</r>
       <r>   7.5547  0.0000</r>
       <r>   7.5559  0.0000</r>
       <r>   7.5564  0.0000</r>
       <r>   7.7853  0.0000</r>
       <r>   7.7858  0.0000</r>
       <r>   7.7879  0.0000</r>
       <r>   7.7884  0.0000</r>
       <r>   8.8333  0.0000</r>
       <r>   8.8342  0.0000</r>
       <r>   8.8351  0.0000</r>
       <r>   8.8359  0.0000</r>
       <r>   9.0150  0.0000</r>
       <r>   9.0166  0.0000</r>
       <r>   9.0612  0.0000</r>
       <r>   9.0630  0.0000</r>
       <r>   9.0638  0.0000</r>
       <r>   9.0656  0.0000</r>
       <r>  10.0563  0.0000</r>
       <r>  10.0648  0.0000</r>
      </set>
      <set comment="kpoint 21">
       <r>  -3.3125  1.0000</r>
       <r>  -2.6287  1.0000</r>
       <r>  -1.9479  1.0000</r>
       <r>  -1.2720  1.0000</r>
       <r>  -1.2700  1.0000</r>
       <r>  -1.2679  1.0000</r>
       <r>  -0.5970  1.0000</r>
       <r>  -0.5949  1.0000</r>
       <r>  -0.5929  1.0000</r>
       <r>   0.0750  1.0000</r>
       <r>   0.0769  1.0000</r>
       <r>   0.0772  1.0000</r>
       <r>   0.0792  1.0000</r>
       <r>   0.7444  1.0000</r>
       <r>   0.7476  1.0000</r>
       <r>   1.4114  1.0000</r>
       <r>   1.4128  1.0000</r>
       <r>   1.4148  1.0000</r>
       <r>   2.0664  1.0000</r>
       <r>   2.0728  1.0000</r>
       <r>   2.0752  1.0000</r>
       <r>   2.0759  1.0000</r>
       <r>   2.0784  1.0000</r>
       <r>   2.7381  1.0000</r>
       <r>   3.3518  1.0000</r>
       <r>   3.3848  1.0000</r>
       <r>   3.4009  1.0000</r>
       <r>   3.4041  1.0000</r>
       <r>   4.0044  1.0000</r>
       <r>   4.0383  1.0000</r>
       <r>   4.0415  1.0000</r>
       <r>   4.2698  1.0000</r>
       <r>   4.6930  1.0000</r>
       <r>   4.7088  1.0000</r>
       <r>   4.7120  1.0000</r>
       <r>   4.9075  1.0000</r>
       <r>   5.2493  1.0000</r>
       <r>   5.3030  1.0000</r>
       <r>   5.3063  1.0000</r>
       <r>   5.3446  1.0000</r>
       <r>   5.3478  1.0000</r>
       <r>   5.5456  1.0000</r>
       <r>   5.9184  1.0000</r>
       <r>   5.9499  1.0000</r>
       <r>   5.9532  1.0000</r>
       <r>   6.1585  1.0000</r>
       <r>   6.1837  1.0000</r>
       <r>   6.5825  0.9966</r>
       <r>   6.5951  0.8223</r>
       <r>   6.6395  0.0000</r>
       <r>   6.6427  0.0000</r>
       <r>   6.8127  0.0000</r>
       <r>   6.8230  0.0000</r>
       <r>   7.2399  0.0000</r>
       <r>   7.4173  0.0000</r>
       <r>   7.4610  0.0000</r>
       <r>   7.4623  0.0000</r>
       <r>   7.8836  0.0000</r>
       <r>   8.1059  0.0000</r>
       <r>   8.1088  0.0000</r>
       <r>   8.5042  0.0000</r>
       <r>   8.5162  0.0000</r>
       <r>   8.5180  0.0000</r>
       <r>   8.5213  0.0000</r>
       <r>   8.5293  0.0000</r>
       <r>   8.7045  0.0000</r>
       <r>   8.7378  0.0000</r>
       <r>   8.7480  0.0000</r>
       <r>   8.7509  0.0000</r>
       <r>   9.3378  0.0000</r>
       <r>   9.3407  0.0000</r>
       <r>   9.3730  0.0000</r>
      </set>
      <set comment="kpoint 22">
       <r>  -3.2554  1.0000</r>
       <r>  -2.5719  1.0000</r>
       <r>  -1.8924  1.0000</r>
       <r>  -1.8902  1.0000</r>
       <r>  -1.2148  1.0000</r>
       <r>  -1.2126  1.0000</r>
       <r>  -0.5406  1.0000</r>
       <r>  -0.5389  1.0000</r>
       <r>  -0.5371  1.0000</r>
       <r>   0.1310  1.0000</r>
       <r>   0.1327  1.0000</r>
       <r>   0.1330  1.0000</r>
       <r>   0.1348  1.0000</r>
       <r>   0.8016  1.0000</r>
       <r>   0.8027  1.0000</r>
       <r>   1.4666  1.0000</r>
       <r>   1.4674  1.0000</r>
       <r>   1.4681  1.0000</r>
       <r>   1.4694  1.0000</r>
       <r>   2.1217  1.0000</r>
       <r>   2.1321  1.0000</r>
       <r>   2.7221  1.0000</r>
       <r>   2.7918  1.0000</r>
       <r>   2.7939  1.0000</r>
       <r>   2.8671  1.0000</r>
       <r>   3.4058  1.0000</r>
       <r>   3.4068  1.0000</r>
       <r>   3.4383  1.0000</r>
       <r>   3.4405  1.0000</r>
       <r>   4.0581  1.0000</r>
       <r>   4.0592  1.0000</r>
       <r>   4.1108  1.0000</r>
       <r>   4.1119  1.0000</r>
       <r>   4.6943  1.0000</r>
       <r>   4.6966  1.0000</r>
       <r>   4.7496  1.0000</r>
       <r>   4.7606  1.0000</r>
       <r>   4.7627  1.0000</r>
       <r>   5.3576  1.0000</r>
       <r>   5.3598  1.0000</r>
       <r>   5.4158  1.0000</r>
       <r>   6.0043  1.0000</r>
       <r>   6.0053  1.0000</r>
       <r>   6.0478  1.0000</r>
       <r>   6.0491  1.0000</r>
       <r>   6.2127  1.0000</r>
       <r>   6.2137  1.0000</r>
       <r>   6.6470  0.0000</r>
       <r>   6.6480  0.0000</r>
       <r>   6.6497  0.0000</r>
       <r>   6.6506  0.0000</r>
       <r>   6.8675  0.0000</r>
       <r>   6.8686  0.0000</r>
       <r>   7.3387  0.0000</r>
       <r>   7.4714  0.0000</r>
       <r>   7.5167  0.0000</r>
       <r>   7.5175  0.0000</r>
       <r>   7.9322  0.0000</r>
       <r>   7.9345  0.0000</r>
       <r>   8.1626  0.0000</r>
       <r>   8.1635  0.0000</r>
       <r>   8.5568  0.0000</r>
       <r>   8.5580  0.0000</r>
       <r>   8.7542  0.0000</r>
       <r>   8.7561  0.0000</r>
       <r>   8.7990  0.0000</r>
       <r>   8.8013  0.0000</r>
       <r>   9.2094  0.0000</r>
       <r>   9.2104  0.0000</r>
       <r>   9.4212  0.0000</r>
       <r>   9.4238  0.0000</r>
       <r>   9.4339  0.0000</r>
      </set>
      <set comment="kpoint 23">
       <r>  -3.0843  1.0000</r>
       <r>  -2.4026  1.0000</r>
       <r>  -2.4004  1.0000</r>
       <r>  -1.7226  1.0000</r>
       <r>  -1.7208  1.0000</r>
       <r>  -1.0459  1.0000</r>
       <r>  -1.0438  1.0000</r>
       <r>  -0.3713  1.0000</r>
       <r>  -0.3703  1.0000</r>
       <r>   0.2980  1.0000</r>
       <r>   0.3002  1.0000</r>
       <r>   0.3005  1.0000</r>
       <r>   0.3027  1.0000</r>
       <r>   0.9672  1.0000</r>
       <r>   0.9685  1.0000</r>
       <r>   0.9699  1.0000</r>
       <r>   1.6330  1.0000</r>
       <r>   1.6352  1.0000</r>
       <r>   2.2863  1.0000</r>
       <r>   2.2874  1.0000</r>
       <r>   2.2943  1.0000</r>
       <r>   2.2954  1.0000</r>
       <r>   2.9452  1.0000</r>
       <r>   2.9474  1.0000</r>
       <r>   2.9554  1.0000</r>
       <r>   2.9576  1.0000</r>
       <r>   3.5695  1.0000</r>
       <r>   3.6022  1.0000</r>
       <r>   3.6033  1.0000</r>
       <r>   3.6141  1.0000</r>
       <r>   3.6201  1.0000</r>
       <r>   3.6213  1.0000</r>
       <r>   4.2200  1.0000</r>
       <r>   4.2222  1.0000</r>
       <r>   4.2598  1.0000</r>
       <r>   4.2620  1.0000</r>
       <r>   4.8727  1.0000</r>
       <r>   4.9113  1.0000</r>
       <r>   4.9124  1.0000</r>
       <r>   4.9263  1.0000</r>
       <r>   5.5590  1.0000</r>
       <r>   5.5600  1.0000</r>
       <r>   5.5614  1.0000</r>
       <r>   5.5635  1.0000</r>
       <r>   6.2253  1.0000</r>
       <r>   6.3771  1.0000</r>
       <r>   6.8082  0.0000</r>
       <r>   6.8105  0.0000</r>
       <r>   6.8540  0.0000</r>
       <r>   6.8550  0.0000</r>
       <r>   7.0295  0.0000</r>
       <r>   7.0316  0.0000</r>
       <r>   7.4517  0.0000</r>
       <r>   7.4531  0.0000</r>
       <r>   7.4804  0.0000</r>
       <r>   7.6327  0.0000</r>
       <r>   7.6338  0.0000</r>
       <r>   7.6796  0.0000</r>
       <r>   8.1387  0.0000</r>
       <r>   8.1396  0.0000</r>
       <r>   8.2775  0.0000</r>
       <r>   8.2783  0.0000</r>
       <r>   8.7162  0.0000</r>
       <r>   8.7176  0.0000</r>
       <r>   8.7610  0.0000</r>
       <r>   8.9172  0.0000</r>
       <r>   8.9183  0.0000</r>
       <r>   9.3526  0.0000</r>
       <r>   9.3549  0.0000</r>
       <r>   9.5545  0.0000</r>
       <r>   9.5678  0.0000</r>
       <r>   9.5803  0.0000</r>
      </set>
[...]
       <r>   5.6958  1.0000</r>
       <r>   6.3628  1.0000</r>
       <r>   6.3629  1.0000</r>
       <r>   6.4197  1.0000</r>
       <r>   6.4197  1.0000</r>
       <r>   6.4351  1.0000</r>
       <r>   6.4354  1.0000</r>
       <r>   6.4383  1.0000</r>
       <r>   6.4386  1.0000</r>
       <r>   7.8484  0.0000</r>
       <r>   7.8486  0.0000</r>
       <r>   7.8875  0.0000</r>
       <r>   7.8877  0.0000</r>
       <r>   8.3464  0.0000</r>
       <r>   8.3466  0.0000</r>
       <r>   8.3497  0.0000</r>
       <r>   8.3499  0.0000</r>
       <r>   8.5272  0.0000</r>
       <r>   8.5272  0.0000</r>
       <r>   8.9429  0.0000</r>
       <r>   8.9429  0.0000</r>
       <r>   9.1221  0.0000</r>
       <r>   9.1222  0.0000</r>
       <r>   9.1644  0.0000</r>
       <r>   9.1645  0.0000</r>
       <r>   9.5475  0.0000</r>
       <r>   9.5475  0.0000</r>
       <r>   9.7611  0.0000</r>
       <r>   9.7646  0.0000</r>
      </set>
      <set comment="kpoint 34">
       <r>  -2.7995  1.0000</r>
       <r>  -2.7994  1.0000</r>
       <r>  -2.1179  1.0000</r>
       <r>  -2.1179  1.0000</r>
       <r>  -1.4393  1.0000</r>
       <r>  -1.4393  1.0000</r>
       <r>  -0.7638  1.0000</r>
       <r>  -0.7637  1.0000</r>
       <r>  -0.0907  1.0000</r>
       <r>  -0.0906  1.0000</r>
       <r>   0.5781  1.0000</r>
       <r>   0.5789  1.0000</r>
       <r>   0.5793  1.0000</r>
       <r>   0.5801  1.0000</r>
       <r>   1.2441  1.0000</r>
       <r>   1.2441  1.0000</r>
       <r>   1.9082  1.0000</r>
       <r>   1.9083  1.0000</r>
       <r>   1.9102  1.0000</r>
       <r>   1.9103  1.0000</r>
       <r>   2.5619  1.0000</r>
       <r>   2.5620  1.0000</r>
       <r>   2.5698  1.0000</r>
       <r>   2.5699  1.0000</r>
       <r>   3.1709  1.0000</r>
       <r>   3.1709  1.0000</r>
       <r>   3.2926  1.0000</r>
       <r>   3.2926  1.0000</r>
       <r>   3.8362  1.0000</r>
       <r>   3.8364  1.0000</r>
       <r>   3.8414  1.0000</r>
       <r>   3.8416  1.0000</r>
       <r>   3.9272  1.0000</r>
       <r>   3.9273  1.0000</r>
       <r>   4.4777  1.0000</r>
       <r>   4.4777  1.0000</r>
       <r>   4.5429  1.0000</r>
       <r>   4.5430  1.0000</r>
       <r>   4.5547  1.0000</r>
       <r>   4.5548  1.0000</r>
       <r>   5.1829  1.0000</r>
       <r>   5.1829  1.0000</r>
       <r>   5.8432  1.0000</r>
       <r>   5.8432  1.0000</r>
       <r>   6.4716  1.0000</r>
       <r>   6.4716  1.0000</r>
       <r>   6.6512  0.0000</r>
       <r>   6.6512  0.0000</r>
       <r>   7.0775  0.0000</r>
       <r>   7.0775  0.0000</r>
       <r>   7.1355  0.0000</r>
       <r>   7.1355  0.0000</r>
       <r>   7.3016  0.0000</r>
       <r>   7.3016  0.0000</r>
       <r>   7.7153  0.0000</r>
       <r>   7.7153  0.0000</r>
       <r>   7.7610  0.0000</r>
       <r>   7.7610  0.0000</r>
       <r>   7.9027  0.0000</r>
       <r>   7.9027  0.0000</r>
       <r>   8.3558  0.0000</r>
       <r>   8.3558  0.0000</r>
       <r>   8.9822  0.0000</r>
       <r>   8.9822  0.0000</r>
       <r>   9.0391  0.0000</r>
       <r>   9.0391  0.0000</r>
       <r>   9.1758  0.0000</r>
       <r>   9.1758  0.0000</r>
       <r>   9.1837  0.0000</r>
       <r>   9.1837  0.0000</r>
       <r>   9.8040  0.0000</r>
       <r>   9.8136  0.0000</r>
      </set>
      <set comment="kpoint 35">
       <r>  -2.6288  1.0000</r>
       <r>  -2.6288  1.0000</r>
       <r>  -1.9501  1.0000</r>
       <r>  -1.9482  1.0000</r>
       <r>  -1.9479  1.0000</r>
       <r>  -1.9461  1.0000</r>
       <r>  -1.2703  1.0000</r>
       <r>  -1.2703  1.0000</r>
       <r>   0.7439  1.0000</r>
       <r>   0.7458  1.0000</r>
       <r>   0.7461  1.0000</r>
       <r>   0.7480  1.0000</r>
       <r>   1.4091  1.0000</r>
       <r>   1.4101  1.0000</r>
       <r>   1.4119  1.0000</r>
       <r>   1.4122  1.0000</r>
       <r>   1.4126  1.0000</r>
       <r>   1.4139  1.0000</r>
       <r>   2.0728  1.0000</r>
       <r>   2.0729  1.0000</r>
       <r>   2.0749  1.0000</r>
       <r>   2.0750  1.0000</r>
       <r>   2.7255  1.0000</r>
       <r>   2.7265  1.0000</r>
       <r>   2.7268  1.0000</r>
       <r>   2.7274  1.0000</r>
       <r>   2.7334  1.0000</r>
       <r>   2.7339  1.0000</r>
       <r>   3.3816  1.0000</r>
       <r>   3.3835  1.0000</r>
       <r>   3.3838  1.0000</r>
       <r>   3.3857  1.0000</r>
       <r>   4.0555  1.0000</r>
       <r>   4.0555  1.0000</r>
       <r>   4.7033  1.0000</r>
       <r>   4.7034  1.0000</r>
       <r>   4.7055  1.0000</r>
       <r>   4.7056  1.0000</r>
       <r>   5.3550  1.0000</r>
       <r>   5.3557  1.0000</r>
       <r>   5.3561  1.0000</r>
       <r>   5.3568  1.0000</r>
       <r>   5.9916  1.0000</r>
       <r>   5.9925  1.0000</r>
       <r>   5.9926  1.0000</r>
       <r>   5.9935  1.0000</r>
       <r>   6.6334  0.0000</r>
       <r>   6.6342  0.0000</r>
       <r>   6.6346  0.0000</r>
       <r>   6.6353  0.0000</r>
       <r>   7.2779  0.0000</r>
       <r>   7.2780  0.0000</r>
       <r>   7.2801  0.0000</r>
       <r>   7.2802  0.0000</r>
       <r>   7.9082  0.0000</r>
       <r>   7.9082  0.0000</r>
       <r>   7.9371  0.0000</r>
       <r>   7.9371  0.0000</r>
       <r>   8.0629  0.0000</r>
       <r>   8.0636  0.0000</r>
       <r>   8.0640  0.0000</r>
       <r>   8.0648  0.0000</r>
       <r>   8.7049  0.0000</r>
       <r>   8.7058  0.0000</r>
       <r>   8.7059  0.0000</r>
       <r>   8.7068  0.0000</r>
       <r>   9.3349  0.0000</r>
       <r>   9.3349  0.0000</r>
       <r>   9.8307  0.0000</r>
       <r>   9.8317  0.0000</r>
       <r>   9.8318  0.0000</r>
       <r>   9.8327  0.0000</r>
      </set>
      <set comment="kpoint 36">
       <r>  -2.3472  1.0000</r>
       <r>  -2.3451  1.0000</r>
       <r>  -2.3446  1.0000</r>
       <r>  -2.3424  1.0000</r>
       <r>  -1.6677  1.0000</r>
       <r>  -1.6656  1.0000</r>
       <r>  -1.6651  1.0000</r>
       <r>  -1.6629  1.0000</r>
       <r>   1.0215  1.0000</r>
       <r>   1.0237  1.0000</r>
       <r>   1.0241  1.0000</r>
       <r>   1.0263  1.0000</r>
       <r>   1.6832  1.0000</r>
       <r>   1.6853  1.0000</r>
       <r>   1.6869  1.0000</r>
       <r>   1.6871  1.0000</r>
       <r>   1.6872  1.0000</r>
       <r>   1.6874  1.0000</r>
       <r>   1.6890  1.0000</r>
       <r>   1.6911  1.0000</r>
       <r>   2.3454  1.0000</r>
       <r>   2.3474  1.0000</r>
       <r>   2.3490  1.0000</r>
       <r>   2.3492  1.0000</r>
       <r>   2.3493  1.0000</r>
       <r>   2.3496  1.0000</r>
       <r>   2.3511  1.0000</r>
       <r>   2.3532  1.0000</r>
       <r>   2.9985  1.0000</r>
       <r>   3.0007  1.0000</r>
       <r>   3.0011  1.0000</r>
       <r>   3.0033  1.0000</r>
       <r>   4.9720  1.0000</r>
       <r>   4.9742  1.0000</r>
       <r>   4.9758  1.0000</r>
       <r>   4.9760  1.0000</r>
       <r>   4.9761  1.0000</r>
       <r>   4.9763  1.0000</r>
       <r>   4.9779  1.0000</r>
       <r>   4.9800  1.0000</r>
       <r>   5.6206  1.0000</r>
       <r>   5.6215  1.0000</r>
       <r>   5.6222  1.0000</r>
       <r>   5.6231  1.0000</r>
       <r>   6.2691  1.0000</r>
       <r>   6.2700  1.0000</r>
       <r>   6.2707  1.0000</r>
       <r>   6.2716  1.0000</r>
       <r>   6.8991  0.0000</r>
       <r>   6.9015  0.0000</r>
       <r>   6.9030  0.0000</r>
       <r>   6.9032  0.0000</r>
       <r>   6.9033  0.0000</r>
       <r>   6.9036  0.0000</r>
       <r>   6.9051  0.0000</r>
       <r>   6.9074  0.0000</r>
       <r>   8.3296  0.0000</r>
       <r>   8.3317  0.0000</r>
       <r>   8.3322  0.0000</r>
       <r>   8.3343  0.0000</r>
       <r>   8.8369  0.0000</r>
       <r>   8.8378  0.0000</r>
       <r>   8.8385  0.0000</r>
       <r>   8.8395  0.0000</r>
       <r>   9.5975  0.0000</r>
       <r>   9.5983  0.0000</r>
       <r>   9.5988  0.0000</r>
       <r>   9.5997  0.0000</r>
       <r>   9.5999  0.0000</r>
       <r>   9.6007  0.0000</r>
       <r>   9.6013  0.0000</r>
       <r>   9.6021  0.0000</r>
      </set>
      <set comment="kpoint 37">
       <r>  -2.5720  1.0000</r>
       <r>  -2.5719  1.0000</r>
       <r>  -2.5719  1.0000</r>
       <r>  -2.5719  1.0000</r>
       <r>  -0.5441  1.0000</r>
       <r>  -0.5396  1.0000</r>
       <r>  -0.5396  1.0000</r>
       <r>  -0.5390  1.0000</r>
       <r>  -0.5390  1.0000</r>
       <r>  -0.5384  1.0000</r>
       <r>  -0.5384  1.0000</r>
       <r>  -0.5340  1.0000</r>
       <r>   1.4658  1.0000</r>
       <r>   1.4658  1.0000</r>
       <r>   1.4658  1.0000</r>
       <r>   1.4658  1.0000</r>
       <r>   1.4658  1.0000</r>
       <r>   1.4658  1.0000</r>
       <r>   1.4658  1.0000</r>
       <r>   1.4658  1.0000</r>
       <r>   3.3926  1.0000</r>
       <r>   3.3926  1.0000</r>
       <r>   3.3939  1.0000</r>
       <r>   3.3940  1.0000</r>
       <r>   3.3940  1.0000</r>
       <r>   3.3940  1.0000</r>
       <r>   3.3954  1.0000</r>
       <r>   3.3954  1.0000</r>
       <r>   3.5034  1.0000</r>
       <r>   3.5034  1.0000</r>
       <r>   3.5048  1.0000</r>
       <r>   3.5048  1.0000</r>
       <r>   3.5048  1.0000</r>
       <r>   3.5050  1.0000</r>
       <r>   3.5063  1.0000</r>
       <r>   3.5063  1.0000</r>
       <r>   4.9606  1.0000</r>
       <r>   4.9606  1.0000</r>
       <r>   4.9606  1.0000</r>
       <r>   4.9606  1.0000</r>
       <r>   5.4031  1.0000</r>
       <r>   5.4031  1.0000</r>
       <r>   5.4031  1.0000</r>
       <r>   5.4031  1.0000</r>
       <r>   5.9764  1.0000</r>
       <r>   5.9764  1.0000</r>
       <r>   5.9764  1.0000</r>
       <r>   5.9764  1.0000</r>
       <r>   7.3437  0.0000</r>
       <r>   7.3437  0.0000</r>
       <r>   7.3444  0.0000</r>
       <r>   7.3449  0.0000</r>
       <r>   7.3467  0.0000</r>
       <r>   7.3472  0.0000</r>
       <r>   7.3479  0.0000</r>
       <r>   7.3479  0.0000</r>
       <r>   8.7927  0.0000</r>
       <r>   8.7927  0.0000</r>
       <r>   8.7927  0.0000</r>
       <r>   8.7928  0.0000</r>
       <r>   8.7928  0.0000</r>
       <r>   8.7928  0.0000</r>
       <r>   8.7928  0.0000</r>
       <r>   8.7928  0.0000</r>
       <r>   9.3871  0.0000</r>
       <r>   9.3871  0.0000</r>
       <r>   9.3871  0.0000</r>
       <r>   9.3871  0.0000</r>
       <r>   9.3871  0.0000</r>
       <r>   9.3872  0.0000</r>
       <r>   9.3872  0.0000</r>
       <r>   9.3872  0.0000</r>
      </set>
      <set comment="kpoint 38">
       <r>  -2.5152  1.0000</r>
       <r>  -2.5151  1.0000</r>
       <r>  -2.5151  1.0000</r>
       <r>  -2.5151  1.0000</r>
       <r>  -1.1575  1.0000</r>
       <r>  -1.1575  1.0000</r>
       <r>  -1.1575  1.0000</r>
       <r>  -1.1575  1.0000</r>
       <r>   0.1888  1.0000</r>
       <r>   0.1888  1.0000</r>
       <r>   0.1888  1.0000</r>
       <r>   0.1888  1.0000</r>
       <r>   1.5212  1.0000</r>
       <r>   1.5212  1.0000</r>
       <r>   1.5212  1.0000</r>
       <r>   1.5212  1.0000</r>
       <r>   1.5212  1.0000</r>
       <r>   1.5212  1.0000</r>
       <r>   1.5212  1.0000</r>
       <r>   1.5212  1.0000</r>
       <r>   2.8434  1.0000</r>
       <r>   2.8434  1.0000</r>
       <r>   2.8435  1.0000</r>
       <r>   2.8435  1.0000</r>
       <r>   2.8435  1.0000</r>
       <r>   2.8435  1.0000</r>
       <r>   2.8437  1.0000</r>
       <r>   2.8437  1.0000</r>
       <r>   4.1125  1.0000</r>
       <r>   4.1125  1.0000</r>
       <r>   4.1126  1.0000</r>
       <r>   4.1126  1.0000</r>
       <r>   4.1620  1.0000</r>
       <r>   4.1620  1.0000</r>
       <r>   4.1621  1.0000</r>
       <r>   4.1621  1.0000</r>
       <r>   4.1621  1.0000</r>
       <r>   4.1621  1.0000</r>
       <r>   4.1622  1.0000</r>
       <r>   4.1622  1.0000</r>
       <r>   5.4592  1.0000</r>
       <r>   5.4592  1.0000</r>
       <r>   5.4592  1.0000</r>
       <r>   5.4592  1.0000</r>
       <r>   6.7551  0.0000</r>
       <r>   6.7551  0.0000</r>
       <r>   6.7551  0.0000</r>
       <r>   6.7552  0.0000</r>
       <r>   6.9222  0.0000</r>
       <r>   6.9222  0.0000</r>
       <r>   6.9222  0.0000</r>
       <r>   6.9222  0.0000</r>
       <r>   7.9825  0.0000</r>
       <r>   7.9825  0.0000</r>
       <r>   7.9825  0.0000</r>
       <r>   7.9825  0.0000</r>
       <r>   7.9825  0.0000</r>
       <r>   7.9825  0.0000</r>
       <r>   7.9825  0.0000</r>
       <r>   7.9826  0.0000</r>
       <r>   8.0408  0.0000</r>
       <r>   8.0409  0.0000</r>
       <r>   8.0409  0.0000</r>
       <r>   8.0409  0.0000</r>
       <r>   9.4407  0.0000</r>
       <r>   9.4407  0.0000</r>
       <r>   9.4407  0.0000</r>
       <r>   9.4407  0.0000</r>
       <r>   9.4407  0.0000</r>
       <r>   9.4407  0.0000</r>
       <r>   9.4408  0.0000</r>
       <r>   9.4408  0.0000</r>
      </set>
      <set comment="kpoint 39">
       <r>  -2.3449  1.0000</r>
       <r>  -2.3448  1.0000</r>
       <r>  -2.3448  1.0000</r>
       <r>  -2.3448  1.0000</r>
       <r>  -1.6653  1.0000</r>
       <r>  -1.6653  1.0000</r>
       <r>  -1.6653  1.0000</r>
       <r>  -1.6653  1.0000</r>
       <r>   1.0239  1.0000</r>
       <r>   1.0239  1.0000</r>
       <r>   1.0239  1.0000</r>
       <r>   1.0239  1.0000</r>
       <r>   1.6871  1.0000</r>
       <r>   1.6871  1.0000</r>
       <r>   1.6871  1.0000</r>
       <r>   1.6871  1.0000</r>
       <r>   1.6871  1.0000</r>
       <r>   1.6871  1.0000</r>
       <r>   1.6872  1.0000</r>
       <r>   1.6872  1.0000</r>
       <r>   2.3492  1.0000</r>
       <r>   2.3492  1.0000</r>
       <r>   2.3493  1.0000</r>
       <r>   2.3493  1.0000</r>
       <r>   2.3493  1.0000</r>
       <r>   2.3493  1.0000</r>
       <r>   2.3493  1.0000</r>
       <r>   2.3493  1.0000</r>
       <r>   3.0009  1.0000</r>
       <r>   3.0009  1.0000</r>
       <r>   3.0009  1.0000</r>
       <r>   3.0010  1.0000</r>
       <r>   4.9760  1.0000</r>
       <r>   4.9760  1.0000</r>
       <r>   4.9760  1.0000</r>
       <r>   4.9760  1.0000</r>
       <r>   4.9760  1.0000</r>
       <r>   4.9760  1.0000</r>
       <r>   4.9761  1.0000</r>
       <r>   4.9761  1.0000</r>
       <r>   5.6218  1.0000</r>
       <r>   5.6218  1.0000</r>
       <r>   5.6219  1.0000</r>
       <r>   5.6219  1.0000</r>
       <r>   6.2703  1.0000</r>
       <r>   6.2703  1.0000</r>
       <r>   6.2703  1.0000</r>
       <r>   6.2703  1.0000</r>
       <r>   6.9033  0.0000</r>
       <r>   6.9033  0.0000</r>
       <r>   6.9033  0.0000</r>
       <r>   6.9033  0.0000</r>
       <r>   6.9033  0.0000</r>
       <r>   6.9033  0.0000</r>
       <r>   6.9033  0.0000</r>
       <r>   6.9033  0.0000</r>
       <r>   8.3319  0.0000</r>
       <r>   8.3319  0.0000</r>
       <r>   8.3319  0.0000</r>
       <r>   8.3319  0.0000</r>
       <r>   8.8382  0.0000</r>
       <r>   8.8382  0.0000</r>
       <r>   8.8382  0.0000</r>
       <r>   8.8382  0.0000</r>
       <r>   9.5997  0.0000</r>
       <r>   9.5997  0.0000</r>
       <r>   9.5997  0.0000</r>
       <r>   9.5998  0.0000</r>
       <r>   9.5998  0.0000</r>
       <r>   9.5998  0.0000</r>
       <r>   9.5998  0.0000</r>
       <r>   9.5998  0.0000</r>
      </set>
      <set comment="kpoint 40">
       <r>  -2.0658  1.0000</r>
       <r>  -2.0618  1.0000</r>
       <r>  -2.0618  1.0000</r>
       <r>  -2.0614  1.0000</r>
       <r>  -2.0613  1.0000</r>
       <r>  -2.0610  1.0000</r>
       <r>  -2.0610  1.0000</r>
       <r>  -2.0570  1.0000</r>
       <r>   1.9534  1.0000</r>
       <r>   1.9597  1.0000</r>
       <r>   1.9597  1.0000</r>
       <r>   1.9627  1.0000</r>
       <r>   1.9629  1.0000</r>
       <r>   1.9629  1.0000</r>
       <r>   1.9633  1.0000</r>
       <r>   1.9633  1.0000</r>
       <r>   1.9633  1.0000</r>
       <r>   1.9633  1.0000</r>
       <r>   1.9634  1.0000</r>
       <r>   1.9634  1.0000</r>
       <r>   1.9634  1.0000</r>
       <r>   1.9634  1.0000</r>
       <r>   1.9634  1.0000</r>
       <r>   1.9634  1.0000</r>
       <r>   1.9635  1.0000</r>
       <r>   1.9635  1.0000</r>
       <r>   1.9638  1.0000</r>
       <r>   1.9639  1.0000</r>
       <r>   1.9640  1.0000</r>
       <r>   1.9671  1.0000</r>
       <r>   1.9671  1.0000</r>
       <r>   1.9734  1.0000</r>
       <r>   5.8868  1.0000</r>
       <r>   5.8868  1.0000</r>
       <r>   5.8882  1.0000</r>
       <r>   5.8905  1.0000</r>
       <r>   5.8917  1.0000</r>
       <r>   5.8921  1.0000</r>
       <r>   5.8921  1.0000</r>
       <r>   5.8921  1.0000</r>
       <r>   5.8923  1.0000</r>
       <r>   5.8923  1.0000</r>
       <r>   5.8923  1.0000</r>
       <r>   5.8923  1.0000</r>
       <r>   5.8924  1.0000</r>
       <r>   5.8924  1.0000</r>
       <r>   5.8924  1.0000</r>
       <r>   5.8924  1.0000</r>
       <r>   5.8926  1.0000</r>
       <r>   5.8926  1.0000</r>
       <r>   5.8926  1.0000</r>
       <r>   5.8930  1.0000</r>
       <r>   5.8942  1.0000</r>
       <r>   5.8965  1.0000</r>
       <r>   5.8979  1.0000</r>
       <r>   5.8979  1.0000</r>
       <r>   9.7329  0.0000</r>
       <r>   9.7330  0.0000</r>
       <r>   9.7333  0.0000</r>
       <r>   9.7338  0.0000</r>
       <r>   9.7350  0.0000</r>
       <r>   9.7357  0.0000</r>
       <r>   9.7358  0.0000</r>
       <r>   9.7358  0.0000</r>
       <r>   9.8605  0.0000</r>
       <r>   9.8621  0.0000</r>
       <r>   9.8625  0.0000</r>
       <r>   9.8628  0.0000</r>
       <r>   9.8637  0.0000</r>
       <r>   9.8639  0.0000</r>
       <r>   9.8642  0.0000</r>
       <r>   9.8650  0.0000</r>
      </set>
     </set>
    </set>
   </array>
  </eigenvalues>
 </calculation>
 <structure name="finalpos" >
  <crystal>
   <varray name="basis" >
    <v>       8.47834338      0.00000000      0.00000000</v>
    <v>       0.00000000      8.47834338      0.00000000</v>
    <v>       0.00000000      0.00000000      8.47834338</v>
   </varray>
   <i name="volume">    609.44287640</i>
   <varray name="rec_basis" >
    <v>       0.11794757      0.00000000      0.00000000</v>
    <v>       0.00000000      0.11794757      0.00000000</v>
    <v>       0.00000000      0.00000000      0.11794757</v>
   </varray>
  </crystal>
  <varray name="positions" >
   <v>       0.25117948      0.25000000      0.00000000</v>
   <v>       0.75000000      0.25000000      0.00000000</v>
   <v>       0.25000000      0.75000000      0.00000000</v>
   <v>       0.75000000      0.75000000      0.00000000</v>
   <v>       0.25000000      0.25000000      0.50000000</v>
   <v>       0.75000000      0.25000000      0.50000000</v>
   <v>       0.25000000      0.75000000      0.50000000</v>
   <v>       0.75000000      0.75000000      0.50000000</v>
   <v>       0.25000000      0.00000000      0.25000000</v>
   <v>       0.75000000      0.00000000      0.25000000</v>
   <v>       0.25000000      0.50000000      0.25000000</v>
   <v>       0.75000000      0.50000000      0.25000000</v>
   <v>       0.25000000      0.00000000      0.75000000</v>
   <v>       0.75000000      0.00000000      0.75000000</v>
   <v>       0.25000000      0.50000000      0.75000000</v>
   <v>       0.75000000      0.50000000      0.75000000</v>
   <v>       0.00000000      0.25000000      0.25000000</v>
   <v>       0.50000000      0.25000000      0.25000000</v>
   <v>       0.00000000      0.75000000      0.25000000</v>
   <v>       0.50000000      0.75000000      0.25000000</v>
   <v>       0.00000000      0.25000000      0.75000000</v>
   <v>       0.50000000      0.25000000      0.75000000</v>
   <v>       0.00000000      0.75000000      0.75000000</v>
   <v>       0.50000000      0.75000000      0.75000000</v>
   <v>       0.00000000      0.00000000      0.00000000</v>
   <v>       0.50000000      0.00000000      0.00000000</v>
   <v>       0.00000000      0.50000000      0.00000000</v>
   <v>       0.50000000      0.50000000      0.00000000</v>
   <v>       0.00000000      0.00000000      0.50000000</v>
   <v>       0.50000000      0.00000000      0.50000000</v>
   <v>       0.00000000      0.50000000      0.50000000</v>
   <v>       0.50000000      0.50000000      0.50000000</v>
  </varray>
 </structure>
</modeling>
