nqpoint: 306    
npath: 6      
segment_nqpoint:
- 51
- 51
- 51
- 51
- 51
- 51
reciprocal_lattice:
- [  -0.23589514,   0.23589514,   0.23589514 ] # a*
- [   0.23589514,  -0.23589514,   0.23589514 ] # b*
- [   0.23589514,   0.23589514,  -0.23589514 ] # c*
natom: 1      
lattice:
- [     0.000000000000000,     2.119585844078228,     2.119585844078228 ] # a
- [     2.119585844078228,     0.000000000000000,     2.119585844078228 ] # b
- [     2.119585844078228,     2.119585844078228,     0.000000000000000 ] # c
points:
- symbol: Al # 1
  coordinates: [  0.000000000000000,  0.000000000000000,  0.000000000000000 ]
  mass: 26.981539
supercell_matrix:
- [   -4,    4,    4 ]
- [    4,   -4,    4 ]
- [    4,    4,   -4 ]

phonon:
- q-position: [    0.0000000,    0.0000000,    0.0000000 ]
  distance:    0.0000000
  label: '\Gamma'
  band:
  - # 1
    frequency:   -0.0000001032
  - # 2
    frequency:   -0.0000000468
  - # 3
    frequency:   -0.0000000383

- q-position: [    0.0000000,    0.0100000,    0.0100000 ]
  distance:    0.0047179
  band:
  - # 1
    frequency:    0.0950127068
  - # 2
    frequency:    0.0950127068
  - # 3
    frequency:    0.2275300672

- q-position: [    0.0000000,    0.0200000,    0.0200000 ]
  distance:    0.0094358
  band:
  - # 1
    frequency:    0.1901268102
  - # 2
    frequency:    0.1901268102
  - # 3
    frequency:    0.4548701703

- q-position: [    0.0000000,    0.0300000,    0.0300000 ]
  distance:    0.0141537
  band:
  - # 1
    frequency:    0.2854412115
  - # 2
    frequency:    0.2854412115
  - # 3
    frequency:    0.6818302171

- q-position: [    0.0000000,    0.0400000,    0.0400000 ]
  distance:    0.0188716
  band:
  - # 1
    frequency:    0.3810498699
  - # 2
    frequency:    0.3810498699
  - # 3
    frequency:    0.9082198621

- q-position: [    0.0000000,    0.0500000,    0.0500000 ]
  distance:    0.0235895
  band:
  - # 1
    frequency:    0.4770394538
  - # 2
    frequency:    0.4770394538
  - # 3
    frequency:    1.1338483878

- q-position: [    0.0000000,    0.0600000,    0.0600000 ]
  distance:    0.0283074
  band:
  - # 1
    frequency:    0.5734871327
  - # 2
    frequency:    0.5734871327
  - # 3
    frequency:    1.3585245954

- q-position: [    0.0000000,    0.0700000,    0.0700000 ]
  distance:    0.0330253
  band:
  - # 1
    frequency:    0.6704585489
  - # 2
    frequency:    0.6704585489
  - # 3
    frequency:    1.5820567073

- q-position: [    0.0000000,    0.0800000,    0.0800000 ]
  distance:    0.0377432
  band:
  - # 1
    frequency:    0.7680060027
  - # 2
    frequency:    0.7680060027
  - # 3
    frequency:    1.8042522851

- q-position: [    0.0000000,    0.0900000,    0.0900000 ]
  distance:    0.0424611
  band:
  - # 1
    frequency:    0.8661668766
  - # 2
    frequency:    0.8661668766
  - # 3
    frequency:    2.0249181653

- q-position: [    0.0000000,    0.1000000,    0.1000000 ]
  distance:    0.0471790
  band:
  - # 1
    frequency:    0.9649623162
  - # 2
    frequency:    0.9649623162
  - # 3
    frequency:    2.2438604148

- q-position: [    0.0000000,    0.1100000,    0.1100000 ]
  distance:    0.0518969
  band:
  - # 1
    frequency:    1.0643961810
  - # 2
    frequency:    1.0643961810
  - # 3
    frequency:    2.4608843087

- q-position: [    0.0000000,    0.1200000,    0.1200000 ]
  distance:    0.0566148
  band:
  - # 1
    frequency:    1.1644542679
  - # 2
    frequency:    1.1644542679
  - # 3
    frequency:    2.6757943327

- q-position: [    0.0000000,    0.1300000,    0.1300000 ]
  distance:    0.0613327
  band:
  - # 1
    frequency:    1.2651038047
  - # 2
    frequency:    1.2651038047
  - # 3
    frequency:    2.8883942116

- q-position: [    0.0000000,    0.1400000,    0.1400000 ]
  distance:    0.0660506
  band:
  - # 1
    frequency:    1.3662932087
  - # 2
    frequency:    1.3662932087
  - # 3
    frequency:    3.0984869643

- q-position: [    0.0000000,    0.1500000,    0.1500000 ]
  distance:    0.0707685
  band:
  - # 1
    frequency:    1.4679520942
  - # 2
    frequency:    1.4679520942
  - # 3
    frequency:    3.3058749884

- q-position: [    0.0000000,    0.1600000,    0.1600000 ]
  distance:    0.0754864
  band:
  - # 1
    frequency:    1.5699915155
  - # 2
    frequency:    1.5699915155
  - # 3
    frequency:    3.5103601732

- q-position: [    0.0000000,    0.1700000,    0.1700000 ]
  distance:    0.0802043
  band:
  - # 1
    frequency:    1.6723044265
  - # 2
    frequency:    1.6723044265
  - # 3
    frequency:    3.7117440430

- q-position: [    0.0000000,    0.1800000,    0.1800000 ]
  distance:    0.0849223
  band:
  - # 1
    frequency:    1.7747663344
  - # 2
    frequency:    1.7747663344
  - # 3
    frequency:    3.9098279303

- q-position: [    0.0000000,    0.1900000,    0.1900000 ]
  distance:    0.0896402
  band:
  - # 1
    frequency:    1.8772361287
  - # 2
    frequency:    1.8772361287
  - # 3
    frequency:    4.1044131782

- q-position: [    0.0000000,    0.2000000,    0.2000000 ]
  distance:    0.0943581
  band:
  - # 1
    frequency:    1.9795570615
  - # 2
    frequency:    1.9795570615
  - # 3
    frequency:    4.2953013731

- q-position: [    0.0000000,    0.2100000,    0.2100000 ]
  distance:    0.0990760
  band:
  - # 1
    frequency:    2.0815578595
  - # 2
    frequency:    2.0815578595
  - # 3
    frequency:    4.4822946053

- q-position: [    0.0000000,    0.2200000,    0.2200000 ]
  distance:    0.1037939
  band:
  - # 1
    frequency:    2.1830539456
  - # 2
    frequency:    2.1830539456
  - # 3
    frequency:    4.6651957573

- q-position: [    0.0000000,    0.2300000,    0.2300000 ]
  distance:    0.1085118
  band:
  - # 1
    frequency:    2.2838487510
  - # 2
    frequency:    2.2838487510
  - # 3
    frequency:    4.8438088184

- q-position: [    0.0000000,    0.2400000,    0.2400000 ]
  distance:    0.1132297
  band:
  - # 1
    frequency:    2.3837351006
  - # 2
    frequency:    2.3837351006
  - # 3
    frequency:    5.0179392240

- q-position: [    0.0000000,    0.2500000,    0.2500000 ]
  distance:    0.1179476
  band:
  - # 1
    frequency:    2.4824966519
  - # 2
    frequency:    2.4824966519
  - # 3
    frequency:    5.1873942178

- q-position: [    0.0000000,    0.2600000,    0.2600000 ]
  distance:    0.1226655
  band:
  - # 1
    frequency:    2.5799093758
  - # 2
    frequency:    2.5799093758
  - # 3
    frequency:    5.3519832340

- q-position: [    0.0000000,    0.2700000,    0.2700000 ]
  distance:    0.1273834
  band:
  - # 1
    frequency:    2.6757430610
  - # 2
    frequency:    2.6757430610
  - # 3
    frequency:    5.5115182993

- q-position: [    0.0000000,    0.2800000,    0.2800000 ]
  distance:    0.1321013
  band:
  - # 1
    frequency:    2.7697628330
  - # 2
    frequency:    2.7697628330
  - # 3
    frequency:    5.6658144500

- q-position: [    0.0000000,    0.2900000,    0.2900000 ]
  distance:    0.1368192
  band:
  - # 1
    frequency:    2.8617306734
  - # 2
    frequency:    2.8617306734
  - # 3
    frequency:    5.8146901626

- q-position: [    0.0000000,    0.3000000,    0.3000000 ]
  distance:    0.1415371
  band:
  - # 1
    frequency:    2.9514069309
  - # 2
    frequency:    2.9514069309
  - # 3
    frequency:    5.9579677959

- q-position: [    0.0000000,    0.3100000,    0.3100000 ]
  distance:    0.1462550
  band:
  - # 1
    frequency:    3.0385518146
  - # 2
    frequency:    3.0385518146
  - # 3
    frequency:    6.0954740403

- q-position: [    0.0000000,    0.3200000,    0.3200000 ]
  distance:    0.1509729
  band:
  - # 1
    frequency:    3.1229268596
  - # 2
    frequency:    3.1229268596
  - # 3
    frequency:    6.2270403724

- q-position: [    0.0000000,    0.3300000,    0.3300000 ]
  distance:    0.1556908
  band:
  - # 1
    frequency:    3.2042963608
  - # 2
    frequency:    3.2042963608
  - # 3
    frequency:    6.3525035117

- q-position: [    0.0000000,    0.3400000,    0.3400000 ]
  distance:    0.1604087
  band:
  - # 1
    frequency:    3.2824287647
  - # 2
    frequency:    3.2824287647
  - # 3
    frequency:    6.4717058763

- q-position: [    0.0000000,    0.3500000,    0.3500000 ]
  distance:    0.1651266
  band:
  - # 1
    frequency:    3.3570980158
  - # 2
    frequency:    3.3570980158
  - # 3
    frequency:    6.5844960346

- q-position: [    0.0000000,    0.3600000,    0.3600000 ]
  distance:    0.1698445
  band:
  - # 1
    frequency:    3.4280848510
  - # 2
    frequency:    3.4280848510
  - # 3
    frequency:    6.6907291506

- q-position: [    0.0000000,    0.3700000,    0.3700000 ]
  distance:    0.1745624
  band:
  - # 1
    frequency:    3.4951780375
  - # 2
    frequency:    3.4951780375
  - # 3
    frequency:    6.7902674182

- q-position: [    0.0000000,    0.3800000,    0.3800000 ]
  distance:    0.1792803
  band:
  - # 1
    frequency:    3.5581755495
  - # 2
    frequency:    3.5581755495
  - # 3
    frequency:    6.8829804839

- q-position: [    0.0000000,    0.3900000,    0.3900000 ]
  distance:    0.1839982
  band:
  - # 1
    frequency:    3.6168856805
  - # 2
    frequency:    3.6168856805
  - # 3
    frequency:    6.9687458534

- q-position: [    0.0000000,    0.4000000,    0.4000000 ]
  distance:    0.1887161
  band:
  - # 1
    frequency:    3.6711280860
  - # 2
    frequency:    3.6711280860
  - # 3
    frequency:    7.0474492800

- q-position: [    0.0000000,    0.4100000,    0.4100000 ]
  distance:    0.1934340
  band:
  - # 1
    frequency:    3.7207347556
  - # 2
    frequency:    3.7207347556
  - # 3
    frequency:    7.1189851323

- q-position: [    0.0000000,    0.4200000,    0.4200000 ]
  distance:    0.1981519
  band:
  - # 1
    frequency:    3.7655509093
  - # 2
    frequency:    3.7655509093
  - # 3
    frequency:    7.1832567383

- q-position: [    0.0000000,    0.4300000,    0.4300000 ]
  distance:    0.2028698
  band:
  - # 1
    frequency:    3.8054358168
  - # 2
    frequency:    3.8054358168
  - # 3
    frequency:    7.2401767046

- q-position: [    0.0000000,    0.4400000,    0.4400000 ]
  distance:    0.2075877
  band:
  - # 1
    frequency:    3.8402635365
  - # 2
    frequency:    3.8402635365
  - # 3
    frequency:    7.2896672073

- q-position: [    0.0000000,    0.4500000,    0.4500000 ]
  distance:    0.2123056
  band:
  - # 1
    frequency:    3.8699235731
  - # 2
    frequency:    3.8699235731
  - # 3
    frequency:    7.3316602536

- q-position: [    0.0000000,    0.4600000,    0.4600000 ]
  distance:    0.2170235
  band:
  - # 1
    frequency:    3.8943214506
  - # 2
    frequency:    3.8943214506
  - # 3
    frequency:    7.3660979120

- q-position: [    0.0000000,    0.4700000,    0.4700000 ]
  distance:    0.2217414
  band:
  - # 1
    frequency:    3.9133792007
  - # 2
    frequency:    3.9133792007
  - # 3
    frequency:    7.3929325104

- q-position: [    0.0000000,    0.4800000,    0.4800000 ]
  distance:    0.2264593
  band:
  - # 1
    frequency:    3.9270357629
  - # 2
    frequency:    3.9270357629
  - # 3
    frequency:    7.4121267986

- q-position: [    0.0000000,    0.4900000,    0.4900000 ]
  distance:    0.2311772
  band:
  - # 1
    frequency:    3.9352472987
  - # 2
    frequency:    3.9352472987
  - # 3
    frequency:    7.4236540773

- q-position: [    0.0000000,    0.5000000,    0.5000000 ]
  distance:    0.2358951
  label: 'X'
  band:
  - # 1
    frequency:    3.9379874149
  - # 2
    frequency:    3.9379874149
  - # 3
    frequency:    7.4274982896

- q-position: [    0.0000000,    0.5000000,    0.5000000 ]
  distance:    0.2358951
  label: 'X'
  band:
  - # 1
    frequency:    3.9379874149
  - # 2
    frequency:    3.9379874149
  - # 3
    frequency:    7.4274982896

- q-position: [    0.0050000,    0.5050000,    0.5000000 ]
  distance:    0.2382541
  band:
  - # 1
    frequency:    3.9389172800
  - # 2
    frequency:    3.9394040645
  - # 3
    frequency:    7.4269321080

- q-position: [    0.0100000,    0.5100000,    0.5000000 ]
  distance:    0.2406130
  band:
  - # 1
    frequency:    3.9417018924
  - # 2
    frequency:    3.9436490481
  - # 3
    frequency:    7.4252335892

- q-position: [    0.0150000,    0.5150000,    0.5000000 ]
  distance:    0.2429720
  band:
  - # 1
    frequency:    3.9463263531
  - # 2
    frequency:    3.9507075262
  - # 3
    frequency:    7.4224028117

- q-position: [    0.0200000,    0.5200000,    0.5000000 ]
  distance:    0.2453309
  band:
  - # 1
    frequency:    3.9527659943
  - # 2
    frequency:    3.9605549563
  - # 3
    frequency:    7.4184399094

- q-position: [    0.0250000,    0.5250000,    0.5000000 ]
  distance:    0.2476899
  band:
  - # 1
    frequency:    3.9609866223
  - # 2
    frequency:    3.9731573703
  - # 3
    frequency:    7.4133450758

- q-position: [    0.0300000,    0.5300000,    0.5000000 ]
  distance:    0.2500488
  band:
  - # 1
    frequency:    3.9709448481
  - # 2
    frequency:    3.9884717539
  - # 3
    frequency:    7.4071185698

- q-position: [    0.0350000,    0.5350000,    0.5000000 ]
  distance:    0.2524078
  band:
  - # 1
    frequency:    3.9825885012
  - # 2
    frequency:    4.0064465165
  - # 3
    frequency:    7.3997607237

- q-position: [    0.0400000,    0.5400000,    0.5000000 ]
  distance:    0.2547668
  band:
  - # 1
    frequency:    3.9958571159
  - # 2
    frequency:    4.0270220388
  - # 3
    frequency:    7.3912719524

- q-position: [    0.0450000,    0.5450000,    0.5000000 ]
  distance:    0.2571257
  band:
  - # 1
    frequency:    4.0106824800
  - # 2
    frequency:    4.0501312869
  - # 3
    frequency:    7.3816527645

- q-position: [    0.0500000,    0.5500000,    0.5000000 ]
  distance:    0.2594847
  band:
  - # 1
    frequency:    4.0269892364
  - # 2
    frequency:    4.0757004761
  - # 3
    frequency:    7.3709037748

- q-position: [    0.0550000,    0.5550000,    0.5000000 ]
  distance:    0.2618436
  band:
  - # 1
    frequency:    4.0446955247
  - # 2
    frequency:    4.1036497711
  - # 3
    frequency:    7.3590257190

- q-position: [    0.0600000,    0.5600000,    0.5000000 ]
  distance:    0.2642026
  band:
  - # 1
    frequency:    4.0637136526
  - # 2
    frequency:    4.1338940078
  - # 3
    frequency:    7.3460194695

- q-position: [    0.0650000,    0.5650000,    0.5000000 ]
  distance:    0.2665615
  band:
  - # 1
    frequency:    4.0839507850
  - # 2
    frequency:    4.1663434232
  - # 3
    frequency:    7.3318860528

- q-position: [    0.0700000,    0.5700000,    0.5000000 ]
  distance:    0.2689205
  band:
  - # 1
    frequency:    4.1053096415
  - # 2
    frequency:    4.2009043801
  - # 3
    frequency:    7.3166266688

- q-position: [    0.0750000,    0.5750000,    0.5000000 ]
  distance:    0.2712794
  band:
  - # 1
    frequency:    4.1276891916
  - # 2
    frequency:    4.2374800766
  - # 3
    frequency:    7.3002427111

- q-position: [    0.0800000,    0.5800000,    0.5000000 ]
  distance:    0.2736384
  band:
  - # 1
    frequency:    4.1509853396
  - # 2
    frequency:    4.2759712293
  - # 3
    frequency:    7.2827357898

- q-position: [    0.0850000,    0.5850000,    0.5000000 ]
  distance:    0.2759973
  band:
  - # 1
    frequency:    4.1750915917
  - # 2
    frequency:    4.3162767240
  - # 3
    frequency:    7.2641077543

- q-position: [    0.0900000,    0.5900000,    0.5000000 ]
  distance:    0.2783563
  band:
  - # 1
    frequency:    4.1998996987
  - # 2
    frequency:    4.3582942254
  - # 3
    frequency:    7.2443607191

- q-position: [    0.0950000,    0.5950000,    0.5000000 ]
  distance:    0.2807152
  band:
  - # 1
    frequency:    4.2253002691
  - # 2
    frequency:    4.4019207445
  - # 3
    frequency:    7.2234970898

- q-position: [    0.1000000,    0.6000000,    0.5000000 ]
  distance:    0.2830742
  band:
  - # 1
    frequency:    4.2511833501
  - # 2
    frequency:    4.4470531572
  - # 3
    frequency:    7.2015195913

- q-position: [    0.1050000,    0.6050000,    0.5000000 ]
  distance:    0.2854331
  band:
  - # 1
    frequency:    4.2774389712
  - # 2
    frequency:    4.4935886752
  - # 3
    frequency:    7.1784312967

- q-position: [    0.1100000,    0.6100000,    0.5000000 ]
  distance:    0.2877921
  band:
  - # 1
    frequency:    4.3039576515
  - # 2
    frequency:    4.5414252677
  - # 3
    frequency:    7.1542356583

- q-position: [    0.1150000,    0.6150000,    0.5000000 ]
  distance:    0.2901510
  band:
  - # 1
    frequency:    4.3306308677
  - # 2
    frequency:    4.5904620342
  - # 3
    frequency:    7.1289365392

- q-position: [    0.1200000,    0.6200000,    0.5000000 ]
  distance:    0.2925100
  band:
  - # 1
    frequency:    4.3573514841
  - # 2
    frequency:    4.6405995312
  - # 3
    frequency:    7.1025382463

- q-position: [    0.1250000,    0.6250000,    0.5000000 ]
  distance:    0.2948689
  band:
  - # 1
    frequency:    4.3840141437
  - # 2
    frequency:    4.6917400537
  - # 3
    frequency:    7.0750455650

- q-position: [    0.1300000,    0.6300000,    0.5000000 ]
  distance:    0.2972279
  band:
  - # 1
    frequency:    4.4105156239
  - # 2
    frequency:    4.7437878745
  - # 3
    frequency:    7.0464637947

- q-position: [    0.1350000,    0.6350000,    0.5000000 ]
  distance:    0.2995868
  band:
  - # 1
    frequency:    4.4367551557
  - # 2
    frequency:    4.7966494449
  - # 3
    frequency:    7.0167987853

- q-position: [    0.1400000,    0.6400000,    0.5000000 ]
  distance:    0.3019458
  band:
  - # 1
    frequency:    4.4626347104
  - # 2
    frequency:    4.8502335591
  - # 3
    frequency:    6.9860569754

- q-position: [    0.1450000,    0.6450000,    0.5000000 ]
  distance:    0.3043047
  band:
  - # 1
    frequency:    4.4880592546
  - # 2
    frequency:    4.9044514856
  - # 3
    frequency:    6.9542454313

- q-position: [    0.1500000,    0.6500000,    0.5000000 ]
  distance:    0.3066637
  band:
  - # 1
    frequency:    4.5129369759
  - # 2
    frequency:    4.9592170701
  - # 3
    frequency:    6.9213718874

- q-position: [    0.1550000,    0.6550000,    0.5000000 ]
  distance:    0.3090226
  band:
  - # 1
    frequency:    4.5371794829
  - # 2
    frequency:    5.0144468107
  - # 3
    frequency:    6.8874447869

- q-position: [    0.1600000,    0.6600000,    0.5000000 ]
  distance:    0.3113816
  band:
  - # 1
    frequency:    4.5607019794
  - # 2
    frequency:    5.0700599112
  - # 3
    frequency:    6.8524733251

- q-position: [    0.1650000,    0.6650000,    0.5000000 ]
  distance:    0.3137405
  band:
  - # 1
    frequency:    4.5834234176
  - # 2
    frequency:    5.1259783130
  - # 3
    frequency:    6.8164674919

- q-position: [    0.1700000,    0.6700000,    0.5000000 ]
  distance:    0.3160995
  band:
  - # 1
    frequency:    4.6052666301
  - # 2
    frequency:    5.1821267095
  - # 3
    frequency:    6.7794381173

- q-position: [    0.1750000,    0.6750000,    0.5000000 ]
  distance:    0.3184584
  band:
  - # 1
    frequency:    4.6261584454
  - # 2
    frequency:    5.2384325456
  - # 3
    frequency:    6.7413969162

- q-position: [    0.1800000,    0.6800000,    0.5000000 ]
  distance:    0.3208174
  band:
  - # 1
    frequency:    4.6460297859
  - # 2
    frequency:    5.2948260033
  - # 3
    frequency:    6.7023565357

- q-position: [    0.1850000,    0.6850000,    0.5000000 ]
  distance:    0.3231763
  band:
  - # 1
    frequency:    4.6648157530
  - # 2
    frequency:    5.3512399768
  - # 3
    frequency:    6.6623306025

- q-position: [    0.1900000,    0.6900000,    0.5000000 ]
  distance:    0.3255353
  band:
  - # 1
    frequency:    4.6824556991
  - # 2
    frequency:    5.4076100382
  - # 3
    frequency:    6.6213337718

- q-position: [    0.1950000,    0.6950000,    0.5000000 ]
  distance:    0.3278942
  band:
  - # 1
    frequency:    4.6988932885
  - # 2
    frequency:    5.4638743955
  - # 3
    frequency:    6.5793817773

- q-position: [    0.2000000,    0.7000000,    0.5000000 ]
  distance:    0.3302532
  band:
  - # 1
    frequency:    4.7140765495
  - # 2
    frequency:    5.5199738437
  - # 3
    frequency:    6.5364914820

- q-position: [    0.2050000,    0.7050000,    0.5000000 ]
  distance:    0.3326121
  band:
  - # 1
    frequency:    4.7279579175
  - # 2
    frequency:    5.5758517122
  - # 3
    frequency:    6.4926809305

- q-position: [    0.2100000,    0.7100000,    0.5000000 ]
  distance:    0.3349711
  band:
  - # 1
    frequency:    4.7404942711
  - # 2
    frequency:    5.6314538064
  - # 3
    frequency:    6.4479694019

- q-position: [    0.2150000,    0.7150000,    0.5000000 ]
  distance:    0.3373301
  band:
  - # 1
    frequency:    4.7516469623
  - # 2
    frequency:    5.6867283480
  - # 3
    frequency:    6.4023774643

- q-position: [    0.2200000,    0.7200000,    0.5000000 ]
  distance:    0.3396890
  band:
  - # 1
    frequency:    4.7613818412
  - # 2
    frequency:    5.7416259114
  - # 3
    frequency:    6.3559270301

- q-position: [    0.2250000,    0.7250000,    0.5000000 ]
  distance:    0.3420480
  band:
  - # 1
    frequency:    4.7696692760
  - # 2
    frequency:    5.7960993594
  - # 3
    frequency:    6.3086414125

- q-position: [    0.2300000,    0.7300000,    0.5000000 ]
  distance:    0.3444069
  band:
  - # 1
    frequency:    4.7764841692
  - # 2
    frequency:    5.8501037778
  - # 3
    frequency:    6.2605453832

- q-position: [    0.2350000,    0.7350000,    0.5000000 ]
  distance:    0.3467659
  band:
  - # 1
    frequency:    4.7818059705
  - # 2
    frequency:    5.9035964088
  - # 3
    frequency:    6.2116652311

- q-position: [    0.2400000,    0.7400000,    0.5000000 ]
  distance:    0.3491248
  band:
  - # 1
    frequency:    4.7856186868
  - # 2
    frequency:    5.9565365846
  - # 3
    frequency:    6.1620288222

- q-position: [    0.2450000,    0.7450000,    0.5000000 ]
  distance:    0.3514838
  band:
  - # 1
    frequency:    4.7879108895
  - # 2
    frequency:    6.0088856609
  - # 3
    frequency:    6.1116656609

- q-position: [    0.2500000,    0.7500000,    0.5000000 ]
  distance:    0.3538427
  label: 'W'
  band:
  - # 1
    frequency:    4.7886757193
  - # 2
    frequency:    6.0606069513
  - # 3
    frequency:    6.0606069513

- q-position: [    0.2500000,    0.7500000,    0.5000000 ]
  distance:    0.3538427
  label: 'W'
  band:
  - # 1
    frequency:    4.7886757193
  - # 2
    frequency:    6.0606069513
  - # 3
    frequency:    6.0606069513

- q-position: [    0.2450000,    0.7450000,    0.5000000 ]
  distance:    0.3562017
  band:
  - # 1
    frequency:    4.7879108895
  - # 2
    frequency:    6.0088856609
  - # 3
    frequency:    6.1116656609

- q-position: [    0.2400000,    0.7400000,    0.5000000 ]
  distance:    0.3585606
  band:
  - # 1
    frequency:    4.7856186868
  - # 2
    frequency:    5.9565365846
  - # 3
    frequency:    6.1620288222

- q-position: [    0.2350000,    0.7350000,    0.5000000 ]
  distance:    0.3609196
  band:
  - # 1
    frequency:    4.7818059705
  - # 2
    frequency:    5.9035964088
  - # 3
    frequency:    6.2116652311

- q-position: [    0.2300000,    0.7300000,    0.5000000 ]
  distance:    0.3632785
  band:
  - # 1
    frequency:    4.7764841692
  - # 2
    frequency:    5.8501037778
  - # 3
    frequency:    6.2605453832

- q-position: [    0.2250000,    0.7250000,    0.5000000 ]
  distance:    0.3656375
  band:
  - # 1
    frequency:    4.7696692760
  - # 2
    frequency:    5.7960993594
  - # 3
    frequency:    6.3086414125

- q-position: [    0.2200000,    0.7200000,    0.5000000 ]
  distance:    0.3679964
  band:
  - # 1
    frequency:    4.7613818412
  - # 2
    frequency:    5.7416259114
  - # 3
    frequency:    6.3559270301

- q-position: [    0.2150000,    0.7150000,    0.5000000 ]
  distance:    0.3703554
  band:
  - # 1
    frequency:    4.7516469623
  - # 2
    frequency:    5.6867283480
  - # 3
    frequency:    6.4023774643

- q-position: [    0.2100000,    0.7100000,    0.5000000 ]
  distance:    0.3727143
  band:
  - # 1
    frequency:    4.7404942711
  - # 2
    frequency:    5.6314538064
  - # 3
    frequency:    6.4479694019

- q-position: [    0.2050000,    0.7050000,    0.5000000 ]
  distance:    0.3750733
  band:
  - # 1
    frequency:    4.7279579175
  - # 2
    frequency:    5.5758517122
  - # 3
    frequency:    6.4926809305

- q-position: [    0.2000000,    0.7000000,    0.5000000 ]
  distance:    0.3774322
  band:
  - # 1
    frequency:    4.7140765495
  - # 2
    frequency:    5.5199738437
  - # 3
    frequency:    6.5364914820

- q-position: [    0.1950000,    0.6950000,    0.5000000 ]
  distance:    0.3797912
  band:
  - # 1
    frequency:    4.6988932885
  - # 2
    frequency:    5.4638743955
  - # 3
    frequency:    6.5793817773

- q-position: [    0.1900000,    0.6900000,    0.5000000 ]
  distance:    0.3821501
  band:
  - # 1
    frequency:    4.6824556991
  - # 2
    frequency:    5.4076100382
  - # 3
    frequency:    6.6213337718

- q-position: [    0.1850000,    0.6850000,    0.5000000 ]
  distance:    0.3845091
  band:
  - # 1
    frequency:    4.6648157530
  - # 2
    frequency:    5.3512399768
  - # 3
    frequency:    6.6623306025

- q-position: [    0.1800000,    0.6800000,    0.5000000 ]
  distance:    0.3868680
  band:
  - # 1
    frequency:    4.6460297859
  - # 2
    frequency:    5.2948260033
  - # 3
    frequency:    6.7023565357

- q-position: [    0.1750000,    0.6750000,    0.5000000 ]
  distance:    0.3892270
  band:
  - # 1
    frequency:    4.6261584454
  - # 2
    frequency:    5.2384325456
  - # 3
    frequency:    6.7413969162

- q-position: [    0.1700000,    0.6700000,    0.5000000 ]
  distance:    0.3915859
  band:
  - # 1
    frequency:    4.6052666301
  - # 2
    frequency:    5.1821267095
  - # 3
    frequency:    6.7794381173

- q-position: [    0.1650000,    0.6650000,    0.5000000 ]
  distance:    0.3939449
  band:
  - # 1
    frequency:    4.5834234176
  - # 2
    frequency:    5.1259783130
  - # 3
    frequency:    6.8164674919

- q-position: [    0.1600000,    0.6600000,    0.5000000 ]
  distance:    0.3963038
  band:
  - # 1
    frequency:    4.5607019794
  - # 2
    frequency:    5.0700599112
  - # 3
    frequency:    6.8524733251

- q-position: [    0.1550000,    0.6550000,    0.5000000 ]
  distance:    0.3986628
  band:
  - # 1
    frequency:    4.5371794829
  - # 2
    frequency:    5.0144468107
  - # 3
    frequency:    6.8874447869

- q-position: [    0.1500000,    0.6500000,    0.5000000 ]
  distance:    0.4010217
  band:
  - # 1
    frequency:    4.5129369759
  - # 2
    frequency:    4.9592170701
  - # 3
    frequency:    6.9213718874

- q-position: [    0.1450000,    0.6450000,    0.5000000 ]
  distance:    0.4033807
  band:
  - # 1
    frequency:    4.4880592546
  - # 2
    frequency:    4.9044514856
  - # 3
    frequency:    6.9542454313

- q-position: [    0.1400000,    0.6400000,    0.5000000 ]
  distance:    0.4057396
  band:
  - # 1
    frequency:    4.4626347104
  - # 2
    frequency:    4.8502335591
  - # 3
    frequency:    6.9860569754

- q-position: [    0.1350000,    0.6350000,    0.5000000 ]
  distance:    0.4080986
  band:
  - # 1
    frequency:    4.4367551557
  - # 2
    frequency:    4.7966494449
  - # 3
    frequency:    7.0167987853

- q-position: [    0.1300000,    0.6300000,    0.5000000 ]
  distance:    0.4104575
  band:
  - # 1
    frequency:    4.4105156239
  - # 2
    frequency:    4.7437878745
  - # 3
    frequency:    7.0464637947

- q-position: [    0.1250000,    0.6250000,    0.5000000 ]
  distance:    0.4128165
  band:
  - # 1
    frequency:    4.3840141437
  - # 2
    frequency:    4.6917400537
  - # 3
    frequency:    7.0750455650

- q-position: [    0.1200000,    0.6200000,    0.5000000 ]
  distance:    0.4151754
  band:
  - # 1
    frequency:    4.3573514841
  - # 2
    frequency:    4.6405995312
  - # 3
    frequency:    7.1025382463

- q-position: [    0.1150000,    0.6150000,    0.5000000 ]
  distance:    0.4175344
  band:
  - # 1
    frequency:    4.3306308677
  - # 2
    frequency:    4.5904620342
  - # 3
    frequency:    7.1289365392

- q-position: [    0.1100000,    0.6100000,    0.5000000 ]
  distance:    0.4198933
  band:
  - # 1
    frequency:    4.3039576515
  - # 2
    frequency:    4.5414252677
  - # 3
    frequency:    7.1542356583

- q-position: [    0.1050000,    0.6050000,    0.5000000 ]
  distance:    0.4222523
  band:
  - # 1
    frequency:    4.2774389712
  - # 2
    frequency:    4.4935886752
  - # 3
    frequency:    7.1784312967

- q-position: [    0.1000000,    0.6000000,    0.5000000 ]
  distance:    0.4246113
  band:
  - # 1
    frequency:    4.2511833501
  - # 2
    frequency:    4.4470531572
  - # 3
    frequency:    7.2015195913

- q-position: [    0.0950000,    0.5950000,    0.5000000 ]
  distance:    0.4269702
  band:
  - # 1
    frequency:    4.2253002691
  - # 2
    frequency:    4.4019207445
  - # 3
    frequency:    7.2234970898

- q-position: [    0.0900000,    0.5900000,    0.5000000 ]
  distance:    0.4293292
  band:
  - # 1
    frequency:    4.1998996987
  - # 2
    frequency:    4.3582942254
  - # 3
    frequency:    7.2443607191

- q-position: [    0.0850000,    0.5850000,    0.5000000 ]
  distance:    0.4316881
  band:
  - # 1
    frequency:    4.1750915917
  - # 2
    frequency:    4.3162767240
  - # 3
    frequency:    7.2641077543

- q-position: [    0.0800000,    0.5800000,    0.5000000 ]
  distance:    0.4340471
  band:
  - # 1
    frequency:    4.1509853396
  - # 2
    frequency:    4.2759712293
  - # 3
    frequency:    7.2827357898

- q-position: [    0.0750000,    0.5750000,    0.5000000 ]
  distance:    0.4364060
  band:
  - # 1
    frequency:    4.1276891916
  - # 2
    frequency:    4.2374800766
  - # 3
    frequency:    7.3002427111

- q-position: [    0.0700000,    0.5700000,    0.5000000 ]
  distance:    0.4387650
  band:
  - # 1
    frequency:    4.1053096415
  - # 2
    frequency:    4.2009043801
  - # 3
    frequency:    7.3166266688
