mesh: [    48,    48,    48 ]
nqpoint: 2600   
reciprocal_lattice:
- [   0.23589514,   0.00000000,   0.00000000 ] # a*
- [   0.00000000,   0.23589514,   0.00000000 ] # b*
- [   0.00000000,   0.00000000,   0.23589514 ] # c*
natom:   4      
lattice:
- [     4.239171688156456,     0.000000000000000,     0.000000000000000 ] # a
- [     0.000000000000000,     4.239171688156456,     0.000000000000000 ] # b
- [     0.000000000000000,     0.000000000000000,     4.239171688156456 ] # c
points:
- symbol: Al # 1
  coordinates: [  0.500000000000000,  0.500000000000000,  0.000000000000000 ]
  mass: 26.981539
- symbol: Al # 2
  coordinates: [  0.500000000000000,  0.000000000000000,  0.500000000000000 ]
  mass: 26.981539
- symbol: Al # 3
  coordinates: [  0.000000000000000,  0.500000000000000,  0.500000000000000 ]
  mass: 26.981539
- symbol: Al # 4
  coordinates: [  0.000000000000000,  0.000000000000000,  0.000000000000000 ]
  mass: 26.981539
phonon:
- q-position: [    0.0104167,    0.0104167,    0.0104167 ]
  weight: 8    
  band:
  - # 1
    frequency:     0.0728321364
  - # 2
    frequency:     0.0728321364
  - # 3
    frequency:     0.2149842630
  - # 4
    frequency:     3.9380578465
  - # 5
    frequency:     3.9380578465
  - # 6
    frequency:     3.9380578465
  - # 7
    frequency:     3.9415182376
  - # 8
    frequency:     3.9415182376
  - # 9
    frequency:     3.9415182376
  - # 10
    frequency:     7.4252276912
  - # 11
    frequency:     7.4252276912
  - # 12
    frequency:     7.4252276912

- q-position: [    0.0312500,    0.0104167,    0.0104167 ]
  weight: 24   
  band:
  - # 1
    frequency:     0.1474372267
  - # 2
    frequency:     0.1577390896
  - # 3
    frequency:     0.4021223893
  - # 4
    frequency:     3.9321101838
  - # 5
    frequency:     3.9355758909
  - # 6
    frequency:     3.9443367168
  - # 7
    frequency:     3.9443367168
  - # 8
    frequency:     3.9555074965
  - # 9
    frequency:     3.9555074965
  - # 10
    frequency:     7.4168952237
  - # 11
    frequency:     7.4203168745
  - # 12
    frequency:     7.4203168745

- q-position: [    0.0520833,    0.0104167,    0.0104167 ]
  weight: 24   
  band:
  - # 1
    frequency:     0.2457014507
  - # 2
    frequency:     0.2532324161
  - # 3
    frequency:     0.6217621712
  - # 4
    frequency:     3.9202356306
  - # 5
    frequency:     3.9237118868
  - # 6
    frequency:     3.9593611700
  - # 7
    frequency:     3.9593611700
  - # 8
    frequency:     3.9806498337
  - # 9
    frequency:     3.9806498337
  - # 10
    frequency:     7.4002428935
  - # 11
    frequency:     7.4104962870
  - # 12
    frequency:     7.4104962870

- q-position: [    0.0729167,    0.0104167,    0.0104167 ]
  weight: 24   
  band:
  - # 1
    frequency:     0.3457742778
  - # 2
    frequency:     0.3510241050
  - # 3
    frequency:     0.8496332618
  - # 4
    frequency:     3.9024756164
  - # 5
    frequency:     3.9059674889
  - # 6
    frequency:     3.9823317797
  - # 7
    frequency:     3.9823317797
  - # 8
    frequency:     4.0170225189
  - # 9
    frequency:     4.0170225189
  - # 10
    frequency:     7.3752958634
  - # 11
    frequency:     7.3957681607
  - # 12
    frequency:     7.3957681607

- q-position: [    0.0937500,    0.0104167,    0.0104167 ]
  weight: 24   
  band:
  - # 1
    frequency:     0.4462705766
  - # 2
    frequency:     0.4499049673
  - # 3
    frequency:     1.0801648331
  - # 4
    frequency:     3.8788919983
  - # 5
    frequency:     3.8824043062
  - # 6
    frequency:     4.0124996099
  - # 7
    frequency:     4.0124996099
  - # 8
    frequency:     4.0643314243
  - # 9
    frequency:     4.0643314243
  - # 10
    frequency:     7.3420917603
  - # 11
    frequency:     7.3761361933
  - # 12
    frequency:     7.3761361933

- q-position: [    0.1145833,    0.0104167,    0.0104167 ]
  weight: 24   
  band:
  - # 1
    frequency:     0.5471564675
  - # 2
    frequency:     0.5495873795
  - # 3
    frequency:     1.3113770175
  - # 4
    frequency:     3.8495667177
  - # 5
    frequency:     3.8531039501
  - # 6
    frequency:     4.0490885302
  - # 7
    frequency:     4.0490885302
  - # 8
    frequency:     4.1220322872
  - # 9
    frequency:     4.1220322872
  - # 10
    frequency:     7.3006805356
  - # 11
    frequency:     7.3516059651
  - # 12
    frequency:     7.3516059651

- q-position: [    0.1354167,    0.0104167,    0.0104167 ]
  weight: 24   
  band:
  - # 1
    frequency:     0.6485163093
  - # 2
    frequency:     0.6500010316
  - # 3
    frequency:     1.5423193152
  - # 4
    frequency:     3.8146013438
  - # 5
    frequency:     3.8181675787
  - # 6
    frequency:     4.0912581078
  - # 7
    frequency:     4.0912581078
  - # 8
    frequency:     4.1894191314
  - # 9
    frequency:     4.1894191314
  - # 10
    frequency:     7.2511242808
  - # 11
    frequency:     7.3221854903
  - # 12
    frequency:     7.3221854903

- q-position: [    0.1562500,    0.0104167,    0.0104167 ]
  weight: 24   
  band:
  - # 1
    frequency:     0.7504296861
  - # 2
    frequency:     0.7511391816
  - # 3
    frequency:     1.7724177900
  - # 4
    frequency:     3.7741165060
  - # 5
    frequency:     3.7777153297
  - # 6
    frequency:     4.1381015613
  - # 7
    frequency:     4.1381015613
  - # 8
    frequency:     4.2656811175
  - # 9
    frequency:     4.2656811175
  - # 10
    frequency:     7.1934969987
  - # 11
    frequency:     7.2878858998
  - # 12
    frequency:     7.2878858998

- q-position: [    0.1770833,    0.0104167,    0.0104167 ]
  weight: 24   
  band:
  - # 1
    frequency:     0.8529553980
  - # 2
    frequency:     0.8530107310
  - # 3
    frequency:     2.0012609915
  - # 4
    frequency:     3.7282512158
  - # 5
    frequency:     3.7318856442
  - # 6
    frequency:     4.1886601809
  - # 7
    frequency:     4.1886601809
  - # 8
    frequency:     4.3499425703
  - # 9
    frequency:     4.3499425703
  - # 10
    frequency:     7.1278843338
  - # 11
    frequency:     7.2487222501
  - # 12
    frequency:     7.2487222501

- q-position: [    0.1979167,    0.0104167,    0.0104167 ]
  weight: 24   
  band:
  - # 1
    frequency:     0.9556213550
  - # 2
    frequency:     0.9561293947
  - # 3
    frequency:     2.2285162807
  - # 4
    frequency:     3.6771620816
  - # 5
    frequency:     3.6808344825
  - # 6
    frequency:     4.2419436302
  - # 7
    frequency:     4.2419436302
  - # 8
    frequency:     4.4412937099
  - # 9
    frequency:     4.4412937099
  - # 10
    frequency:     7.0543832617
  - # 11
    frequency:     7.2047144548
  - # 12
    frequency:     7.2047144548

- q-position: [    0.2187500,    0.0104167,    0.0104167 ]
  weight: 24   
  band:
  - # 1
    frequency:     1.0589647239
  - # 2
    frequency:     1.0599645857
  - # 3
    frequency:     2.4538926604
  - # 4
    frequency:     3.6210224180
  - # 5
    frequency:     3.6247344346
  - # 6
    frequency:     4.2969510852
  - # 7
    frequency:     4.2969510852
  - # 8
    frequency:     4.5388150458
  - # 9
    frequency:     4.5388150458
  - # 10
    frequency:     6.9731017411
  - # 11
    frequency:     7.1558883335
  - # 12
    frequency:     7.1558883335

- q-position: [    0.2395833,    0.0104167,    0.0104167 ]
  weight: 24   
  band:
  - # 1
    frequency:     1.1630179317
  - # 2
    frequency:     1.1644508256
  - # 3
    frequency:     2.6771225907
  - # 4
    frequency:     3.5600212527
  - # 5
    frequency:     3.5637737291
  - # 6
    frequency:     4.3526908888
  - # 7
    frequency:     4.3526908888
  - # 8
    frequency:     4.6415966192
  - # 9
    frequency:     4.6415966192
  - # 10
    frequency:     6.8841583308
  - # 11
    frequency:     7.1022767713
  - # 12
    frequency:     7.1022767713

- q-position: [    0.2604167,    0.0104167,    0.0104167 ]
  weight: 24   
  band:
  - # 1
    frequency:     1.2677389808
  - # 2
    frequency:     1.2695549307
  - # 3
    frequency:     2.8979524112
  - # 4
    frequency:     3.4943622330
  - # 5
    frequency:     3.4981551421
  - # 6
    frequency:     4.4081977231
  - # 7
    frequency:     4.4081977231
  - # 8
    frequency:     4.7487527639
  - # 9
    frequency:     4.7487527639
  - # 10
    frequency:     6.7876817743
  - # 11
    frequency:     7.0439209868
  - # 12
    frequency:     7.0439209868

- q-position: [    0.2812500,    0.0104167,    0.0104167 ]
  weight: 24   
  band:
  - # 1
    frequency:     1.3730654326
  - # 2
    frequency:     1.3752207989
  - # 3
    frequency:     3.1161370052
  - # 4
    frequency:     3.4242624385
  - # 5
    frequency:     3.4280948111
  - # 6
    frequency:     4.4625469940
  - # 7
    frequency:     4.4625469940
  - # 8
    frequency:     4.8594329587
  - # 9
    frequency:     4.8594329587
  - # 10
    frequency:     6.6838105550
  - # 11
    frequency:     6.9808719003
  - # 12
    frequency:     6.9808719003

- q-position: [    0.3020833,    0.0104167,    0.0104167 ]
  weight: 24   
  band:
  - # 1
    frequency:     1.4789138083
  - # 2
    frequency:     1.4813696972
  - # 3
    frequency:     3.3314367087
  - # 4
    frequency:     3.3499510992
  - # 5
    frequency:     3.3538209567
  - # 6
    frequency:     4.5148664903
  - # 7
    frequency:     4.5148664903
  - # 8
    frequency:     4.9728293586
  - # 9
    frequency:     4.9728293586
  - # 10
    frequency:     6.5726924253
  - # 11
    frequency:     6.9131916017
  - # 12
    frequency:     6.9131916017

- q-position: [    0.3229167,    0.0104167,    0.0104167 ]
  weight: 24   
  band:
  - # 1
    frequency:     1.5851795272
  - # 2
    frequency:     1.5879007495
  - # 3
    frequency:     3.2716682288
  - # 4
    frequency:     3.2755725173
  - # 5
    frequency:     3.5436154790
  - # 6
    frequency:     4.5643455793
  - # 7
    frequency:     4.5643455793
  - # 8
    frequency:     5.0881815948
  - # 9
    frequency:     5.0881815948
  - # 10
    frequency:     6.4544839142
  - # 11
    frequency:     6.8409549106
  - # 12
    frequency:     6.8409549106

- q-position: [    0.3437500,    0.0104167,    0.0104167 ]
  weight: 24   
  band:
  - # 1
    frequency:     1.6917372551
  - # 2
    frequency:     1.6946916372
  - # 3
    frequency:     3.1896631729
  - # 4
    frequency:     3.1935977015
  - # 5
    frequency:     3.7524398128
  - # 6
    frequency:     4.6102422822
  - # 7
    frequency:     4.6102422822
  - # 8
    frequency:     5.2047794011
  - # 9
    frequency:     5.2047794011
  - # 10
    frequency:     6.3293498151
  - # 11
    frequency:     6.7642510303
  - # 12
    frequency:     6.7642510303

- q-position: [    0.3645833,    0.0104167,    0.0104167 ]
  weight: 24   
  band:
  - # 1
    frequency:     1.7984415826
  - # 2
    frequency:     1.8015995049
  - # 3
    frequency:     3.1041930817
  - # 4
    frequency:     3.1081524627
  - # 5
    frequency:     3.9576781297
  - # 6
    frequency:     4.6518885976
  - # 7
    frequency:     4.6518885976
  - # 8
    frequency:     5.3219635694
  - # 9
    frequency:     5.3219635694
  - # 10
    frequency:     6.1974626598
  - # 11
    frequency:     6.6831852926
  - # 12
    frequency:     6.6831852926

- q-position: [    0.3854167,    0.0104167,    0.0104167 ]
  weight: 24   
  band:
  - # 1
    frequency:     1.9051279732
  - # 2
    frequency:     1.9084620588
  - # 3
    frequency:     3.0155213101
  - # 4
    frequency:     3.0194989032
  - # 5
    frequency:     4.1591004636
  - # 6
    frequency:     4.6886944212
  - # 7
    frequency:     4.6886944212
  - # 8
    frequency:     5.4391256582
  - # 9
    frequency:     5.4391256582
  - # 10
    frequency:     6.0590021815
  - # 11
    frequency:     6.5978809979
  - # 12
    frequency:     6.5978809979

- q-position: [    0.4062500,    0.0104167,    0.0104167 ]
  weight: 24   
  band:
  - # 1
    frequency:     2.0116139331
  - # 2
    frequency:     2.0150988360
  - # 3
    frequency:     2.9239157542
  - # 4
    frequency:     2.9279036133
  - # 5
    frequency:     4.3564783616
  - # 6
    frequency:     4.7201503702
  - # 7
    frequency:     4.7201503702
  - # 8
    frequency:     5.5557067929
  - # 9
    frequency:     5.5557067929
  - # 10
    frequency:     5.9141547716
  - # 11
    frequency:     6.5084813635
  - # 12
    frequency:     6.5084813635

- q-position: [    0.4270833,    0.0104167,    0.0104167 ]
  weight: 24   
  band:
  - # 1
    frequency:     2.1177003641
  - # 2
    frequency:     2.1213126230
  - # 3
    frequency:     2.8296471294
  - # 4
    frequency:     2.8336359538
  - # 5
    frequency:     4.5495849350
  - # 6
    frequency:     4.7458297743
  - # 7
    frequency:     4.7458297743
  - # 8
    frequency:     5.6711957957
  - # 9
    frequency:     5.6711957957
  - # 10
    frequency:     5.7631129350
  - # 11
    frequency:     6.4151516214
  - # 12
    frequency:     6.4151516214

- q-position: [    0.4479167,    0.0104167,    0.0104167 ]
  weight: 24   
  band:
  - # 1
    frequency:     2.2231730647
  - # 2
    frequency:     2.2268910005
  - # 3
    frequency:     2.7329872002
  - # 4
    frequency:     2.7369662881
  - # 5
    frequency:     4.7381950209
  - # 6
    frequency:     4.7653900454
  - # 7
    frequency:     4.7653900454
  - # 8
    frequency:     5.6060747474
  - # 9
    frequency:     5.7851266804
  - # 10
    frequency:     5.7851266804
  - # 11
    frequency:     6.3180814451
  - # 12
    frequency:     6.3180814451

- q-position: [    0.4687500,    0.0104167,    0.0104167 ]
  weight: 24   
  band:
  - # 1
    frequency:     2.3278043495
  - # 2
    frequency:     2.3316079906
  - # 3
    frequency:     2.6342069700
  - # 4
    frequency:     2.6381641756
  - # 5
    frequency:     4.7785735930
  - # 6
    frequency:     4.7785735930
  - # 7
    frequency:     4.9220854301
  - # 8
    frequency:     5.4432433208
  - # 9
    frequency:     5.8970745538
  - # 10
    frequency:     5.8970745538
  - # 11
    frequency:     6.2174888217
  - # 12
    frequency:     6.2174888217

- q-position: [    0.4895833,    0.0104167,    0.0104167 ]
  weight: 24   
  band:
  - # 1
    frequency:     2.4313547597
  - # 2
    frequency:     2.4352257852
  - # 3
    frequency:     2.5335748416
  - # 4
    frequency:     2.5374965343
  - # 5
    frequency:     4.7852084084
  - # 6
    frequency:     4.7852084084
  - # 7
    frequency:     5.1010352631
  - # 8
    frequency:     5.2748262810
  - # 9
    frequency:     6.0066310510
  - # 10
    frequency:     6.0066310510
  - # 11
    frequency:     6.1136443594
  - # 12
    frequency:     6.1136443594

- q-position: [    0.0312500,    0.0312500,    0.0104167 ]
  weight: 24   
  band:
  - # 1
    frequency:     0.1682604044
  - # 2
    frequency:     0.2091705336
  - # 3
    frequency:     0.5364052693
  - # 4
    frequency:     3.9383756836
  - # 5
    frequency:     3.9383756836
  - # 6
    frequency:     3.9444931421
  - # 7
    frequency:     3.9495679941
  - # 8
    frequency:     3.9495679941
  - # 9
    frequency:     3.9753895990
  - # 10
    frequency:     7.4120178718
  - # 11
    frequency:     7.4120178718
  - # 12
    frequency:     7.4154028054

- q-position: [    0.0520833,    0.0312500,    0.0104167 ]
  weight: 48   
  band:
  - # 1
    frequency:     0.2420368810
  - # 2
    frequency:     0.2887194733
  - # 3
    frequency:     0.7215060820
  - # 4
    frequency:     3.9264744376
  - # 5
    frequency:     3.9377095905
  - # 6
    frequency:     3.9533736746
  - # 7
    frequency:     3.9539060937
  - # 8
    frequency:     3.9747156115
  - # 9
    frequency:     4.0056919545
  - # 10
    frequency:     7.3954324450
  - # 11
    frequency:     7.4022644470
  - # 12
    frequency:     7.4055757519

- q-position: [    0.0729167,    0.0312500,    0.0104167 ]
  weight: 48   
  band:
  - # 1
    frequency:     0.3366184319
  - # 2
    frequency:     0.3782446686
  - # 3
    frequency:     0.9271625034
  - # 4
    frequency:     3.9086745038
  - # 5
    frequency:     3.9199733731
  - # 6
    frequency:     3.9722445274
  - # 7
    frequency:     3.9763032246
  - # 8
    frequency:     4.0110972733
  - # 9
    frequency:     4.0460381829
  - # 10
    frequency:     7.3705857051
  - # 11
    frequency:     7.3876376475
  - # 12
    frequency:     7.3908380229

- q-position: [    0.0937500,    0.0312500,    0.0104167 ]
  weight: 48   
  band:
  - # 1
    frequency:     0.4366663572
  - # 2
    frequency:     0.4723630353
  - # 3
    frequency:     1.1427071243
  - # 4
    frequency:     3.8850378826
  - # 5
    frequency:     3.8964206870
  - # 6
    frequency:     3.9988151657
  - # 7
    frequency:     4.0064153322
  - # 8
    frequency:     4.0584185830
  - # 9
    frequency:     4.0960989546
  - # 10
    frequency:     7.3375152057
  - # 11
    frequency:     7.3681418719
  - # 12
    frequency:     7.3711934305

- q-position: [    0.1145833,    0.0312500,    0.0104167 ]
  weight: 48   
  band:
  - # 1
    frequency:     0.5383825672
  - # 2
    frequency:     0.5691010105
  - # 3
    frequency:     1.3632769967
  - # 4
    frequency:     3.8556467053
  - # 5
    frequency:     3.8671327924
  - # 6
    frequency:     4.0327678138
  - # 7
    frequency:     4.0429341833
  - # 8
    frequency:     4.1161345693
  - # 9
    frequency:     4.1554285945
  - # 10
    frequency:     7.2962708069
  - # 11
    frequency:     7.3437836371
  - # 12
    frequency:     7.3466477049

- q-position: [    0.1354167,    0.0312500,    0.0104167 ]
  weight: 48   
  band:
  - # 1
    frequency:     0.6408244205
  - # 2
    frequency:     0.6676258163
  - # 3
    frequency:     1.5863118704
  - # 4
    frequency:     3.8206027770
  - # 5
    frequency:     3.8322104102
  - # 6
    frequency:     4.0731384173
  - # 7
    frequency:     4.0850196739
  - # 8
    frequency:     4.1835385041
  - # 9
    frequency:     4.2234715601
  - # 10
    frequency:     7.2469144969
  - # 11
    frequency:     7.3145721324
  - # 12
    frequency:     7.3172090442

- q-position: [    0.1562500,    0.0312500,    0.0104167 ]
  weight: 48   
  band:
  - # 1
    frequency:     0.7437730123
  - # 2
    frequency:     0.7675436713
  - # 3
    frequency:     1.8103074660
  - # 4
    frequency:     3.7800270063
  - # 5
    frequency:     3.7917731564
  - # 6
    frequency:     4.1188824082
  - # 7
    frequency:     4.1317652762
  - # 8
    frequency:     4.2598188619
  - # 9
    frequency:     4.2995822291
  - # 10
    frequency:     7.1895201714
  - # 11
    frequency:     7.2805199044
  - # 12
    frequency:     7.2828887949

- q-position: [    0.1770833,    0.0312500,    0.0104167 ]
  weight: 48   
  band:
  - # 1
    frequency:     0.8472042160
  - # 2
    frequency:     0.8686467835
  - # 3
    frequency:     2.0342897520
  - # 4
    frequency:     3.7340587263
  - # 5
    frequency:     3.7459588679
  - # 6
    frequency:     4.1689059485
  - # 7
    frequency:     4.1822124314
  - # 8
    frequency:     4.3440993811
  - # 9
    frequency:     4.3830466997
  - # 10
    frequency:     7.1241733722
  - # 11
    frequency:     7.2416436697
  - # 12
    frequency:     7.2437022583

- q-position: [    0.1979167,    0.0312500,    0.0104167 ]
  weight: 48   
  band:
  - # 1
    frequency:     0.9511405194
  - # 2
    frequency:     0.9708085863
  - # 3
    frequency:     2.2575704790
  - # 4
    frequency:     3.6828549053
  - # 5
    frequency:     3.6949228221
  - # 6
    frequency:     4.2220946497
  - # 7
    frequency:     4.2353708304
  - # 8
    frequency:     4.4354698091
  - # 9
    frequency:     4.4731040573
  - # 10
    frequency:     7.0509709879
  - # 11
    frequency:     7.1979652512
  - # 12
    frequency:     7.1996696200

- q-position: [    0.2187500,    0.0312500,    0.0104167 ]
  weight: 48   
  band:
  - # 1
    frequency:     1.0556049356
  - # 2
    frequency:     1.0739353787
  - # 3
    frequency:     2.4796247150
  - # 4
    frequency:     3.6265892517
  - # 5
    frequency:     3.6388368520
  - # 6
    frequency:     4.2773387821
  - # 7
    frequency:     4.2902395291
  - # 8
    frequency:     4.5330102994
  - # 9
    frequency:     4.5689660208
  - # 10
    frequency:     6.9700209188
  - # 11
    frequency:     7.1495126307
  - # 12
    frequency:     7.1508169957

- q-position: [    0.2395833,    0.0312500,    0.0104167 ]
  weight: 48   
  band:
  - # 1
    frequency:     1.1606053340
  - # 2
    frequency:     1.1779422592
  - # 3
    frequency:     2.7000255671
  - # 4
    frequency:     3.5654512159
  - # 5
    frequency:     3.5778883610
  - # 6
    frequency:     4.3335544134
  - # 7
    frequency:     4.3458265755
  - # 8
    frequency:     4.6358106484
  - # 9
    frequency:     4.6698343547
  - # 10
    frequency:     6.8814417083
  - # 11
    frequency:     7.0963211163
  - # 12
    frequency:     7.0971775900

- q-position: [    0.2604167,    0.0312500,    0.0104167 ]
  weight: 48   
  band:
  - # 1
    frequency:     1.2661285824
  - # 2
    frequency:     1.2827406581
  - # 3
    frequency:     2.9184075016
  - # 4
    frequency:     3.4996448902
  - # 5
    frequency:     3.5122792401
  - # 6
    frequency:     4.3897004215
  - # 7
    frequency:     4.4011661552
  - # 8
    frequency:     4.7429850420
  - # 9
    frequency:     4.7749157081
  - # 10
    frequency:     6.7853621448
  - # 11
    frequency:     7.0384346163
  - # 12
    frequency:     7.0387929627

- q-position: [    0.2812500,    0.0312500,    0.0104167 ]
  weight: 48   
  band:
  - # 1
    frequency:     1.3721381380
  - # 2
    frequency:     1.3882318281
  - # 3
    frequency:     3.1344447924
  - # 4
    frequency:     3.4293878120
  - # 5
    frequency:     3.4422246913
  - # 6
    frequency:     4.4447916932
  - # 7
    frequency:     4.4553329485
  - # 8
    frequency:     4.8536828869
  - # 9
    frequency:     4.8834337584
  - # 10
    frequency:     6.6819208361
  - # 11
    frequency:     6.9757144001
  - # 12
    frequency:     6.9759070178

- q-position: [    0.3020833,    0.0312500,    0.0104167 ]
  weight: 48   
  band:
  - # 1
    frequency:     1.4785730878
  - # 2
    frequency:     1.4943035067
  - # 3
    frequency:     3.3478383759
  - # 4
    frequency:     3.3549096730
  - # 5
    frequency:     3.3679519621
  - # 6
    frequency:     4.4979090322
  - # 7
    frequency:     4.5074537660
  - # 8
    frequency:     4.9670963141
  - # 9
    frequency:     4.9946387160
  - # 10
    frequency:     6.5712657618
  - # 11
    frequency:     6.9080043870
  - # 12
    frequency:     6.9088036652

- q-position: [    0.3229167,    0.0312500,    0.0104167 ]
  weight: 48   
  band:
  - # 1
    frequency:     1.5853480221
  - # 2
    frequency:     1.6008282829
  - # 3
    frequency:     3.2764509387
  - # 4
    frequency:     3.2896989955
  - # 5
    frequency:     3.5583075857
  - # 6
    frequency:     4.5482063680
  - # 7
    frequency:     4.5567167226
  - # 8
    frequency:     5.0824649419
  - # 9
    frequency:     5.1078143875
  - # 10
    frequency:     6.4535538056
  - # 11
    frequency:     6.8357381811
  - # 12
    frequency:     6.8372029385

- q-position: [    0.3437500,    0.0312500,    0.0104167 ]
  weight: 48   
  band:
  - # 1
    frequency:     1.6923535173
  - # 2
    frequency:     1.7076629041
  - # 3
    frequency:     3.1942613829
  - # 4
    frequency:     3.2077130012
  - # 5
    frequency:     3.7655848325
  - # 6
    frequency:     4.5949158409
  - # 7
    frequency:     4.6023782961
  - # 8
    frequency:     5.1990784543
  - # 9
    frequency:     5.2222830737
  - # 10
    frequency:     6.3289502738
  - # 11
    frequency:     6.7590054932
  - # 12
    frequency:     6.7611979334

- q-position: [    0.3645833,    0.0312500,    0.0104167 ]
  weight: 48   
  band:
  - # 1
    frequency:     1.7994570958
  - # 2
    frequency:     1.8146481409
  - # 3
    frequency:     3.1085985413
  - # 4
    frequency:     3.1222489530
  - # 5
    frequency:     3.9694121260
  - # 6
    frequency:     4.6373512730
  - # 7
    frequency:     4.6437686400
  - # 8
    frequency:     5.3162774803
  - # 9
    frequency:     5.3374086213
  - # 10
    frequency:     6.1976284035
  - # 11
    frequency:     6.6779122905
  - # 12
    frequency:     6.6808982568

- q-position: [    0.3854167,    0.0312500,    0.0104167 ]
  weight: 48   
  band:
  - # 1
    frequency:     1.9065045430
  - # 2
    frequency:     1.9216090382
  - # 3
    frequency:     3.0197260900
  - # 4
    frequency:     3.0335680220
  - # 5
    frequency:     4.1695387872
  - # 6
    frequency:     4.6749104485
  - # 7
    frequency:     4.6802954987
  - # 8
    frequency:     5.4334531667
  - # 9
    frequency:     5.4525979180
  - # 10
    frequency:     6.0597688661
  - # 11
    frequency:     6.5925827633
  - # 12
    frequency:     6.5964319724

- q-position: [    0.4062500,    0.0312500,    0.0104167 ]
  weight: 48   
  band:
  - # 1
    frequency:     2.0133214762
  - # 2
    frequency:     2.0283554740
  - # 3
    frequency:     2.9279121554
  - # 4
    frequency:     2.9419359496
  - # 5
    frequency:     4.3657199514
  - # 6
    frequency:     4.7070765409
  - # 7
    frequency:     4.7114470387
  - # 8
    frequency:     5.5500456856
  - # 9
    frequency:     5.5673010281
  - # 10
    frequency:     5.9155592716
  - # 11
    frequency:     6.5031615767
  - # 12
    frequency:     6.5079478038

- q-position: [    0.4270833,    0.0312500,    0.0104167 ]
  weight: 48   
  band:
  - # 1
    frequency:     2.1197150830
  - # 2
    frequency:     2.1346829803
  - # 3
    frequency:     2.8334275592
  - # 4
    frequency:     2.8476213728
  - # 5
    frequency:     4.5577156157
  - # 6
    frequency:     4.7334189468
  - # 7
    frequency:     4.7367938585
  - # 8
    frequency:     5.6655416014
  - # 9
    frequency:     5.6810098431
  - # 10
    frequency:     5.7651936794
  - # 11
    frequency:     6.4098168102
  - # 12
    frequency:     6.4156179450

- q-position: [    0.4479167,    0.0312500,    0.0104167 ]
  weight: 48   
  band:
  - # 1
    frequency:     2.2254759685
  - # 2
    frequency:     2.2403737942
  - # 3
    frequency:     2.7365440084
  - # 4
    frequency:     2.7508941095
  - # 5
    frequency:     4.7452900660
  - # 6
    frequency:     4.7535937189
  - # 7
    frequency:     4.7559903951
  - # 8
    frequency:     5.6088721239
  - # 9
    frequency:     5.7794688391
  - # 10
    frequency:     5.7932537737
  - # 11
    frequency:     6.3127452942
  - # 12
    frequency:     6.3196429459

- q-position: [    0.4687500,    0.0312500,    0.0104167 ]
  weight: 48   
  band:
  - # 1
    frequency:     2.3303800703
  - # 2
    frequency:     2.3451981016
  - # 3
    frequency:     2.6375322342
  - # 4
    frequency:     2.6520234171
  - # 5
    frequency:     4.7673437383
  - # 6
    frequency:     4.7687758983
  - # 7
    frequency:     4.9282115793
  - # 8
    frequency:     5.4468001597
  - # 9
    frequency:     5.8913803573
  - # 10
    frequency:     5.9035815630
  - # 11
    frequency:     6.2121914537
  - # 12
    frequency:     6.2202677220

- q-position: [    0.4895833,    0.0312500,    0.0104167 ]
  weight: 48   
  band:
  - # 1
    frequency:     2.4341906141
  - # 2
    frequency:     2.4489154418
  - # 3
    frequency:     2.5366600898
  - # 4
    frequency:     2.5512762371
  - # 5
    frequency:     4.7744987190
  - # 6
    frequency:     4.7749751064
  - # 7
    frequency:     5.1062523286
  - # 8
    frequency:     5.2791884392
  - # 9
    frequency:     6.0006863758
  - # 10
    frequency:     6.0113243982
  - # 11
    frequency:     6.1086846309
  - # 12
    frequency:     6.1179489438

- q-position: [    0.0520833,    0.0520833,    0.0104167 ]
  weight: 24   
  band:
  - # 1
    frequency:     0.2741419289
  - # 2
    frequency:     0.3518748399
  - # 3
    frequency:     0.8753094931
  - # 4
    frequency:     3.9414195181
  - # 5
    frequency:     3.9414195181
  - # 6
    frequency:     3.9569650311
  - # 7
    frequency:     3.9628676797
  - # 8
    frequency:     3.9628676797
  - # 9
    frequency:     4.0414602142
  - # 10
    frequency:     7.3858132861
  - # 11
    frequency:     7.3858132861
  - # 12
    frequency:     7.3957358437

- q-position: [    0.0729167,    0.0520833,    0.0104167 ]
  weight: 48   
  band:
  - # 1
    frequency:     0.3438535543
  - # 2
    frequency:     0.4298845807
  - # 3
    frequency:     1.0561504834
  - # 4
    frequency:     3.9235402541
  - # 5
    frequency:     3.9451469485
  - # 6
    frequency:     3.9642669703
  - # 7
    frequency:     3.9690903308
  - # 8
    frequency:     3.9992671770
  - # 9
    frequency:     4.0867232295
  - # 10
    frequency:     7.3611677997
  - # 11
    frequency:     7.3713890346
  - # 12
    frequency:     7.3809790254

- q-position: [    0.0937500,    0.0520833,    0.0104167 ]
  weight: 48   
  band:
  - # 1
    frequency:     0.4329487495
  - # 2
    frequency:     0.5162808901
  - # 3
    frequency:     1.2521439146
  - # 4
    frequency:     3.8997979262
  - # 5
    frequency:     3.9216144964
  - # 6
    frequency:     3.9898632821
  - # 7
    frequency:     3.9942677006
  - # 8
    frequency:     4.0466131299
  - # 9
    frequency:     4.1409166055
  - # 10
    frequency:     7.3283653746
  - # 11
    frequency:     7.3521654692
  - # 12
    frequency:     7.3613093369

- q-position: [    0.1145833,    0.0520833,    0.0104167 ]
  weight: 48   
  band:
  - # 1
    frequency:     0.5304658385
  - # 2
    frequency:     0.6077679558
  - # 3
    frequency:     1.4572136037
  - # 4
    frequency:     3.8702747242
  - # 5
    frequency:     3.8923512272
  - # 6
    frequency:     4.0186062187
  - # 7
    frequency:     4.0306465613
  - # 8
    frequency:     4.1043591446
  - # 9
    frequency:     4.2034696252
  - # 10
    frequency:     7.2874556624
  - # 11
    frequency:     7.3281509499
  - # 12
    frequency:     7.3367328084

- q-position: [    0.1354167,    0.0520833,    0.0104167 ]
  weight: 48   
  band:
  - # 1
    frequency:     0.6317586546
  - # 2