<?xml version="1.0" encoding="ISO-8859-1"?>
<modeling>
 <generator>
  <i name="program" type="string">vasp</i>
  <i name="version" type="string">4.6.28 </i>
  <i name="subversion" type="string">25Jul05 complex  parallel</i>
  <i name="platform" type="string">LinuxIFC</i>
  <i name="date" type="string">2016 10 21</i>
  <i name="time" type="string">16:40:15</i>
 </generator>
 <incar>
  <i type="string" name="PREC">accurate</i>
  <i type="int" name="IALGO">    38</i>
  <i name="EDIFF">      0.00000001</i>
  <i type="int" name="IBRION">    -1</i>
  <i name="ENCUT">    500.00000000</i>
  <i type="logical" name="LREAL"> F  </i>
  <i type="int" name="ISMEAR">     0</i>
  <i name="SIGMA">      0.01000000</i>
  <i type="logical" name="LWAVE"> F  </i>
  <i type="logical" name="LCHARG"> F  </i>
 </incar>
 <kpoints>
  <generation param="Gamma">
   <v type="int" name="divisions">      12      12      12</v>
   <v name="usershift">      0.00000000      0.00000000      0.00000000</v>
   <v name="genvec1">      0.08333333      0.00000000      0.00000000</v>
   <v name="genvec2">      0.00000000      0.08333333      0.00000000</v>
   <v name="genvec3">      0.00000000      0.00000000      0.08333333</v>
   <v name="shift">      0.00000000      0.00000000      0.00000000</v>
  </generation>
  <varray name="kpointlist" >
   <v>       0.00000000      0.00000000      0.00000000</v>
   <v>       0.08333333      0.00000000      0.00000000</v>
   <v>       0.16666667      0.00000000      0.00000000</v>
   <v>       0.25000000      0.00000000      0.00000000</v>
   <v>       0.33333333      0.00000000      0.00000000</v>
   <v>       0.41666667      0.00000000      0.00000000</v>
   <v>       0.50000000      0.00000000      0.00000000</v>
   <v>       0.00000000      0.08333333      0.00000000</v>
   <v>       0.08333333      0.08333333      0.00000000</v>
   <v>       0.16666667      0.08333333      0.00000000</v>
   <v>       0.25000000      0.08333333      0.00000000</v>
   <v>       0.33333333      0.08333333      0.00000000</v>
   <v>       0.41666667      0.08333333      0.00000000</v>
   <v>       0.50000000      0.08333333      0.00000000</v>
   <v>       0.00000000      0.16666667      0.00000000</v>
   <v>       0.08333333      0.16666667      0.00000000</v>
   <v>       0.16666667      0.16666667      0.00000000</v>
   <v>       0.25000000      0.16666667      0.00000000</v>
   <v>       0.33333333      0.16666667      0.00000000</v>
   <v>       0.41666667      0.16666667      0.00000000</v>
   <v>       0.50000000      0.16666667      0.00000000</v>
   <v>       0.00000000      0.25000000      0.00000000</v>
   <v>       0.08333333      0.25000000      0.00000000</v>
   <v>       0.16666667      0.25000000      0.00000000</v>
   <v>       0.25000000      0.25000000      0.00000000</v>
   <v>       0.33333333      0.25000000      0.00000000</v>
   <v>       0.41666667      0.25000000      0.00000000</v>
   <v>       0.50000000      0.25000000      0.00000000</v>
   <v>       0.00000000      0.33333333      0.00000000</v>
   <v>       0.08333333      0.33333333      0.00000000</v>
   <v>       0.16666667      0.33333333      0.00000000</v>
   <v>       0.25000000      0.33333333      0.00000000</v>
   <v>       0.33333333      0.33333333      0.00000000</v>
   <v>       0.41666667      0.33333333      0.00000000</v>
   <v>       0.50000000      0.33333333      0.00000000</v>
   <v>       0.00000000      0.41666667      0.00000000</v>
   <v>       0.08333333      0.41666667      0.00000000</v>
   <v>       0.16666667      0.41666667      0.00000000</v>
   <v>       0.25000000      0.41666667      0.00000000</v>
   <v>       0.33333333      0.41666667      0.00000000</v>
   <v>       0.41666667      0.41666667      0.00000000</v>
   <v>       0.50000000      0.41666667      0.00000000</v>
   <v>       0.00000000      0.50000000      0.00000000</v>
   <v>       0.08333333      0.50000000      0.00000000</v>
   <v>       0.16666667      0.50000000      0.00000000</v>
   <v>       0.25000000      0.50000000      0.00000000</v>
   <v>       0.33333333      0.50000000      0.00000000</v>
   <v>       0.41666667      0.50000000      0.00000000</v>
   <v>       0.50000000      0.50000000      0.00000000</v>
   <v>       0.00000000      0.08333333      0.08333333</v>
   <v>       0.08333333      0.08333333      0.08333333</v>
   <v>       0.16666667      0.08333333      0.08333333</v>
   <v>       0.25000000      0.08333333      0.08333333</v>
   <v>       0.33333333      0.08333333      0.08333333</v>
   <v>       0.41666667      0.08333333      0.08333333</v>
   <v>       0.50000000      0.08333333      0.08333333</v>
   <v>       0.00000000      0.16666667      0.08333333</v>
   <v>       0.08333333      0.16666667      0.08333333</v>
   <v>       0.16666667      0.16666667      0.08333333</v>
   <v>       0.25000000      0.16666667      0.08333333</v>
   <v>       0.33333333      0.16666667      0.08333333</v>
   <v>       0.41666667      0.16666667      0.08333333</v>
   <v>       0.50000000      0.16666667      0.08333333</v>
   <v>       0.00000000      0.25000000      0.08333333</v>
   <v>       0.08333333      0.25000000      0.08333333</v>
   <v>       0.16666667      0.25000000      0.08333333</v>
   <v>       0.25000000      0.25000000      0.08333333</v>
   <v>       0.33333333      0.25000000      0.08333333</v>
   <v>       0.41666667      0.25000000      0.08333333</v>
   <v>       0.50000000      0.25000000      0.08333333</v>
   <v>       0.00000000      0.33333333      0.08333333</v>
   <v>       0.08333333      0.33333333      0.08333333</v>
   <v>       0.16666667      0.33333333      0.08333333</v>
   <v>       0.25000000      0.33333333      0.08333333</v>
   <v>       0.33333333      0.33333333      0.08333333</v>
   <v>       0.41666667      0.33333333      0.08333333</v>
   <v>       0.50000000      0.33333333      0.08333333</v>
   <v>       0.00000000      0.41666667      0.08333333</v>
   <v>       0.08333333      0.41666667      0.08333333</v>
   <v>       0.16666667      0.41666667      0.08333333</v>
   <v>       0.25000000      0.41666667      0.08333333</v>
   <v>       0.33333333      0.41666667      0.08333333</v>
   <v>       0.41666667      0.41666667      0.08333333</v>
   <v>       0.50000000      0.41666667      0.08333333</v>
   <v>       0.00000000      0.50000000      0.08333333</v>
   <v>       0.08333333      0.50000000      0.08333333</v>
   <v>       0.16666667      0.50000000      0.08333333</v>
   <v>       0.25000000      0.50000000      0.08333333</v>
   <v>       0.33333333      0.50000000      0.08333333</v>
   <v>       0.41666667      0.50000000      0.08333333</v>
   <v>       0.50000000      0.50000000      0.08333333</v>
   <v>       0.00000000      0.16666667      0.16666667</v>
   <v>       0.08333333      0.16666667      0.16666667</v>
   <v>       0.16666667      0.16666667      0.16666667</v>
   <v>       0.25000000      0.16666667      0.16666667</v>
   <v>       0.33333333      0.16666667      0.16666667</v>
   <v>       0.41666667      0.16666667      0.16666667</v>
   <v>       0.50000000      0.16666667      0.16666667</v>
   <v>       0.00000000      0.25000000      0.16666667</v>
   <v>       0.08333333      0.25000000      0.16666667</v>
   <v>       0.16666667      0.25000000      0.16666667</v>
   <v>       0.25000000      0.25000000      0.16666667</v>
   <v>       0.33333333      0.25000000      0.16666667</v>
   <v>       0.41666667      0.25000000      0.16666667</v>
   <v>       0.50000000      0.25000000      0.16666667</v>
   <v>       0.00000000      0.33333333      0.16666667</v>
   <v>       0.08333333      0.33333333      0.16666667</v>
   <v>       0.16666667      0.33333333      0.16666667</v>
   <v>       0.25000000      0.33333333      0.16666667</v>
   <v>       0.33333333      0.33333333      0.16666667</v>
   <v>       0.41666667      0.33333333      0.16666667</v>
   <v>       0.50000000      0.33333333      0.16666667</v>
   <v>       0.00000000      0.41666667      0.16666667</v>
   <v>       0.08333333      0.41666667      0.16666667</v>
   <v>       0.16666667      0.41666667      0.16666667</v>
   <v>       0.25000000      0.41666667      0.16666667</v>
   <v>       0.33333333      0.41666667      0.16666667</v>
   <v>       0.41666667      0.41666667      0.16666667</v>
   <v>       0.50000000      0.41666667      0.16666667</v>
   <v>       0.00000000      0.50000000      0.16666667</v>
   <v>       0.08333333      0.50000000      0.16666667</v>
   <v>       0.16666667      0.50000000      0.16666667</v>
   <v>       0.25000000      0.50000000      0.16666667</v>
   <v>       0.33333333      0.50000000      0.16666667</v>
   <v>       0.41666667      0.50000000      0.16666667</v>
   <v>       0.50000000      0.50000000      0.16666667</v>
   <v>       0.00000000      0.25000000      0.25000000</v>
   <v>       0.08333333      0.25000000      0.25000000</v>
   <v>       0.16666667      0.25000000      0.25000000</v>
   <v>       0.25000000      0.25000000      0.25000000</v>
   <v>       0.33333333      0.25000000      0.25000000</v>
   <v>       0.41666667      0.25000000      0.25000000</v>
   <v>       0.50000000      0.25000000      0.25000000</v>
   <v>       0.00000000      0.33333333      0.25000000</v>
   <v>       0.08333333      0.33333333      0.25000000</v>
   <v>       0.16666667      0.33333333      0.25000000</v>
   <v>       0.25000000      0.33333333      0.25000000</v>
   <v>       0.33333333      0.33333333      0.25000000</v>
   <v>       0.41666667      0.33333333      0.25000000</v>
   <v>       0.50000000      0.33333333      0.25000000</v>
   <v>       0.00000000      0.41666667      0.25000000</v>
   <v>       0.08333333      0.41666667      0.25000000</v>
   <v>       0.16666667      0.41666667      0.25000000</v>
   <v>       0.25000000      0.41666667      0.25000000</v>
   <v>       0.33333333      0.41666667      0.25000000</v>
   <v>       0.41666667      0.41666667      0.25000000</v>
   <v>       0.50000000      0.41666667      0.25000000</v>
   <v>       0.00000000      0.50000000      0.25000000</v>
   <v>       0.08333333      0.50000000      0.25000000</v>
   <v>       0.16666667      0.50000000      0.25000000</v>
   <v>       0.25000000      0.50000000      0.25000000</v>
   <v>       0.33333333      0.50000000      0.25000000</v>
   <v>       0.41666667      0.50000000      0.25000000</v>
   <v>       0.50000000      0.50000000      0.25000000</v>
   <v>       0.00000000      0.33333333      0.33333333</v>
   <v>       0.08333333      0.33333333      0.33333333</v>
   <v>       0.16666667      0.33333333      0.33333333</v>
   <v>       0.25000000      0.33333333      0.33333333</v>
   <v>       0.33333333      0.33333333      0.33333333</v>
   <v>       0.41666667      0.33333333      0.33333333</v>
   <v>       0.50000000      0.33333333      0.33333333</v>
   <v>       0.00000000      0.41666667      0.33333333</v>
   <v>       0.08333333      0.41666667      0.33333333</v>
   <v>       0.16666667      0.41666667      0.33333333</v>
   <v>       0.25000000      0.41666667      0.33333333</v>
   <v>       0.33333333      0.41666667      0.33333333</v>
   <v>       0.41666667      0.41666667      0.33333333</v>
   <v>       0.50000000      0.41666667      0.33333333</v>
   <v>       0.00000000      0.50000000      0.33333333</v>
   <v>       0.08333333      0.50000000      0.33333333</v>
   <v>       0.16666667      0.50000000      0.33333333</v>
   <v>       0.25000000      0.50000000      0.33333333</v>
   <v>       0.33333333      0.50000000      0.33333333</v>
   <v>       0.41666667      0.50000000      0.33333333</v>
   <v>       0.50000000      0.50000000      0.33333333</v>
   <v>       0.00000000      0.41666667      0.41666667</v>
   <v>       0.08333333      0.41666667      0.41666667</v>
   <v>       0.16666667      0.41666667      0.41666667</v>
   <v>       0.25000000      0.41666667      0.41666667</v>
   <v>       0.33333333      0.41666667      0.41666667</v>
   <v>       0.41666667      0.41666667      0.41666667</v>
   <v>       0.50000000      0.41666667      0.41666667</v>
   <v>       0.00000000      0.50000000      0.41666667</v>
   <v>       0.08333333      0.50000000      0.41666667</v>
   <v>       0.16666667      0.50000000      0.41666667</v>
   <v>       0.25000000      0.50000000      0.41666667</v>
   <v>       0.33333333      0.50000000      0.41666667</v>
   <v>       0.41666667      0.50000000      0.41666667</v>
   <v>       0.50000000      0.50000000      0.41666667</v>
   <v>       0.00000000      0.50000000      0.50000000</v>
   <v>       0.08333333      0.50000000      0.50000000</v>
   <v>       0.16666667      0.50000000      0.50000000</v>
   <v>       0.25000000      0.50000000      0.50000000</v>
   <v>       0.33333333      0.50000000      0.50000000</v>
   <v>       0.41666667      0.50000000      0.50000000</v>
   <v>       0.50000000      0.50000000      0.50000000</v>
  </varray>
  <varray name="weights" >
   <v>       0.00057870</v>
   <v>       0.00115741</v>
   <v>       0.00115741</v>
   <v>       0.00115741</v>
   <v>       0.00115741</v>
   <v>       0.00115741</v>
   <v>       0.00057870</v>
   <v>       0.00231481</v>
   <v>       0.00462963</v>
   <v>       0.00462963</v>
   <v>       0.00462963</v>
   <v>       0.00462963</v>
   <v>       0.00462963</v>
   <v>       0.00231481</v>
   <v>       0.00231481</v>
   <v>       0.00462963</v>
   <v>       0.00462963</v>
   <v>       0.00462963</v>
   <v>       0.00462963</v>
   <v>       0.00462963</v>
   <v>       0.00231481</v>
   <v>       0.00231481</v>
   <v>       0.00462963</v>
   <v>       0.00462963</v>
   <v>       0.00462963</v>
   <v>       0.00462963</v>
   <v>       0.00462963</v>
   <v>       0.00231481</v>
   <v>       0.00231481</v>
   <v>       0.00462963</v>
   <v>       0.00462963</v>
   <v>       0.00462963</v>
   <v>       0.00462963</v>
   <v>       0.00462963</v>
   <v>       0.00231481</v>
   <v>       0.00231481</v>
   <v>       0.00462963</v>
   <v>       0.00462963</v>
   <v>       0.00462963</v>
   <v>       0.00462963</v>
   <v>       0.00462963</v>
   <v>       0.00231481</v>
   <v>       0.00115741</v>
   <v>       0.00231481</v>
   <v>       0.00231481</v>
   <v>       0.00231481</v>
   <v>       0.00231481</v>
   <v>       0.00231481</v>
   <v>       0.00115741</v>
   <v>       0.00231481</v>
   <v>       0.00462963</v>
   <v>       0.00462963</v>
   <v>       0.00462963</v>
   <v>       0.00462963</v>
   <v>       0.00462963</v>
   <v>       0.00231481</v>
   <v>       0.00462963</v>
   <v>       0.00925926</v>
   <v>       0.00925926</v>
   <v>       0.00925926</v>
   <v>       0.00925926</v>
   <v>       0.00925926</v>
   <v>       0.00462963</v>
   <v>       0.00462963</v>
   <v>       0.00925926</v>
   <v>       0.00925926</v>
   <v>       0.00925926</v>
   <v>       0.00925926</v>
   <v>       0.00925926</v>
   <v>       0.00462963</v>
   <v>       0.00462963</v>
   <v>       0.00925926</v>
   <v>       0.00925926</v>
   <v>       0.00925926</v>
   <v>       0.00925926</v>
   <v>       0.00925926</v>
   <v>       0.00462963</v>
   <v>       0.00462963</v>
   <v>       0.00925926</v>
   <v>       0.00925926</v>
   <v>       0.00925926</v>
   <v>       0.00925926</v>
   <v>       0.00925926</v>
   <v>       0.00462963</v>
   <v>       0.00231481</v>
   <v>       0.00462963</v>
   <v>       0.00462963</v>
   <v>       0.00462963</v>
   <v>       0.00462963</v>
   <v>       0.00462963</v>
   <v>       0.00231481</v>
   <v>       0.00231481</v>
   <v>       0.00462963</v>
   <v>       0.00462963</v>
   <v>       0.00462963</v>
   <v>       0.00462963</v>
   <v>       0.00462963</v>
   <v>       0.00231481</v>
   <v>       0.00462963</v>
   <v>       0.00925926</v>
   <v>       0.00925926</v>
   <v>       0.00925926</v>
   <v>       0.00925926</v>
   <v>       0.00925926</v>
   <v>       0.00462963</v>
   <v>       0.00462963</v>
   <v>       0.00925926</v>
   <v>       0.00925926</v>
   <v>       0.00925926</v>
   <v>       0.00925926</v>
   <v>       0.00925926</v>
   <v>       0.00462963</v>
   <v>       0.00462963</v>
   <v>       0.00925926</v>
   <v>       0.00925926</v>
   <v>       0.00925926</v>
   <v>       0.00925926</v>
   <v>       0.00925926</v>
   <v>       0.00462963</v>
   <v>       0.00231481</v>
   <v>       0.00462963</v>
   <v>       0.00462963</v>
   <v>       0.00462963</v>
   <v>       0.00462963</v>
   <v>       0.00462963</v>
   <v>       0.00231481</v>
   <v>       0.00231481</v>
   <v>       0.00462963</v>
   <v>       0.00462963</v>
   <v>       0.00462963</v>
   <v>       0.00462963</v>
   <v>       0.00462963</v>
   <v>       0.00231481</v>
   <v>       0.00462963</v>
   <v>       0.00925926</v>
   <v>       0.00925926</v>
   <v>       0.00925926</v>
   <v>       0.00925926</v>
   <v>       0.00925926</v>
   <v>       0.00462963</v>
   <v>       0.00462963</v>
   <v>       0.00925926</v>
   <v>       0.00925926</v>
   <v>       0.00925926</v>
   <v>       0.00925926</v>
   <v>       0.00925926</v>
   <v>       0.00462963</v>
   <v>       0.00231481</v>
   <v>       0.00462963</v>
   <v>       0.00462963</v>
   <v>       0.00462963</v>
   <v>       0.00462963</v>
   <v>       0.00462963</v>
   <v>       0.00231481</v>
   <v>       0.00231481</v>
   <v>       0.00462963</v>
   <v>       0.00462963</v>
   <v>       0.00462963</v>
   <v>       0.00462963</v>
   <v>       0.00462963</v>
   <v>       0.00231481</v>
   <v>       0.00462963</v>
   <v>       0.00925926</v>
   <v>       0.00925926</v>
   <v>       0.00925926</v>
   <v>       0.00925926</v>
   <v>       0.00925926</v>
   <v>       0.00462963</v>
   <v>       0.00231481</v>
   <v>       0.00462963</v>
   <v>       0.00462963</v>
   <v>       0.00462963</v>
   <v>       0.00462963</v>
   <v>       0.00462963</v>
   <v>       0.00231481</v>
   <v>       0.00231481</v>
   <v>       0.00462963</v>
   <v>       0.00462963</v>
   <v>       0.00462963</v>
   <v>       0.00462963</v>
   <v>       0.00462963</v>
   <v>       0.00231481</v>
   <v>       0.00231481</v>
   <v>       0.00462963</v>
   <v>       0.00462963</v>
   <v>       0.00462963</v>
   <v>       0.00462963</v>
   <v>       0.00462963</v>
   <v>       0.00231481</v>
   <v>       0.00057870</v>
   <v>       0.00115741</v>
   <v>       0.00115741</v>
   <v>       0.00115741</v>
   <v>       0.00115741</v>
   <v>       0.00115741</v>
   <v>       0.00057870</v>
  </varray>
 </kpoints>
 <parameters>
  <separator name="general" >
   <i type="string" name="SYSTEM">unknown system</i>
   <i type="logical" name="LCOMPAT"> F  </i>
  </separator>
  <separator name="electronic" >
   <i type="string" name="PREC">accura</i>
   <i name="ENMAX">    500.00000000</i>
   <i name="ENAUG">    291.05200000</i>
   <i name="EDIFF">      0.00000001</i>
   <i type="int" name="IALGO">    38</i>
   <i type="int" name="IWAVPR">    10</i>
   <i type="int" name="NBANDS">    65</i>
   <i name="NELECT">     96.00000000</i>
   <separator name="electronic smearing" >
    <i type="int" name="ISMEAR">     0</i>
    <i name="SIGMA">      0.01000000</i>
   </separator>
   <separator name="electronic projectors" >
    <i type="logical" name="LREAL"> F  </i>
    <v name="ROPT">      0.00000000</v>
    <i type="int" name="LMAXPAW">  -100</i>
    <i type="int" name="LMAXMIX">     2</i>
   </separator>
   <separator name="electronic startup" >
    <i type="int" name="ISTART">     0</i>
    <i type="int" name="ICHARG">     2</i>
    <i type="int" name="INIWAV">     1</i>
   </separator>
   <separator name="electronic spin" >
    <i type="int" name="ISPIN">     1</i>
    <i type="logical" name="LNONCOLLINEAR"> F  </i>
    <v name="MAGMOM">      1.00000000      1.00000000      1.00000000      1.00000000      1.00000000      1.00000000      1.00000000      1.00000000      1.00000000      1.00000000      1.00000000      1.00000000      1.00000000      1.00000000      1.00000000      1.00000000      1.00000000      1.00000000      1.00000000      1.00000000
      1.00000000      1.00000000      1.00000000      1.00000000      1.00000000      1.00000000      1.00000000      1.00000000      1.00000000      1.00000000      1.00000000      1.00000000</v>
    <i name="NUPDOWN">     -1.00000000</i>
    <i type="logical" name="LSORBIT"> F  </i>
    <v name="SAXIS">      0.00000000      0.00000000      1.00000000</v>
    <i type="logical" name="LSPIRAL"> F  </i>
    <v name="QSPIRAL">      0.00000000      0.00000000      0.00000000</v>
    <i type="logical" name="LZEROZ"> F  </i>
   </separator>
   <separator name="electronic exchange-correlation" >
    <i type="string" name="GGA">--</i>
    <i type="int" name="VOSKOWN">     0</i>
    <i type="logical" name="LASPH"> F  </i>
    <i type="logical" name="LMETAGGA"> F  </i>
    <i type="string" name="GGA2">--</i>
   </separator>
   <separator name="electronic convergence" >
    <i type="int" name="NELM">    60</i>
    <i type="int" name="NELMDL">     0</i>
    <i type="int" name="NELMIN">     2</i>
    <i name="ENINI">    500.00000000</i>
    <separator name="electronic convergence detail" >
     <i type="logical" name="LDIAG"> T  </i>
     <i name="WEIMIN">      0.00000000</i>
     <i name="EBREAK">      0.00000000</i>
     <i name="DEPER">      0.30000000</i>
     <i type="int" name="NRMM">     4</i>
     <i name="TIME">      0.10000000</i>
    </separator>
   </separator>
   <separator name="electronic mixer" >
    <i name="AMIX">      0.40000000</i>
    <i name="BMIX">      1.00000000</i>
    <i name="AMIN">      0.10000000</i>
    <i name="AMIX_MAG">      1.60000000</i>
    <i name="BMIX_MAG">      1.00000000</i>
    <separator name="electronic mixer details" >
     <i type="int" name="IMIX">     4</i>
     <i type="int" name="MAXMIX">   -45</i>
     <i name="WC">    100.00000000</i>
     <i type="int" name="INIMIX">     1</i>
     <i type="int" name="MIXPRE">     1</i>
     <i type="int" name="MREMOVE">     5</i>
    </separator>
   </separator>
   <separator name="electronic dipolcorrection" >
    <i type="int" name="IDIPOL">     0</i>
    <i type="logical" name="LDIPOL"> F  </i>
    <v name="DIPOL">   -100.00000000</v>
    <i name="EFIELD">      0.00000000</i>
   </separator>
  </separator>
  <separator name="grids" >
   <i type="int" name="NGX">    64</i>
   <i type="int" name="NGY">    64</i>
   <i type="int" name="NGZ">    64</i>
   <i type="int" name="NGXF">   128</i>
   <i type="int" name="NGYF">   128</i>
   <i type="int" name="NGZF">   128</i>
   <i type="logical" name="ADDGRID"> F  </i>
  </separator>
  <separator name="ionic" >
   <i type="int" name="NSW">     0</i>
   <i type="int" name="IBRION">    -1</i>
   <i type="int" name="ISIF">     2</i>
   <i name="PSTRESS">      0.00000000</i>
   <i name="EDIFFG">      0.00000010</i>
   <i type="int" name="NFREE">     0</i>
   <i name="POTIM">      0.50000000</i>
   <i name="SMASS">     -3.00000000</i>
  </separator>
  <separator name="ionic md" >
   <i name="TEBEG">      0.00010000</i>
   <i name="TEEND">      0.00010000</i>
   <i type="int" name="NBLOCK">     1</i>
   <i type="int" name="KBLOCK">     1</i>
   <i type="int" name="NPACO">   256</i>
   <i name="APACO">     16.00000000</i>
  </separator>
  <separator name="symmetry" >
   <i type="int" name="ISYM">     2</i>
   <i name="SYMPREC">      0.00001000</i>
  </separator>
  <separator name="dos" >
   <i type="logical" name="LORBIT"> F  </i>
   <v name="RWIGS">     -1.00000000</v>
   <i type="int" name="NEDOS">   301</i>
   <i name="EMIN">     10.00000000</i>
   <i name="EMAX">    -10.00000000</i>
  </separator>
  <separator name="writing" >
   <i type="int" name="NWRITE">     2</i>
   <i type="logical" name="LWAVE"> F  </i>
   <i type="logical" name="LCHARG"> F  </i>
   <i type="logical" name="LPARD"> F  </i>
   <i type="logical" name="LVTOT"> F  </i>
   <i type="logical" name="LELF"> F  </i>
   <i type="logical" name="LOPTICS"> F  </i>
   <i name="STM">      0.00000000</i>
  </separator>
  <separator name="performance" >
   <i type="int" name="NPAR">     4</i>
   <i type="int" name="NSIM">     4</i>
   <i type="int" name="NBLK">   256</i>
   <i type="logical" name="LPLANE"> T  </i>
   <i type="logical" name="LCRITICAL_MEM"> F  </i>
   <i type="logical" name="LSCALAPACK"> F  </i>
   <i type="logical" name="LSCALU"> F  </i>
   <i type="logical" name="LASYNC"> F  </i>
  </separator>
  <separator name="miscellaneous" >
   <i type="int" name="IDIOT">     3</i>
   <i type="logical" name="LMUSIC"> F  </i>
   <v name="POMASS">     26.98200000</v>
   <i type="logical" name="LCORR"> T  </i>
  </separator>
  <i type="logical" name="LREAL_COMPAT"> F  </i>
  <i type="logical" name="GGA_COMPAT"> T  </i>
  <i type="logical" name="LBERRY"> F  </i>
  <i type="int" name="ICORELEVEL">     0</i>
  <i type="logical" name="LDAU"> F  </i>
  <i type="int" name="I_CONSTRAINED_M">     0</i>
 </parameters>
 <atominfo>
  <atoms>      32</atoms>
  <types>       1</types>
  <array name="atoms" >
   <dimension dim="1">ion</dimension>
   <field type="string">element</field>
   <field type="int">atomtype</field>
   <set>
    <rc><c>Al</c><c>   1</c></rc>
    <rc><c>Al</c><c>   1</c></rc>
    <rc><c>Al</c><c>   1</c></rc>
    <rc><c>Al</c><c>   1</c></rc>
    <rc><c>Al</c><c>   1</c></rc>
    <rc><c>Al</c><c>   1</c></rc>
    <rc><c>Al</c><c>   1</c></rc>
    <rc><c>Al</c><c>   1</c></rc>
    <rc><c>Al</c><c>   1</c></rc>
    <rc><c>Al</c><c>   1</c></rc>
    <rc><c>Al</c><c>   1</c></rc>
    <rc><c>Al</c><c>   1</c></rc>
    <rc><c>Al</c><c>   1</c></rc>
    <rc><c>Al</c><c>   1</c></rc>
    <rc><c>Al</c><c>   1</c></rc>
    <rc><c>Al</c><c>   1</c></rc>
    <rc><c>Al</c><c>   1</c></rc>
    <rc><c>Al</c><c>   1</c></rc>
    <rc><c>Al</c><c>   1</c></rc>
    <rc><c>Al</c><c>   1</c></rc>
    <rc><c>Al</c><c>   1</c></rc>
    <rc><c>Al</c><c>   1</c></rc>
    <rc><c>Al</c><c>   1</c></rc>
    <rc><c>Al</c><c>   1</c></rc>
    <rc><c>Al</c><c>   1</c></rc>
    <rc><c>Al</c><c>   1</c></rc>
    <rc><c>Al</c><c>   1</c></rc>
    <rc><c>Al</c><c>   1</c></rc>
    <rc><c>Al</c><c>   1</c></rc>
    <rc><c>Al</c><c>   1</c></rc>
    <rc><c>Al</c><c>   1</c></rc>
    <rc><c>Al</c><c>   1</c></rc>
   </set>
  </array>
  <array name="atomtypes" >
   <dimension dim="1">type</dimension>
   <field type="int">atomspertype</field>
   <field type="string">element</field>
   <field>mass</field>
   <field>valence</field>
   <field type="string">pseudopotential</field>
   <set>
    <rc><c>  32</c><c>Al</c><c>     26.98200000</c><c>      3.00000000</c><c> PAW_PBE Al 04Jan2001                   </c></rc>
   </set>
  </array>
 </atominfo>
 <structure name="initialpos" >
  <crystal>
   <varray name="basis" >
    <v>       8.47834338      0.00000000      0.00000000</v>
    <v>       0.00000000      8.47834338      0.00000000</v>
    <v>       0.00000000      0.00000000      8.47834338</v>
   </varray>
   <i name="volume">    609.44287640</i>
   <varray name="rec_basis" >
    <v>       0.11794757      0.00000000      0.00000000</v>
    <v>       0.00000000      0.11794757      0.00000000</v>
    <v>       0.00000000      0.00000000      0.11794757</v>
   </varray>
  </crystal>
  <varray name="positions" >
   <v>       0.25117948      0.25000000      0.00000000</v>
   <v>       0.75000000      0.25000000      0.00000000</v>
   <v>       0.25000000      0.75000000      0.00000000</v>
   <v>       0.75000000      0.75000000      0.00000000</v>
   <v>       0.25000000      0.25000000      0.50000000</v>
   <v>       0.75000000      0.25000000      0.50000000</v>
   <v>       0.25000000      0.75000000      0.50000000</v>
   <v>       0.75000000      0.75000000      0.50000000</v>
   <v>       0.25000000      0.00000000      0.25000000</v>
   <v>       0.75000000      0.00000000      0.25000000</v>
   <v>       0.25000000      0.50000000      0.25000000</v>
   <v>       0.75000000      0.50000000      0.25000000</v>
   <v>       0.25000000      0.00000000      0.75000000</v>
   <v>       0.75000000      0.00000000      0.75000000</v>
   <v>       0.25000000      0.50000000      0.75000000</v>
   <v>       0.75000000      0.50000000      0.75000000</v>
   <v>       0.00000000      0.25000000      0.25000000</v>
   <v>       0.50000000      0.25000000      0.25000000</v>
   <v>       0.00000000      0.75000000      0.25000000</v>
   <v>       0.50000000      0.75000000      0.25000000</v>
   <v>       0.00000000      0.25000000      0.75000000</v>
   <v>       0.50000000      0.25000000      0.75000000</v>
   <v>       0.00000000      0.75000000      0.75000000</v>
   <v>       0.50000000      0.75000000      0.75000000</v>
   <v>       0.00000000      0.00000000      0.00000000</v>
   <v>       0.50000000      0.00000000      0.00000000</v>
   <v>       0.00000000      0.50000000      0.00000000</v>
   <v>       0.50000000      0.50000000      0.00000000</v>
   <v>       0.00000000      0.00000000      0.50000000</v>
   <v>       0.50000000      0.00000000      0.50000000</v>
   <v>       0.00000000      0.50000000      0.50000000</v>
   <v>       0.50000000      0.50000000      0.50000000</v>
  </varray>
 </structure>
 <calculation>
  <scstep>
   <time name="dav">  235.74  235.71</time>
   <time name="total">  236.19  236.17</time>
   <energy>
    <i name="alphaZ">     -5.64355352</i>
    <i name="ewald">  -2242.66093683</i>
    <i name="hartreedc">     -5.70768390</i>
    <i name="XCdc">   -847.69236787</i>
    <i name="pawpsdc">   1137.73615723</i>
    <i name="pawaedc">   -115.16745734</i>
    <i name="eentropy">     -0.00032709</i>
    <i name="bandstr">    479.58499320</i>
    <i name="atom">   1713.22913220</i>
    <i name="e_fr_energy">    113.67795608</i>
    <i name="e_wo_entrp">    113.67828317</i>
    <i name="e_0_energy">    113.67811963</i>
   </energy>
  </scstep>
  <scstep>
   <time name="dav">  259.36  259.29</time>
   <time name="total">  259.39  259.31</time>
   <energy>
    <i name="e_fr_energy">   -104.48075811</i>
    <i name="e_wo_entrp">   -104.48011483</i>
    <i name="e_0_energy">   -104.48043647</i>
   </energy>
  </scstep>
  <scstep>
   <time name="dav">  270.64  270.57</time>
   <time name="total">  270.66  270.59</time>
   <energy>
    <i name="e_fr_energy">   -117.86372616</i>
    <i name="e_wo_entrp">   -117.86335904</i>
    <i name="e_0_energy">   -117.86354260</i>
   </energy>
  </scstep>
  <scstep>
   <time name="dav">  267.96  267.89</time>
   <time name="total">  267.98  267.92</time>
   <energy>
    <i name="e_fr_energy">   -118.16949427</i>
    <i name="e_wo_entrp">   -118.16911189</i>
    <i name="e_0_energy">   -118.16930308</i>
   </energy>
  </scstep>
  <scstep>
   <time name="dav">  267.08  267.01</time>
   <time name="total">  282.94  282.87</time>
   <energy>
    <i name="e_fr_energy">   -118.17382741</i>
    <i name="e_wo_entrp">   -118.17344502</i>
    <i name="e_0_energy">   -118.17363622</i>
   </energy>
  </scstep>
  <scstep>
   <time name="dav">  262.46  262.39</time>
   <time name="total">  277.29  277.22</time>
   <energy>
    <i name="e_fr_energy">   -117.78680904</i>
    <i name="e_wo_entrp">   -117.78642000</i>
    <i name="e_0_energy">   -117.78661452</i>
   </energy>
  </scstep>
  <scstep>
   <time name="dav">  250.89  250.82</time>
   <time name="total">  265.78  265.70</time>
   <energy>
    <i name="e_fr_energy">   -117.50826143</i>
    <i name="e_wo_entrp">   -117.50785694</i>
    <i name="e_0_energy">   -117.50805919</i>
   </energy>
  </scstep>
  <scstep>
   <time name="dav">  260.10  260.03</time>
   <time name="total">  275.05  274.97</time>
   <energy>
    <i name="e_fr_energy">   -117.50812036</i>
    <i name="e_wo_entrp">   -117.50771568</i>
    <i name="e_0_energy">   -117.50791802</i>
   </energy>
  </scstep>
  <scstep>
   <time name="dav">  258.48  258.41</time>
   <time name="total">  273.43  273.36</time>
   <energy>
    <i name="e_fr_energy">   -117.50813469</i>
    <i name="e_wo_entrp">   -117.50772979</i>
    <i name="e_0_energy">   -117.50793224</i>
   </energy>
  </scstep>
  <scstep>
   <time name="dav">  257.57  257.50</time>
   <time name="total">  269.39  269.32</time>
   <energy>
    <i name="e_fr_energy">   -117.50813232</i>
    <i name="e_wo_entrp">   -117.50772743</i>
    <i name="e_0_energy">   -117.50792988</i>
   </energy>
  </scstep>
  <scstep>
   <time name="dav">  218.19  218.12</time>
   <time name="total">  227.42  227.34</time>
   <energy>
    <i name="e_fr_energy">   -117.50812885</i>
    <i name="e_wo_entrp">   -117.50772395</i>
    <i name="e_0_energy">   -117.50792640</i>
   </energy>
  </scstep>
  <scstep>
   <time name="dav">  143.42  143.37</time>
   <time name="total">  152.46  152.41</time>
   <energy>
    <i name="e_fr_energy">   -117.50812784</i>
    <i name="e_wo_entrp">   -117.50772293</i>
    <i name="e_0_energy">   -117.50792538</i>
   </energy>
  </scstep>
  <scstep>
   <time name="dav">  127.76  127.72</time>
   <time name="total">  136.66  136.61</time>
   <energy>
    <i name="e_fr_energy">   -117.50812777</i>
    <i name="e_wo_entrp">   -117.50772286</i>
    <i name="e_0_energy">   -117.50792532</i>
   </energy>
  </scstep>
  <scstep>
   <time name="dav">  124.49  124.44</time>
   <time name="total">  133.52  133.47</time>
   <energy>
    <i name="e_fr_energy">   -117.50812778</i>
    <i name="e_wo_entrp">   -117.50772288</i>
    <i name="e_0_energy">   -117.50792533</i>
   </energy>
  </scstep>
  <scstep>
   <time name="dav">  124.36  124.31</time>
   <time name="total">  133.28  133.24</time>
   <energy>
    <i name="e_fr_energy">   -117.50812780</i>
    <i name="e_wo_entrp">   -117.50772290</i>
    <i name="e_0_energy">   -117.50792535</i>
   </energy>
  </scstep>
  <scstep>
   <time name="dav">  121.70  121.65</time>
   <time name="total">  122.05  122.01</time>
   <energy>
    <i name="alphaZ">     -5.64355352</i>
    <i name="ewald">  -2242.66093683</i>
    <i name="hartreedc">     -3.33786804</i>
    <i name="XCdc">   -845.20280022</i>
    <i name="pawpsdc">   1130.27845359</i>
    <i name="pawaedc">   -107.52584159</i>
    <i name="eentropy">     -0.00040490</i>
    <i name="bandstr">    243.35569149</i>
    <i name="atom">   1713.22913220</i>
    <i name="e_fr_energy">   -117.50812781</i>
    <i name="e_wo_entrp">   -117.50772290</i>
    <i name="e_0_energy">   -117.50792535</i>
   </energy>
  </scstep>
  <structure>
   <crystal>
    <varray name="basis" >
     <v>       8.47834338      0.00000000      0.00000000</v>
     <v>       0.00000000      8.47834338      0.00000000</v>
     <v>       0.00000000      0.00000000      8.47834338</v>
    </varray>
    <i name="volume">    609.44287640</i>
    <varray name="rec_basis" >
     <v>       0.11794757      0.00000000      0.00000000</v>
     <v>       0.00000000      0.11794757      0.00000000</v>
     <v>       0.00000000      0.00000000      0.11794757</v>
    </varray>
   </crystal>
   <varray name="positions" >
    <v>       0.25117948      0.25000000      0.00000000</v>
    <v>       0.75000000      0.25000000      0.00000000</v>
    <v>       0.25000000      0.75000000      0.00000000</v>
    <v>       0.75000000      0.75000000      0.00000000</v>
    <v>       0.25000000      0.25000000      0.50000000</v>
    <v>       0.75000000      0.25000000      0.50000000</v>
    <v>       0.25000000      0.75000000      0.50000000</v>
    <v>       0.75000000      0.75000000      0.50000000</v>
    <v>       0.25000000      0.00000000      0.25000000</v>
    <v>       0.75000000      0.00000000      0.25000000</v>
    <v>       0.25000000      0.50000000      0.25000000</v>
    <v>       0.75000000      0.50000000      0.25000000</v>
    <v>       0.25000000      0.00000000      0.75000000</v>
    <v>       0.75000000      0.00000000      0.75000000</v>
    <v>       0.25000000      0.50000000      0.75000000</v>
    <v>       0.75000000      0.50000000      0.75000000</v>
    <v>       0.00000000      0.25000000      0.25000000</v>
    <v>       0.50000000      0.25000000      0.25000000</v>
    <v>       0.00000000      0.75000000      0.25000000</v>
    <v>       0.50000000      0.75000000      0.25000000</v>
    <v>       0.00000000      0.25000000      0.75000000</v>
    <v>       0.50000000      0.25000000      0.75000000</v>
    <v>       0.00000000      0.75000000      0.75000000</v>
    <v>       0.50000000      0.75000000      0.75000000</v>
    <v>       0.00000000      0.00000000      0.00000000</v>
    <v>       0.50000000      0.00000000      0.00000000</v>
    <v>       0.00000000      0.50000000      0.00000000</v>
    <v>       0.50000000      0.50000000      0.00000000</v>
    <v>       0.00000000      0.00000000      0.50000000</v>
    <v>       0.50000000      0.00000000      0.50000000</v>
    <v>       0.00000000      0.50000000      0.50000000</v>
    <v>       0.50000000      0.50000000      0.50000000</v>
   </varray>
  </structure>
  <varray name="forces" >
   <v>      -0.02433296      0.00000000      0.00000000</v>
   <v>       0.00158461      0.00000000     -0.00000000</v>
   <v>      -0.00017774     -0.00000000      0.00000000</v>
   <v>       0.00048948     -0.00000000      0.00000000</v>
   <v>      -0.00017774      0.00000000     -0.00000000</v>
   <v>       0.00048948      0.00000000      0.00000000</v>
   <v>       0.00022872      0.00000000      0.00000000</v>
   <v>      -0.00053134     -0.00000000     -0.00000000</v>
   <v>      -0.00121126      0.00000760     -0.00000760</v>
   <v>      -0.00057312      0.00000312     -0.00000312</v>
   <v>      -0.00121126     -0.00000760     -0.00000760</v>
   <v>      -0.00057312     -0.00000312     -0.00000312</v>
   <v>      -0.00121126      0.00000760      0.00000760</v>
   <v>      -0.00057312      0.00000312      0.00000312</v>
   <v>      -0.00121126     -0.00000760      0.00000760</v>
   <v>      -0.00057312     -0.00000312      0.00000312</v>
   <v>       0.00370092     -0.00000000     -0.00361969</v>
   <v>       0.00380017      0.00000000      0.00374966</v>
   <v>      -0.00005418      0.00000000      0.00014932</v>
   <v>      -0.00005567     -0.00000000     -0.00014884</v>
   <v>       0.00370092     -0.00000000      0.00361969</v>
   <v>       0.00380017      0.00000000     -0.00374966</v>
   <v>      -0.00005418     -0.00000000     -0.00014932</v>
   <v>      -0.00005567      0.00000000      0.00014884</v>
   <v>       0.00370092      0.00361969      0.00000000</v>
   <v>       0.00380017     -0.00374966     -0.00000000</v>
   <v>       0.00370092     -0.00361969     -0.00000000</v>
   <v>       0.00380017      0.00374966     -0.00000000</v>
   <v>      -0.00005418     -0.00014932      0.00000000</v>
   <v>      -0.00005567      0.00014884     -0.00000000</v>
   <v>      -0.00005418      0.00014932      0.00000000</v>
   <v>      -0.00005567     -0.00014884     -0.00000000</v>
  </varray>
  <varray name="stress" >
   <v>     -79.62388024     -0.00000000      0.00000000</v>
   <v>      -0.00000000    -79.62438125      0.00000000</v>
   <v>       0.00000000      0.00000000    -79.62438125</v>
  </varray>
  <energy>
   <i name="e_fr_energy">   -117.50812781</i>
   <i name="e_wo_entrp">   -117.50792535</i>
   <i name="e_0_energy">     -0.00040490</i>
  </energy>
  <eigenvalues>
   <array>
    <dimension dim="1">band</dimension>
    <dimension dim="2">kpoint</dimension>
    <dimension dim="3">spin</dimension>
    <field>eigene</field>
    <field>occ</field>
    <set>
     <set comment="spin 1">
      <set comment="kpoint 1">
       <r>  -3.5982  1.0000</r>
       <r>  -1.5554  1.0000</r>
       <r>  -1.5519  1.0000</r>
       <r>  -1.5519  1.0000</r>
       <r>  -1.5519  1.0000</r>
       <r>  -1.5519  1.0000</r>
       <r>  -1.5485  1.0000</r>
       <r>   0.4623  1.0000</r>
       <r>   0.4667  1.0000</r>
       <r>   0.4667  1.0000</r>
       <r>   0.4682  1.0000</r>
       <r>   0.4683  1.0000</r>
       <r>   0.4683  1.0000</r>
       <r>   0.4683  1.0000</r>
       <r>   0.4683  1.0000</r>
       <r>   0.4684  1.0000</r>
       <r>   0.4699  1.0000</r>
       <r>   0.4699  1.0000</r>
       <r>   0.4742  1.0000</r>
       <r>   2.3832  1.0000</r>
       <r>   2.3832  1.0000</r>
       <r>   2.3832  1.0000</r>
       <r>   2.3832  1.0000</r>
       <r>   2.5472  1.0000</r>
       <r>   2.5473  1.0000</r>
       <r>   2.5473  1.0000</r>
       <r>   2.5473  1.0000</r>
       <r>   4.0043  1.0000</r>
       <r>   4.0043  1.0000</r>
       <r>   4.0043  1.0000</r>
       <r>   4.9684  1.0000</r>
       <r>   4.9684  1.0000</r>
       <r>   4.9684  1.0000</r>
       <r>   5.9142  1.0000</r>
       <r>   5.9142  1.0000</r>
       <r>   5.9181  1.0000</r>
       <r>   5.9181  1.0000</r>
       <r>   5.9182  1.0000</r>
       <r>   5.9182  1.0000</r>
       <r>   5.9182  1.0000</r>
       <r>   5.9183  1.0000</r>
       <r>   5.9183  1.0000</r>
       <r>   5.9183  1.0000</r>
       <r>   5.9223  1.0000</r>
       <r>   5.9223  1.0000</r>
       <r>   6.9392  0.0000</r>
       <r>   6.9400  0.0000</r>
       <r>   6.9400  0.0000</r>
       <r>   6.9400  0.0000</r>
       <r>   6.9400  0.0000</r>
       <r>   6.9408  0.0000</r>
       <r>   6.9845  0.0000</r>
       <r>   6.9882  0.0000</r>
       <r>   6.9882  0.0000</r>
       <r>   6.9882  0.0000</r>
       <r>   6.9883  0.0000</r>
       <r>   6.9920  0.0000</r>
       <r>   7.8291  0.0000</r>
       <r>   7.8297  0.0000</r>
       <r>   7.8310  0.0000</r>
       <r>   7.8329  0.0000</r>
       <r>   7.8330  0.0000</r>
       <r>   7.8330  0.0000</r>
       <r>   7.8330  0.0000</r>
       <r>   7.8331  0.0000</r>
       <r>   7.8341  0.0000</r>
       <r>   7.8356  0.0000</r>
       <r>   7.8368  0.0000</r>
      </set>
      <set comment="kpoint 2">
       <r>  -3.5839  1.0000</r>
       <r>  -1.8770  1.0000</r>
       <r>  -1.5378  1.0000</r>
       <r>  -1.5378  1.0000</r>
       <r>  -1.5378  1.0000</r>
       <r>  -1.5378  1.0000</r>
       <r>  -1.1993  1.0000</r>
       <r>   0.1472  1.0000</r>
       <r>   0.1473  1.0000</r>
       <r>   0.1473  1.0000</r>
       <r>   0.1473  1.0000</r>
       <r>   0.4822  1.0000</r>
       <r>   0.4822  1.0000</r>
       <r>   0.4822  1.0000</r>
       <r>   0.4822  1.0000</r>
       <r>   0.8165  1.0000</r>
       <r>   0.8165  1.0000</r>
       <r>   0.8165  1.0000</r>
       <r>   0.8165  1.0000</r>
       <r>   2.1380  1.0000</r>
       <r>   2.1380  1.0000</r>
       <r>   2.1380  1.0000</r>
       <r>   2.1380  1.0000</r>
       <r>   2.8193  1.0000</r>
       <r>   2.8193  1.0000</r>
       <r>   2.8193  1.0000</r>
       <r>   2.8193  1.0000</r>
       <r>   3.6826  1.0000</r>
       <r>   4.0175  1.0000</r>
       <r>   4.0175  1.0000</r>
       <r>   4.9824  1.0000</r>
       <r>   4.9825  1.0000</r>
       <r>   5.3152  1.0000</r>
       <r>   5.6120  1.0000</r>
       <r>   5.6120  1.0000</r>
       <r>   5.6185  1.0000</r>
       <r>   5.6185  1.0000</r>
       <r>   5.6187  1.0000</r>
       <r>   5.6187  1.0000</r>
       <r>   5.9315  1.0000</r>
       <r>   5.9315  1.0000</r>
       <r>   5.9315  1.0000</r>
       <r>   5.9315  1.0000</r>
       <r>   6.2509  1.0000</r>
       <r>   6.2509  1.0000</r>
       <r>   6.6490  0.0000</r>
       <r>   6.6490  0.0000</r>
       <r>   6.9767  0.0000</r>
       <r>   6.9767  0.0000</r>
       <r>   6.9767  0.0000</r>
       <r>   6.9767  0.0000</r>
       <r>   7.2891  0.0000</r>
       <r>   7.2895  0.0000</r>
       <r>   7.2895  0.0000</r>
       <r>   7.2895  0.0000</r>
       <r>   7.3043  0.0000</r>
       <r>   7.3047  0.0000</r>
       <r>   7.5269  0.0000</r>
       <r>   7.5269  0.0000</r>
       <r>   7.5271  0.0000</r>
       <r>   7.5271  0.0000</r>
       <r>   7.5448  0.0000</r>
       <r>   7.5448  0.0000</r>
       <r>   7.5449  0.0000</r>
       <r>   7.5449  0.0000</r>
       <r>   8.1654  0.0000</r>
       <r>   8.1654  0.0000</r>
       <r>   8.1655  0.0000</r>
      </set>
      <set comment="kpoint 3">
       <r>  -3.5410  1.0000</r>
       <r>  -2.1744  1.0000</r>
       <r>  -1.4955  1.0000</r>
       <r>  -1.4955  1.0000</r>
       <r>  -1.4955  1.0000</r>
       <r>  -1.4955  1.0000</r>
       <r>  -0.8195  1.0000</r>
       <r>  -0.1464  1.0000</r>
       <r>  -0.1464  1.0000</r>
       <r>  -0.1464  1.0000</r>
       <r>  -0.1464  1.0000</r>
       <r>   0.5240  1.0000</r>
       <r>   0.5240  1.0000</r>
       <r>   0.5240  1.0000</r>
       <r>   0.5240  1.0000</r>
       <r>   1.1916  1.0000</r>
       <r>   1.1916  1.0000</r>
       <r>   1.1916  1.0000</r>
       <r>   1.1916  1.0000</r>
       <r>   1.8528  1.0000</r>
       <r>   1.8528  1.0000</r>
       <r>   1.8528  1.0000</r>
       <r>   1.8528  1.0000</r>
       <r>   3.1340  1.0000</r>
       <r>   3.1850  1.0000</r>
       <r>   3.1850  1.0000</r>
       <r>   3.1850  1.0000</r>
       <r>   3.1851  1.0000</r>
       <r>   4.0574  1.0000</r>
       <r>   4.0574  1.0000</r>
       <r>   5.0246  1.0000</r>
       <r>   5.0247  1.0000</r>
       <r>   5.0877  1.0000</r>
       <r>   5.0877  1.0000</r>
       <r>   5.0877  1.0000</r>
       <r>   5.0878  1.0000</r>
       <r>   5.3330  1.0000</r>
       <r>   5.3330  1.0000</r>
       <r>   5.9393  1.0000</r>
       <r>   5.9714  1.0000</r>
       <r>   5.9714  1.0000</r>
       <r>   5.9714  1.0000</r>
       <r>   5.9714  1.0000</r>
       <r>   6.3610  1.0000</r>
       <r>   6.3610  1.0000</r>
       <r>   6.6102  0.0003</r>
       <r>   6.6102  0.0003</r>
       <r>   7.0183  0.0000</r>
       <r>   7.0186  0.0000</r>
       <r>   7.0186  0.0000</r>
       <r>   7.0188  0.0000</r>
       <r>   7.0260  0.0000</r>
       <r>   7.0262  0.0000</r>
       <r>   7.0262  0.0000</r>
       <r>   7.0265  0.0000</r>
       <r>   7.2479  0.0000</r>
       <r>   7.2479  0.0000</r>
       <r>   7.2479  0.0000</r>
       <r>   7.2479  0.0000</r>
       <r>   7.6674  0.0000</r>
       <r>   7.6674  0.0000</r>
       <r>   7.8925  0.0000</r>
       <r>   7.8925  0.0000</r>
       <r>   7.8925  0.0000</r>
       <r>   7.8925  0.0000</r>
       <r>   8.3196  0.0000</r>
       <r>   8.3196  0.0000</r>
       <r>   8.3197  0.0000</r>
      </set>
      <set comment="kpoint 4">
       <r>  -3.4695  1.0000</r>
       <r>  -2.4440  1.0000</r>
       <r>  -1.4250  1.0000</r>
       <r>  -1.4250  1.0000</r>
       <r>  -1.4250  1.0000</r>
       <r>  -1.4250  1.0000</r>
       <r>  -0.4151  1.0000</r>
       <r>  -0.4125  1.0000</r>
       <r>  -0.4125  1.0000</r>
       <r>  -0.4125  1.0000</r>
       <r>  -0.4101  1.0000</r>
       <r>   0.5936  1.0000</r>
       <r>   0.5936  1.0000</r>
       <r>   0.5936  1.0000</r>
       <r>   0.5936  1.0000</r>
       <r>   1.5891  1.0000</r>
       <r>   1.5910  1.0000</r>
       <r>   1.5910  1.0000</r>
       <r>   1.5915  1.0000</r>
       <r>   1.5935  1.0000</r>
       <r>   1.5940  1.0000</r>
       <r>   1.5940  1.0000</r>
       <r>   1.5959  1.0000</r>
       <r>   2.5664  1.0000</r>
       <r>   3.5804  1.0000</r>
       <r>   3.5804  1.0000</r>
       <r>   3.5804  1.0000</r>
       <r>   3.5804  1.0000</r>
       <r>   4.1238  1.0000</r>
       <r>   4.1238  1.0000</r>
       <r>   4.5317  1.0000</r>
       <r>   4.5317  1.0000</r>
       <r>   4.5317  1.0000</r>
       <r>   4.5317  1.0000</r>
       <r>   5.0804  1.0000</r>
       <r>   5.0804  1.0000</r>
       <r>   5.0949  1.0000</r>
       <r>   5.0949  1.0000</r>
       <r>   6.0378  1.0000</r>
       <r>   6.0378  1.0000</r>
       <r>   6.0379  1.0000</r>
       <r>   6.0379  1.0000</r>
       <r>   6.0988  1.0000</r>
       <r>   6.0988  1.0000</r>
       <r>   6.4791  1.0000</r>
       <r>   6.4791  1.0000</r>
       <r>   6.4791  1.0000</r>
       <r>   6.4791  1.0000</r>
       <r>   6.6326  0.0000</r>
       <r>   6.9935  0.0000</r>
       <r>   6.9935  0.0000</r>
       <r>   6.9952  0.0000</r>
       <r>   6.9952  0.0000</r>
       <r>   6.9980  0.0000</r>
       <r>   6.9980  0.0000</r>
       <r>   7.0874  0.0000</r>
       <r>   7.0874  0.0000</r>
       <r>   7.0874  0.0000</r>
       <r>   7.0874  0.0000</r>
       <r>   8.0539  0.0000</r>
       <r>   8.0539  0.0000</r>
       <r>   8.0644  0.0000</r>
       <r>   8.0644  0.0000</r>
       <r>   8.0646  0.0000</r>
       <r>   8.0646  0.0000</r>
       <r>   8.5703  0.0000</r>
       <r>   8.5703  0.0000</r>
       <r>   8.5703  0.0000</r>
      </set>
      <set comment="kpoint 5">
       <r>  -3.3696  1.0000</r>
       <r>  -2.6855  1.0000</r>
       <r>  -1.3263  1.0000</r>
       <r>  -1.3263  1.0000</r>
       <r>  -1.3263  1.0000</r>
       <r>  -1.3263  1.0000</r>
       <r>  -0.6511  1.0000</r>
       <r>  -0.6510  1.0000</r>
       <r>  -0.6510  1.0000</r>
       <r>  -0.6510  1.0000</r>
       <r>   0.0210  1.0000</r>
       <r>   0.6909  1.0000</r>
       <r>   0.6910  1.0000</r>
       <r>   0.6910  1.0000</r>
       <r>   0.6910  1.0000</r>
       <r>   1.3567  1.0000</r>
       <r>   1.3568  1.0000</r>
       <r>   1.3568  1.0000</r>
       <r>   1.3568  1.0000</r>
       <r>   2.0114  1.0000</r>
       <r>   2.0216  1.0000</r>
       <r>   2.0216  1.0000</r>
       <r>   2.0216  1.0000</r>
       <r>   2.0218  1.0000</r>
       <r>   3.9857  1.0000</r>
       <r>   3.9857  1.0000</r>
       <r>   3.9857  1.0000</r>
       <r>   3.9857  1.0000</r>
       <r>   4.0026  1.0000</r>
       <r>   4.0027  1.0000</r>
       <r>   4.0027  1.0000</r>
       <r>   4.0027  1.0000</r>
       <r>   4.2167  1.0000</r>
       <r>   4.2167  1.0000</r>
       <r>   4.8544  1.0000</r>
       <r>   4.8544  1.0000</r>
       <r>   5.1932  1.0000</r>
       <r>   5.1932  1.0000</r>
       <r>   5.8632  1.0000</r>
       <r>   5.8632  1.0000</r>
       <r>   5.9410  1.0000</r>
       <r>   5.9410  1.0000</r>
       <r>   5.9410  1.0000</r>
       <r>   5.9410  1.0000</r>
       <r>   6.1309  1.0000</r>
       <r>   6.1309  1.0000</r>
       <r>   6.1309  1.0000</r>
       <r>   6.1309  1.0000</r>
       <r>   6.7691  0.0000</r>
       <r>   6.7691  0.0000</r>
       <r>   6.7691  0.0000</r>
       <r>   6.7691  0.0000</r>
       <r>   7.1831  0.0000</r>
       <r>   7.1831  0.0000</r>
       <r>   7.1831  0.0000</r>
       <r>   7.1831  0.0000</r>
       <r>   7.3633  0.0000</r>
       <r>   7.4091  0.0000</r>
       <r>   7.4091  0.0000</r>
       <r>   7.8352  0.0000</r>
       <r>   7.8352  0.0000</r>
       <r>   7.8352  0.0000</r>
       <r>   7.8352  0.0000</r>
       <r>   8.4626  0.0000</r>
       <r>   8.4626  0.0000</r>
       <r>   9.2870  0.0000</r>
       <r>   9.2895  0.0000</r>
       <r>   9.3027  0.0000</r>
      </set>
      <set comment="kpoint 6">
       <r>  -3.2411  1.0000</r>
       <r>  -2.8990  1.0000</r>
       <r>  -1.1995  1.0000</r>
       <r>  -1.1995  1.0000</r>
       <r>  -1.1995  1.0000</r>
       <r>  -1.1994  1.0000</r>
       <r>  -0.8618  1.0000</r>
       <r>  -0.8618  1.0000</r>
       <r>  -0.8618  1.0000</r>
       <r>  -0.8617  1.0000</r>
       <r>   0.4808  1.0000</r>
       <r>   0.8160  1.0000</r>
       <r>   0.8160  1.0000</r>
       <r>   0.8160  1.0000</r>
       <r>   0.8161  1.0000</r>
       <r>   1.1491  1.0000</r>
       <r>   1.1491  1.0000</r>
       <r>   1.1491  1.0000</r>
       <r>   1.1491  1.0000</r>
       <r>   1.4773  1.0000</r>
       <r>   2.4758  1.0000</r>
       <r>   2.4758  1.0000</r>
       <r>   2.4758  1.0000</r>
       <r>   2.4758  1.0000</r>
       <r>   3.4591  1.0000</r>
       <r>   3.4591  1.0000</r>
       <r>   3.4591  1.0000</r>
       <r>   3.4591  1.0000</r>
       <r>   4.3362  1.0000</r>
       <r>   4.3362  1.0000</r>
       <r>   4.4508  1.0000</r>
       <r>   4.4508  1.0000</r>
       <r>   4.4508  1.0000</r>
       <r>   4.4508  1.0000</r>
       <r>   4.6551  1.0000</r>
       <r>   4.6551  1.0000</r>
       <r>   5.3193  1.0000</r>
       <r>   5.3193  1.0000</r>
       <r>   5.4214  1.0000</r>
       <r>   5.4214  1.0000</r>
       <r>   5.4214  1.0000</r>
       <r>   5.4214  1.0000</r>
       <r>   5.6546  1.0000</r>
       <r>   5.6546  1.0000</r>
       <r>   6.2506  1.0000</r>
       <r>   6.2506  1.0000</r>
       <r>   6.2506  1.0000</r>
       <r>   6.2506  1.0000</r>
       <r>   6.5697  0.9887</r>
       <r>   6.5697  0.9887</r>
       <r>   6.5697  0.9887</r>
       <r>   6.5697  0.9887</r>
       <r>   7.3059  0.0000</r>
       <r>   7.3059  0.0000</r>
       <r>   7.3059  0.0000</r>
       <r>   7.3059  0.0000</r>
       <r>   7.6321  0.0000</r>
       <r>   7.6321  0.0000</r>
       <r>   7.6321  0.0000</r>
       <r>   7.6321  0.0000</r>
       <r>   7.8486  0.0000</r>
       <r>   7.8486  0.0000</r>
       <r>   8.1232  0.0000</r>
       <r>   8.8076  0.0000</r>
       <r>   8.8076  0.0000</r>
       <r>   8.8911  0.0000</r>
       <r>   8.8911  0.0000</r>
       <r>   9.7231  0.0000</r>
      </set>
      <set comment="kpoint 7">
       <r>  -3.0855  1.0000</r>
       <r>  -3.0829  1.0000</r>
       <r>  -1.0482  1.0000</r>
       <r>  -1.0453  1.0000</r>
       <r>  -1.0453  1.0000</r>
       <r>  -1.0447  1.0000</r>
       <r>  -1.0445  1.0000</r>
       <r>  -1.0439  1.0000</r>
       <r>  -1.0439  1.0000</r>
       <r>  -1.0410  1.0000</r>
       <r>   0.9631  1.0000</r>
       <r>   0.9666  1.0000</r>
       <r>   0.9676  1.0000</r>
       <r>   0.9676  1.0000</r>
       <r>   0.9682  1.0000</r>
       <r>   0.9685  1.0000</r>
       <r>   0.9691  1.0000</r>
       <r>   0.9700  1.0000</r>
       <r>   0.9700  1.0000</r>
       <r>   0.9728  1.0000</r>
       <r>   2.9538  1.0000</r>
       <r>   2.9545  1.0000</r>
       <r>   2.9545  1.0000</r>
       <r>   2.9551  1.0000</r>
       <r>   2.9553  1.0000</r>
       <r>   2.9559  1.0000</r>
       <r>   2.9559  1.0000</r>
       <r>   2.9567  1.0000</r>
       <r>   4.4810  1.0000</r>
       <r>   4.4810  1.0000</r>
       <r>   4.4837  1.0000</r>
       <r>   4.4837  1.0000</r>
       <r>   4.9230  1.0000</r>
       <r>   4.9230  1.0000</r>
       <r>   4.9237  1.0000</r>
       <r>   4.9237  1.0000</r>
       <r>   4.9244  1.0000</r>
       <r>   4.9245  1.0000</r>
       <r>   4.9252  1.0000</r>
       <r>   4.9252  1.0000</r>
       <r>   5.4716  1.0000</r>
       <r>   5.4723  1.0000</r>
       <r>   5.4741  1.0000</r>
       <r>   5.4748  1.0000</r>
       <r>   6.3947  1.0000</r>
       <r>   6.3947  1.0000</r>
       <r>   6.3957  1.0000</r>
       <r>   6.3967  1.0000</r>
       <r>   6.3969  1.0000</r>
       <r>   6.3980  1.0000</r>
       <r>   6.3990  1.0000</r>
       <r>   6.3990  1.0000</r>
       <r>   7.4534  0.0000</r>
       <r>   7.4547  0.0000</r>
       <r>   7.4547  0.0000</r>
       <r>   7.4548  0.0000</r>
       <r>   7.4565  0.0000</r>
       <r>   7.4565  0.0000</r>
       <r>   7.4565  0.0000</r>
       <r>   7.4579  0.0000</r>
       <r>   8.3137  0.0000</r>
       <r>   8.3137  0.0000</r>
       <r>   8.3159  0.0000</r>
       <r>   8.3159  0.0000</r>
       <r>   8.9084  0.0000</r>
       <r>   8.9100  0.0000</r>
       <r>   9.3356  0.0000</r>
       <r>   9.3366  0.0000</r>
      </set>
      <set comment="kpoint 8">
       <r>  -3.5839  1.0000</r>
       <r>  -1.8770  1.0000</r>
       <r>  -1.5405  1.0000</r>
       <r>  -1.5378  1.0000</r>
       <r>  -1.5378  1.0000</r>
       <r>  -1.5352  1.0000</r>
       <r>  -1.1994  1.0000</r>
       <r>   0.1446  1.0000</r>
       <r>   0.1473  1.0000</r>
       <r>   0.1473  1.0000</r>
       <r>   0.1499  1.0000</r>
       <r>   0.4801  1.0000</r>
       <r>   0.4812  1.0000</r>
       <r>   0.4832  1.0000</r>
       <r>   0.4843  1.0000</r>
       <r>   0.8138  1.0000</r>
       <r>   0.8165  1.0000</r>
       <r>   0.8165  1.0000</r>
       <r>   0.8192  1.0000</r>
       <r>   2.1360  1.0000</r>
       <r>   2.1370  1.0000</r>
       <r>   2.1390  1.0000</r>
       <r>   2.1401  1.0000</r>
       <r>   2.8172  1.0000</r>
       <r>   2.8183  1.0000</r>
       <r>   2.8203  1.0000</r>
       <r>   2.8214  1.0000</r>
       <r>   3.6826  1.0000</r>
       <r>   4.0175  1.0000</r>
       <r>   4.0176  1.0000</r>
       <r>   4.9824  1.0000</r>
       <r>   4.9825  1.0000</r>
       <r>   5.3152  1.0000</r>
       <r>   5.6114  1.0000</r>
       <r>   5.6123  1.0000</r>
       <r>   5.6162  1.0000</r>
       <r>   5.6185  1.0000</r>
       <r>   5.6185  1.0000</r>
       <r>   5.6216  1.0000</r>
       <r>   5.9290  1.0000</r>
       <r>   5.9315  1.0000</r>
       <r>   5.9315  1.0000</r>
       <r>   5.9340  1.0000</r>
       <r>   6.2509  1.0000</r>
       <r>   6.2509  1.0000</r>
       <r>   6.6490  0.0000</r>
       <r>   6.6490  0.0000</r>
       <r>   6.9749  0.0000</r>
       <r>   6.9767  0.0000</r>
       <r>   6.9767  0.0000</r>
       <r>   6.9785  0.0000</r>
       <r>   7.2869  0.0000</r>
       <r>   7.2895  0.0000</r>
       <r>   7.2895  0.0000</r>
       <r>   7.2920  0.0000</r>
       <r>   7.3043  0.0000</r>
       <r>   7.3044  0.0000</r>
       <r>   7.5245  0.0000</r>
       <r>   7.5269  0.0000</r>
       <r>   7.5271  0.0000</r>
       <r>   7.5296  0.0000</r>
       <r>   7.5424  0.0000</r>
       <r>   7.5439  0.0000</r>
       <r>   7.5458  0.0000</r>
       <r>   7.5474  0.0000</r>
       <r>   8.1632  0.0000</r>
       <r>   8.1654  0.0000</r>
       <r>   8.1676  0.0000</r>
      </set>
      <set comment="kpoint 9">
       <r>  -3.5696  1.0000</r>
       <r>  -1.8640  1.0000</r>
       <r>  -1.8618  1.0000</r>
       <r>  -1.5237  1.0000</r>
       <r>  -1.5237  1.0000</r>
       <r>  -1.1864  1.0000</r>
       <r>  -1.1842  1.0000</r>
       <r>  -0.1744  1.0000</r>
       <r>   0.1597  1.0000</r>
       <r>   0.1606  1.0000</r>
       <r>   0.1619  1.0000</r>
       <r>   0.1628  1.0000</r>
       <r>   0.4956  1.0000</r>
       <r>   0.4967  1.0000</r>
       <r>   0.8289  1.0000</r>
       <r>   0.8297  1.0000</r>
       <r>   0.8310  1.0000</r>
       <r>   0.8319  1.0000</r>
       <r>   1.1639  1.0000</r>
       <r>   1.8251  1.0000</r>
       <r>   1.8251  1.0000</r>
       <r>   2.4115  1.0000</r>
       <r>   2.4115  1.0000</r>
       <r>   2.5739  1.0000</r>
       <r>   2.5739  1.0000</r>
       <r>   3.1578  1.0000</r>
       <r>   3.1578  1.0000</r>
       <r>   3.6956  1.0000</r>
       <r>   3.6965  1.0000</r>
       <r>   4.0308  1.0000</r>
       <r>   4.9965  1.0000</r>
       <r>   5.3089  1.0000</r>
       <r>   5.3110  1.0000</r>
       <r>   5.3287  1.0000</r>
       <r>   5.3295  1.0000</r>
       <r>   5.6221  1.0000</r>
       <r>   5.6227  1.0000</r>
       <r>   5.6247  1.0000</r>
       <r>   5.6270  1.0000</r>
       <r>   5.6411  1.0000</r>
       <r>   5.6412  1.0000</r>
       <r>   5.9528  1.0000</r>
       <r>   5.9539  1.0000</r>
       <r>   6.2630  1.0000</r>
       <r>   6.2654  1.0000</r>
       <r>   6.6626  0.0000</r>
       <r>   6.6645  0.0000</r>
       <r>   6.9752  0.0000</r>
       <r>   6.9760  0.0000</r>
       <r>   7.2211  0.0000</r>
       <r>   7.2363  0.0000</r>
       <r>   7.2372  0.0000</r>
       <r>   7.2385  0.0000</r>
       <r>   7.2393  0.0000</r>
       <r>   7.2853  0.0000</r>
       <r>   7.2853  0.0000</r>
       <r>   7.3167  0.0000</r>
       <r>   7.3184  0.0000</r>
       <r>   7.3185  0.0000</r>
       <r>   7.3200  0.0000</r>
       <r>   7.6244  0.0000</r>
       <r>   7.6263  0.0000</r>
       <r>   7.8587  0.0000</r>
       <r>   7.8606  0.0000</r>
       <r>   7.8769  0.0000</r>
       <r>   7.8780  0.0000</r>
       <r>   7.8782  0.0000</r>
       <r>   7.8792  0.0000</r>
      </set>
      <set comment="kpoint 10">
       <r>  -3.5267  1.0000</r>
       <r>  -2.1602  1.0000</r>
       <r>  -1.8205  1.0000</r>
       <r>  -1.4814  1.0000</r>
       <r>  -1.4814  1.0000</r>
       <r>  -1.1430  1.0000</r>
       <r>  -0.8055  1.0000</r>
       <r>  -0.4686  1.0000</r>
       <r>  -0.1324  1.0000</r>
       <r>  -0.1324  1.0000</r>
       <r>   0.2025  1.0000</r>
       <r>   0.2031  1.0000</r>
       <r>   0.2037  1.0000</r>
       <r>   0.8714  1.0000</r>
       <r>   0.8720  1.0000</r>
       <r>   0.8727  1.0000</r>
       <r>   1.2055  1.0000</r>
       <r>   1.2055  1.0000</r>
       <r>   1.5359  1.0000</r>
       <r>   1.5361  1.0000</r>
       <r>   1.5384  1.0000</r>
       <r>   2.1935  1.0000</r>
       <r>   2.1935  1.0000</r>
       <r>   2.8737  1.0000</r>
       <r>   2.8737  1.0000</r>
       <r>   3.1476  1.0000</r>
       <r>   3.5261  1.0000</r>
       <r>   3.5261  1.0000</r>
       <r>   3.7365  1.0000</r>
       <r>   4.0706  1.0000</r>
       <r>   4.7769  1.0000</r>
       <r>   5.0280  1.0000</r>
       <r>   5.0387  1.0000</r>
       <r>   5.1010  1.0000</r>
       <r>   5.1011  1.0000</r>
       <r>   5.3463  1.0000</r>
       <r>   5.3706  1.0000</r>
       <r>   5.4250  1.0000</r>
       <r>   5.6654  1.0000</r>
       <r>   5.6725  1.0000</r>
       <r>   5.6725  1.0000</r>
       <r>   5.9530  1.0000</r>
       <r>   6.3041  1.0000</r>
       <r>   6.3119  1.0000</r>
       <r>   6.3782  1.0000</r>
       <r>   6.6235  0.0000</r>
       <r>   6.6906  0.0000</r>
       <r>   6.7050  0.0000</r>
       <r>   6.7176  0.0000</r>
       <r>   6.7178  0.0000</r>
       <r>   6.9419  0.0000</r>
       <r>   6.9573  0.0000</r>
       <r>   6.9573  0.0000</r>
       <r>   7.3422  0.0000</r>
       <r>   7.3423  0.0000</r>
       <r>   7.3566  0.0000</r>
       <r>   7.3606  0.0000</r>
       <r>   7.3611  0.0000</r>
       <r>   7.5804  0.0000</r>
       <r>   7.5847  0.0000</r>
       <r>   7.6810  0.0000</r>
       <r>   7.9061  0.0000</r>
       <r>   7.9061  0.0000</r>
       <r>   7.9863  0.0000</r>
       <r>   8.0114  0.0000</r>
       <r>   8.2207  0.0000</r>
       <r>   8.2322  0.0000</r>
       <r>   8.2375  0.0000</r>
      </set>
      <set comment="kpoint 11">
       <r>  -3.4552  1.0000</r>
       <r>  -2.4298  1.0000</r>
       <r>  -1.7498  1.0000</r>
       <r>  -1.4109  1.0000</r>
       <r>  -1.4109  1.0000</r>
       <r>  -1.0727  1.0000</r>
       <r>  -0.7353  1.0000</r>
       <r>  -0.4003  1.0000</r>
       <r>  -0.3985  1.0000</r>
       <r>  -0.3968  1.0000</r>
       <r>  -0.0625  1.0000</r>
       <r>   0.2728  1.0000</r>
       <r>   0.2728  1.0000</r>
       <r>   0.9415  1.0000</r>
       <r>   0.9415  1.0000</r>
       <r>   1.2722  1.0000</r>
       <r>   1.2734  1.0000</r>
       <r>   1.2759  1.0000</r>
       <r>   1.6073  1.0000</r>
       <r>   1.6073  1.0000</r>
       <r>   1.9352  1.0000</r>
       <r>   1.9360  1.0000</r>
       <r>   1.9400  1.0000</r>
       <r>   2.5801  1.0000</r>
       <r>   3.2667  1.0000</r>
       <r>   3.2667  1.0000</r>
       <r>   3.8039  1.0000</r>
       <r>   3.9215  1.0000</r>
       <r>   3.9215  1.0000</r>
       <r>   4.1370  1.0000</r>
       <r>   4.2192  1.0000</r>
       <r>   4.5451  1.0000</r>
       <r>   4.5451  1.0000</r>
       <r>   4.7728  1.0000</r>
       <r>   4.8707  1.0000</r>
       <r>   5.0937  1.0000</r>
       <r>   5.1090  1.0000</r>
       <r>   5.4400  1.0000</r>
       <r>   5.7319  1.0000</r>
       <r>   5.7395  1.0000</r>
       <r>   5.7395  1.0000</r>
       <r>   6.1124  1.0000</r>
       <r>   6.1695  1.0000</r>
       <r>   6.1696  1.0000</r>
       <r>   6.3705  1.0000</r>
       <r>   6.4313  1.0000</r>
       <r>   6.6462  0.0000</r>
       <r>   6.6892  0.0000</r>
       <r>   6.7013  0.0000</r>
       <r>   6.7034  0.0000</r>
       <r>   6.7053  0.0000</r>
       <r>   6.7739  0.0000</r>
       <r>   6.8149  0.0000</r>
       <r>   6.8149  0.0000</r>
       <r>   7.0096  0.0000</r>
       <r>   7.3278  0.0000</r>
       <r>   7.4104  0.0000</r>
       <r>   7.4104  0.0000</r>
       <r>   7.4260  0.0000</r>
       <r>   7.7551  0.0000</r>
       <r>   8.0675  0.0000</r>
       <r>   8.2644  0.0000</r>
       <r>   8.3707  0.0000</r>
       <r>   8.3804  0.0000</r>
       <r>   8.3806  0.0000</r>
       <r>   8.3984  0.0000</r>
       <r>   8.5850  0.0000</r>
       <r>   8.5908  0.0000</r>
      </set>
      <set comment="kpoint 12">
       <r>  -3.3553  1.0000</r>
       <r>  -2.6713  1.0000</r>
       <r>  -1.6509  1.0000</r>
       <r>  -1.3122  1.0000</r>
       <r>  -1.3122  1.0000</r>
       <r>  -0.9748  1.0000</r>
       <r>  -0.9737  1.0000</r>
       <r>  -0.6370  1.0000</r>
       <r>  -0.6370  1.0000</r>
       <r>  -0.3005  1.0000</r>
       <r>   0.0349  1.0000</r>
       <r>   0.3704  1.0000</r>
       <r>   0.3704  1.0000</r>
       <r>   1.0374  1.0000</r>
       <r>   1.0377  1.0000</r>
       <r>   1.0388  1.0000</r>
       <r>   1.0390  1.0000</r>
       <r>   1.7022  1.0000</r>
       <r>   1.7024  1.0000</r>
       <r>   1.7039  1.0000</r>
       <r>   2.0252  1.0000</r>
       <r>   2.0354  1.0000</r>
       <r>   2.0355  1.0000</r>
       <r>   2.3665  1.0000</r>
       <r>   3.6718  1.0000</r>
       <r>   3.6889  1.0000</r>
       <r>   3.6889  1.0000</r>
       <r>   3.8982  1.0000</r>
       <r>   3.9993  1.0000</r>
       <r>   3.9993  1.0000</r>
       <r>   4.2300  1.0000</r>
       <r>   4.3261  1.0000</r>
       <r>   4.3433  1.0000</r>
       <r>   4.3433  1.0000</r>
       <r>   4.5443  1.0000</r>
       <r>   4.8677  1.0000</r>
       <r>   5.2072  1.0000</r>
       <r>   5.5368  1.0000</r>
       <r>   5.6303  1.0000</r>
       <r>   5.6303  1.0000</r>
       <r>   5.8249  1.0000</r>
       <r>   5.8333  1.0000</r>
       <r>   5.8333  1.0000</r>
       <r>   5.8771  1.0000</r>
       <r>   6.1983  1.0000</r>
       <r>   6.2780  1.0000</r>
       <r>   6.2780  1.0000</r>
       <r>   6.4625  1.0000</r>
       <r>   6.4642  1.0000</r>
       <r>   6.4760  1.0000</r>
       <r>   6.4760  1.0000</r>
       <r>   6.8700  0.0000</r>
       <r>   7.1018  0.0000</r>
       <r>   7.1170  0.0000</r>
       <r>   7.3768  0.0000</r>
       <r>   7.4224  0.0000</r>
       <r>   7.5053  0.0000</r>
       <r>   7.5053  0.0000</r>
       <r>   7.5212  0.0000</r>
       <r>   7.5249  0.0000</r>
       <r>   8.1525  0.0000</r>
       <r>   8.1525  0.0000</r>
       <r>   8.1702  0.0000</r>
       <r>   8.4760  0.0000</r>
       <r>   8.7778  0.0000</r>
       <r>   8.9852  0.0000</r>
       <r>   9.0210  0.0000</r>
       <r>   9.0277  0.0000</r>
      </set>
      <set comment="kpoint 13">
       <r>  -3.2268  1.0000</r>
       <r>  -2.8847  1.0000</r>
       <r>  -1.5238  1.0000</r>
       <r>  -1.1867  1.0000</r>
       <r>  -1.1854  1.0000</r>
       <r>  -1.1842  1.0000</r>
       <r>  -0.8489  1.0000</r>
       <r>  -0.8477  1.0000</r>
       <r>  -0.8464  1.0000</r>
       <r>  -0.5107  1.0000</r>
       <r>   0.4939  1.0000</r>
       <r>   0.4958  1.0000</r>
       <r>   0.4966  1.0000</r>
       <r>   0.8296  1.0000</r>
       <r>   0.8296  1.0000</r>
       <r>   1.1634  1.0000</r>
       <r>   1.1634  1.0000</r>
       <r>   1.4908  1.0000</r>
       <r>   1.4955  1.0000</r>
       <r>   1.4959  1.0000</r>
       <r>   2.1587  1.0000</r>
       <r>   2.4895  1.0000</r>
       <r>   2.4895  1.0000</r>
       <r>   2.8197  1.0000</r>
       <r>   3.1441  1.0000</r>
       <r>   3.4727  1.0000</r>
       <r>   3.4727  1.0000</r>
       <r>   3.8008  1.0000</r>
       <r>   4.0194  1.0000</r>
       <r>   4.1376  1.0000</r>
       <r>   4.1376  1.0000</r>
       <r>   4.3425  1.0000</r>
       <r>   4.3495  1.0000</r>
       <r>   4.6684  1.0000</r>
       <r>   4.7907  1.0000</r>
       <r>   4.7907  1.0000</r>
       <r>   5.1098  1.0000</r>
       <r>   5.1098  1.0000</r>
       <r>   5.3334  1.0000</r>
       <r>   5.6612  1.0000</r>
       <r>   5.6685  1.0000</r>
       <r>   5.7595  1.0000</r>
       <r>   5.7595  1.0000</r>
       <r>   5.9446  1.0000</r>
       <r>   5.9538  1.0000</r>
       <r>   5.9539  1.0000</r>
       <r>   5.9922  1.0000</r>
       <r>   6.2637  1.0000</r>
       <r>   6.2752  1.0000</r>
       <r>   6.2753  1.0000</r>
       <r>   6.5832  0.6411</r>
       <r>   6.9023  0.0000</r>
       <r>   6.9933  0.0000</r>
       <r>   7.3209  0.0000</r>
       <r>   7.5567  0.0000</r>
       <r>   7.6270  0.0000</r>
       <r>   7.6270  0.0000</r>
       <r>   7.6435  0.0000</r>
       <r>   7.8619  0.0000</r>
       <r>   7.9508  0.0000</r>
       <r>   7.9508  0.0000</r>
       <r>   7.9681  0.0000</r>
       <r>   8.1367  0.0000</r>
       <r>   8.5120  0.0000</r>
       <r>   8.8208  0.0000</r>
       <r>   8.9044  0.0000</r>
       <r>   9.2051  0.0000</r>
       <r>   9.4635  0.0000</r>
      </set>
      <set comment="kpoint 14">
       <r>  -3.0712  1.0000</r>
       <r>  -3.0686  1.0000</r>
       <r>  -1.3699  1.0000</r>
       <r>  -1.3673  1.0000</r>
       <r>  -1.0324  1.0000</r>
       <r>  -1.0313  1.0000</r>
       <r>  -1.0298  1.0000</r>
       <r>  -1.0287  1.0000</r>
       <r>  -0.6944  1.0000</r>
       <r>  -0.6918  1.0000</r>
       <r>   0.6470  1.0000</r>
       <r>   0.6481  1.0000</r>
       <r>   0.6496  1.0000</r>
       <r>   0.6507  1.0000</r>
       <r>   0.9797  1.0000</r>
       <r>   0.9812  1.0000</r>
       <r>   1.3139  1.0000</r>
       <r>   1.3150  1.0000</r>
       <r>   1.3165  1.0000</r>
       <r>   1.3176  1.0000</r>
       <r>   2.6384  1.0000</r>
       <r>   2.6399  1.0000</r>
       <r>   2.9681  1.0000</r>
       <r>   2.9682  1.0000</r>
       <r>   2.9696  1.0000</r>
       <r>   2.9697  1.0000</r>
       <r>   3.2973  1.0000</r>
       <r>   3.2988  1.0000</r>
       <r>   4.1662  1.0000</r>
       <r>   4.1689  1.0000</r>
       <r>   4.4943  1.0000</r>
       <r>   4.4970  1.0000</r>
       <r>   4.6108  1.0000</r>
       <r>   4.6109  1.0000</r>
       <r>   4.6123  1.0000</r>
       <r>   4.6124  1.0000</r>
       <r>   5.2624  1.0000</r>
       <r>   5.2624  1.0000</r>
       <r>   5.2639  1.0000</r>
       <r>   5.2639  1.0000</r>
       <r>   5.4860  1.0000</r>
       <r>   5.4884  1.0000</r>
       <r>   5.8119  1.0000</r>
       <r>   5.8144  1.0000</r>
       <r>   6.0894  1.0000</r>
       <r>   6.0922  1.0000</r>
       <r>   6.0991  1.0000</r>
       <r>   6.1006  1.0000</r>
       <r>   6.1019  1.0000</r>
       <r>   6.1032  1.0000</r>
       <r>   6.7281  0.0000</r>
       <r>   6.7309  0.0000</r>
       <r>   7.1424  0.0000</r>
       <r>   7.1449  0.0000</r>
       <r>   7.7739  0.0000</r>
       <r>   7.7748  0.0000</r>
       <r>   7.7765  0.0000</r>
       <r>   7.7772  0.0000</r>
       <r>   7.7913  0.0000</r>
       <r>   7.7937  0.0000</r>
       <r>   8.0209  0.0000</r>
       <r>   8.0228  0.0000</r>
       <r>   8.3269  0.0000</r>
       <r>   8.3292  0.0000</r>
       <r>   8.9217  0.0000</r>
       <r>   8.9233  0.0000</r>
       <r>   9.3493  0.0000</r>
       <r>   9.3500  0.0000</r>
      </set>
      <set comment="kpoint 15">
       <r>  -3.5410  1.0000</r>
       <r>  -2.1744  1.0000</r>
       <r>  -1.4982  1.0000</r>
       <r>  -1.4955  1.0000</r>
       <r>  -1.4955  1.0000</r>
       <r>  -1.4928  1.0000</r>
       <r>  -0.8195  1.0000</r>
       <r>  -0.1491  1.0000</r>
       <r>  -0.1464  1.0000</r>
       <r>  -0.1464  1.0000</r>
       <r>  -0.1437  1.0000</r>
       <r>   0.5219  1.0000</r>
       <r>   0.5230  1.0000</r>
       <r>   0.5250  1.0000</r>
       <r>   0.5261  1.0000</r>
       <r>   1.1890  1.0000</r>
       <r>   1.1916  1.0000</r>
       <r>   1.1916  1.0000</r>
       <r>   1.1943  1.0000</r>
       <r>   1.8507  1.0000</r>
       <r>   1.8518  1.0000</r>
       <r>   1.8538  1.0000</r>
       <r>   1.8549  1.0000</r>
       <r>   3.1340  1.0000</r>
       <r>   3.1829  1.0000</r>
       <r>   3.1840  1.0000</r>
       <r>   3.1860  1.0000</r>
       <r>   3.1872  1.0000</r>
       <r>   4.0574  1.0000</r>
       <r>   4.0574  1.0000</r>
       <r>   5.0246  1.0000</r>
       <r>   5.0247  1.0000</r>
       <r>   5.0849  1.0000</r>
       <r>   5.0877  1.0000</r>
       <r>   5.0877  1.0000</r>
       <r>   5.0905  1.0000</r>
       <r>   5.3330  1.0000</r>
       <r>   5.3330  1.0000</r>
       <r>   5.9393  1.0000</r>
       <r>   5.9689  1.0000</r>
       <r>   5.9714  1.0000</r>
       <r>   5.9714  1.0000</r>
       <r>   5.9739  1.0000</r>
       <r>   6.3610  1.0000</r>
       <r>   6.3610  1.0000</r>
       <r>   6.6103  0.0003</r>
       <r>   6.6103  0.0003</r>
       <r>   7.0169  0.0000</r>
       <r>   7.0188  0.0000</r>
       <r>   7.0189  0.0000</r>
       <r>   7.0206  0.0000</r>
       <r>   7.0238  0.0000</r>
       <r>   7.0250  0.0000</r>
       <r>   7.0269  0.0000</r>
       <r>   7.0284  0.0000</r>
       <r>   7.2453  0.0000</r>
       <r>   7.2478  0.0000</r>
       <r>   7.2479  0.0000</r>
       <r>   7.2504  0.0000</r>
       <r>   7.6674  0.0000</r>
       <r>   7.6674  0.0000</r>
       <r>   7.8900  0.0000</r>
       <r>   7.8925  0.0000</r>
       <r>   7.8925  0.0000</r>
       <r>   7.8951  0.0000</r>
       <r>   8.3183  0.0000</r>
       <r>   8.3197  0.0000</r>
       <r>   8.3213  0.0000</r>
      </set>
      <set comment="kpoint 16">
       <r>  -3.5267  1.0000</r>
       <r>  -2.1602  1.0000</r>
       <r>  -1.8205  1.0000</r>
       <r>  -1.4814  1.0000</r>
       <r>  -1.4814  1.0000</r>
       <r>  -1.1430  1.0000</r>
       <r>  -0.8055  1.0000</r>
       <r>  -0.4686  1.0000</r>
       <r>  -0.1324  1.0000</r>
       <r>  -0.1324  1.0000</r>
       <r>   0.2017  1.0000</r>
       <r>   0.2031  1.0000</r>
       <r>   0.2045  1.0000</r>
       <r>   0.8706  1.0000</r>
       <r>   0.8720  1.0000</r>
       <r>   0.8734  1.0000</r>
       <r>   1.2055  1.0000</r>
       <r>   1.2055  1.0000</r>
       <r>   1.5359  1.0000</r>
       <r>   1.5361  1.0000</r>
       <r>   1.5384  1.0000</r>
       <r>   2.1935  1.0000</r>
       <r>   2.1935  1.0000</r>
       <r>   2.8737  1.0000</r>
       <r>   2.8737  1.0000</r>
       <r>   3.1476  1.0000</r>
       <r>   3.5261  1.0000</r>
       <r>   3.5261  1.0000</r>
       <r>   3.7365  1.0000</r>
       <r>   4.0706  1.0000</r>
       <r>   4.7768  1.0000</r>
       <r>   5.0280  1.0000</r>
       <r>   5.0388  1.0000</r>
       <r>   5.1010  1.0000</r>
       <r>   5.1010  1.0000</r>
       <r>   5.3463  1.0000</r>
       <r>   5.3707  1.0000</r>
       <r>   5.4250  1.0000</r>
       <r>   5.6653  1.0000</r>
       <r>   5.6725  1.0000</r>
       <r>   5.6727  1.0000</r>
       <r>   5.9530  1.0000</r>
       <r>   6.3041  1.0000</r>
       <r>   6.3119  1.0000</r>
       <r>   6.3782  1.0000</r>
       <r>   6.6235  0.0000</r>
       <r>   6.6906  0.0000</r>
       <r>   6.7051  0.0000</r>
       <r>   6.7176  0.0000</r>
       <r>   6.7176  0.0000</r>
       <r>   6.9418  0.0000</r>
       <r>   6.9574  0.0000</r>
       <r>   6.9574  0.0000</r>
       <r>   7.3422  0.0000</r>
       <r>   7.3423  0.0000</r>
       <r>   7.3571  0.0000</r>
       <r>   7.3606  0.0000</r>
       <r>   7.3606  0.0000</r>
       <r>   7.5804  0.0000</r>
       <r>   7.5847  0.0000</r>
       <r>   7.6810  0.0000</r>
       <r>   7.9060  0.0000</r>
       <r>   7.9061  0.0000</r>
       <r>   7.9863  0.0000</r>
       <r>   8.0114  0.0000</r>
       <r>   8.2229  0.0000</r>
       <r>   8.2262  0.0000</r>
       <r>   8.2376  0.0000</r>
      </set>
      <set comment="kpoint 17">
       <r>  -3.4838  1.0000</r>
       <r>  -2.1188  1.0000</r>
       <r>  -2.1167  1.0000</r>
       <r>  -1.4391  1.0000</r>
       <r>  -1.4391  1.0000</r>
       <r>  -0.7651  1.0000</r>
       <r>  -0.7634  1.0000</r>
       <r>  -0.7616  1.0000</r>
       <r>  -0.0920  1.0000</r>
       <r>  -0.0911  1.0000</r>
       <r>  -0.0898  1.0000</r>
       <r>  -0.0889  1.0000</r>
       <r>   0.5791  1.0000</r>
       <r>   0.5802  1.0000</r>
       <r>   1.2441  1.0000</r>
       <r>   1.2451  1.0000</r>
       <r>   1.2465  1.0000</r>
       <r>   1.2467  1.0000</r>
       <r>   1.2479  1.0000</r>
       <r>   1.2491  1.0000</r>
       <r>   1.9118  1.0000</r>
       <r>   2.4964  1.0000</r>
       <r>   2.4964  1.0000</r>
       <r>   2.6539  1.0000</r>
       <r>   2.6539  1.0000</r>
       <r>   3.1880  1.0000</r>
       <r>   3.1890  1.0000</r>
       <r>   3.8945  1.0000</r>
       <r>   3.8945  1.0000</r>
       <r>   4.1105  1.0000</r>
       <r>   4.4915  1.0000</r>
       <r>   4.4937  1.0000</r>
       <r>   5.0808  1.0000</r>
       <r>   5.1222  1.0000</r>
       <r>   5.1223  1.0000</r>
       <r>   5.1616  1.0000</r>
       <r>   5.1616  1.0000</r>
       <r>   5.3850  1.0000</r>
       <r>   5.3874  1.0000</r>
       <r>   5.7879  1.0000</r>
       <r>   5.7888  1.0000</r>
       <r>   5.9937  1.0000</r>
       <r>   5.9947  1.0000</r>
       <r>   6.4161  1.0000</r>
       <r>   6.4181  1.0000</r>
       <r>   6.4343  1.0000</r>
       <r>   6.4351  1.0000</r>
       <r>   6.4364  1.0000</r>
       <r>   6.4374  1.0000</r>
       <r>   6.6610  0.0000</r>
       <r>   6.6631  0.0000</r>
       <r>   6.6653  0.0000</r>
       <r>   7.2997  0.0000</r>
       <r>   7.3004  0.0000</r>
       <r>   7.7194  0.0000</r>
       <r>   7.7209  0.0000</r>
       <r>   7.7212  0.0000</r>
       <r>   7.7212  0.0000</r>
       <r>   7.7220  0.0000</r>
       <r>   7.7236  0.0000</r>
       <r>   7.7287  0.0000</r>
       <r>   7.9347  0.0000</r>
       <r>   7.9349  0.0000</r>
       <r>   7.9388  0.0000</r>
       <r>   7.9406  0.0000</r>
       <r>   7.9574  0.0000</r>
       <r>   7.9574  0.0000</r>
       <r>   8.5842  0.0000</r>
      </set>
      <set comment="kpoint 18">
       <r>  -3.4124  1.0000</r>
       <r>  -2.3872  1.0000</r>
       <r>  -2.0469  1.0000</r>
       <r>  -1.3686  1.0000</r>
       <r>  -1.3686  1.0000</r>
       <r>  -1.0306  1.0000</r>
       <r>  -0.6931  1.0000</r>
       <r>  -0.3583  1.0000</r>
       <r>  -0.3565  1.0000</r>
       <r>  -0.3548  1.0000</r>
       <r>  -0.0206  1.0000</r>
       <r>  -0.0206  1.0000</r>
       <r>   0.3147  1.0000</r>
       <r>   0.9808  1.0000</r>
       <r>   0.9822  1.0000</r>
       <r>   0.9844  1.0000</r>
       <r>   1.3163  1.0000</r>
       <r>   1.3163  1.0000</r>
       <r>   1.6487  1.0000</r>
       <r>   1.6487  1.0000</r>
       <r>   2.3040  1.0000</r>
       <r>   2.3044  1.0000</r>
       <r>   2.3122  1.0000</r>
       <r>   2.6213  1.0000</r>
       <r>   2.9825  1.0000</r>
       <r>   2.9825  1.0000</r>
       <r>   3.2566  1.0000</r>
       <r>   3.9333  1.0000</r>
       <r>   4.1769  1.0000</r>
       <r>   4.2351  1.0000</r>
       <r>   4.2894  1.0000</r>
       <r>   4.2894  1.0000</r>
       <r>   4.5853  1.0000</r>
       <r>   4.5853  1.0000</r>
       <r>   5.1335  1.0000</r>
       <r>   5.1511  1.0000</r>
       <r>   5.2104  1.0000</r>
       <r>   5.2104  1.0000</r>
       <r>   5.2360  1.0000</r>
       <r>   5.4526  1.0000</r>
       <r>   5.8864  1.0000</r>
       <r>   5.8864  1.0000</r>
       <r>   6.0627  1.0000</r>
       <r>   6.1427  1.0000</r>
       <r>   6.1801  1.0000</r>
       <r>   6.1803  1.0000</r>
       <r>   6.1909  1.0000</r>
       <r>   6.4098  1.0000</r>
       <r>   6.4861  1.0000</r>
       <r>   6.6870  0.0000</r>
       <r>   6.7299  0.0000</r>
       <r>   7.0434  0.0000</r>
       <r>   7.0495  0.0000</r>
       <r>   7.1769  0.0000</r>
       <r>   7.1769  0.0000</r>
       <r>   7.4711  0.0000</r>
       <r>   7.6871  0.0000</r>
       <r>   7.7882  0.0000</r>
       <r>   7.9843  0.0000</r>
       <r>   8.0132  0.0000</r>
       <r>   8.0132  0.0000</r>
       <r>   8.1077  0.0000</r>
       <r>   8.1077  0.0000</r>
       <r>   8.1080  0.0000</r>
       <r>   8.3254  0.0000</r>
       <r>   8.6238  0.0000</r>
       <r>   8.6238  0.0000</r>
       <r>   8.7562  0.0000</r>
      </set>
      <set comment="kpoint 19">
       <r>  -3.3124  1.0000</r>
       <r>  -2.6287  1.0000</r>
       <r>  -1.9479  1.0000</r>
       <r>  -1.2712  1.0000</r>
       <r>  -1.2699  1.0000</r>
       <r>  -1.2687  1.0000</r>
       <r>  -0.5962  1.0000</r>
       <r>  -0.5949  1.0000</r>
       <r>  -0.5937  1.0000</r>
       <r>   0.0752  1.0000</r>
[...]
       <r>   1.4832  1.0000</r>
       <r>   1.8077  1.0000</r>
       <r>   1.8097  1.0000</r>
       <r>   1.8113  1.0000</r>
       <r>   1.8115  1.0000</r>
       <r>   1.8116  1.0000</r>
       <r>   1.8118  1.0000</r>
       <r>   1.8133  1.0000</r>
       <r>   1.8154  1.0000</r>
       <r>   2.1388  1.0000</r>
       <r>   2.1409  1.0000</r>
       <r>   2.1424  1.0000</r>
       <r>   2.1427  1.0000</r>
       <r>   2.1428  1.0000</r>
       <r>   2.1430  1.0000</r>
       <r>   2.1445  1.0000</r>
       <r>   2.1466  1.0000</r>
       <r>   2.4682  1.0000</r>
       <r>   2.4704  1.0000</r>
       <r>   2.4708  1.0000</r>
       <r>   2.4730  1.0000</r>
       <r>   5.4178  1.0000</r>
       <r>   5.4199  1.0000</r>
       <r>   5.4215  1.0000</r>
       <r>   5.4217  1.0000</r>
       <r>   5.4218  1.0000</r>
       <r>   5.4221  1.0000</r>
       <r>   5.4236  1.0000</r>
       <r>   5.4258  1.0000</r>
       <r>   5.7424  1.0000</r>
       <r>   5.7433  1.0000</r>
       <r>   5.7440  1.0000</r>
       <r>   5.7449  1.0000</r>
       <r>   6.0667  1.0000</r>
       <r>   6.0676  1.0000</r>
       <r>   6.0683  1.0000</r>
       <r>   6.0692  1.0000</r>
       <r>   6.3828  1.0000</r>
       <r>   6.3850  1.0000</r>
       <r>   6.3865  1.0000</r>
       <r>   6.3868  1.0000</r>
       <r>   6.3868  1.0000</r>
       <r>   6.3871  1.0000</r>
       <r>   6.3886  1.0000</r>
       <r>   6.3908  1.0000</r>
       <r>   9.0828  0.0000</r>
       <r>   9.0849  0.0000</r>
       <r>   9.0854  0.0000</r>
       <r>   9.0875  0.0000</r>
       <r>   9.2730  0.0000</r>
       <r>   9.2739  0.0000</r>
       <r>   9.2746  0.0000</r>
       <r>   9.2755  0.0000</r>
       <r>   9.7181  0.0000</r>
       <r>   9.7182  0.0000</r>
       <r>   9.7188  0.0000</r>
       <r>   9.7194  0.0000</r>
      </set>
      <set comment="kpoint 190">
       <r>  -2.5719  1.0000</r>
       <r>  -2.5719  1.0000</r>
       <r>  -2.5719  1.0000</r>
       <r>  -2.5719  1.0000</r>
       <r>  -0.5440  1.0000</r>
       <r>  -0.5395  1.0000</r>
       <r>  -0.5395  1.0000</r>
       <r>  -0.5390  1.0000</r>
       <r>  -0.5389  1.0000</r>
       <r>  -0.5384  1.0000</r>
       <r>  -0.5384  1.0000</r>
       <r>  -0.5340  1.0000</r>
       <r>   1.4658  1.0000</r>
       <r>   1.4658  1.0000</r>
       <r>   1.4658  1.0000</r>
       <r>   1.4658  1.0000</r>
       <r>   1.4658  1.0000</r>
       <r>   1.4658  1.0000</r>
       <r>   1.4658  1.0000</r>
       <r>   1.4658  1.0000</r>
       <r>   3.3926  1.0000</r>
       <r>   3.3926  1.0000</r>
       <r>   3.3939  1.0000</r>
       <r>   3.3940  1.0000</r>
       <r>   3.3940  1.0000</r>
       <r>   3.3940  1.0000</r>
       <r>   3.3954  1.0000</r>
       <r>   3.3954  1.0000</r>
       <r>   3.5035  1.0000</r>
       <r>   3.5035  1.0000</r>
       <r>   3.5049  1.0000</r>
       <r>   3.5049  1.0000</r>
       <r>   3.5049  1.0000</r>
       <r>   3.5050  1.0000</r>
       <r>   3.5063  1.0000</r>
       <r>   3.5063  1.0000</r>
       <r>   4.9607  1.0000</r>
       <r>   4.9607  1.0000</r>
       <r>   4.9607  1.0000</r>
       <r>   4.9607  1.0000</r>
       <r>   5.4031  1.0000</r>
       <r>   5.4031  1.0000</r>
       <r>   5.4031  1.0000</r>
       <r>   5.4031  1.0000</r>
       <r>   5.9763  1.0000</r>
       <r>   5.9764  1.0000</r>
       <r>   5.9764  1.0000</r>
       <r>   5.9764  1.0000</r>
       <r>   7.3437  0.0000</r>
       <r>   7.3437  0.0000</r>
       <r>   7.3444  0.0000</r>
       <r>   7.3449  0.0000</r>
       <r>   7.3467  0.0000</r>
       <r>   7.3472  0.0000</r>
       <r>   7.3479  0.0000</r>
       <r>   7.3479  0.0000</r>
       <r>   8.7928  0.0000</r>
       <r>   8.7928  0.0000</r>
       <r>   8.7928  0.0000</r>
       <r>   8.7928  0.0000</r>
       <r>   8.7928  0.0000</r>
       <r>   8.7928  0.0000</r>
       <r>   8.7928  0.0000</r>
       <r>   8.7929  0.0000</r>
       <r>   9.3871  0.0000</r>
       <r>   9.3871  0.0000</r>
       <r>   9.3871  0.0000</r>
       <r>   9.3871  0.0000</r>
      </set>
      <set comment="kpoint 191">
       <r>  -2.5577  1.0000</r>
       <r>  -2.5577  1.0000</r>
       <r>  -2.5577  1.0000</r>
       <r>  -2.5577  1.0000</r>
       <r>  -0.8620  1.0000</r>
       <r>  -0.8620  1.0000</r>
       <r>  -0.8620  1.0000</r>
       <r>  -0.8620  1.0000</r>
       <r>  -0.1886  1.0000</r>
       <r>  -0.1886  1.0000</r>
       <r>  -0.1886  1.0000</r>
       <r>  -0.1886  1.0000</r>
       <r>   1.4797  1.0000</r>
       <r>   1.4797  1.0000</r>
       <r>   1.4797  1.0000</r>
       <r>   1.4797  1.0000</r>
       <r>   1.4797  1.0000</r>
       <r>   1.4797  1.0000</r>
       <r>   1.4797  1.0000</r>
       <r>   1.4797  1.0000</r>
       <r>   3.1293  1.0000</r>
       <r>   3.1293  1.0000</r>
       <r>   3.1296  1.0000</r>
       <r>   3.1296  1.0000</r>
       <r>   3.1296  1.0000</r>
       <r>   3.1296  1.0000</r>
       <r>   3.1298  1.0000</r>
       <r>   3.1298  1.0000</r>
       <r>   3.7958  1.0000</r>
       <r>   3.7958  1.0000</r>
       <r>   3.7960  1.0000</r>
       <r>   3.7960  1.0000</r>
       <r>   3.7960  1.0000</r>
       <r>   3.7960  1.0000</r>
       <r>   3.7962  1.0000</r>
       <r>   3.7962  1.0000</r>
       <r>   4.6514  1.0000</r>
       <r>   4.6514  1.0000</r>
       <r>   4.6514  1.0000</r>
       <r>   4.6514  1.0000</r>
       <r>   5.4180  1.0000</r>
       <r>   5.4180  1.0000</r>
       <r>   5.4180  1.0000</r>
       <r>   5.4181  1.0000</r>
       <r>   6.3092  1.0000</r>
       <r>   6.3092  1.0000</r>
       <r>   6.3092  1.0000</r>
       <r>   6.3092  1.0000</r>
       <r>   7.0373  0.0000</r>
       <r>   7.0373  0.0000</r>
       <r>   7.0373  0.0000</r>
       <r>   7.0373  0.0000</r>
       <r>   7.6804  0.0000</r>
       <r>   7.6804  0.0000</r>
       <r>   7.6804  0.0000</r>
       <r>   7.6804  0.0000</r>
       <r>   8.5009  0.0000</r>
       <r>   8.5009  0.0000</r>
       <r>   8.5009  0.0000</r>
       <r>   8.5009  0.0000</r>
       <r>   8.5009  0.0000</r>
       <r>   8.5009  0.0000</r>
       <r>   8.5009  0.0000</r>
       <r>   8.5009  0.0000</r>
       <r>   9.4007  0.0000</r>
       <r>   9.4008  0.0000</r>
       <r>   9.4008  0.0000</r>
       <r>   9.4008  0.0000</r>
      </set>
      <set comment="kpoint 192">
       <r>  -2.5151  1.0000</r>
       <r>  -2.5151  1.0000</r>
       <r>  -2.5151  1.0000</r>
       <r>  -2.5151  1.0000</r>
       <r>  -1.1575  1.0000</r>
       <r>  -1.1575  1.0000</r>
       <r>  -1.1575  1.0000</r>
       <r>  -1.1575  1.0000</r>
       <r>   0.1888  1.0000</r>
       <r>   0.1888  1.0000</r>
       <r>   0.1888  1.0000</r>
       <r>   0.1888  1.0000</r>
       <r>   1.5212  1.0000</r>
       <r>   1.5212  1.0000</r>
       <r>   1.5212  1.0000</r>
       <r>   1.5212  1.0000</r>
       <r>   1.5212  1.0000</r>
       <r>   1.5212  1.0000</r>
       <r>   1.5212  1.0000</r>
       <r>   1.5212  1.0000</r>
       <r>   2.8434  1.0000</r>
       <r>   2.8434  1.0000</r>
       <r>   2.8436  1.0000</r>
       <r>   2.8436  1.0000</r>
       <r>   2.8436  1.0000</r>
       <r>   2.8436  1.0000</r>
       <r>   2.8437  1.0000</r>
       <r>   2.8437  1.0000</r>
       <r>   4.1126  1.0000</r>
       <r>   4.1126  1.0000</r>
       <r>   4.1126  1.0000</r>
       <r>   4.1126  1.0000</r>
       <r>   4.1620  1.0000</r>
       <r>   4.1620  1.0000</r>
       <r>   4.1621  1.0000</r>
       <r>   4.1621  1.0000</r>
       <r>   4.1621  1.0000</r>
       <r>   4.1621  1.0000</r>
       <r>   4.1622  1.0000</r>
       <r>   4.1622  1.0000</r>
       <r>   5.4592  1.0000</r>
       <r>   5.4592  1.0000</r>
       <r>   5.4592  1.0000</r>
       <r>   5.4592  1.0000</r>
       <r>   6.7552  0.0000</r>
       <r>   6.7552  0.0000</r>
       <r>   6.7552  0.0000</r>
       <r>   6.7552  0.0000</r>
       <r>   6.9222  0.0000</r>
       <r>   6.9222  0.0000</r>
       <r>   6.9222  0.0000</r>
       <r>   6.9222  0.0000</r>
       <r>   7.9825  0.0000</r>
       <r>   7.9825  0.0000</r>
       <r>   7.9825  0.0000</r>
       <r>   7.9826  0.0000</r>
       <r>   7.9826  0.0000</r>
       <r>   7.9826  0.0000</r>
       <r>   7.9826  0.0000</r>
       <r>   7.9826  0.0000</r>
       <r>   8.0409  0.0000</r>
       <r>   8.0409  0.0000</r>
       <r>   8.0409  0.0000</r>
       <r>   8.0409  0.0000</r>
       <r>   9.4407  0.0000</r>
       <r>   9.4407  0.0000</r>
       <r>   9.4407  0.0000</r>
       <r>   9.4407  0.0000</r>
      </set>
      <set comment="kpoint 193">
       <r>  -2.4441  1.0000</r>
       <r>  -2.4441  1.0000</r>
       <r>  -2.4441  1.0000</r>
       <r>  -2.4441  1.0000</r>
       <r>  -1.4253  1.0000</r>
       <r>  -1.4253  1.0000</r>
       <r>  -1.4253  1.0000</r>
       <r>  -1.4253  1.0000</r>
       <r>   0.5931  1.0000</r>
       <r>   0.5931  1.0000</r>
       <r>   0.5931  1.0000</r>
       <r>   0.5931  1.0000</r>
       <r>   1.5904  1.0000</r>
       <r>   1.5904  1.0000</r>
       <r>   1.5904  1.0000</r>
       <r>   1.5904  1.0000</r>
       <r>   1.5904  1.0000</r>
       <r>   1.5904  1.0000</r>
       <r>   1.5904  1.0000</r>
       <r>   1.5904  1.0000</r>
       <r>   2.5830  1.0000</r>
       <r>   2.5830  1.0000</r>
       <r>   2.5830  1.0000</r>
       <r>   2.5830  1.0000</r>
       <r>   2.5830  1.0000</r>
       <r>   2.5830  1.0000</r>
       <r>   2.5831  1.0000</r>
       <r>   2.5831  1.0000</r>
       <r>   3.5512  1.0000</r>
       <r>   3.5512  1.0000</r>
       <r>   3.5512  1.0000</r>
       <r>   3.5512  1.0000</r>
       <r>   4.5559  1.0000</r>
       <r>   4.5559  1.0000</r>
       <r>   4.5559  1.0000</r>
       <r>   4.5559  1.0000</r>
       <r>   4.5559  1.0000</r>
       <r>   4.5560  1.0000</r>
       <r>   4.5560  1.0000</r>
       <r>   4.5560  1.0000</r>
       <r>   5.5271  1.0000</r>
       <r>   5.5271  1.0000</r>
       <r>   5.5271  1.0000</r>
       <r>   5.5271  1.0000</r>
       <r>   6.4995  1.0000</r>
       <r>   6.4995  1.0000</r>
       <r>   6.4995  1.0000</r>
       <r>   6.4995  1.0000</r>
       <r>   7.4383  0.0000</r>
       <r>   7.4383  0.0000</r>
       <r>   7.4383  0.0000</r>
       <r>   7.4383  0.0000</r>
       <r>   7.4383  0.0000</r>
       <r>   7.4383  0.0000</r>
       <r>   7.4384  0.0000</r>
       <r>   7.4384  0.0000</r>
       <r>   7.6079  0.0000</r>
       <r>   7.6079  0.0000</r>
       <r>   7.6079  0.0000</r>
       <r>   7.6079  0.0000</r>
       <r>   8.4269  0.0000</r>
       <r>   8.4269  0.0000</r>
       <r>   8.4269  0.0000</r>
       <r>   8.4269  0.0000</r>
       <r>   9.5070  0.0000</r>
       <r>   9.5070  0.0000</r>
       <r>   9.5070  0.0000</r>
       <r>   9.5071  0.0000</r>
      </set>
      <set comment="kpoint 194">
       <r>  -2.3448  1.0000</r>
       <r>  -2.3448  1.0000</r>
       <r>  -2.3448  1.0000</r>
       <r>  -2.3448  1.0000</r>
       <r>  -1.6653  1.0000</r>
       <r>  -1.6653  1.0000</r>
       <r>  -1.6653  1.0000</r>
       <r>  -1.6653  1.0000</r>
       <r>   1.0239  1.0000</r>
       <r>   1.0239  1.0000</r>
       <r>   1.0239  1.0000</r>
       <r>   1.0239  1.0000</r>
       <r>   1.6871  1.0000</r>
       <r>   1.6871  1.0000</r>
       <r>   1.6872  1.0000</r>
       <r>   1.6872  1.0000</r>
       <r>   1.6872  1.0000</r>
       <r>   1.6872  1.0000</r>
       <r>   1.6872  1.0000</r>
       <r>   1.6872  1.0000</r>
       <r>   2.3493  1.0000</r>
       <r>   2.3493  1.0000</r>
       <r>   2.3493  1.0000</r>
       <r>   2.3493  1.0000</r>
       <r>   2.3493  1.0000</r>
       <r>   2.3493  1.0000</r>
       <r>   2.3494  1.0000</r>
       <r>   2.3494  1.0000</r>
       <r>   3.0009  1.0000</r>
       <r>   3.0009  1.0000</r>
       <r>   3.0009  1.0000</r>
       <r>   3.0010  1.0000</r>
       <r>   4.9760  1.0000</r>
       <r>   4.9760  1.0000</r>
       <r>   4.9761  1.0000</r>
       <r>   4.9761  1.0000</r>
       <r>   4.9761  1.0000</r>
       <r>   4.9761  1.0000</r>
       <r>   4.9761  1.0000</r>
       <r>   4.9761  1.0000</r>
       <r>   5.6219  1.0000</r>
       <r>   5.6219  1.0000</r>
       <r>   5.6219  1.0000</r>
       <r>   5.6219  1.0000</r>
       <r>   6.2704  1.0000</r>
       <r>   6.2704  1.0000</r>
       <r>   6.2704  1.0000</r>
       <r>   6.2704  1.0000</r>
       <r>   6.9033  0.0000</r>
       <r>   6.9033  0.0000</r>
       <r>   6.9033  0.0000</r>
       <r>   6.9033  0.0000</r>
       <r>   6.9033  0.0000</r>
       <r>   6.9033  0.0000</r>
       <r>   6.9033  0.0000</r>
       <r>   6.9033  0.0000</r>
       <r>   8.3319  0.0000</r>
       <r>   8.3319  0.0000</r>
       <r>   8.3319  0.0000</r>
       <r>   8.3319  0.0000</r>
       <r>   8.8382  0.0000</r>
       <r>   8.8382  0.0000</r>
       <r>   8.8382  0.0000</r>
       <r>   8.8382  0.0000</r>
       <r>   9.5997  0.0000</r>
       <r>   9.5997  0.0000</r>
       <r>   9.5997  0.0000</r>
       <r>   9.5998  0.0000</r>
      </set>
      <set comment="kpoint 195">
       <r>  -2.2172  1.0000</r>
       <r>  -2.2172  1.0000</r>
       <r>  -2.2172  1.0000</r>
       <r>  -2.2172  1.0000</r>
       <r>  -1.8773  1.0000</r>
       <r>  -1.8773  1.0000</r>
       <r>  -1.8773  1.0000</r>
       <r>  -1.8773  1.0000</r>
       <r>   1.4808  1.0000</r>
       <r>   1.4809  1.0000</r>
       <r>   1.4809  1.0000</r>
       <r>   1.4809  1.0000</r>
       <r>   1.8115  1.0000</r>
       <r>   1.8115  1.0000</r>
       <r>   1.8115  1.0000</r>
       <r>   1.8115  1.0000</r>
       <r>   1.8115  1.0000</r>
       <r>   1.8115  1.0000</r>
       <r>   1.8116  1.0000</r>
       <r>   1.8116  1.0000</r>
       <r>   2.1427  1.0000</r>
       <r>   2.1427  1.0000</r>
       <r>   2.1427  1.0000</r>
       <r>   2.1427  1.0000</r>
       <r>   2.1427  1.0000</r>
       <r>   2.1427  1.0000</r>
       <r>   2.1428  1.0000</r>
       <r>   2.1428  1.0000</r>
       <r>   2.4706  1.0000</r>
       <r>   2.4706  1.0000</r>
       <r>   2.4706  1.0000</r>
       <r>   2.4707  1.0000</r>
       <r>   5.4217  1.0000</r>
       <r>   5.4217  1.0000</r>
       <r>   5.4218  1.0000</r>
       <r>   5.4218  1.0000</r>
       <r>   5.4218  1.0000</r>
       <r>   5.4218  1.0000</r>
       <r>   5.4218  1.0000</r>
       <r>   5.4218  1.0000</r>
       <r>   5.7436  1.0000</r>
       <r>   5.7436  1.0000</r>
       <r>   5.7437  1.0000</r>
       <r>   5.7437  1.0000</r>
       <r>   6.0680  1.0000</r>
       <r>   6.0680  1.0000</r>
       <r>   6.0680  1.0000</r>
       <r>   6.0680  1.0000</r>
       <r>   6.3868  1.0000</r>
       <r>   6.3868  1.0000</r>
       <r>   6.3868  1.0000</r>
       <r>   6.3868  1.0000</r>
       <r>   6.3868  1.0000</r>
       <r>   6.3868  1.0000</r>
       <r>   6.3868  1.0000</r>
       <r>   6.3868  1.0000</r>
       <r>   9.0851  0.0000</r>
       <r>   9.0852  0.0000</r>
       <r>   9.0852  0.0000</r>
       <r>   9.0852  0.0000</r>
       <r>   9.2742  0.0000</r>
       <r>   9.2742  0.0000</r>
       <r>   9.2742  0.0000</r>
       <r>   9.2743  0.0000</r>
       <r>   9.7187  0.0000</r>
       <r>   9.7187  0.0000</r>
       <r>   9.7188  0.0000</r>
       <r>   9.7188  0.0000</r>
      </set>
      <set comment="kpoint 196">
       <r>  -2.0657  1.0000</r>
       <r>  -2.0617  1.0000</r>
       <r>  -2.0617  1.0000</r>
       <r>  -2.0613  1.0000</r>
       <r>  -2.0613  1.0000</r>
       <r>  -2.0609  1.0000</r>
       <r>  -2.0609  1.0000</r>
       <r>  -2.0570  1.0000</r>
       <r>   1.9535  1.0000</r>
       <r>   1.9598  1.0000</r>
       <r>   1.9598  1.0000</r>
       <r>   1.9628  1.0000</r>
       <r>   1.9629  1.0000</r>
       <r>   1.9630  1.0000</r>
       <r>   1.9633  1.0000</r>
       <r>   1.9633  1.0000</r>
       <r>   1.9634  1.0000</r>
       <r>   1.9634  1.0000</r>
       <r>   1.9634  1.0000</r>
       <r>   1.9634  1.0000</r>
       <r>   1.9634  1.0000</r>
       <r>   1.9634  1.0000</r>
       <r>   1.9635  1.0000</r>
       <r>   1.9635  1.0000</r>
       <r>   1.9635  1.0000</r>
       <r>   1.9635  1.0000</r>
       <r>   1.9638  1.0000</r>
       <r>   1.9639  1.0000</r>
       <r>   1.9641  1.0000</r>
       <r>   1.9670  1.0000</r>
       <r>   1.9670  1.0000</r>
       <r>   1.9734  1.0000</r>
       <r>   5.8869  1.0000</r>
       <r>   5.8869  1.0000</r>
       <r>   5.8883  1.0000</r>
       <r>   5.8906  1.0000</r>
       <r>   5.8918  1.0000</r>
       <r>   5.8921  1.0000</r>
       <r>   5.8921  1.0000</r>
       <r>   5.8921  1.0000</r>
       <r>   5.8923  1.0000</r>
       <r>   5.8923  1.0000</r>
       <r>   5.8923  1.0000</r>
       <r>   5.8924  1.0000</r>
       <r>   5.8924  1.0000</r>
       <r>   5.8924  1.0000</r>
       <r>   5.8924  1.0000</r>
       <r>   5.8924  1.0000</r>
       <r>   5.8926  1.0000</r>
       <r>   5.8926  1.0000</r>
       <r>   5.8926  1.0000</r>
       <r>   5.8930  1.0000</r>
       <r>   5.8942  1.0000</r>
       <r>   5.8964  1.0000</r>
       <r>   5.8978  1.0000</r>
       <r>   5.8978  1.0000</r>
       <r>   9.7329  0.0000</r>
       <r>   9.7329  0.0000</r>
       <r>   9.7332  0.0000</r>
       <r>   9.7336  0.0000</r>
       <r>   9.7349  0.0000</r>
       <r>   9.7355  0.0000</r>
       <r>   9.7357  0.0000</r>
       <r>   9.7357  0.0000</r>
       <r>   9.8623  0.0000</r>
       <r>   9.8627  0.0000</r>
       <r>   9.8632  0.0000</r>
       <r>   9.8639  0.0000</r>
      </set>
     </set>
    </set>
   </array>
  </eigenvalues>
 </calculation>
 <structure name="finalpos" >
  <crystal>
   <varray name="basis" >
    <v>       8.47834338      0.00000000      0.00000000</v>
    <v>       0.00000000      8.47834338      0.00000000</v>
    <v>       0.00000000      0.00000000      8.47834338</v>
   </varray>
   <i name="volume">    609.44287640</i>
   <varray name="rec_basis" >
    <v>       0.11794757      0.00000000      0.00000000</v>
    <v>       0.00000000      0.11794757      0.00000000</v>
    <v>       0.00000000      0.00000000      0.11794757</v>
   </varray>
  </crystal>
  <varray name="positions" >
   <v>       0.25117948      0.25000000      0.00000000</v>
   <v>       0.75000000      0.25000000      0.00000000</v>
   <v>       0.25000000      0.75000000      0.00000000</v>
   <v>       0.75000000      0.75000000      0.00000000</v>
   <v>       0.25000000      0.25000000      0.50000000</v>
   <v>       0.75000000      0.25000000      0.50000000</v>
   <v>       0.25000000      0.75000000      0.50000000</v>
   <v>       0.75000000      0.75000000      0.50000000</v>
   <v>       0.25000000      0.00000000      0.25000000</v>
   <v>       0.75000000      0.00000000      0.25000000</v>
   <v>       0.25000000      0.50000000      0.25000000</v>
   <v>       0.75000000      0.50000000      0.25000000</v>
   <v>       0.25000000      0.00000000      0.75000000</v>
   <v>       0.75000000      0.00000000      0.75000000</v>
   <v>       0.25000000      0.50000000      0.75000000</v>
   <v>       0.75000000      0.50000000      0.75000000</v>
   <v>       0.00000000      0.25000000      0.25000000</v>
   <v>       0.50000000      0.25000000      0.25000000</v>
   <v>       0.00000000      0.75000000      0.25000000</v>
   <v>       0.50000000      0.75000000      0.25000000</v>
   <v>       0.00000000      0.25000000      0.75000000</v>
   <v>       0.50000000      0.25000000      0.75000000</v>
   <v>       0.00000000      0.75000000      0.75000000</v>
   <v>       0.50000000      0.75000000      0.75000000</v>
   <v>       0.00000000      0.00000000      0.00000000</v>
   <v>       0.50000000      0.00000000      0.00000000</v>
   <v>       0.00000000      0.50000000      0.00000000</v>
   <v>       0.50000000      0.50000000      0.00000000</v>
   <v>       0.00000000      0.00000000      0.50000000</v>
   <v>       0.50000000      0.00000000      0.50000000</v>
   <v>       0.00000000      0.50000000      0.50000000</v>
   <v>       0.50000000      0.50000000      0.50000000</v>
  </varray>
 </structure>
</modeling>
