  32  32   0   0
  0.1697883E+02  0.8159921E-09  0.8159921E-09  0.8159921E-09  0.5000000E-15
  1.000000000000000E-004
  CAR 
 unknown system                          
     12.81176191     -5.05201801  301      3.57573575      1.00000000
     -5.052  0.0000E+00  0.0000E+00
     -4.992  0.0000E+00  0.0000E+00
     -4.933  0.0000E+00  0.0000E+00
     -4.873  0.0000E+00  0.0000E+00
     -4.814  0.0000E+00  0.0000E+00
     -4.754  0.0000E+00  0.0000E+00
     -4.695  0.0000E+00  0.0000E+00
     -4.635  0.0000E+00  0.0000E+00
     -4.576  0.0000E+00  0.0000E+00
     -4.516  0.0000E+00  0.0000E+00
     -4.457  0.0000E+00  0.0000E+00
     -4.397  0.0000E+00  0.0000E+00
     -4.337  0.0000E+00  0.0000E+00
     -4.278  0.8139E-09  0.4847E-10
     -4.218  0.1029E+00  0.6128E-02
     -4.159  0.5603E+00  0.3949E-01
     -4.099  0.9729E+00  0.9742E-01
     -4.040  0.1486E+01  0.1859E+00
     -3.980  0.1636E+01  0.2833E+00
     -3.921  0.1374E+01  0.3651E+00
     -3.861  0.2150E+01  0.4932E+00
     -3.802  0.1277E+01  0.5692E+00
     -3.742  0.2570E+01  0.7223E+00
     -3.682  0.2321E+01  0.8605E+00
     -3.623  0.2948E+01  0.1036E+01
     -3.563  0.2432E+01  0.1181E+01
     -3.504  0.3654E+01  0.1399E+01
     -3.444  0.2835E+01  0.1567E+01
     -3.385  0.2665E+01  0.1726E+01
     -3.325  0.4435E+01  0.1990E+01
     -3.266  0.3024E+01  0.2170E+01
     -3.206  0.4476E+01  0.2437E+01
     -3.147  0.4394E+01  0.2699E+01
     -3.087  0.3924E+01  0.2932E+01
     -3.027  0.5797E+01  0.3277E+01
     -2.968  0.4863E+01  0.3567E+01
     -2.908  0.6830E+01  0.3974E+01
     -2.849  0.1773E+02  0.5030E+01
     -2.789  0.2875E+02  0.6742E+01
     -2.730  0.4818E+02  0.9611E+01
     -2.670  0.5926E+02  0.1314E+02
     -2.611  0.6469E+02  0.1699E+02
     -2.551  0.7449E+02  0.2143E+02
     -2.492  0.8852E+02  0.2670E+02
     -2.432  0.1000E+03  0.3266E+02
     -2.372  0.1240E+03  0.4004E+02
     -2.313  0.1217E+03  0.4729E+02
     -2.253  0.1062E+03  0.5362E+02
     -2.194  0.9386E+02  0.5921E+02
     -2.134  0.9503E+02  0.6486E+02
     -2.075  0.7489E+02  0.6932E+02
     -2.015  0.8651E+02  0.7448E+02
     -1.956  0.6264E+02  0.7821E+02
     -1.896  0.6535E+02  0.8210E+02
     -1.837  0.7117E+02  0.8634E+02
     -1.777  0.6260E+02  0.9006E+02
     -1.717  0.8739E+02  0.9527E+02
     -1.658  0.8066E+02  0.1001E+03
     -1.598  0.8613E+02  0.1052E+03
     -1.539  0.8430E+02  0.1102E+03
     -1.479  0.8413E+02  0.1152E+03
     -1.420  0.7482E+02  0.1197E+03
     -1.360  0.8600E+02  0.1248E+03
     -1.301  0.8389E+02  0.1298E+03
     -1.241  0.8128E+02  0.1346E+03
     -1.182  0.1002E+03  0.1406E+03
     -1.122  0.1216E+03  0.1478E+03
     -1.062  0.1303E+03  0.1556E+03
     -1.003  0.1691E+03  0.1657E+03
     -0.943  0.1288E+03  0.1733E+03
     -0.884  0.1034E+03  0.1795E+03
     -0.824  0.8903E+02  0.1848E+03
     -0.765  0.7721E+02  0.1894E+03
     -0.705  0.7221E+02  0.1937E+03
     -0.646  0.9605E+02  0.1994E+03
     -0.586  0.7638E+02  0.2040E+03
     -0.527  0.8129E+02  0.2088E+03
     -0.467  0.8729E+02  0.2140E+03
     -0.407  0.1025E+03  0.2201E+03
     -0.348  0.9983E+02  0.2261E+03
     -0.288  0.9494E+02  0.2317E+03
     -0.229  0.1077E+03  0.2381E+03
     -0.169  0.1043E+03  0.2443E+03
     -0.110  0.9246E+02  0.2498E+03
     -0.050  0.8751E+02  0.2550E+03
      0.009  0.8439E+02  0.2601E+03
      0.069  0.8214E+02  0.2650E+03
      0.128  0.8032E+02  0.2697E+03
      0.188  0.8052E+02  0.2745E+03
      0.248  0.8489E+02  0.2796E+03
      0.307  0.8324E+02  0.2846E+03
      0.367  0.8626E+02  0.2897E+03
      0.426  0.1148E+03  0.2965E+03
      0.486  0.1202E+03  0.3037E+03
      0.545  0.1501E+03  0.3126E+03
      0.605  0.1417E+03  0.3211E+03
      0.664  0.7951E+02  0.3258E+03
      0.724  0.5417E+02  0.3290E+03
      0.783  0.3216E+02  0.3309E+03
      0.843  0.1141E+02  0.3316E+03
      0.903  0.6124E+01  0.3320E+03
      0.962  0.5003E+01  0.3323E+03
      1.022  0.7361E+01  0.3327E+03
      1.081  0.9399E+01  0.3333E+03
      1.141  0.5531E+01  0.3336E+03
      1.200  0.6373E+01  0.3340E+03
      1.260  0.4798E+01  0.3343E+03
      1.319  0.1099E+02  0.3349E+03
      1.379  0.7131E+01  0.3354E+03
      1.438  0.5877E+01  0.3357E+03
      1.498  0.4537E+01  0.3360E+03
      1.558  0.6125E+01  0.3363E+03
      1.617  0.1019E+02  0.3369E+03
      1.677  0.8793E+01  0.3375E+03
      1.736  0.6708E+01  0.3379E+03
      1.796  0.3782E+01  0.3381E+03
      1.855  0.4706E+01  0.3384E+03
      1.915  0.8607E+01  0.3389E+03
      1.974  0.1150E+02  0.3396E+03
      2.034  0.6465E+01  0.3400E+03
      2.093  0.4913E+01  0.3402E+03
      2.153  0.6679E+01  0.3406E+03
      2.213  0.4401E+01  0.3409E+03
      2.272  0.9245E+01  0.3415E+03
      2.332  0.9898E+01  0.3420E+03
      2.391  0.7344E+01  0.3425E+03
      2.451  0.6655E+01  0.3429E+03
      2.510  0.5571E+01  0.3432E+03
      2.570  0.5175E+01  0.3435E+03
      2.629  0.7752E+01  0.3440E+03
      2.689  0.1115E+02  0.3446E+03
      2.748  0.1052E+02  0.3453E+03
      2.808  0.6085E+01  0.3456E+03
      2.868  0.5955E+01  0.3460E+03
      2.927  0.7071E+01  0.3464E+03
      2.987  0.4290E+01  0.3467E+03
      3.046  0.1142E+02  0.3473E+03
      3.106  0.8900E+01  0.3479E+03
      3.165  0.1006E+02  0.3485E+03
      3.225  0.8567E+01  0.3490E+03
      3.284  0.8067E+01  0.3495E+03
      3.344  0.5929E+01  0.3498E+03
      3.404  0.5069E+01  0.3501E+03
      3.463  0.1042E+02  0.3507E+03
      3.523  0.1327E+02  0.3515E+03
      3.582  0.9718E+01  0.3521E+03
      3.642  0.9064E+01  0.3527E+03
      3.701  0.3779E+01  0.3529E+03
      3.761  0.7986E+01  0.3534E+03
      3.820  0.6477E+01  0.3537E+03
      3.880  0.9605E+01  0.3543E+03
      3.939  0.1142E+02  0.3550E+03
      3.999  0.1009E+02  0.3556E+03
      4.059  0.7265E+01  0.3560E+03
      4.118  0.8156E+01  0.3565E+03
      4.178  0.7982E+01  0.3570E+03
      4.237  0.4448E+01  0.3572E+03
      4.297  0.6739E+01  0.3577E+03
      4.356  0.1153E+02  0.3583E+03
      4.416  0.1214E+02  0.3591E+03
      4.475  0.1042E+02  0.3597E+03
      4.535  0.4794E+01  0.3600E+03
      4.594  0.6163E+01  0.3603E+03
      4.654  0.1010E+02  0.3609E+03
      4.714  0.5092E+01  0.3612E+03
      4.773  0.7541E+01  0.3617E+03
      4.833  0.1251E+02  0.3624E+03
      4.892  0.7533E+01  0.3629E+03
      4.952  0.1039E+02  0.3635E+03
      5.011  0.8586E+01  0.3640E+03
      5.071  0.4637E+01  0.3643E+03
      5.130  0.8549E+01  0.3648E+03
      5.190  0.4329E+01  0.3651E+03
      5.249  0.1314E+02  0.3658E+03
      5.309  0.8862E+01  0.3664E+03
      5.369  0.9036E+01  0.3669E+03
      5.428  0.7309E+01  0.3673E+03
      5.488  0.9344E+01  0.3679E+03
      5.547  0.7392E+01  0.3683E+03
      5.607  0.7158E+01  0.3688E+03
      5.666  0.6093E+01  0.3691E+03
      5.726  0.6661E+01  0.3695E+03
      5.785  0.1114E+02  0.3702E+03
      5.845  0.7171E+01  0.3706E+03
      5.904  0.9130E+01  0.3712E+03
      5.964  0.6772E+01  0.3716E+03
      6.024  0.5910E+01  0.3719E+03
      6.083  0.7376E+01  0.3723E+03
      6.143  0.6723E+01  0.3727E+03
      6.202  0.5985E+01  0.3731E+03
      6.262  0.8873E+01  0.3736E+03
      6.321  0.7271E+01  0.3741E+03
      6.381  0.5396E+01  0.3744E+03
      6.440  0.6606E+01  0.3748E+03
      6.500  0.6938E+01  0.3752E+03
      6.559  0.8669E+01  0.3757E+03
      6.619  0.3966E+01  0.3759E+03
      6.679  0.4780E+01  0.3762E+03
      6.738  0.6705E+01  0.3766E+03
      6.798  0.6906E+01  0.3770E+03
      6.857  0.4304E+01  0.3773E+03
      6.917  0.8402E+01  0.3778E+03
      6.976  0.4687E+01  0.3781E+03
      7.036  0.3372E+01  0.3783E+03
      7.095  0.7279E+01  0.3787E+03
      7.155  0.5555E+01  0.3790E+03
      7.214  0.4452E+01  0.3793E+03
      7.274  0.7587E+01  0.3798E+03
      7.334  0.1059E+02  0.3804E+03
      7.393  0.1254E+02  0.3811E+03
      7.453  0.1106E+02  0.3818E+03
      7.512  0.1004E+02  0.3824E+03
      7.572  0.1062E+02  0.3830E+03
      7.631  0.9259E+01  0.3836E+03
      7.691  0.1041E+02  0.3842E+03
      7.750  0.1392E+02  0.3850E+03
      7.810  0.8945E+01  0.3856E+03
      7.869  0.1243E+02  0.3863E+03
      7.929  0.8838E+01  0.3868E+03
      7.989  0.1109E+02  0.3875E+03
      8.048  0.1267E+02  0.3882E+03
      8.108  0.9716E+01  0.3888E+03
      8.167  0.9620E+01  0.3894E+03
      8.227  0.9396E+01  0.3900E+03
      8.286  0.9468E+01  0.3905E+03
      8.346  0.1123E+02  0.3912E+03
      8.405  0.1166E+02  0.3919E+03
      8.465  0.9669E+01  0.3925E+03
      8.524  0.7647E+01  0.3929E+03
      8.584  0.1130E+02  0.3936E+03
      8.644  0.9999E+01  0.3942E+03
      8.703  0.9063E+01  0.3947E+03
      8.763  0.8183E+01  0.3952E+03
      8.822  0.1152E+02  0.3959E+03
      8.882  0.9548E+01  0.3965E+03
      8.941  0.5084E+01  0.3968E+03
      9.001  0.1256E+02  0.3975E+03
      9.060  0.1023E+02  0.3981E+03
      9.120  0.7099E+01  0.3985E+03
      9.179  0.8489E+01  0.3990E+03
      9.239  0.8404E+01  0.3995E+03
      9.299  0.1318E+02  0.4003E+03
      9.358  0.6648E+01  0.4007E+03
      9.418  0.6595E+01  0.4011E+03
      9.477  0.1113E+02  0.4018E+03
      9.537  0.6903E+01  0.4022E+03
      9.596  0.8522E+01  0.4027E+03
      9.656  0.1104E+02  0.4034E+03
      9.715  0.8625E+01  0.4039E+03
      9.775  0.8070E+01  0.4044E+03
      9.834  0.8084E+01  0.4048E+03
      9.894  0.9422E+01  0.4054E+03
      9.954  0.6305E+01  0.4058E+03
     10.013  0.8350E+01  0.4063E+03
     10.073  0.8497E+01  0.4068E+03
     10.132  0.9699E+01  0.4074E+03
     10.192  0.8911E+01  0.4079E+03
     10.251  0.7702E+01  0.4083E+03
     10.311  0.8339E+01  0.4088E+03
     10.370  0.1038E+02  0.4095E+03
     10.430  0.1499E+02  0.4103E+03
     10.489  0.7432E+01  0.4108E+03
     10.549  0.1280E+02  0.4116E+03
     10.609  0.1748E+02  0.4126E+03
     10.668  0.1030E+02  0.4132E+03
     10.728  0.1122E+02  0.4139E+03
     10.787  0.1030E+02  0.4145E+03
     10.847  0.1230E+02  0.4152E+03
     10.906  0.1006E+02  0.4158E+03
     10.966  0.1247E+02  0.4166E+03
     11.025  0.2135E+02  0.4178E+03
     11.085  0.1621E+02  0.4188E+03
     11.144  0.1284E+02  0.4196E+03
     11.204  0.9877E+01  0.4202E+03
     11.264  0.1177E+02  0.4209E+03
     11.323  0.8313E+01  0.4213E+03
     11.383  0.7586E+01  0.4218E+03
     11.442  0.6103E+01  0.4222E+03
     11.502  0.7852E+01  0.4226E+03
     11.561  0.5430E+01  0.4230E+03
     11.621  0.5295E+01  0.4233E+03
     11.680  0.7007E+01  0.4237E+03
     11.740  0.9232E+00  0.4237E+03
     11.799  0.1396E+01  0.4238E+03
     11.859  0.5664E+00  0.4239E+03
     11.919  0.1420E+01  0.4239E+03
     11.978  0.3867E+00  0.4240E+03
     12.038  0.5481E+00  0.4240E+03
     12.097  0.0000E+00  0.4240E+03
     12.157  0.0000E+00  0.4240E+03
     12.216  0.0000E+00  0.4240E+03
     12.276  0.0000E+00  0.4240E+03
     12.335  0.0000E+00  0.4240E+03
     12.395  0.0000E+00  0.4240E+03
     12.454  0.0000E+00  0.4240E+03
     12.514  0.0000E+00  0.4240E+03
     12.574  0.0000E+00  0.4240E+03
     12.633  0.0000E+00  0.4240E+03
     12.693  0.0000E+00  0.4240E+03
     12.752  0.0000E+00  0.4240E+03
     12.812  0.0000E+00  0.4240E+03
