   32   32    1    1
  0.1697883E+02  0.8159921E-09  0.8159921E-09  0.8159921E-09  0.5000000E-15
  1.000000000000000E-004
  CAR 
 unknown system                          
  352  196  212
 
  0.0000000E+00  0.0000000E+00  0.0000000E+00  0.5787037E-03
   1       -4.2400
   2       -2.9375
   3       -2.9375
   4       -2.9375
   5       -2.8867
   6       -2.8867
   7       -2.8867
   8       -2.8867
   9       -2.7981
  10       -2.7981
  11       -2.7981
  12       -2.4623
  13       -2.4604
  14       -2.4604
  15       -2.4604
  16       -2.4604
  17       -2.4585
  18       -2.1824
  19       -2.1806
  20       -2.1806
  21       -2.1806
  22       -2.1806
  23       -2.1788
  24       -2.0884
  25       -2.0866
  26       -2.0866
  27       -2.0866
  28       -2.0866
  29       -2.0848
  30       -1.8420
  31       -1.8420
  32       -1.8416
  33       -1.8408
  34       -1.8404
  35       -1.8404
  36       -1.8404
  37       -1.8404
  38       -1.8401
  39       -1.8393
  40       -1.8389
  41       -1.8389
  42       -1.6234
  43       -1.6211
  44       -1.6211
  45       -1.6201
  46       -1.6201
  47       -1.6201
  48       -1.6201
  49       -1.6201
  50       -1.6200
  51       -1.6191
  52       -1.6191
  53       -1.6169
  54       -1.5634
  55       -1.5634
  56       -1.5615
  57       -1.5615
  58       -1.5614
  59       -1.5614
  60       -1.5614
  61       -1.5614
  62       -1.5614
  63       -1.5612
  64       -1.5593
  65       -1.5593
  66       -1.3107
  67       -1.3107
  68       -1.3107
  69       -1.3107
  70       -1.3107
  71       -1.3107
  72       -1.3107
  73       -1.3107
  74       -1.2886
  75       -1.2886
  76       -1.2885
  77       -1.2205
  78       -1.2181
  79       -1.2178
  80       -1.2178
  81       -1.2176
  82       -1.2176
  83       -1.2176
  84       -1.2176
  85       -1.2174
  86       -1.2174
  87       -1.2171
  88       -1.2147
  89       -0.6280
  90       -0.6274
  91       -0.6264
  92       -0.6264
  93       -0.6259
  94       -0.6259
  95       -0.6259
  96       -0.6259
  97       -0.6254
  98       -0.6254
  99       -0.6244
 100       -0.6239
 101       -0.4092
 102       -0.4092
 103       -0.4071
 104       -0.4071
 105       -0.4069
 106       -0.4069
 107       -0.4069
 108       -0.4069
 109       -0.4067
 110       -0.4067
 111       -0.4047
 112       -0.4047
 113       -0.2651
 114       -0.2634
 115       -0.2632
 116       -0.2632
 117       -0.2632
 118       -0.2615
 119       -0.2449
 120       -0.2446
 121       -0.2351
 122       -0.2351
 123       -0.2348
 124       -0.2330
 125       -0.2329
 126       -0.2327
 127       -0.2326
 128       -0.2326
 129       -0.2323
 130       -0.2319
 131       -0.2319
 132       -0.2319
 133       -0.2319
 134       -0.2318
 135       -0.2315
 136       -0.2300
 137       -0.2289
 138       -0.2289
 139        0.1291
 140        0.1301
 141        0.1301
 142        0.1301
 143        0.1301
 144        0.1311
 145        0.5245
 146        0.5245
 147        0.5245
 148        0.5563
 149        0.5563
 150        0.5563
 151        0.5563
 152        0.5563
 153        0.5563
 154        0.5563
 155        0.5563
 156        0.7650
 157        0.7653
 158        0.7653
 159        0.7653
 160        0.7653
 161        0.7653
 162        0.7663
 163        0.7664
 164        0.7664
 165        0.7664
 166        0.7664
 167        0.7667
 168        3.0044
 169        3.0050
 170        3.0050
 171        3.0060
 172        3.0064
 173        3.0064
 174        3.0064
 175        3.0064
 176        3.0067
 177        3.0078
 178        3.0078
 179        3.0083
 180        3.1429
 181        3.1430
 182        3.1430
 183        3.1430
 184        5.1739
 185        5.1739
 186        5.1739
 187        7.1950
 188        7.1950
 189        7.1950
 190        7.1950
 191        9.5431
 192        9.5431
 193        9.5458
 194        9.5458
 195        9.5462
 196        9.5462
 197        9.5462
 198        9.5462
 199        9.5466
 200        9.5466
 201        9.5492
 202        9.5492
 203       10.3432
 204       10.3432
 205       10.3432
 206       10.7002
 207       10.7002
 208       10.7002
 209       10.7003
 210       10.7003
 211       10.7003
 212       11.7679
 
  0.8333333E-01  0.0000000E+00  0.0000000E+00  0.1157407E-02
   1       -4.2217
   2       -2.9298
   3       -2.9276
   4       -2.9276
   5       -2.8775
   6       -2.8775
   7       -2.8775
   8       -2.8775
   9       -2.7923
  10       -2.7893
  11       -2.7893
  12       -2.5670
  13       -2.4482
  14       -2.4481
  15       -2.4481
  16       -2.4481
  17       -2.4189
  18       -2.1989
  19       -2.1987
  20       -2.1839
  21       -2.1730
  22       -2.1730
  23       -2.1730
  24       -2.1729
  25       -2.0817
  26       -2.0817
  27       -2.0817
  28       -2.0816
  29       -1.9878
  30       -1.9133
  31       -1.9133
  32       -1.9133
  33       -1.9133
  34       -1.8572
  35       -1.8572
  36       -1.8572
  37       -1.8572
  38       -1.8229
  39       -1.8229
  40       -1.8229
  41       -1.8229
  42       -1.7538
  43       -1.7538
  44       -1.6604
  45       -1.6603
  46       -1.6603
  47       -1.6602
  48       -1.5889
  49       -1.5884
  50       -1.5884
  51       -1.5884
  52       -1.5793
  53       -1.5793
  54       -1.5793
  55       -1.5790
  56       -1.5648
  57       -1.5648
  58       -1.5648
  59       -1.5648
  60       -1.5606
  61       -1.5605
  62       -1.5605
  63       -1.5603
  64       -1.3555
  65       -1.3555
  66       -1.3139
  67       -1.3139
  68       -1.3139
  69       -1.3139
  70       -1.3039
  71       -1.3039
  72       -1.3039
  73       -1.3039
  74       -1.2958
  75       -1.2818
  76       -1.2818
  77       -1.2626
  78       -1.2626
  79       -1.2626
  80       -1.2626
  81       -1.2241
  82       -1.2241
  83       -1.2240
  84       -1.2240
  85       -1.1711
  86       -1.1711
  87       -1.1711
  88       -1.1710
  89       -0.6580
  90       -0.6579
  91       -0.6579
  92       -0.6579
  93       -0.6185
  94       -0.6185
  95       -0.6185
  96       -0.6185
  97       -0.5838
  98       -0.5838
  99       -0.5838
 100       -0.5838
 101       -0.5348
 102       -0.5348
 103       -0.5233
 104       -0.5233
 105       -0.5233
 106       -0.5233
 107       -0.4594
 108       -0.4074
 109       -0.4074
 110       -0.4074
 111       -0.4074
 112       -0.2922
 113       -0.2922
 114       -0.2921
 115       -0.2921
 116       -0.2743
 117       -0.2743
 118       -0.2520
 119       -0.2416
 120       -0.2332
 121       -0.2330
 122       -0.2330
 123       -0.2330
 124       -0.2147
 125       -0.2146
 126       -0.1981
 127       -0.1981
 128       -0.1981
 129       -0.1980
 130       -0.1567
 131       -0.1567
 132       -0.1566
 133       -0.1566
 134       -0.1544
 135       -0.1543
 136       -0.1543
 137       -0.1543
 138        0.0318
 139        0.0801
 140        0.1422
 141        0.1422
 142        0.1422
 143        0.1422
 144        0.1804
 145        0.5148
 146        0.5148
 147        0.5211
 148        0.5281
 149        0.5281
 150        0.5281
 151        0.5281
 152        0.5477
 153        0.5477
 154        0.5477
 155        0.5477
 156        0.7293
 157        0.7293
 158        0.7532
 159        0.7532
 160        0.7532
 161        0.7532
 162        0.7534
 163        0.7534
 164        0.7650
 165        0.7653
 166        0.7663
 167        0.7667
 168        2.6241
 169        2.6241
 170        2.6241
 171        2.6241
 172        3.0080
 173        3.0080
 174        3.0081
 175        3.0081
 176        3.1393
 177        3.1393
 178        3.1393
 179        3.1393
 180        3.4207
 181        3.4207
 182        3.4207
 183        3.4207
 184        5.0449
 185        5.2248
 186        5.2248
 187        7.2525
 188        7.2525
 189        7.2525
 190        7.2525
 191        9.0287
 192        9.0287
 193        9.2249
 194        9.2249
 195        9.2250
 196        9.2250
 197        9.5753
 198        9.5753
 199        9.5753
 200        9.5753
 201       10.0697
 202       10.0697
 203       10.3458
 204       10.3458
 205       10.5003
 206       10.6843
 207       10.6843
 208       10.8792
 209       10.8792
 210       10.8792
 211       10.8792
 212       11.8114
 
  0.1666667E+00  0.0000000E+00  0.0000000E+00  0.1157407E-02
   1       -4.1669
   2       -2.9071
   3       -2.8982
   4       -2.8982
   5       -2.8502
   6       -2.8502
   7       -2.8502
   8       -2.8502
   9       -2.7751
  10       -2.7629
  11       -2.7629
  12       -2.7353
  13       -2.4302
  14       -2.4118
  15       -2.4118
  16       -2.4118
  17       -2.4117
  18       -2.2781
  19       -2.2501
  20       -2.2501
  21       -2.1506
  22       -2.1506
  23       -2.1506
  24       -2.1506
  25       -2.0670
  26       -2.0670
  27       -2.0670
  28       -2.0669
  29       -2.0485
  30       -2.0484
  31       -2.0484
  32       -2.0484
  33       -1.9315
  34       -1.9315
  35       -1.8893
  36       -1.8711
  37       -1.8711
  38       -1.8711
  39       -1.8711
  40       -1.8125
  41       -1.8125
  42       -1.8125
  43       -1.8125
  44       -1.7077
  45       -1.7077
  46       -1.7077
  47       -1.7076
  48       -1.5743
  49       -1.5743
  50       -1.5743
  51       -1.5743
  52       -1.5662
  53       -1.5656
  54       -1.5656
  55       -1.5656
  56       -1.5581
  57       -1.5581
  58       -1.5581
  59       -1.5576
  60       -1.5282
  61       -1.5282
  62       -1.5282
  63       -1.5281
  64       -1.3395
  65       -1.3394
  66       -1.3394
  67       -1.3394
  68       -1.3234
  69       -1.3234
  70       -1.3234
  71       -1.3233
  72       -1.3174
  73       -1.2836
  74       -1.2835
  75       -1.2835
  76       -1.2835
  77       -1.2704
  78       -1.2704
  79       -1.2704
  80       -1.2704
  81       -1.2617
  82       -1.2617
  83       -1.1372
  84       -1.1372
  85       -1.0441
  86       -1.0441
  87       -1.0441
  88       -1.0441
  89       -0.7322
  90       -0.7321
  91       -0.7321
  92       -0.7321
  93       -0.6836
  94       -0.6836
  95       -0.6836
  96       -0.6836
  97       -0.6562
  98       -0.6562
  99       -0.5631
 100       -0.5626
 101       -0.5626
 102       -0.5626
 103       -0.5608
 104       -0.5157
 105       -0.5157
 106       -0.5157
 107       -0.5157
 108       -0.4088
 109       -0.4088
 110       -0.4088
 111       -0.4088
 112       -0.3376
 113       -0.3376
 114       -0.3376
 115       -0.3376
 116       -0.2737
 117       -0.2336
 118       -0.2336
 119       -0.2336
 120       -0.2335
 121       -0.2322
 122       -0.1629
 123       -0.1629
 124       -0.1391
 125       -0.1391
 126       -0.1188
 127       -0.1188
 128       -0.1188
 129       -0.1188
 130       -0.0676
 131       -0.0676
 132       -0.0675
 133       -0.0675
 134       -0.0534
 135       -0.0534
 136       -0.0534
 137       -0.0534
 138        0.0313
 139        0.2154
 140        0.2154
 141        0.2154
 142        0.2154
 143        0.2302
 144        0.4137
 145        0.4463
 146        0.4463
 147        0.4463
 148        0.4463
 149        0.4858
 150        0.4858
 151        0.5108
 152        0.5221
 153        0.5221
 154        0.5221
 155        0.5221
 156        0.6262
 157        0.6262
 158        0.7147
 159        0.7147
 160        0.7147
 161        0.7147
 162        0.7180
 163        0.7180
 164        0.7650
 165        0.7653
 166        0.7663
 167        0.7666
 168        2.2708
 169        2.2708
 170        2.2708
 171        2.2708
 172        3.0130
 173        3.0130
 174        3.0130
 175        3.0130
 176        3.1290
 177        3.1290
 178        3.1291
 179        3.1291
 180        3.8691
 181        3.8691
 182        3.8691
 183        3.8691
 184        4.6979
 185        5.3727
 186        5.3727
 187        7.4215
 188        7.4215
 189        7.4215
 190        7.4215
 191        8.5207
 192        8.5207
 193        8.6129
 194        8.6129
 195        8.6129
 196        8.6129
 197        9.6620
 198        9.6620
 199        9.6620
 200        9.6620
 201       10.3536
 202       10.3536
 203       10.5960
 204       10.5960
 205       10.6434
 206       10.6434
 207       10.9316
 208       11.0809
 209       11.0809
 210       11.0809
 211       11.0809
 212       11.4961
 
  0.2500000E+00  0.0000000E+00  0.0000000E+00  0.1157407E-02
   1       -4.0764
   2       -2.9454
   3       -2.8701
   4       -2.8503
   5       -2.8503
   6       -2.8049
   7       -2.8049
   8       -2.8049
   9       -2.8049
  10       -2.7465
  11       -2.7190
  12       -2.7190
  13       -2.4759
  14       -2.3679
  15       -2.3528
  16       -2.3527
  17       -2.3526
  18       -2.3526
  19       -2.3267
  20       -2.3266
  21       -2.1914
  22       -2.1913
  23       -2.1913
  24       -2.1913
  25       -2.1149
  26       -2.1149
  27       -2.1149
  28       -2.1149
  29       -2.0938
  30       -2.0938
  31       -2.0428
  32       -2.0427
  33       -2.0427
  34       -2.0427
  35       -1.8837
  36       -1.8837
  37       -1.8837
  38       -1.8836
  39       -1.8252
  40       -1.8252
  41       -1.8252
  42       -1.8252
  43       -1.7927
  44       -1.7602
  45       -1.7601
  46       -1.7601
  47       -1.7601
  48       -1.5873
  49       -1.5872
  50       -1.5872
  51       -1.5872
  52       -1.5554
  53       -1.5544
  54       -1.5544
  55       -1.5544
  56       -1.5509
  57       -1.5509
  58       -1.5509
  59       -1.5499
  60       -1.4921
  61       -1.4921
  62       -1.4921
  63       -1.4921
  64       -1.4256
  65       -1.4256
  66       -1.4256
  67       -1.4255
  68       -1.3529
  69       -1.3385
  70       -1.3385
  71       -1.3385
  72       -1.3385
  73       -1.3163
  74       -1.3163
  75       -1.3163
  76       -1.3162
  77       -1.2499
  78       -1.2499
  79       -1.2499
  80       -1.2499
  81       -1.2283
  82       -1.2283
  83       -0.9084
  84       -0.9084
  85       -0.8677
  86       -0.8676
  87       -0.8676
  88       -0.8676
  89       -0.8369
  90       -0.8369
  91       -0.8369
  92       -0.8369
  93       -0.8209
  94       -0.8209
  95       -0.8209
  96       -0.8209
  97       -0.7697
  98       -0.7697
  99       -0.5899
 100       -0.4797
 101       -0.4796
 102       -0.4796
 103       -0.4796
 104       -0.4434
 105       -0.4434
 106       -0.4434
 107       -0.4433
 108       -0.4106
 109       -0.4106
 110       -0.4106
 111       -0.4106
 112       -0.3700
 113       -0.3700
 114       -0.3700
 115       -0.3700
 116       -0.3086
 117       -0.2365
 118       -0.2365
 119       -0.2365
 120       -0.2365
 121       -0.2168
 122       -0.0857
 123       -0.0857
 124       -0.0434
 125       -0.0434
 126       -0.0434
 127       -0.0434
 128       -0.0221
 129       -0.0219
 130       -0.0219
 131       -0.0219
 132       -0.0152
 133       -0.0035
 134       -0.0035
 135        0.0332
 136        0.0332
 137        0.0332
 138        0.0332
 139        0.2786
 140        0.3181
 141        0.3181
 142        0.3181
 143        0.3181
 144        0.3831
 145        0.3832
 146        0.3832
 147        0.3832
 148        0.4384
 149        0.4384
 150        0.4687
 151        0.4687
 152        0.4802
 153        0.4802
 154        0.4802
 155        0.4803
 156        0.4938
 157        0.6530
 158        0.6530
 159        0.6530
 160        0.6530
 161        0.6605
 162        0.6605
 163        0.7651
 164        0.7654
 165        0.7662
 166        0.7666
 167        0.8647
 168        1.9433
 169        1.9433
 170        1.9433
 171        1.9433
 172        3.0211
 173        3.0211
 174        3.0211
 175        3.0211
 176        3.1141
 177        3.1141
 178        3.1142
 179        3.1142
 180        4.2125
 181        4.3530
 182        4.3530
 183        4.3530
 184        4.3530
 185        5.6047
 186        5.6047
 187        7.6925
 188        7.6925
 189        7.6926
 190        7.6926
 191        7.9470
 192        7.9470
 193        7.9470
 194        7.9470
 195        8.0255
 196        8.0255
 197        9.8039
 198        9.8039
 199        9.8039
 200        9.8039
 201       10.3670
 202       10.3670
 203       10.5909
 204       10.5909
 205       10.8110
 206       10.8110
 207       10.8110
 208       10.8111
 209       11.1215
 210       11.1234
 211       11.2096
 212       11.2096
 
  0.3333333E+00  0.0000000E+00  0.0000000E+00  0.1157407E-02
   1       -3.9514
   2       -3.1728
   3       -2.8199
   4       -2.7854
   5       -2.7854
   6       -2.7420
   7       -2.7420
   8       -2.7420
   9       -2.7420
  10       -2.7070
  11       -2.6576
  12       -2.6576
  13       -2.5411
  14       -2.4518
  15       -2.4189
  16       -2.4188
  17       -2.3281
  18       -2.3281
  19       -2.3281
  20       -2.3281
  21       -2.2733
  22       -2.2732
  23       -2.2732
  24       -2.2732
  25       -2.2400
  26       -2.2400
  27       -2.0686
  28       -2.0686
  29       -2.0686
  30       -2.0686
  31       -2.0099
  32       -2.0099
  33       -2.0099
  34       -2.0098
  35       -1.8996
  36       -1.8996
  37       -1.8996
  38       -1.8995
  39       -1.8775
  40       -1.8775
  41       -1.8775
  42       -1.8775
  43       -1.8151
  44       -1.8151
  45       -1.8151
  46       -1.8151
  47       -1.6999
  48       -1.5997
  49       -1.5997
  50       -1.5997
  51       -1.5997
  52       -1.5505
  53       -1.5499
  54       -1.5499
  55       -1.5499
  56       -1.5431
  57       -1.5431
  58       -1.5431
  59       -1.5425
  60       -1.5046
  61       -1.5046
  62       -1.5046
  63       -1.5046
  64       -1.4625
  65       -1.4625
  66       -1.4625
  67       -1.4625
  68       -1.4014
  69       -1.3583
  70       -1.3583
  71       -1.3583
  72       -1.3583
  73       -1.3239
  74       -1.3239
  75       -1.3239
  76       -1.3239
  77       -1.2036
  78       -1.2036
  79       -1.2036
  80       -1.2036
  81       -1.1820
  82       -1.1820
  83       -0.9773
  84       -0.9773
  85       -0.9773
  86       -0.9773
  87       -0.9113
  88       -0.9113
  89       -0.9113
  90       -0.9113
  91       -0.8741
  92       -0.8741
  93       -0.6714
  94       -0.6714
  95       -0.6668
  96       -0.6668
  97       -0.6667
  98       -0.6667
  99       -0.5711
 100       -0.4122
 101       -0.4122
 102       -0.4122
 103       -0.4122
 104       -0.3913
 105       -0.3913
 106       -0.3913
 107       -0.3913
 108       -0.3877
 109       -0.3875
 110       -0.3875
 111       -0.3875
 112       -0.3784
 113       -0.3784
 114       -0.3784
 115       -0.3782
 116       -0.3550
 117       -0.2444
 118       -0.2443
 119       -0.2443
 120       -0.2443
 121       -0.1955
 122       -0.0799
 123       -0.0799
 124       -0.0799
 125       -0.0799
 126       -0.0596
 127        0.0071
 128        0.0071
 129        0.0792
 130        0.0792
 131        0.0792
 132        0.0792
 133        0.1300
 134        0.1300
 135        0.1422
 136        0.1422
 137        0.1422
 138        0.1422
 139        0.1536
 140        0.1536
 141        0.1536
 142        0.1536
 143        0.2717
 144        0.2717
 145        0.3247
 146        0.3740
 147        0.3740
 148        0.4231
 149        0.4232
 150        0.4232
 151        0.4232
 152        0.4705
 153        0.5716
 154        0.5716
 155        0.5716
 156        0.5716
 157        0.5830
 158        0.5830
 159        0.5969
 160        0.5970
 161        0.5970
 162        0.5970
 163        0.7651
 164        0.7655
 165        0.7661
 166        0.7665
 167        1.3686
 168        1.6383
 169        1.6383
 170        1.6383
 171        1.6384
 172        3.0321
 173        3.0321
 174        3.0321
 175        3.0321
 176        3.0968
 177        3.0968
 178        3.0968
 179        3.0968
 180        3.6559
 181        4.8727
 182        4.8727
 183        4.8727
 184        4.8727
 185        5.9054
 186        5.9054
 187        7.2821
 188        7.2821
 189        7.2821
 190        7.2821
 191        7.5469
 192        7.5469
 193        8.0534
 194        8.0534
 195        8.0534
 196        8.0534
 197        9.9976
 198        9.9976
 199        9.9976
 200        9.9976
 201       10.1619
 202       10.1619
 203       10.1619
 204       10.1619
 205       10.3866
 206       10.3866
 207       10.5374
 208       10.5374
 209       11.2023
 210       11.2026
 211       11.2040
 212       11.2088
 
  0.4166667E+00  0.0000000E+00  0.0000000E+00  0.1157407E-02
   1       -3.7942
   2       -3.3981
   3       -2.7587
   4       -2.7059
   5       -2.7059
   6       -2.6620
   7       -2.6620
   8       -2.6620
   9       -2.6620
  10       -2.6571
  11       -2.6147
  12       -2.5789
  13       -2.5789
  14       -2.5286
  15       -2.5175
  16       -2.5175
  17       -2.4537
  18       -2.4537
  19       -2.4537
  20       -2.4537
  21       -2.3698
  22       -2.3698
  23       -2.1775
  24       -2.1775
  25       -2.1775
  26       -2.1775
  27       -2.0165
  28       -2.0164
  29       -2.0164
  30       -2.0164
  31       -1.9692
  32       -1.9692
  33       -1.9692
  34       -1.9691
  35       -1.9661
  36       -1.9661
  37       -1.9661
  38       -1.9661
  39       -1.9256
  40       -1.9256
  41       -1.9256
  42       -1.9255
  43       -1.8698
  44       -1.8698
  45       -1.8698
  46       -1.8698
  47       -1.6127
  48       -1.6056
  49       -1.6056
  50       -1.6056
  51       -1.6056
  52       -1.5639
  53       -1.5639
  54       -1.5639
  55       -1.5639
  56       -1.5462
  57       -1.5454
  58       -1.5454
  59       -1.5454
  60       -1.5406
  61       -1.5406
  62       -1.5406
  63       -1.5398
  64       -1.4618
  65       -1.4347
  66       -1.4347
  67       -1.4347
  68       -1.4347
  69       -1.3818
  70       -1.3818
  71       -1.3818
  72       -1.3818
  73       -1.2835
  74       -1.2835
  75       -1.2835
  76       -1.2835
  77       -1.1454
  78       -1.1454
  79       -1.1454
  80       -1.1453
  81       -1.1228
  82       -1.1228
  83       -1.1016
  84       -1.1015
  85       -1.1015
  86       -1.1015
  87       -0.9975
  88       -0.9975
  89       -0.9975
  90       -0.9975
  91       -0.9682
  92       -0.9682
  93       -0.5260
  94       -0.4554
  95       -0.4554
  96       -0.4554
  97       -0.4554
  98       -0.4295
  99       -0.4295
 100       -0.4126
 101       -0.4126
 102       -0.4126
 103       -0.4126
 104       -0.4100
 105       -0.4041
 106       -0.4040
 107       -0.4040
 108       -0.4040
 109       -0.3258
 110       -0.3257
 111       -0.3257
 112       -0.3257
 113       -0.2963
 114       -0.2963
 115       -0.2963
 116       -0.2962
 117       -0.2601
 118       -0.2601
 119       -0.2601
 120       -0.2601
 121       -0.1687
 122       -0.1384
 123       -0.1384
 124       -0.1384
 125       -0.1384
 126       -0.1002
 127       -0.0366
 128       -0.0366
 129       -0.0366
 130       -0.0366
 131        0.0493
 132        0.0493
 133        0.1063
 134        0.1063
 135        0.1777
 136        0.1777
 137        0.1777
 138        0.1778
 139        0.2553
 140        0.2553
 141        0.2553
 142        0.2553
 143        0.2585
 144        0.2585
 145        0.2948
 146        0.2949
 147        0.3523
 148        0.3523
 149        0.3524
 150        0.3524
 151        0.3678
 152        0.4413
 153        0.4750
 154        0.4750
 155        0.4750
 156        0.4750
 157        0.4881
 158        0.4881
 159        0.7651
 160        0.7657
 161        0.7659
 162        0.7665
 163        0.8326
 164        0.8326
 165        0.8326
 166        0.8326
 167        1.3529
 168        1.3529
 169        1.3529
 170        1.3529
 171        1.9124
 172        3.0455
 173        3.0457
 174        3.0457
 175        3.0457
 176        3.0709
 177        3.0788
 178        3.0788
 179        3.0788
 180        3.0792
 181        5.4277
 182        5.4277
 183        5.4277
 184        5.4277
 185        6.2605
 186        6.2605
 187        6.6359
 188        6.6359
 189        6.6360
 190        6.6360
 191        7.0893
 192        7.0893
 193        8.4912
 194        8.4912
 195        8.4912
 196        8.4912
 197        9.5542
 198        9.5542
 199        9.5542
 200        9.5542
 201       10.2390
 202       10.2390
 203       10.2390
 204       10.2390
 205       10.4131
 206       10.4131
 207       10.4886
 208       10.4886
 209       10.8458
 210       10.8458
 211       10.8459
 212       10.8459
 
  0.5000000E+00  0.0000000E+00  0.0000000E+00  0.5787037E-03
   1       -3.6093
   2       -3.6067
   3       -2.6901
   4       -2.6880
   5       -2.6166
   6       -2.6158
   7       -2.6144
   8       -2.6137
   9       -2.5985
  10       -2.5963
  11       -2.5668
  12       -2.5668
  13       -2.5666
  14       -2.5664
  15       -2.5646
  16       -2.5644
  17       -2.5643
  18       -2.5643
  19       -2.4840
  20       -2.4840
  21       -2.4817
  22       -2.4817
  23       -2.0738
  24       -2.0730
  25       -2.0720
  26       -2.0720
  27       -2.0713
  28       -2.0713
  29       -2.0703
  30       -2.0695
  31       -1.9687
  32       -1.9660
  33       -1.9659
  34       -1.9659
  35       -1.9658
  36       -1.9658
  37       -1.9657
  38       -1.9630
  39       -1.9234
  40       -1.9231
  41       -1.9231
  42       -1.9222
  43       -1.9216
  44       -1.9207
  45       -1.9207
  46       -1.9204
  47       -1.5979
  48       -1.5971
  49       -1.5971
  50       -1.5966
  51       -1.5965
  52       -1.5961
  53       -1.5961
  54       -1.5953
  55       -1.5443
  56       -1.5424
  57       -1.5424
  58       -1.5421
  59       -1.5417
  60       -1.5414
  61       -1.5414
  62       -1.5399
  63       -1.5329
  64       -1.5321
  65       -1.4082
  66       -1.4079
  67       -1.4079
  68       -1.4079
  69       -1.4074
  70       -1.4074
  71       -1.4073
  72       -1.4070
  73       -1.2070
  74       -1.2068
  75       -1.2068
  76       -1.2058
  77       -1.2057
  78       -1.2048
  79       -1.2048
  80       -1.2046
  81       -1.0780
  82       -1.0775
  83       -1.0775
  84       -1.0764
  85       -1.0759
  86       -1.0748
  87       -1.0748
  88       -1.0743
  89       -1.0524
  90       -1.0524
  91       -1.0503
  92       -1.0503
  93       -0.4697
  94       -0.4685
  95       -0.4109
  96       -0.4109
  97       -0.4107
  98       -0.4106
  99       -0.4104
 100       -0.4102
 101       -0.4100
 102       -0.4100
 103       -0.2875
 104       -0.2873
 105       -0.2867
 106       -0.2867
 107       -0.2864
 108       -0.2864
 109       -0.2858
 110       -0.2856
 111       -0.2436
 112       -0.2430
 113       -0.2430
 114       -0.2427
 115       -0.2425
 116       -0.2421
 117       -0.2421
 118       -0.2415
 119       -0.2131
 120       -0.2123
 121       -0.2123
 122       -0.2121
 123       -0.2117
 124       -0.2115
 125       -0.2115
 126       -0.2105
 127       -0.1879
 128       -0.1879
 129       -0.1865
 130       -0.1865
 131       -0.1377
 132       -0.1360
 133        0.2039
 134        0.2041
 135        0.2042
 136        0.2044
 137        0.2687
 138        0.2692
 139        0.2692
 140        0.2694
 141        0.2701
 142        0.2703
 143        0.2703
 144        0.2709
 145        0.3666
 146        0.3666
 147        0.3676
 148        0.3677
 149        0.3681
 150        0.3682
 151        0.3692
 152        0.3692
 153        0.3786
 154        0.3786
 155        0.3793
 156        0.3793
 157        0.4067
 158        0.4069
 159        0.7652
 160        0.7658
 161        0.7658
 162        0.7665
 163        1.0839
 164        1.0842
 165        1.0847
 166        1.0847
 167        1.0849
 168        1.0849
 169        1.0854
 170        1.0857
 171        2.4836
 172        2.4846
 173        3.0597
 174        3.0607
 175        3.0611
 176        3.0611
 177        3.0619
 178        3.0619
 179        3.0624
 180        3.0633
 181        6.0142
 182        6.0144
 183        6.0144
 184        6.0159
 185        6.0168
 186        6.0182
 187        6.0182
 188        6.0185
 189        6.6569
 190        6.6569
 191        6.6594
 192        6.6594
 193        8.9927
 194        8.9927
 195        8.9929
 196        8.9942
 197        8.9953
 198        8.9966
 199        8.9967
 200        8.9967
 201       10.4466
 202       10.4469
 203       10.4470
 204       10.4473
 205       10.5217
 206       10.5217
 207       10.5227
 208       10.5230
 209       10.5236
 210       10.5238
 211       10.5249
 212       10.5249
 
  0.0000000E+00  0.8333333E-01  0.0000000E+00  0.2314815E-02
   1       -4.2217
   2       -2.9298
   3       -2.9276
   4       -2.9276
   5       -2.8776
   6       -2.8775
   7       -2.8775
   8       -2.8775
   9       -2.7923
  10       -2.7893
  11       -2.7893
  12       -2.5670
  13       -2.4495
  14       -2.4481
  15       -2.4481
  16       -2.4468
  17       -2.4190
  18       -2.1988
  19       -2.1987
  20       -2.1839
  21       -2.1742
  22       -2.1730
  23       -2.1730
  24       -2.1717
  25       -2.0831
  26       -2.0817
  27       -2.0816
  28       -2.0802
  29       -1.9879
  30       -1.9133
  31       -1.9133
  32       -1.9133
  33       -1.9133
  34       -1.8583
  35       -1.8572
  36       -1.8572
  37       -1.8561
  38       -1.8242
  39       -1.8229
  40       -1.8229
  41       -1.8217
  42       -1.7538
  43       -1.7538
  44       -1.6617
  45       -1.6602
  46       -1.6602
  47       -1.6589
  48       -1.5901
  49       -1.5885
  50       -1.5884
  51       -1.5871
  52       -1.5800
  53       -1.5799
  54       -1.5786
  55       -1.5785
  56       -1.5661
  57       -1.5648
  58       -1.5646