       N       E                     dE             d eps       ncg     rms          rms(c)
DAV:   1     0.437215471589E+04    0.43722E+04   -0.21480E+05 83144   0.232E+03
DAV:   2     0.134355218190E+03   -0.42378E+04   -0.40578E+04 83104   0.562E+02
DAV:   3    -0.927492522192E+02   -0.22710E+03   -0.21627E+03 86900   0.157E+02
DAV:   4    -0.974826859485E+02   -0.47334E+01   -0.47015E+01 89376   0.215E+01
DAV:   5    -0.975104883659E+02   -0.27802E-01   -0.27772E-01 88276   0.135E+00    0.166E+01
DAV:   6    -0.901701368779E+02    0.73404E+01   -0.26322E+01 87676   0.201E+01    0.304E+00
DAV:   7    -0.899342732014E+02    0.23586E+00   -0.52734E-01 86956   0.184E+00    0.153E+00
DAV:   8    -0.898304165881E+02    0.10386E+00   -0.38583E-02 87380   0.791E-01    0.125E-01
DAV:   9    -0.898312693323E+02   -0.85274E-03   -0.25965E-03 89168   0.163E-01    0.798E-02
DAV:  10    -0.898311134223E+02    0.15591E-03   -0.23956E-04 87108   0.509E-02    0.758E-03
DAV:  11    -0.898311127398E+02    0.68245E-06   -0.41217E-06 88360   0.584E-03    0.281E-03
DAV:  12    -0.898311099176E+02    0.28222E-05   -0.18776E-07 88000   0.188E-03    0.109E-03
DAV:  13    -0.898311066996E+02    0.32180E-05   -0.67856E-08 82520   0.791E-04    0.716E-05
DAV:  14    -0.898311063215E+02    0.37811E-06   -0.24269E-09 46764   0.176E-04    0.471E-05
DAV:  15    -0.898311063197E+02    0.17681E-08   -0.19311E-10 45688   0.800E-05
   1 F= -.89831106E+02 E0= -.89830562E+02  d E =-.108936E-02
