 vasp.4.6.28 25Jul05 complex 
 executed on             LinuxIFC date 2017.01.10  03:59:34
 running on    4 nodes
 distr:  one band on    1 nodes,    4 groups


--------------------------------------------------------------------------------------------------------


 INCAR:
 POTCAR:   PAW_PBE Ag 06Sep2000                   
 POTCAR:   PAW_PBE Ag 06Sep2000                   
   VRHFIN =Ag : s1 d10                                                          
   LEXCH  = PE                                                                  
   EATOM  =  1037.4134 eV,   76.2477 Ry                                         
                                                                                
   TITEL  = PAW_PBE Ag 06Sep2000                                                
   LULTRA =        F    use ultrasoft PP ?                                      
   IUNSCR =        1    unscreen: 0-lin 1-nonlin 2-no                           
   RPACOR =    2.000    partial core radius                                     
   POMASS =  107.868; ZVAL   =   11.000    mass and valenz                      
   RCORE  =    2.400    outmost cutoff radius                                   
   RWIGS  =    2.840; RWIGS  =    1.503    wigner-seitz radius (au A)           
   ENMAX  =  249.846; ENMIN  =  187.385 eV                                      
   RCLOC  =    1.962    cutoff for local pot                                    
   LCOR   =        T    correct aug charges                                     
   LPAW   =        T    paw PP                                                  
   EAUG   =  412.496                                                            
   DEXC   =    -.047                                                            
   RMAX   =    2.917    core radius for proj-oper                               
   RAUG   =    1.300    factor for augmentation sphere                          
   RDEP   =    2.416    radius for radial grids                                 
   QCUT   =   -4.285; QGAM   =    8.570    optimization parameters              
                                                                                
   Description                                                                  
     l     E      TYP  RCUT    TYP  RCUT                                        
     2   .000     23  2.400                                                     
     2   .000     23  2.400                                                     
     0   .000     23  2.400                                                     
     0   .000     23  2.400                                                     
     1  -.200     23  2.400                                                     
     1  1.500     23  2.400                                                     
     3   .000      7   .000                                                     
  local pseudopotential read in
  partial core-charges read in
  atomic valenz-charges read in
  non local Contribution for L=           2  read in
    real space projection operators read in
  non local Contribution for L=           2  read in
    real space projection operators read in
  non local Contribution for L=           0  read in
    real space projection operators read in
  non local Contribution for L=           0  read in
    real space projection operators read in
  non local Contribution for L=           1  read in
    real space projection operators read in
  non local Contribution for L=           1  read in
    real space projection operators read in
    PAW grid and wavefunctions read in
 
   number of l-projection  operators is LMAX  =           6
   number of lm-projection operators is LMMAX =          18
 

 ----------------------------------------------------------------------------- 
|                                                                             |
|  ADVICE TO THIS USER RUNNING 'VASP/VAMP'   (HEAR YOUR MASTER'S VOICE ...):  |
|                                                                             |
|      You have a (more or less) 'large supercell' and for larger cells       |
|      it might be more efficient to use real space projection operators      |
|      So try LREAL= Auto  in the INCAR   file.                               |
|      Mind: If you want to do an extremely accurate calculations keep the    |
|      reciprocal projection scheme          (i.e. LREAL=.FALSE.)             |
|                                                                             |
 ----------------------------------------------------------------------------- 

 PAW_PBE Ag 06Sep2000                   :
 energy of atom  1       EATOM=-1037.4134
 kinetic energy error for atom=    0.0010 (will be added to EATOM!!)
 
 EXHCAR: internal setup
 exchange correlation table for  LEXCH =        8
   RHO(1)=    0.500       N(1)  =     2000
   RHO(2)=  100.500       N(2)  =     4000
 
 POSCAR: Ag                                      
  positions in direct lattice
  No initial velocities read in
 


--------------------------------------------------------------------------------------------------------


 ion  position               nearest neighbor table
   1  0.001  0.000  0.000-   9 2.88  11 2.88  17 2.88  21 2.88  25 2.88  27 2.88  29 2.88  31 2.88
                            18 2.89  22 2.89  10 2.89  12 2.89
   2  0.500  0.000  0.000-   9 2.88  10 2.88  11 2.88  12 2.88  17 2.88  18 2.88  21 2.88  22 2.88
                            26 2.88  28 2.88  30 2.88  32 2.88
   3  0.000  0.500  0.000-   9 2.88  10 2.88  11 2.88  12 2.88  19 2.88  20 2.88  23 2.88  24 2.88
                            25 2.88  27 2.88  29 2.88  31 2.88
   4  0.500  0.500  0.000-   9 2.88  10 2.88  11 2.88  12 2.88  19 2.88  20 2.88  23 2.88  24 2.88
                            26 2.88  28 2.88  30 2.88  32 2.88
   5  0.000  0.000  0.500-  13 2.88  14 2.88  15 2.88  16 2.88  17 2.88  18 2.88  21 2.88  22 2.88
                            25 2.88  27 2.88  29 2.88  31 2.88
   6  0.500  0.000  0.500-  13 2.88  14 2.88  15 2.88  16 2.88  17 2.88  18 2.88  21 2.88  22 2.88
                            26 2.88  28 2.88  30 2.88  32 2.88
   7  0.000  0.500  0.500-  13 2.88  14 2.88  15 2.88  16 2.88  19 2.88  20 2.88  23 2.88  24 2.88
                            25 2.88  27 2.88  29 2.88  31 2.88
   8  0.500  0.500  0.500-  13 2.88  14 2.88  15 2.88  16 2.88  19 2.88  20 2.88  23 2.88  24 2.88
                            26 2.88  28 2.88  30 2.88  32 2.88
   9  0.250  0.250  0.000-   1 2.88   2 2.88   3 2.88   4 2.88  17 2.88  19 2.88  21 2.88  23 2.88
                            25 2.88  26 2.88  29 2.88  30 2.88
  10  0.750  0.250  0.000-   2 2.88   3 2.88   4 2.88  18 2.88  20 2.88  22 2.88  24 2.88  25 2.88
                            26 2.88  29 2.88  30 2.88   1 2.89
  11  0.250  0.750  0.000-   1 2.88   2 2.88   3 2.88   4 2.88  17 2.88  19 2.88  21 2.88  23 2.88
                            27 2.88  28 2.88  31 2.88  32 2.88
  12  0.750  0.750  0.000-   2 2.88   3 2.88   4 2.88  18 2.88  20 2.88  22 2.88  24 2.88  27 2.88
                            28 2.88  31 2.88  32 2.88   1 2.89
  13  0.250  0.250  0.500-   5 2.88   6 2.88   7 2.88   8 2.88  17 2.88  19 2.88  21 2.88  23 2.88
                            25 2.88  26 2.88  29 2.88  30 2.88
  14  0.750  0.250  0.500-   5 2.88   6 2.88   7 2.88   8 2.88  18 2.88  20 2.88  22 2.88  24 2.88
                            25 2.88  26 2.88  29 2.88  30 2.88
  15  0.250  0.750  0.500-   5 2.88   6 2.88   7 2.88   8 2.88  17 2.88  19 2.88  21 2.88  23 2.88
                            27 2.88  28 2.88  31 2.88  32 2.88
  16  0.750  0.750  0.500-   5 2.88   6 2.88   7 2.88   8 2.88  18 2.88  20 2.88  22 2.88  24 2.88
                            27 2.88  28 2.88  31 2.88  32 2.88
  17  0.250  0.000  0.250-   1 2.88   2 2.88   5 2.88   6 2.88   9 2.88  11 2.88  13 2.88  15 2.88
                            25 2.88  26 2.88  27 2.88  28 2.88
  18  0.750  0.000  0.250-   2 2.88   5 2.88   6 2.88  10 2.88  12 2.88  14 2.88  16 2.88  25 2.88
                            26 2.88  27 2.88  28 2.88   1 2.89
  19  0.250  0.500  0.250-   3 2.88   4 2.88   7 2.88   8 2.88   9 2.88  11 2.88  13 2.88  15 2.88
                            25 2.88  26 2.88  27 2.88  28 2.88
  20  0.750  0.500  0.250-   3 2.88   4 2.88   7 2.88   8 2.88  10 2.88  12 2.88  14 2.88  16 2.88
                            25 2.88  26 2.88  27 2.88  28 2.88
  21  0.250  0.000  0.750-   1 2.88   2 2.88   5 2.88   6 2.88   9 2.88  11 2.88  13 2.88  15 2.88
                            29 2.88  30 2.88  31 2.88  32 2.88
  22  0.750  0.000  0.750-   2 2.88   5 2.88   6 2.88  10 2.88  12 2.88  14 2.88  16 2.88  29 2.88
                            30 2.88  31 2.88  32 2.88   1 2.89
  23  0.250  0.500  0.750-   3 2.88   4 2.88   7 2.88   8 2.88   9 2.88  11 2.88  13 2.88  15 2.88
                            29 2.88  30 2.88  31 2.88  32 2.88
  24  0.750  0.500  0.750-   3 2.88   4 2.88   7 2.88   8 2.88  10 2.88  12 2.88  14 2.88  16 2.88
                            29 2.88  30 2.88  31 2.88  32 2.88
  25  0.000  0.250  0.250-   3 2.88   5 2.88   7 2.88   9 2.88  10 2.88  13 2.88  14 2.88  17 2.88
                            18 2.88  19 2.88  20 2.88   1 2.88
  26  0.500  0.250  0.250-   2 2.88   4 2.88   6 2.88   8 2.88   9 2.88  10 2.88  13 2.88  14 2.88
                            17 2.88  18 2.88  19 2.88  20 2.88
  27  0.000  0.750  0.250-   3 2.88   5 2.88   7 2.88  11 2.88  12 2.88  15 2.88  16 2.88  17 2.88
                            18 2.88  19 2.88  20 2.88   1 2.88
  28  0.500  0.750  0.250-   2 2.88   4 2.88   6 2.88   8 2.88  11 2.88  12 2.88  15 2.88  16 2.88
                            17 2.88  18 2.88  19 2.88  20 2.88
  29  0.000  0.250  0.750-   3 2.88   5 2.88   7 2.88   9 2.88  10 2.88  13 2.88  14 2.88  21 2.88
                            22 2.88  23 2.88  24 2.88   1 2.88
  30  0.500  0.250  0.750-   2 2.88   4 2.88   6 2.88   8 2.88   9 2.88  10 2.88  13 2.88  14 2.88
                            21 2.88  22 2.88  23 2.88  24 2.88
  31  0.000  0.750  0.750-   3 2.88   5 2.88   7 2.88  11 2.88  12 2.88  15 2.88  16 2.88  21 2.88
                            22 2.88  23 2.88  24 2.88   1 2.88
  32  0.500  0.750  0.750-   2 2.88   4 2.88   6 2.88   8 2.88  11 2.88  12 2.88  15 2.88  16 2.88
                            21 2.88  22 2.88  23 2.88  24 2.88
 
  LATTYP: Found a simple cubic cell.
 ALAT       =     8.1599205720
  
  Lattice vectors:
  
 A1 = (   8.1599205720,   0.0000000000,   0.0000000000)
 A2 = (   0.0000000000,   8.1599205720,   0.0000000000)
 A3 = (   0.0000000000,   0.0000000000,   8.1599205720)
 Subroutine PRICEL returns:
 Original cell was already a primitive cell.
 

Analysis of symmetry for initial positions (statically):

 Routine SETGRP: Setting up the symmetry group for a 
 simple cubic supercell.


 Subroutine GETGRP returns: Found  8 space group operations
 (whereof  8 operations were pure point group operations)
 out of a pool of 48 trial point group operations.


The static configuration has the point symmetry C_4v.

Analysis of symmetry for dynamics (positions and initial velocities):

 Subroutine DYNSYM returns: Found  8 space group operations
 (whereof  8 operations were pure point group operations)
 out of a pool of  8 trial space group operations
 (whereof  8 operations were pure point group operations)
 and found also     1 'primitive' translations


The dynamic configuration has the point symmetry C_4v.
 
 
 KPOINTS: Automatic mesh                          

Automatic generation of k-mesh.
 
 Subroutine IBZKPT returns following result:
 ===========================================
 
 Found    196 irreducible k-points:
 
 Following reciprocal coordinates:
            Coordinates               Weight
  0.000000  0.000000  0.000000      1.000000
  0.083333  0.000000  0.000000      2.000000
  0.166667  0.000000  0.000000      2.000000
  0.250000  0.000000  0.000000      2.000000
  0.333333  0.000000  0.000000      2.000000
  0.416667  0.000000  0.000000      2.000000
  0.500000  0.000000  0.000000      1.000000
  0.000000  0.083333  0.000000      4.000000
  0.083333  0.083333  0.000000      8.000000
  0.166667  0.083333  0.000000      8.000000
  0.250000  0.083333  0.000000      8.000000
  0.333333  0.083333  0.000000      8.000000
  0.416667  0.083333  0.000000      8.000000
  0.500000  0.083333  0.000000      4.000000
  0.000000  0.166667  0.000000      4.000000
  0.083333  0.166667  0.000000      8.000000
  0.166667  0.166667  0.000000      8.000000
  0.250000  0.166667  0.000000      8.000000
  0.333333  0.166667  0.000000      8.000000
  0.416667  0.166667  0.000000      8.000000
  0.500000  0.166667  0.000000      4.000000
  0.000000  0.250000  0.000000      4.000000
  0.083333  0.250000  0.000000      8.000000
  0.166667  0.250000  0.000000      8.000000
  0.250000  0.250000  0.000000      8.000000
  0.333333  0.250000  0.000000      8.000000
  0.416667  0.250000  0.000000      8.000000
  0.500000  0.250000  0.000000      4.000000
  0.000000  0.333333  0.000000      4.000000
  0.083333  0.333333  0.000000      8.000000
  0.166667  0.333333  0.000000      8.000000
  0.250000  0.333333  0.000000      8.000000
  0.333333  0.333333  0.000000      8.000000
  0.416667  0.333333  0.000000      8.000000
  0.500000  0.333333  0.000000      4.000000
  0.000000  0.416667  0.000000      4.000000
  0.083333  0.416667  0.000000      8.000000
  0.166667  0.416667  0.000000      8.000000
  0.250000  0.416667  0.000000      8.000000
  0.333333  0.416667  0.000000      8.000000
  0.416667  0.416667  0.000000      8.000000
  0.500000  0.416667  0.000000      4.000000
  0.000000  0.500000  0.000000      2.000000
  0.083333  0.500000  0.000000      4.000000
  0.166667  0.500000  0.000000      4.000000
  0.250000  0.500000  0.000000      4.000000
  0.333333  0.500000  0.000000      4.000000
  0.416667  0.500000  0.000000      4.000000
  0.500000  0.500000  0.000000      2.000000
  0.000000  0.083333  0.083333      4.000000
  0.083333  0.083333  0.083333      8.000000
  0.166667  0.083333  0.083333      8.000000
  0.250000  0.083333  0.083333      8.000000
  0.333333  0.083333  0.083333      8.000000
  0.416667  0.083333  0.083333      8.000000
  0.500000  0.083333  0.083333      4.000000
  0.000000  0.166667  0.083333      8.000000
  0.083333  0.166667  0.083333     16.000000
  0.166667  0.166667  0.083333     16.000000
  0.250000  0.166667  0.083333     16.000000
  0.333333  0.166667  0.083333     16.000000
  0.416667  0.166667  0.083333     16.000000
  0.500000  0.166667  0.083333      8.000000
  0.000000  0.250000  0.083333      8.000000
  0.083333  0.250000  0.083333     16.000000
  0.166667  0.250000  0.083333     16.000000
  0.250000  0.250000  0.083333     16.000000
  0.333333  0.250000  0.083333     16.000000
  0.416667  0.250000  0.083333     16.000000
  0.500000  0.250000  0.083333      8.000000
  0.000000  0.333333  0.083333      8.000000
  0.083333  0.333333  0.083333     16.000000
  0.166667  0.333333  0.083333     16.000000
  0.250000  0.333333  0.083333     16.000000
  0.333333  0.333333  0.083333     16.000000
  0.416667  0.333333  0.083333     16.000000
  0.500000  0.333333  0.083333      8.000000
  0.000000  0.416667  0.083333      8.000000
  0.083333  0.416667  0.083333     16.000000
  0.166667  0.416667  0.083333     16.000000
  0.250000  0.416667  0.083333     16.000000
  0.333333  0.416667  0.083333     16.000000
  0.416667  0.416667  0.083333     16.000000
  0.500000  0.416667  0.083333      8.000000
  0.000000  0.500000  0.083333      4.000000
  0.083333  0.500000  0.083333      8.000000
  0.166667  0.500000  0.083333      8.000000
  0.250000  0.500000  0.083333      8.000000
  0.333333  0.500000  0.083333      8.000000
  0.416667  0.500000  0.083333      8.000000
  0.500000  0.500000  0.083333      4.000000
  0.000000  0.166667  0.166667      4.000000
  0.083333  0.166667  0.166667      8.000000
  0.166667  0.166667  0.166667      8.000000
  0.250000  0.166667  0.166667      8.000000
  0.333333  0.166667  0.166667      8.000000
  0.416667  0.166667  0.166667      8.000000
  0.500000  0.166667  0.166667      4.000000
  0.000000  0.250000  0.166667      8.000000
  0.083333  0.250000  0.166667     16.000000
  0.166667  0.250000  0.166667     16.000000
  0.250000  0.250000  0.166667     16.000000
  0.333333  0.250000  0.166667     16.000000
  0.416667  0.250000  0.166667     16.000000
  0.500000  0.250000  0.166667      8.000000
  0.000000  0.333333  0.166667      8.000000
  0.083333  0.333333  0.166667     16.000000
  0.166667  0.333333  0.166667     16.000000
  0.250000  0.333333  0.166667     16.000000
  0.333333  0.333333  0.166667     16.000000
  0.416667  0.333333  0.166667     16.000000
  0.500000  0.333333  0.166667      8.000000
  0.000000  0.416667  0.166667      8.000000
  0.083333  0.416667  0.166667     16.000000
  0.166667  0.416667  0.166667     16.000000
  0.250000  0.416667  0.166667     16.000000
  0.333333  0.416667  0.166667     16.000000
  0.416667  0.416667  0.166667     16.000000
  0.500000  0.416667  0.166667      8.000000
  0.000000  0.500000  0.166667      4.000000
  0.083333  0.500000  0.166667      8.000000
  0.166667  0.500000  0.166667      8.000000
  0.250000  0.500000  0.166667      8.000000
  0.333333  0.500000  0.166667      8.000000
  0.416667  0.500000  0.166667      8.000000
  0.500000  0.500000  0.166667      4.000000
  0.000000  0.250000  0.250000      4.000000
  0.083333  0.250000  0.250000      8.000000
  0.166667  0.250000  0.250000      8.000000
  0.250000  0.250000  0.250000      8.000000
  0.333333  0.250000  0.250000      8.000000
  0.416667  0.250000  0.250000      8.000000
  0.500000  0.250000  0.250000      4.000000
  0.000000  0.333333  0.250000      8.000000
  0.083333  0.333333  0.250000     16.000000
  0.166667  0.333333  0.250000     16.000000
  0.250000  0.333333  0.250000     16.000000
  0.333333  0.333333  0.250000     16.000000
  0.416667  0.333333  0.250000     16.000000
  0.500000  0.333333  0.250000      8.000000
  0.000000  0.416667  0.250000      8.000000
  0.083333  0.416667  0.250000     16.000000
  0.166667  0.416667  0.250000     16.000000
  0.250000  0.416667  0.250000     16.000000
  0.333333  0.416667  0.250000     16.000000
  0.416667  0.416667  0.250000     16.000000
  0.500000  0.416667  0.250000      8.000000
  0.000000  0.500000  0.250000      4.000000
  0.083333  0.500000  0.250000      8.000000
  0.166667  0.500000  0.250000      8.000000
  0.250000  0.500000  0.250000      8.000000
  0.333333  0.500000  0.250000      8.000000
  0.416667  0.500000  0.250000      8.000000
  0.500000  0.500000  0.250000      4.000000
  0.000000  0.333333  0.333333      4.000000
  0.083333  0.333333  0.333333      8.000000
  0.166667  0.333333  0.333333      8.000000
  0.250000  0.333333  0.333333      8.000000
  0.333333  0.333333  0.333333      8.000000
  0.416667  0.333333  0.333333      8.000000
  0.500000  0.333333  0.333333      4.000000
  0.000000  0.416667  0.333333      8.000000
  0.083333  0.416667  0.333333     16.000000
  0.166667  0.416667  0.333333     16.000000
  0.250000  0.416667  0.333333     16.000000
  0.333333  0.416667  0.333333     16.000000
  0.416667  0.416667  0.333333     16.000000
  0.500000  0.416667  0.333333      8.000000
  0.000000  0.500000  0.333333      4.000000
  0.083333  0.500000  0.333333      8.000000
  0.166667  0.500000  0.333333      8.000000
  0.250000  0.500000  0.333333      8.000000
  0.333333  0.500000  0.333333      8.000000
  0.416667  0.500000  0.333333      8.000000
  0.500000  0.500000  0.333333      4.000000
  0.000000  0.416667  0.416667      4.000000
  0.083333  0.416667  0.416667      8.000000
  0.166667  0.416667  0.416667      8.000000
  0.250000  0.416667  0.416667      8.000000
  0.333333  0.416667  0.416667      8.000000
  0.416667  0.416667  0.416667      8.000000
  0.500000  0.416667  0.416667      4.000000
  0.000000  0.500000  0.416667      4.000000
  0.083333  0.500000  0.416667      8.000000
  0.166667  0.500000  0.416667      8.000000
  0.250000  0.500000  0.416667      8.000000
  0.333333  0.500000  0.416667      8.000000
  0.416667  0.500000  0.416667      8.000000
  0.500000  0.500000  0.416667      4.000000
  0.000000  0.500000  0.500000      1.000000
  0.083333  0.500000  0.500000      2.000000
  0.166667  0.500000  0.500000      2.000000
  0.250000  0.500000  0.500000      2.000000
  0.333333  0.500000  0.500000      2.000000
  0.416667  0.500000  0.500000      2.000000
  0.500000  0.500000  0.500000      1.000000
 
 Following cartesian coordinates:
            Coordinates               Weight
  0.000000  0.000000  0.000000      1.000000
  0.010213  0.000000  0.000000      2.000000
  0.020425  0.000000  0.000000      2.000000
  0.030638  0.000000  0.000000      2.000000
  0.040850  0.000000  0.000000      2.000000
  0.051063  0.000000  0.000000      2.000000
  0.061275  0.000000  0.000000      1.000000
  0.000000  0.010213  0.000000      4.000000
  0.010213  0.010213  0.000000      8.000000
  0.020425  0.010213  0.000000      8.000000
  0.030638  0.010213  0.000000      8.000000
  0.040850  0.010213  0.000000      8.000000
  0.051063  0.010213  0.000000      8.000000
  0.061275  0.010213  0.000000      4.000000
  0.000000  0.020425  0.000000      4.000000
  0.010213  0.020425  0.000000      8.000000
  0.020425  0.020425  0.000000      8.000000
  0.030638  0.020425  0.000000      8.000000
  0.040850  0.020425  0.000000      8.000000
  0.051063  0.020425  0.000000      8.000000
  0.061275  0.020425  0.000000      4.000000
  0.000000  0.030638  0.000000      4.000000
  0.010213  0.030638  0.000000      8.000000
  0.020425  0.030638  0.000000      8.000000
  0.030638  0.030638  0.000000      8.000000
  0.040850  0.030638  0.000000      8.000000
  0.051063  0.030638  0.000000      8.000000
  0.061275  0.030638  0.000000      4.000000
  0.000000  0.040850  0.000000      4.000000
  0.010213  0.040850  0.000000      8.000000
  0.020425  0.040850  0.000000      8.000000
  0.030638  0.040850  0.000000      8.000000
  0.040850  0.040850  0.000000      8.000000
  0.051063  0.040850  0.000000      8.000000
  0.061275  0.040850  0.000000      4.000000
  0.000000  0.051063  0.000000      4.000000
  0.010213  0.051063  0.000000      8.000000
  0.020425  0.051063  0.000000      8.000000
  0.030638  0.051063  0.000000      8.000000
  0.040850  0.051063  0.000000      8.000000
  0.051063  0.051063  0.000000      8.000000
  0.061275  0.051063  0.000000      4.000000
  0.000000  0.061275  0.000000      2.000000
  0.010213  0.061275  0.000000      4.000000
  0.020425  0.061275  0.000000      4.000000
  0.030638  0.061275  0.000000      4.000000
  0.040850  0.061275  0.000000      4.000000
  0.051063  0.061275  0.000000      4.000000
  0.061275  0.061275  0.000000      2.000000
  0.000000  0.010213  0.010213      4.000000
  0.010213  0.010213  0.010213      8.000000
  0.020425  0.010213  0.010213      8.000000
  0.030638  0.010213  0.010213      8.000000
  0.040850  0.010213  0.010213      8.000000
  0.051063  0.010213  0.010213      8.000000
  0.061275  0.010213  0.010213      4.000000
  0.000000  0.020425  0.010213      8.000000
  0.010213  0.020425  0.010213     16.000000
  0.020425  0.020425  0.010213     16.000000
  0.030638  0.020425  0.010213     16.000000
  0.040850  0.020425  0.010213     16.000000
  0.051063  0.020425  0.010213     16.000000
  0.061275  0.020425  0.010213      8.000000
  0.000000  0.030638  0.010213      8.000000
  0.010213  0.030638  0.010213     16.000000
  0.020425  0.030638  0.010213     16.000000
  0.030638  0.030638  0.010213     16.000000
  0.040850  0.030638  0.010213     16.000000
  0.051063  0.030638  0.010213     16.000000
  0.061275  0.030638  0.010213      8.000000
  0.000000  0.040850  0.010213      8.000000
  0.010213  0.040850  0.010213     16.000000
  0.020425  0.040850  0.010213     16.000000
  0.030638  0.040850  0.010213     16.000000
  0.040850  0.040850  0.010213     16.000000
  0.051063  0.040850  0.010213     16.000000
  0.061275  0.040850  0.010213      8.000000
  0.000000  0.051063  0.010213      8.000000
  0.010213  0.051063  0.010213     16.000000
  0.020425  0.051063  0.010213     16.000000
  0.030638  0.051063  0.010213     16.000000
  0.040850  0.051063  0.010213     16.000000
  0.051063  0.051063  0.010213     16.000000
  0.061275  0.051063  0.010213      8.000000
  0.000000  0.061275  0.010213      4.000000
  0.010213  0.061275  0.010213      8.000000
  0.020425  0.061275  0.010213      8.000000
  0.030638  0.061275  0.010213      8.000000
  0.040850  0.061275  0.010213      8.000000
  0.051063  0.061275  0.010213      8.000000
  0.061275  0.061275  0.010213      4.000000
  0.000000  0.020425  0.020425      4.000000
  0.010213  0.020425  0.020425      8.000000
  0.020425  0.020425  0.020425      8.000000
  0.030638  0.020425  0.020425      8.000000
  0.040850  0.020425  0.020425      8.000000
  0.051063  0.020425  0.020425      8.000000
  0.061275  0.020425  0.020425      4.000000
  0.000000  0.030638  0.020425      8.000000
  0.010213  0.030638  0.020425     16.000000
  0.020425  0.030638  0.020425     16.000000
  0.030638  0.030638  0.020425     16.000000
  0.040850  0.030638  0.020425     16.000000
  0.051063  0.030638  0.020425     16.000000
  0.061275  0.030638  0.020425      8.000000
  0.000000  0.040850  0.020425      8.000000
  0.010213  0.040850  0.020425     16.000000
  0.020425  0.040850  0.020425     16.000000
  0.030638  0.040850  0.020425     16.000000
  0.040850  0.040850  0.020425     16.000000
  0.051063  0.040850  0.020425     16.000000
  0.061275  0.040850  0.020425      8.000000
  0.000000  0.051063  0.020425      8.000000
  0.010213  0.051063  0.020425     16.000000
  0.020425  0.051063  0.020425     16.000000
  0.030638  0.051063  0.020425     16.000000
  0.040850  0.051063  0.020425     16.000000
  0.051063  0.051063  0.020425     16.000000
  0.061275  0.051063  0.020425      8.000000
  0.000000  0.061275  0.020425      4.000000
  0.010213  0.061275  0.020425      8.000000
  0.020425  0.061275  0.020425      8.000000
  0.030638  0.061275  0.020425      8.000000
  0.040850  0.061275  0.020425      8.000000
  0.051063  0.061275  0.020425      8.000000
  0.061275  0.061275  0.020425      4.000000
  0.000000  0.030638  0.030638      4.000000
  0.010213  0.030638  0.030638      8.000000
  0.020425  0.030638  0.030638      8.000000
  0.030638  0.030638  0.030638      8.000000
  0.040850  0.030638  0.030638      8.000000
  0.051063  0.030638  0.030638      8.000000
  0.061275  0.030638  0.030638      4.000000
  0.000000  0.040850  0.030638      8.000000
  0.010213  0.040850  0.030638     16.000000
  0.020425  0.040850  0.030638     16.000000
  0.030638  0.040850  0.030638     16.000000
  0.040850  0.040850  0.030638     16.000000
  0.051063  0.040850  0.030638     16.000000
  0.061275  0.040850  0.030638      8.000000
  0.000000  0.051063  0.030638      8.000000
  0.010213  0.051063  0.030638     16.000000
  0.020425  0.051063  0.030638     16.000000
  0.030638  0.051063  0.030638     16.000000
  0.040850  0.051063  0.030638     16.000000
  0.051063  0.051063  0.030638     16.000000
  0.061275  0.051063  0.030638      8.000000
  0.000000  0.061275  0.030638      4.000000
  0.010213  0.061275  0.030638      8.000000
  0.020425  0.061275  0.030638      8.000000
  0.030638  0.061275  0.030638      8.000000
  0.040850  0.061275  0.030638      8.000000
  0.051063  0.061275  0.030638      8.000000
  0.061275  0.061275  0.030638      4.000000
  0.000000  0.040850  0.040850      4.000000
  0.010213  0.040850  0.040850      8.000000
  0.020425  0.040850  0.040850      8.000000
  0.030638  0.040850  0.040850      8.000000
  0.040850  0.040850  0.040850      8.000000
  0.051063  0.040850  0.040850      8.000000
  0.061275  0.040850  0.040850      4.000000
  0.000000  0.051063  0.040850      8.000000
  0.010213  0.051063  0.040850     16.000000
  0.020425  0.051063  0.040850     16.000000
  0.030638  0.051063  0.040850     16.000000
  0.040850  0.051063  0.040850     16.000000
  0.051063  0.051063  0.040850     16.000000
  0.061275  0.051063  0.040850      8.000000
  0.000000  0.061275  0.040850      4.000000
  0.010213  0.061275  0.040850      8.000000
  0.020425  0.061275  0.040850      8.000000
  0.030638  0.061275  0.040850      8.000000
  0.040850  0.061275  0.040850      8.000000
  0.051063  0.061275  0.040850      8.000000
  0.061275  0.061275  0.040850      4.000000
  0.000000  0.051063  0.051063      4.000000
  0.010213  0.051063  0.051063      8.000000
  0.020425  0.051063  0.051063      8.000000
  0.030638  0.051063  0.051063      8.000000
  0.040850  0.051063  0.051063      8.000000
  0.051063  0.051063  0.051063      8.000000
  0.061275  0.051063  0.051063      4.000000
  0.000000  0.061275  0.051063      4.000000
  0.010213  0.061275  0.051063      8.000000
  0.020425  0.061275  0.051063      8.000000
  0.030638  0.061275  0.051063      8.000000
  0.040850  0.061275  0.051063      8.000000
  0.051063  0.061275  0.051063      8.000000
  0.061275  0.061275  0.051063      4.000000
  0.000000  0.061275  0.061275      1.000000
  0.010213  0.061275  0.061275      2.000000
  0.020425  0.061275  0.061275      2.000000
  0.030638  0.061275  0.061275      2.000000
  0.040850  0.061275  0.061275      2.000000
  0.051063  0.061275  0.061275      2.000000
  0.061275  0.061275  0.061275      1.000000
 


--------------------------------------------------------------------------------------------------------




 Dimension of arrays:
   k-Points           NKPTS =    196   number of bands    NBANDS=    212
   number of dos      NEDOS =    301   number of ions     NIONS =     32
   non local maximal  LDIM  =      6   non local SUM 2l+1 LMDIM =     18
   total plane-waves  NPLWV = 512000
   max r-space proj   IRMAX =      1   max aug-charges    IRDMAX= 370829
   dimension x,y,z NGX =    80 NGY =   80 NGZ =   80
   dimension x,y,z NGXF=   160 NGYF=  160 NGZF=  160
   support grid    NGXF=   320 NGYF=  320 NGZF=  320
   ions per type =              32
 NGX,Y,Z   is equivalent  to a cutoff of  16.30, 16.30, 16.30 a.u.
 NGXF,Y,Z  is equivalent  to a cutoff of  32.60, 32.60, 32.60 a.u.


 I would recommend the setting:
   dimension x,y,z NGX =    73 NGY =   73 NGZ =   73
 SYSTEM =  unknown system                          
 POSCAR =  Ag                                      

 Startparameter for this run:
   NWRITE =      2    write-flag & timer
   PREC   = accura    medium, high low
   ISTART =      0    job   : 0-new  1-cont  2-samecut
   ICHARG =      2    charge: 1-file 2-atom 10-const
   ISPIN  =      1    spin polarized calculation?
   LNONCOLLINEAR =      F non collinear calculations
   LSORBIT =      F    spin-orbit coupling
   INIWAV =      1    electr: 0-lowe 1-rand  2-diag
   LASPH  =      F    aspherical Exc in radial PAW
   METAGGA=      F    non-selfconsistent MetaGGA calc.

 Electronic Relaxation 1
   ENCUT  =  750.0 eV  55.12 Ry    7.42 a.u.  18.22 18.22 18.22*2*pi/ulx,y,z
   ENINI  =  750.0     initial cutoff
   ENAUG  =  412.5 eV  augmentation charge cutoff
   NELM   =     60;   NELMIN=  2; NELMDL=  0     # of ELM steps 
   EDIFF  = 0.1E-07   stopping-criterion for ELM
   LREAL  =      F    real-space projection
   LCOMPAT=      F    compatible to vasp.4.4
   LREAL_COMPAT= F    compatible to vasp.4.5.1-3
   GGA_COMPAT  = T    GGA compatible to vasp.4.4-vasp.4.6
   LMAXPAW     = -100 max onsite density
   LMAXMIX     =    2 max onsite mixed and CHGCAR
   VOSKOWN=      0    Vosko Wilk Nusair interpolation
   ROPT   =    0.00000
 Ionic relaxation
   EDIFFG = 0.1E-06   stopping-criterion for IOM
   NSW    =      0    number of steps for IOM
   NBLOCK =      1;   KBLOCK =      1    inner block; outer block 
   IBRION =     -1    ionic relax: 0-MD 1-quasi-New 2-CG
   NFREE  =      0    steps in history (QN), initial steepest desc. (CG)
   ISIF   =      2    stress and relaxation
   IWAVPR =     10    prediction:  0-non 1-charg 2-wave 3-comb
   ISYM   =      2    0-nonsym 1-usesym 2-fastsym
   LCORR  =      T    Harris-Foulkes like correction to forces

   POTIM  =   0.50    time-step for ionic-motion
   TEIN   =    0.0    initial temperature
   TEBEG  =    0.0;   TEEND  =   0.0 temperature during run
   SMASS  =  -3.00    Nose mass-parameter (am)
   estimated Nose-frequenzy (Omega)   =  0.10E-29 period in steps =****** mass=  -0.152E-26a.u.
   NPACO  =    256;   APACO  = 16.0  distance and # of slots for P.C.
   PSTRESS=    0.0 pullay stress

  Mass of Ions in am
   POMASS = 107.87
  Ionic Valenz
   ZVAL   =  11.00
  Atomic Wigner-Seitz radii
   RWIGS  =  -1.00
   NELECT =     352.0000    total number of electrons
   NUPDOWN=      -1.0000    fix difference up-down

 DOS related values:
   EMIN   =  10.00;   EMAX   =-10.00  energy-range for DOS
   ISMEAR =     0;   SIGMA  =   0.01  broadening in eV -4-tet -1-fermi 0-gaus

 Electronic relaxation 2 (details)
   IALGO  =     38    algorithm
   LDIAG  =      T    sub-space diagonalisation
   IMIX   =      4    mixing-type and parameters
     AMIX     =   0.40;   BMIX     =  1.00
     AMIX_MAG =   1.60;   BMIX_MAG =  1.00
     AMIN     =   0.10
     WC   =   100.;   INIMIX=   1;  MIXPRE=   1

 Intra band minimization:
   WEIMIN = 0.0000     energy-eigenvalue tresh-hold
   EBREAK =  0.12E-10  absolut break condition
   DEPER  =   0.30     relativ break condition  

   TIME   =   0.10     timestep for ELM

  volume/ion in A,a.u.               =      16.98       114.58
  Fermi-wavevector in a.u.,eV,Ry     =   1.416565 27.302211  2.006656

 Second variation
   LSECVAR=     F    do a second variation
 
 Write flags
   LWAVE  =      F    write WAVECAR
   LCHARG =      F    write CHGCAR
   LVTOT  =      F    write LOCPOT, local potential
   LELF   =      F    write electronic localiz. function (ELF)
   LORBIT =      0    0 simple, 1 ext, 2 COOP (PROOUT)


 Dipole corrections
   IDIPOL =      0    1-x, 2-y, 3-z
   LDIPOL =      F    correct potential



--------------------------------------------------------------------------------------------------------


 Static calculation
 charge density will be updated during run
 non-spin polarized calculation
 Variant of blocked Davidson
 Davidson routine will perform the subspace rotation
 performe sub-space diagonalisation
    after iterative eigenvector-optimisation
 modified Broyden-mixing scheme, WC =      100.0
 initial mixing is a Kerker type mixing with AMIX =  0.4000 and BMIX =      1.0000
 Hartree-type preconditioning will be used
 using additional bands           36
 reciprocal scheme for non local part
 use partial core corrections
 calculate Harris-corrections to forces 
   (improved forces if not selfconsistent)
 use gradient corrections 
 use of overlap-Matrix (Vanderbilt PP)
 Gauss-broadening in eV      SIGMA  =   0.01


--------------------------------------------------------------------------------------------------------


  energy-cutoff  :      750.00
  volume of cell :      543.32
      direct lattice vectors                 reciprocal lattice vectors
     8.159920572  0.000000000  0.000000000     0.122550212  0.000000000  0.000000000
     0.000000000  8.159920572  0.000000000     0.000000000  0.122550212  0.000000000
     0.000000000  0.000000000  8.159920572     0.000000000  0.000000000  0.122550212

  length of vectors
     8.159920572  8.159920572  8.159920572     0.122550212  0.122550212  0.122550212


 
 k-points in units of 2pi/SCALE and weight: Automatic mesh                          
   0.00000000  0.00000000  0.00000000       0.001
   0.01021252  0.00000000  0.00000000       0.001
   0.02042504  0.00000000  0.00000000       0.001
   0.03063755  0.00000000  0.00000000       0.001
   0.04085007  0.00000000  0.00000000       0.001
   0.05106259  0.00000000  0.00000000       0.001
   0.06127511  0.00000000  0.00000000       0.001
   0.00000000  0.01021252  0.00000000       0.002
   0.01021252  0.01021252  0.00000000       0.005
   0.02042504  0.01021252  0.00000000       0.005
   0.03063755  0.01021252  0.00000000       0.005
   0.04085007  0.01021252  0.00000000       0.005
   0.05106259  0.01021252  0.00000000       0.005
   0.06127511  0.01021252  0.00000000       0.002
   0.00000000  0.02042504  0.00000000       0.002
   0.01021252  0.02042504  0.00000000       0.005
   0.02042504  0.02042504  0.00000000       0.005
   0.03063755  0.02042504  0.00000000       0.005
   0.04085007  0.02042504  0.00000000       0.005
   0.05106259  0.02042504  0.00000000       0.005
   0.06127511  0.02042504  0.00000000       0.002
   0.00000000  0.03063755  0.00000000       0.002
   0.01021252  0.03063755  0.00000000       0.005
   0.02042504  0.03063755  0.00000000       0.005
   0.03063755  0.03063755  0.00000000       0.005
   0.04085007  0.03063755  0.00000000       0.005
   0.05106259  0.03063755  0.00000000       0.005
   0.06127511  0.03063755  0.00000000       0.002
   0.00000000  0.04085007  0.00000000       0.002
   0.01021252  0.04085007  0.00000000       0.005
   0.02042504  0.04085007  0.00000000       0.005
   0.03063755  0.04085007  0.00000000       0.005
   0.04085007  0.04085007  0.00000000       0.005
   0.05106259  0.04085007  0.00000000       0.005
   0.06127511  0.04085007  0.00000000       0.002
   0.00000000  0.05106259  0.00000000       0.002
   0.01021252  0.05106259  0.00000000       0.005
   0.02042504  0.05106259  0.00000000       0.005
   0.03063755  0.05106259  0.00000000       0.005
   0.04085007  0.05106259  0.00000000       0.005
   0.05106259  0.05106259  0.00000000       0.005
   0.06127511  0.05106259  0.00000000       0.002
   0.00000000  0.06127511  0.00000000       0.001
   0.01021252  0.06127511  0.00000000       0.002
   0.02042504  0.06127511  0.00000000       0.002
   0.03063755  0.06127511  0.00000000       0.002
   0.04085007  0.06127511  0.00000000       0.002
   0.05106259  0.06127511  0.00000000       0.002
   0.06127511  0.06127511  0.00000000       0.001
   0.00000000  0.01021252  0.01021252       0.002
   0.01021252  0.01021252  0.01021252       0.005
   0.02042504  0.01021252  0.01021252       0.005
   0.03063755  0.01021252  0.01021252       0.005
   0.04085007  0.01021252  0.01021252       0.005
   0.05106259  0.01021252  0.01021252       0.005
   0.06127511  0.01021252  0.01021252       0.002
   0.00000000  0.02042504  0.01021252       0.005
   0.01021252  0.02042504  0.01021252       0.009
   0.02042504  0.02042504  0.01021252       0.009
   0.03063755  0.02042504  0.01021252       0.009
   0.04085007  0.02042504  0.01021252       0.009
   0.05106259  0.02042504  0.01021252       0.009
   0.06127511  0.02042504  0.01021252       0.005
   0.00000000  0.03063755  0.01021252       0.005
   0.01021252  0.03063755  0.01021252       0.009
   0.02042504  0.03063755  0.01021252       0.009
   0.03063755  0.03063755  0.01021252       0.009
   0.04085007  0.03063755  0.01021252       0.009
   0.05106259  0.03063755  0.01021252       0.009
   0.06127511  0.03063755  0.01021252       0.005
   0.00000000  0.04085007  0.01021252       0.005
   0.01021252  0.04085007  0.01021252       0.009
   0.02042504  0.04085007  0.01021252       0.009
   0.03063755  0.04085007  0.01021252       0.009
   0.04085007  0.04085007  0.01021252       0.009
   0.05106259  0.04085007  0.01021252       0.009
   0.06127511  0.04085007  0.01021252       0.005
   0.00000000  0.05106259  0.01021252       0.005
   0.01021252  0.05106259  0.01021252       0.009
   0.02042504  0.05106259  0.01021252       0.009
   0.03063755  0.05106259  0.01021252       0.009
   0.04085007  0.05106259  0.01021252       0.009
   0.05106259  0.05106259  0.01021252       0.009
   0.06127511  0.05106259  0.01021252       0.005
   0.00000000  0.06127511  0.01021252       0.002
   0.01021252  0.06127511  0.01021252       0.005
   0.02042504  0.06127511  0.01021252       0.005
   0.03063755  0.06127511  0.01021252       0.005
   0.04085007  0.06127511  0.01021252       0.005
   0.05106259  0.06127511  0.01021252       0.005
   0.06127511  0.06127511  0.01021252       0.002
   0.00000000  0.02042504  0.02042504       0.002
   0.01021252  0.02042504  0.02042504       0.005
   0.02042504  0.02042504  0.02042504       0.005
   0.03063755  0.02042504  0.02042504       0.005
   0.04085007  0.02042504  0.02042504       0.005
   0.05106259  0.02042504  0.02042504       0.005
   0.06127511  0.02042504  0.02042504       0.002
   0.00000000  0.03063755  0.02042504       0.005
   0.01021252  0.03063755  0.02042504       0.009
   0.02042504  0.03063755  0.02042504       0.009
   0.03063755  0.03063755  0.02042504       0.009
   0.04085007  0.03063755  0.02042504       0.009
   0.05106259  0.03063755  0.02042504       0.009
   0.06127511  0.03063755  0.02042504       0.005
   0.00000000  0.04085007  0.02042504       0.005
   0.01021252  0.04085007  0.02042504       0.009
   0.02042504  0.04085007  0.02042504       0.009
   0.03063755  0.04085007  0.02042504       0.009
   0.04085007  0.04085007  0.02042504       0.009
   0.05106259  0.04085007  0.02042504       0.009
   0.06127511  0.04085007  0.02042504       0.005
   0.00000000  0.05106259  0.02042504       0.005
   0.01021252  0.05106259  0.02042504       0.009
   0.02042504  0.05106259  0.02042504       0.009
   0.03063755  0.05106259  0.02042504       0.009
   0.04085007  0.05106259  0.02042504       0.009
   0.05106259  0.05106259  0.02042504       0.009
   0.06127511  0.05106259  0.02042504       0.005
   0.00000000  0.06127511  0.02042504       0.002
   0.01021252  0.06127511  0.02042504       0.005
   0.02042504  0.06127511  0.02042504       0.005
   0.03063755  0.06127511  0.02042504       0.005
   0.04085007  0.06127511  0.02042504       0.005
   0.05106259  0.06127511  0.02042504       0.005
   0.06127511  0.06127511  0.02042504       0.002
   0.00000000  0.03063755  0.03063755       0.002
   0.01021252  0.03063755  0.03063755       0.005
   0.02042504  0.03063755  0.03063755       0.005
   0.03063755  0.03063755  0.03063755       0.005
   0.04085007  0.03063755  0.03063755       0.005
   0.05106259  0.03063755  0.03063755       0.005
   0.06127511  0.03063755  0.03063755       0.002
   0.00000000  0.04085007  0.03063755       0.005
   0.01021252  0.04085007  0.03063755       0.009
   0.02042504  0.04085007  0.03063755       0.009
   0.03063755  0.04085007  0.03063755       0.009
   0.04085007  0.04085007  0.03063755       0.009
   0.05106259  0.04085007  0.03063755       0.009
   0.06127511  0.04085007  0.03063755       0.005
   0.00000000  0.05106259  0.03063755       0.005
   0.01021252  0.05106259  0.03063755       0.009
   0.02042504  0.05106259  0.03063755       0.009
   0.03063755  0.05106259  0.03063755       0.009
   0.04085007  0.05106259  0.03063755       0.009
   0.05106259  0.05106259  0.03063755       0.009
   0.06127511  0.05106259  0.03063755       0.005
   0.00000000  0.06127511  0.03063755       0.002
   0.01021252  0.06127511  0.03063755       0.005
   0.02042504  0.06127511  0.03063755       0.005
   0.03063755  0.06127511  0.03063755       0.005
   0.04085007  0.06127511  0.03063755       0.005
   0.05106259  0.06127511  0.03063755       0.005
   0.06127511  0.06127511  0.03063755       0.002
   0.00000000  0.04085007  0.04085007       0.002
   0.01021252  0.04085007  0.04085007       0.005
   0.02042504  0.04085007  0.04085007       0.005
   0.03063755  0.04085007  0.04085007       0.005
   0.04085007  0.04085007  0.04085007       0.005
   0.05106259  0.04085007  0.04085007       0.005
   0.06127511  0.04085007  0.04085007       0.002
   0.00000000  0.05106259  0.04085007       0.005
   0.01021252  0.05106259  0.04085007       0.009
   0.02042504  0.05106259  0.04085007       0.009
   0.03063755  0.05106259  0.04085007       0.009
   0.04085007  0.05106259  0.04085007       0.009
   0.05106259  0.05106259  0.04085007       0.009
   0.06127511  0.05106259  0.04085007       0.005
   0.00000000  0.06127511  0.04085007       0.002
   0.01021252  0.06127511  0.04085007       0.005
   0.02042504  0.06127511  0.04085007       0.005
   0.03063755  0.06127511  0.04085007       0.005
   0.04085007  0.06127511  0.04085007       0.005
   0.05106259  0.06127511  0.04085007       0.005
   0.06127511  0.06127511  0.04085007       0.002
   0.00000000  0.05106259  0.05106259       0.002
   0.01021252  0.05106259  0.05106259       0.005
   0.02042504  0.05106259  0.05106259       0.005
   0.03063755  0.05106259  0.05106259       0.005
   0.04085007  0.05106259  0.05106259       0.005
   0.05106259  0.05106259  0.05106259       0.005
   0.06127511  0.05106259  0.05106259       0.002
   0.00000000  0.06127511  0.05106259       0.002
   0.01021252  0.06127511  0.05106259       0.005
   0.02042504  0.06127511  0.05106259       0.005
   0.03063755  0.06127511  0.05106259       0.005
   0.04085007  0.06127511  0.05106259       0.005
   0.05106259  0.06127511  0.05106259       0.005
   0.06127511  0.06127511  0.05106259       0.002
   0.00000000  0.06127511  0.06127511       0.001
   0.01021252  0.06127511  0.06127511       0.001
   0.02042504  0.06127511  0.06127511       0.001
   0.03063755  0.06127511  0.06127511       0.001
   0.04085007  0.06127511  0.06127511       0.001
   0.05106259  0.06127511  0.06127511       0.001
   0.06127511  0.06127511  0.06127511       0.001
 
 k-points in reciprocal lattice and weights: Automatic mesh                          
   0.00000000  0.00000000  0.00000000       0.001
   0.08333333  0.00000000  0.00000000       0.001
   0.16666667  0.00000000  0.00000000       0.001
   0.25000000  0.00000000  0.00000000       0.001
   0.33333333  0.00000000  0.00000000       0.001
   0.41666667  0.00000000  0.00000000       0.001
   0.50000000  0.00000000  0.00000000       0.001
   0.00000000  0.08333333  0.00000000       0.002
   0.08333333  0.08333333  0.00000000       0.005
   0.16666667  0.08333333  0.00000000       0.005
   0.25000000  0.08333333  0.00000000       0.005
   0.33333333  0.08333333  0.00000000       0.005
   0.41666667  0.08333333  0.00000000       0.005
   0.50000000  0.08333333  0.00000000       0.002
   0.00000000  0.16666667  0.00000000       0.002
   0.08333333  0.16666667  0.00000000       0.005
   0.16666667  0.16666667  0.00000000       0.005
   0.25000000  0.16666667  0.00000000       0.005
   0.33333333  0.16666667  0.00000000       0.005
   0.41666667  0.16666667  0.00000000       0.005
   0.50000000  0.16666667  0.00000000       0.002
   0.00000000  0.25000000  0.00000000       0.002
   0.08333333  0.25000000  0.00000000       0.005
   0.16666667  0.25000000  0.00000000       0.005
   0.25000000  0.25000000  0.00000000       0.005
   0.33333333  0.25000000  0.00000000       0.005
   0.41666667  0.25000000  0.00000000       0.005
   0.50000000  0.25000000  0.00000000       0.002
   0.00000000  0.33333333  0.00000000       0.002
   0.08333333  0.33333333  0.00000000       0.005
   0.16666667  0.33333333  0.00000000       0.005
   0.25000000  0.33333333  0.00000000       0.005
   0.33333333  0.33333333  0.00000000       0.005
   0.41666667  0.33333333  0.00000000       0.005
   0.50000000  0.33333333  0.00000000       0.002
   0.00000000  0.41666667  0.00000000       0.002
   0.08333333  0.41666667  0.00000000       0.005
   0.16666667  0.41666667  0.00000000       0.005
   0.25000000  0.41666667  0.00000000       0.005
   0.33333333  0.41666667  0.00000000       0.005
   0.41666667  0.41666667  0.00000000       0.005
   0.50000000  0.41666667  0.00000000       0.002
   0.00000000  0.50000000  0.00000000       0.001
   0.08333333  0.50000000  0.00000000       0.002
   0.16666667  0.50000000  0.00000000       0.002
   0.25000000  0.50000000  0.00000000       0.002
   0.33333333  0.50000000  0.00000000       0.002
   0.41666667  0.50000000  0.00000000       0.002
   0.50000000  0.50000000  0.00000000       0.001
   0.00000000  0.08333333  0.08333333       0.002
   0.08333333  0.08333333  0.08333333       0.005
   0.16666667  0.08333333  0.08333333       0.005
   0.25000000  0.08333333  0.08333333       0.005
   0.33333333  0.08333333  0.08333333       0.005
   0.41666667  0.08333333  0.08333333       0.005
   0.50000000  0.08333333  0.08333333       0.002
   0.00000000  0.16666667  0.08333333       0.005
   0.08333333  0.16666667  0.08333333       0.009
   0.16666667  0.16666667  0.08333333       0.009
   0.25000000  0.16666667  0.08333333       0.009
   0.33333333  0.16666667  0.08333333       0.009
   0.41666667  0.16666667  0.08333333       0.009
   0.50000000  0.16666667  0.08333333       0.005
   0.00000000  0.25000000  0.08333333       0.005
   0.08333333  0.25000000  0.08333333       0.009
   0.16666667  0.25000000  0.08333333       0.009
   0.25000000  0.25000000  0.08333333       0.009
   0.33333333  0.25000000  0.08333333       0.009
   0.41666667  0.25000000  0.08333333       0.009
   0.50000000  0.25000000  0.08333333       0.005
   0.00000000  0.33333333  0.08333333       0.005
   0.08333333  0.33333333  0.08333333       0.009
   0.16666667  0.33333333  0.08333333       0.009
   0.25000000  0.33333333  0.08333333       0.009
   0.33333333  0.33333333  0.08333333       0.009
   0.41666667  0.33333333  0.08333333       0.009
   0.50000000  0.33333333  0.08333333       0.005
   0.00000000  0.41666667  0.08333333       0.005
   0.08333333  0.41666667  0.08333333       0.009
   0.16666667  0.41666667  0.08333333       0.009
   0.25000000  0.41666667  0.08333333       0.009
   0.33333333  0.41666667  0.08333333       0.009
   0.41666667  0.41666667  0.08333333       0.009
   0.50000000  0.41666667  0.08333333       0.005
   0.00000000  0.50000000  0.08333333       0.002
   0.08333333  0.50000000  0.08333333       0.005
   0.16666667  0.50000000  0.08333333       0.005
   0.25000000  0.50000000  0.08333333       0.005
   0.33333333  0.50000000  0.08333333       0.005
   0.41666667  0.50000000  0.08333333       0.005
   0.50000000  0.50000000  0.08333333       0.002
   0.00000000  0.16666667  0.16666667       0.002
   0.08333333  0.16666667  0.16666667       0.005
   0.16666667  0.16666667  0.16666667       0.005
   0.25000000  0.16666667  0.16666667       0.005
   0.33333333  0.16666667  0.16666667       0.005
   0.41666667  0.16666667  0.16666667       0.005
   0.50000000  0.16666667  0.16666667       0.002
   0.00000000  0.25000000  0.16666667       0.005
   0.08333333  0.25000000  0.16666667       0.009
   0.16666667  0.25000000  0.16666667       0.009
   0.25000000  0.25000000  0.16666667       0.009
   0.33333333  0.25000000  0.16666667       0.009
   0.41666667  0.25000000  0.16666667       0.009
   0.50000000  0.25000000  0.16666667       0.005
   0.00000000  0.33333333  0.16666667       0.005
   0.08333333  0.33333333  0.16666667       0.009
   0.16666667  0.33333333  0.16666667       0.009
   0.25000000  0.33333333  0.16666667       0.009
   0.33333333  0.33333333  0.16666667       0.009
   0.41666667  0.33333333  0.16666667       0.009
   0.50000000  0.33333333  0.16666667       0.005
   0.00000000  0.41666667  0.16666667       0.005
   0.08333333  0.41666667  0.16666667       0.009
   0.16666667  0.41666667  0.16666667       0.009
   0.25000000  0.41666667  0.16666667       0.009
   0.33333333  0.41666667  0.16666667       0.009
   0.41666667  0.41666667  0.16666667       0.009
   0.50000000  0.41666667  0.16666667       0.005
   0.00000000  0.50000000  0.16666667       0.002
   0.08333333  0.50000000  0.16666667       0.005
   0.16666667  0.50000000  0.16666667       0.005
   0.25000000  0.50000000  0.16666667       0.005
   0.33333333  0.50000000  0.16666667       0.005
   0.41666667  0.50000000  0.16666667       0.005
   0.50000000  0.50000000  0.16666667       0.002
   0.00000000  0.25000000  0.25000000       0.002
   0.08333333  0.25000000  0.25000000       0.005
   0.16666667  0.25000000  0.25000000       0.005
   0.25000000  0.25000000  0.25000000       0.005
   0.33333333  0.25000000  0.25000000       0.005
   0.41666667  0.25000000  0.25000000       0.005
   0.50000000  0.25000000  0.25000000       0.002
   0.00000000  0.33333333  0.25000000       0.005
   0.08333333  0.33333333  0.25000000       0.009
   0.16666667  0.33333333  0.25000000       0.009
   0.25000000  0.33333333  0.25000000       0.009
   0.33333333  0.33333333  0.25000000       0.009
   0.41666667  0.33333333  0.25000000       0.009
   0.50000000  0.33333333  0.25000000       0.005
   0.00000000  0.41666667  0.25000000       0.005
   0.08333333  0.41666667  0.25000000       0.009
   0.16666667  0.41666667  0.25000000       0.009
   0.25000000  0.41666667  0.25000000       0.009
   0.33333333  0.41666667  0.25000000       0.009
   0.41666667  0.41666667  0.25000000       0.009
   0.50000000  0.41666667  0.25000000       0.005
   0.00000000  0.50000000  0.25000000       0.002
   0.08333333  0.50000000  0.25000000       0.005
   0.16666667  0.50000000  0.25000000       0.005
   0.25000000  0.50000000  0.25000000       0.005
   0.33333333  0.50000000  0.25000000       0.005
   0.41666667  0.50000000  0.25000000       0.005
   0.50000000  0.50000000  0.25000000       0.002
   0.00000000  0.33333333  0.33333333       0.002
   0.08333333  0.33333333  0.33333333       0.005
   0.16666667  0.33333333  0.33333333       0.005
   0.25000000  0.33333333  0.33333333       0.005
   0.33333333  0.33333333  0.33333333       0.005
   0.41666667  0.33333333  0.33333333       0.005
   0.50000000  0.33333333  0.33333333       0.002
   0.00000000  0.41666667  0.33333333       0.005
   0.08333333  0.41666667  0.33333333       0.009
   0.16666667  0.41666667  0.33333333       0.009
   0.25000000  0.41666667  0.33333333       0.009
   0.33333333  0.41666667  0.33333333       0.009
   0.41666667  0.41666667  0.33333333       0.009
   0.50000000  0.41666667  0.33333333       0.005
   0.00000000  0.50000000  0.33333333       0.002
   0.08333333  0.50000000  0.33333333       0.005
   0.16666667  0.50000000  0.33333333       0.005
   0.25000000  0.50000000  0.33333333       0.005
   0.33333333  0.50000000  0.33333333       0.005
   0.41666667  0.50000000  0.33333333       0.005
   0.50000000  0.50000000  0.33333333       0.002
   0.00000000  0.41666667  0.41666667       0.002
   0.08333333  0.41666667  0.41666667       0.005
   0.16666667  0.41666667  0.41666667       0.005
   0.25000000  0.41666667  0.41666667       0.005
   0.33333333  0.41666667  0.41666667       0.005
   0.41666667  0.41666667  0.41666667       0.005
   0.50000000  0.41666667  0.41666667       0.002
   0.00000000  0.50000000  0.41666667       0.002
   0.08333333  0.50000000  0.41666667       0.005
   0.16666667  0.50000000  0.41666667       0.005
   0.25000000  0.50000000  0.41666667       0.005
   0.33333333  0.50000000  0.41666667       0.005
   0.41666667  0.50000000  0.41666667       0.005
   0.50000000  0.50000000  0.41666667       0.002
   0.00000000  0.50000000  0.50000000       0.001
   0.08333333  0.50000000  0.50000000       0.001
   0.16666667  0.50000000  0.50000000       0.001
   0.25000000  0.50000000  0.50000000       0.001
   0.33333333  0.50000000  0.50000000       0.001
   0.41666667  0.50000000  0.50000000       0.001
   0.50000000  0.50000000  0.50000000       0.001
 
 position of ions in fractional coordinates (direct lattice) 
   0.00122550  0.00000000  0.00000000
   0.50000000  0.00000000  0.00000000
   0.00000000  0.50000000  0.00000000
   0.50000000  0.50000000  0.00000000
   0.00000000  0.00000000  0.50000000
   0.50000000  0.00000000  0.50000000
   0.00000000  0.50000000  0.50000000
   0.50000000  0.50000000  0.50000000
   0.25000000  0.25000000  0.00000000
   0.75000000  0.25000000  0.00000000
   0.25000000  0.75000000  0.00000000
   0.75000000  0.75000000  0.00000000
   0.25000000  0.25000000  0.50000000
   0.75000000  0.25000000  0.50000000
   0.25000000  0.75000000  0.50000000
   0.75000000  0.75000000  0.50000000
   0.25000000  0.00000000  0.25000000
   0.75000000  0.00000000  0.25000000
   0.25000000  0.50000000  0.25000000
   0.75000000  0.50000000  0.25000000
   0.25000000  0.00000000  0.75000000
   0.75000000  0.00000000  0.75000000
   0.25000000  0.50000000  0.75000000
   0.75000000  0.50000000  0.75000000
   0.00000000  0.25000000  0.25000000
   0.50000000  0.25000000  0.25000000
   0.00000000  0.75000000  0.25000000
   0.50000000  0.75000000  0.25000000
   0.00000000  0.25000000  0.75000000
   0.50000000  0.25000000  0.75000000
   0.00000000  0.75000000  0.75000000
   0.50000000  0.75000000  0.75000000
 
 position of ions in cartesian coordinates  (Angst):
   0.01000000  0.00000000  0.00000000
   4.07996029  0.00000000  0.00000000
   0.00000000  4.07996029  0.00000000
   4.07996029  4.07996029  0.00000000
   0.00000000  0.00000000  4.07996029
   4.07996029  0.00000000  4.07996029
   0.00000000  4.07996029  4.07996029
   4.07996029  4.07996029  4.07996029
   2.03998014  2.03998014  0.00000000
   6.11994043  2.03998014  0.00000000
   2.03998014  6.11994043  0.00000000
   6.11994043  6.11994043  0.00000000
   2.03998014  2.03998014  4.07996029
   6.11994043  2.03998014  4.07996029
   2.03998014  6.11994043  4.07996029
   6.11994043  6.11994043  4.07996029
   2.03998014  0.00000000  2.03998014
   6.11994043  0.00000000  2.03998014
   2.03998014  4.07996029  2.03998014
   6.11994043  4.07996029  2.03998014
   2.03998014  0.00000000  6.11994043
   6.11994043  0.00000000  6.11994043
   2.03998014  4.07996029  6.11994043
   6.11994043  4.07996029  6.11994043
   0.00000000  2.03998014  2.03998014
   4.07996029  2.03998014  2.03998014
   0.00000000  6.11994043  2.03998014
   4.07996029  6.11994043  2.03998014
   0.00000000  2.03998014  6.11994043
   4.07996029  2.03998014  6.11994043
   0.00000000  6.11994043  6.11994043
   4.07996029  6.11994043  6.11994043
 


--------------------------------------------------------------------------------------------------------


 k-point  1 :  0.00000.00000.0000  plane waves:  25413
 k-point  2 :  0.08330.00000.0000  plane waves:  25393
 k-point  3 :  0.16670.00000.0000  plane waves:  25337
 k-point  4 :  0.25000.00000.0000  plane waves:  25288
 k-point  5 :  0.33330.00000.0000  plane waves:  25320
 k-point  6 :  0.41670.00000.0000  plane waves:  25312
 k-point  7 :  0.50000.00000.0000  plane waves:  25308
 k-point  8 :  0.00000.08330.0000  plane waves:  25393
 k-point  9 :  0.08330.08330.0000  plane waves:  25357
 k-point 10 :  0.16670.08330.0000  plane waves:  25341
 k-point 11 :  0.25000.08330.0000  plane waves:  25334
 k-point 12 :  0.33330.08330.0000  plane waves:  25332
 k-point 13 :  0.41670.08330.0000  plane waves:  25320
 k-point 14 :  0.50000.08330.0000  plane waves:  25324
 k-point 15 :  0.00000.16670.0000  plane waves:  25337
 k-point 16 :  0.08330.16670.0000  plane waves:  25341
 k-point 17 :  0.16670.16670.0000  plane waves:  25300
 k-point 18 :  0.25000.16670.0000  plane waves:  25323
 k-point 19 :  0.33330.16670.0000  plane waves:  25328
 k-point 20 :  0.41670.16670.0000  plane waves:  25322
 k-point 21 :  0.50000.16670.0000  plane waves:  25358
 k-point 22 :  0.00000.25000.0000  plane waves:  25288
 k-point 23 :  0.08330.25000.0000  plane waves:  25334
 k-point 24 :  0.16670.25000.0000  plane waves:  25323
 k-point 25 :  0.25000.25000.0000  plane waves:  25322
 k-point 26 :  0.33330.25000.0000  plane waves:  25333
 k-point 27 :  0.41670.25000.0000  plane waves:  25352
 k-point 28 :  0.50000.25000.0000  plane waves:  25394
 k-point 29 :  0.00000.33330.0000  plane waves:  25320
 k-point 30 :  0.08330.33330.0000  plane waves:  25332
 k-point 31 :  0.16670.33330.0000  plane waves:  25328
 k-point 32 :  0.25000.33330.0000  plane waves:  25333
 k-point 33 :  0.33330.33330.0000  plane waves:  25368
 k-point 34 :  0.41670.33330.0000  plane waves:  25361
 k-point 35 :  0.50000.33330.0000  plane waves:  25330
 k-point 36 :  0.00000.41670.0000  plane waves:  25312
 k-point 37 :  0.08330.41670.0000  plane waves:  25320
 k-point 38 :  0.16670.41670.0000  plane waves:  25322
 k-point 39 :  0.25000.41670.0000  plane waves:  25352
 k-point 40 :  0.33330.41670.0000  plane waves:  25361
 k-point 41 :  0.41670.41670.0000  plane waves:  25352
 k-point 42 :  0.50000.41670.0000  plane waves:  25368
 k-point 43 :  0.00000.50000.0000  plane waves:  25308
 k-point 44 :  0.08330.50000.0000  plane waves:  25324
 k-point 45 :  0.16670.50000.0000  plane waves:  25358
 k-point 46 :  0.25000.50000.0000  plane waves:  25394
 k-point 47 :  0.33330.50000.0000  plane waves:  25330
 k-point 48 :  0.41670.50000.0000  plane waves:  25368
 k-point 49 :  0.50000.50000.0000  plane waves:  25404
 k-point 50 :  0.00000.08330.0833  plane waves:  25357
 k-point 51 :  0.08330.08330.0833  plane waves:  25356
 k-point 52 :  0.16670.08330.0833  plane waves:  25331
 k-point 53 :  0.25000.08330.0833  plane waves:  25350
 k-point 54 :  0.33330.08330.0833  plane waves:  25339
 k-point 55 :  0.41670.08330.0833  plane waves:  25328
 k-point 56 :  0.50000.08330.0833  plane waves:  25346
 k-point 57 :  0.00000.16670.0833  plane waves:  25341
 k-point 58 :  0.08330.16670.0833  plane waves:  25331
 k-point 59 :  0.16670.16670.0833  plane waves:  25306
 k-point 60 :  0.25000.16670.0833  plane waves:  25339
 k-point 61 :  0.33330.16670.0833  plane waves:  25347
 k-point 62 :  0.41670.16670.0833  plane waves:  25334
 k-point 63 :  0.50000.16670.0833  plane waves:  25350
 k-point 64 :  0.00000.25000.0833  plane waves:  25334
 k-point 65 :  0.08330.25000.0833  plane waves:  25350
 k-point 66 :  0.16670.25000.0833  plane waves:  25339
 k-point 67 :  0.25000.25000.0833  plane waves:  25330
 k-point 68 :  0.33330.25000.0833  plane waves:  25335
 k-point 69 :  0.41670.25000.0833  plane waves:  25337
 k-point 70 :  0.50000.25000.0833  plane waves:  25338
 k-point 71 :  0.00000.33330.0833  plane waves:  25332
 k-point 72 :  0.08330.33330.0833  plane waves:  25339
 k-point 73 :  0.16670.33330.0833  plane waves:  25347
 k-point 74 :  0.25000.33330.0833  plane waves:  25335
 k-point 75 :  0.33330.33330.0833  plane waves:  25347
 k-point 76 :  0.41670.33330.0833  plane waves:  25347
 k-point 77 :  0.50000.33330.0833  plane waves:  25318
 k-point 78 :  0.00000.41670.0833  plane waves:  25320
 k-point 79 :  0.08330.41670.0833  plane waves:  25328
 k-point 80 :  0.16670.41670.0833  plane waves:  25334
 k-point 81 :  0.25000.41670.0833  plane waves:  25337
 k-point 82 :  0.33330.41670.0833  plane waves:  25347
 k-point 83 :  0.41670.41670.0833  plane waves:  25345
 k-point 84 :  0.50000.41670.0833  plane waves:  25354
 k-point 85 :  0.00000.50000.0833  plane waves:  25324
 k-point 86 :  0.08330.50000.0833  plane waves:  25346
 k-point 87 :  0.16670.50000.0833  plane waves:  25350
 k-point 88 :  0.25000.50000.0833  plane waves:  25338
 k-point 89 :  0.33330.50000.0833  plane waves:  25318
 k-point 90 :  0.41670.50000.0833  plane waves:  25354
 k-point 91 :  0.50000.50000.0833  plane waves:  25368
 k-point 92 :  0.00000.16670.1667  plane waves:  25300
 k-point 93 :  0.08330.16670.1667  plane waves:  25306
 k-point 94 :  0.16670.16670.1667  plane waves:  25326
 k-point 95 :  0.25000.16670.1667  plane waves:  25339
 k-point 96 :  0.33330.16670.1667  plane waves:  25351
 k-point 97 :  0.41670.16670.1667  plane waves:  25340
 k-point 98 :  0.50000.16670.1667  plane waves:  25322
 k-point 99 :  0.00000.25000.1667  plane waves:  25323
 k-point ** :  0.08330.25000.1667  plane waves:  25339
 k-point ** :  0.16670.25000.1667  plane waves:  25339
 k-point ** :  0.25000.25000.1667  plane waves:  25329
 k-point ** :  0.33330.25000.1667  plane waves:  25329
 k-point ** :  0.41670.25000.1667  plane waves:  25351
 k-point ** :  0.50000.25000.1667  plane waves:  25338
 k-point ** :  0.00000.33330.1667  plane waves:  25328
 k-point ** :  0.08330.33330.1667  plane waves:  25347
 k-point ** :  0.16670.33330.1667  plane waves:  25351
 k-point ** :  0.25000.33330.1667  plane waves:  25329
 k-point ** :  0.33330.33330.1667  plane waves:  25348
 k-point ** :  0.41670.33330.1667  plane waves:  25350
 k-point ** :  0.50000.33330.1667  plane waves:  25316
 k-point ** :  0.00000.41670.1667  plane waves:  25322
 k-point ** :  0.08330.41670.1667  plane waves:  25334
 k-point ** :  0.16670.41670.1667  plane waves:  25340
 k-point ** :  0.25000.41670.1667  plane waves:  25351
 k-point ** :  0.33330.41670.1667  plane waves:  25350
 k-point ** :  0.41670.41670.1667  plane waves:  25330
 k-point ** :  0.50000.41670.1667  plane waves:  25344
 k-point ** :  0.00000.50000.1667  plane waves:  25358
 k-point ** :  0.08330.50000.1667  plane waves:  25350
 k-point ** :  0.16670.50000.1667  plane waves:  25322
 k-point ** :  0.25000.50000.1667  plane waves:  25338
 k-point ** :  0.33330.50000.1667  plane waves:  25316
 k-point ** :  0.41670.50000.1667  plane waves:  25344
 k-point ** :  0.50000.50000.1667  plane waves:  25392
 k-point ** :  0.00000.25000.2500  plane waves:  25322
 k-point ** :  0.08330.25000.2500  plane waves:  25330
 k-point ** :  0.16670.25000.2500  plane waves:  25329
 k-point ** :  0.25000.25000.2500  plane waves:  25323
 k-point ** :  0.33330.25000.2500  plane waves:  25347
 k-point ** :  0.41670.25000.2500  plane waves:  25342
 k-point ** :  0.50000.25000.2500  plane waves:  25336
 k-point ** :  0.00000.33330.2500  plane waves:  25333
 k-point ** :  0.08330.33330.2500  plane waves:  25335
 k-point ** :  0.16670.33330.2500  plane waves:  25329
 k-point ** :  0.25000.33330.2500  plane waves:  25347
 k-point ** :  0.33330.33330.2500  plane waves:  25340
 k-point ** :  0.41670.33330.2500  plane waves:  25327
 k-point ** :  0.50000.33330.2500  plane waves:  25336
 k-point ** :  0.00000.41670.2500  plane waves:  25352
 k-point ** :  0.08330.41670.2500  plane waves:  25337
 k-point ** :  0.16670.41670.2500  plane waves:  25351
 k-point ** :  0.25000.41670.2500  plane waves:  25342
 k-point ** :  0.33330.41670.2500  plane waves:  25327
 k-point ** :  0.41670.41670.2500  plane waves:  25337
 k-point ** :  0.50000.41670.2500  plane waves:  25346
 k-point ** :  0.00000.50000.2500  plane waves:  25394
 k-point ** :  0.08330.50000.2500  plane waves:  25338
 k-point ** :  0.16670.50000.2500  plane waves:  25338
 k-point ** :  0.25000.50000.2500  plane waves:  25336
 k-point ** :  0.33330.50000.2500  plane waves:  25336
 k-point ** :  0.41670.50000.2500  plane waves:  25346
 k-point ** :  0.50000.50000.2500  plane waves:  25324
 k-point ** :  0.00000.33330.3333  plane waves:  25368
 k-point ** :  0.08330.33330.3333  plane waves:  25347
 k-point ** :  0.16670.33330.3333  plane waves:  25348
 k-point ** :  0.25000.33330.3333  plane waves:  25340
 k-point ** :  0.33330.33330.3333  plane waves:  25329
 k-point ** :  0.41670.33330.3333  plane waves:  25335
 k-point ** :  0.50000.33330.3333  plane waves:  25344
 k-point ** :  0.00000.41670.3333  plane waves:  25361
 k-point ** :  0.08330.41670.3333  plane waves:  25347
 k-point ** :  0.16670.41670.3333  plane waves:  25350
 k-point ** :  0.25000.41670.3333  plane waves:  25327
 k-point ** :  0.33330.41670.3333  plane waves:  25335
 k-point ** :  0.41670.41670.3333  plane waves:  25335
 k-point ** :  0.50000.41670.3333  plane waves:  25344
 k-point ** :  0.00000.50000.3333  plane waves:  25330
 k-point ** :  0.08330.50000.3333  plane waves:  25318
 k-point ** :  0.16670.50000.3333  plane waves:  25316
 k-point ** :  0.25000.50000.3333  plane waves:  25336
 k-point ** :  0.33330.50000.3333  plane waves:  25344
 k-point ** :  0.41670.50000.3333  plane waves:  25344
 k-point ** :  0.50000.50000.3333  plane waves:  25360
 k-point ** :  0.00000.41670.4167  plane waves:  25352
 k-point ** :  0.08330.41670.4167  plane waves:  25345
 k-point ** :  0.16670.41670.4167  plane waves:  25330
 k-point ** :  0.25000.41670.4167  plane waves:  25337
 k-point ** :  0.33330.41670.4167  plane waves:  25335
 k-point ** :  0.41670.41670.4167  plane waves:  25344
 k-point ** :  0.50000.41670.4167  plane waves:  25346
 k-point ** :  0.00000.50000.4167  plane waves:  25368
 k-point ** :  0.08330.50000.4167  plane waves:  25354
 k-point ** :  0.16670.50000.4167  plane waves:  25344
 k-point ** :  0.25000.50000.4167  plane waves:  25346
 k-point ** :  0.33330.50000.4167  plane waves:  25344
 k-point ** :  0.41670.50000.4167  plane waves:  25346
 k-point ** :  0.50000.50000.4167  plane waves:  25316
 k-point ** :  0.00000.50000.5000  plane waves:  25404
 k-point ** :  0.08330.50000.5000  plane waves:  25368
 k-point ** :  0.16670.50000.5000  plane waves:  25392
 k-point ** :  0.25000.50000.5000  plane waves:  25324
 k-point ** :  0.33330.50000.5000  plane waves:  25360
 k-point ** :  0.41670.50000.5000  plane waves:  25316
 k-point ** :  0.50000.50000.5000  plane waves:  25288

 maximum and minimum number of plane-waves per node :  25413 25288

 maximum number of plane-waves:  25413
 maximal index in each direction: 
   IXMAX= 18   IYMAX= 18   IZMAX= 18
   IXMIN=-18   IYMIN=-18   IZMIN=-18

 NGX is ok and might be reduce to  74
 NGY is ok and might be reduce to  74
 NGZ is ok and might be reduce to  74

 parallel 3dFFT wavefunction:
    minimum data exchange during FFTs selected (reduces bandwidth)
 parallel 3dFFT charge:
    minimum data exchange during FFTs selected (reduces bandwidth)

 For storing wavefunctions ******* MBYTES are necessary
 For predicting wavefunctions  186.28 MBYTES are necessary
Broyden mixing: mesh for mixing (old mesh)
   NGX = 37   NGY = 37   NGZ = 37
  (NGX  =160   NGY  =160   NGZ  =160)
 gives a total of  50653 points
 initial charge density was supplied:
 charge density of overlapping atoms calculated
 number of electron  352.0000000 magnetization 
 keeping initial charge density in first step


--------------------------------------------------------------------------------------------------------


 Maximum index for augmentation-charges        89891 (set IRDMAX)


--------------------------------------------------------------------------------------------------------


 First call to EWALD:  gamma=   0.217
 Maximum number of real-space cells 3x 3x 3
 Maximum number of reciprocal cells 3x 3x 3

    FEWALD:  VPU time    0.00: CPU time    0.00


----------------------------------------- Iteration    1(   1)  ---------------------------------------


    POTLOK:  VPU time    0.72: CPU time    0.72
    SETDIJ:  VPU time    1.30: CPU time    1.31
    EDDAV :  VPU time 2864.04: CPU time 2868.70
    DOS   :  VPU time    0.00: CPU time   -0.00
    ------------------------------------------
      LOOP:  VPU time 2866.26: CPU time 2870.92

 eigenvalue-minimisations  : 83144
 total energy-change (2. order) : 0.4372155E+04  (-0.2147981E+05)
 number of electron  352.0000000 magnetization 
 augmentation part   352.0000000 magnetization 

 Free energy of the ion-electron system (eV)
  ---------------------------------------------------
  alpha Z        PSCENC =      3346.80653808
  Ewald energy   TEWEN  =    -31327.91764054
  -1/2 Hartree   DENC   =     -6460.31342718
  -V(xc)+E(xc)   XCENC  =      -341.91943781
  PAW double counting   =     27861.41421209   -26376.63839568
  entropy T*S    EENTRO =        -0.00054408
  eigenvalues    EBANDS =      4473.52650927
  atomic energy  EATOM  =     33197.19690173
  ---------------------------------------------------
  free energy    TOTEN  =      4372.15471589 eV

  energy without entropy =     4372.15525997  energy(sigma->0) =     4372.15498793


--------------------------------------------------------------------------------------------------------




----------------------------------------- Iteration    1(   2)  ---------------------------------------


    EDDAV :  VPU time 2856.80: CPU time 2861.40
    DOS   :  VPU time    0.00: CPU time   -0.00
    ------------------------------------------
      LOOP:  VPU time 2856.99: CPU time 2861.60

 eigenvalue-minimisations  : 83104
 total energy-change (2. order) :-0.4237799E+04  (-0.4057817E+04)
 number of electron  352.0000000 magnetization 
 augmentation part   352.0000000 magnetization 

 Free energy of the ion-electron system (eV)
  ---------------------------------------------------
  alpha Z        PSCENC =      3346.80653808
  Ewald energy   TEWEN  =    -31327.91764054
  -1/2 Hartree   DENC   =     -6460.31342718
  -V(xc)+E(xc)   XCENC  =      -341.91943781
  PAW double counting   =     27861.41421209   -26376.63839568
  entropy T*S    EENTRO =        -0.00047981
  eigenvalues    EBANDS =       235.72694731
  atomic energy  EATOM  =     33197.19690173
  ---------------------------------------------------
  free energy    TOTEN  =       134.35521819 eV

  energy without entropy =      134.35569800  energy(sigma->0) =      134.35545810


--------------------------------------------------------------------------------------------------------




----------------------------------------- Iteration    1(   3)  ---------------------------------------


    EDDAV :  VPU time 2960.91: CPU time 2965.58
    DOS   :  VPU time    0.00: CPU time   -0.00
    ------------------------------------------
      LOOP:  VPU time 2961.11: CPU time 2965.78

 eigenvalue-minimisations  : 86900
 total energy-change (2. order) :-0.2271045E+03  (-0.2162713E+03)
 number of electron  352.0000000 magnetization 
 augmentation part   352.0000000 magnetization 

 Free energy of the ion-electron system (eV)
  ---------------------------------------------------
  alpha Z        PSCENC =      3346.80653808
  Ewald energy   TEWEN  =    -31327.91764054
  -1/2 Hartree   DENC   =     -6460.31342718
  -V(xc)+E(xc)   XCENC  =      -341.91943781
  PAW double counting   =     27861.41421209   -26376.63839568
  entropy T*S    EENTRO =        -0.00063446
  eigenvalues    EBANDS =         8.62263154
  atomic energy  EATOM  =     33197.19690173
  ---------------------------------------------------
  free energy    TOTEN  =       -92.74925222 eV

  energy without entropy =      -92.74861776  energy(sigma->0) =      -92.74893499


--------------------------------------------------------------------------------------------------------




----------------------------------------- Iteration    1(   4)  ---------------------------------------


    EDDAV :  VPU time 3033.52: CPU time 3038.29
    DOS   :  VPU time   -0.00: CPU time   -0.00
    ------------------------------------------
      LOOP:  VPU time 3033.71: CPU time 3038.50

 eigenvalue-minimisations  : 89376
 total energy-change (2. order) :-0.4733434E+01  (-0.4701502E+01)
 number of electron  352.0000000 magnetization 
 augmentation part   352.0000000 magnetization 

 Free energy of the ion-electron system (eV)
  ---------------------------------------------------
  alpha Z        PSCENC =      3346.80653808
  Ewald energy   TEWEN  =    -31327.91764054
  -1/2 Hartree   DENC   =     -6460.31342718
  -V(xc)+E(xc)   XCENC  =      -341.91943781
  PAW double counting   =     27861.41421209   -26376.63839568
  entropy T*S    EENTRO =        -0.00078323
  eigenvalues    EBANDS =         3.88934658
  atomic energy  EATOM  =     33197.19690173
  ---------------------------------------------------
  free energy    TOTEN  =       -97.48268595 eV

  energy without entropy =      -97.48190272  energy(sigma->0) =      -97.48229434


--------------------------------------------------------------------------------------------------------




----------------------------------------- Iteration    1(   5)  ---------------------------------------


    EDDAV :  VPU time 2984.26: CPU time 2990.04
    DOS   :  VPU time    0.00: CPU time   -0.00
    CHARGE:  VPU time  117.28: CPU time  117.52
    MIXING:  VPU time    0.02: CPU time    0.02
    ------------------------------------------
      LOOP:  VPU time 3101.76: CPU time 3107.78

 eigenvalue-minimisations  : 88276
 total energy-change (2. order) :-0.2780242E-01  (-0.2777176E-01)
 number of electron  352.0000011 magnetization 
 augmentation part   162.7532518 magnetization 

 Broyden mixing:
  rms(total) = 0.16584E+01    rms(broyden)= 0.16584E+01
  rms(prec ) = 0.25131E+01
  weight for this iteration     100.00

 Free energy of the ion-electron system (eV)
  ---------------------------------------------------
  alpha Z        PSCENC =      3346.80653808
  Ewald energy   TEWEN  =    -31327.91764054
  -1/2 Hartree   DENC   =     -6460.31342718
  -V(xc)+E(xc)   XCENC  =      -341.91943781
  PAW double counting   =     27861.41421209   -26376.63839568
  entropy T*S    EENTRO =        -0.00078455
  eigenvalues    EBANDS =         3.86154549
  atomic energy  EATOM  =     33197.19690173
  ---------------------------------------------------
  free energy    TOTEN  =       -97.51048837 eV

  energy without entropy =      -97.50970382  energy(sigma->0) =      -97.51009609


--------------------------------------------------------------------------------------------------------




----------------------------------------- Iteration    1(   6)  ---------------------------------------


    POTLOK:  VPU time    0.71: CPU time    0.71
    SETDIJ:  VPU time    1.25: CPU time    1.25
    EDDAV :  VPU time 2963.89: CPU time 2976.11
    DOS   :  VPU time    0.00: CPU time   -0.00
    CHARGE:  VPU time  118.67: CPU time  119.53
    MIXING:  VPU time    0.02: CPU time    0.02
    ------------------------------------------
      LOOP:  VPU time 3084.73: CPU time 3097.82

 eigenvalue-minimisations  : 87676
 total energy-change (2. order) : 0.7340351E+01  (-0.2632169E+01)
 number of electron  352.0000011 magnetization 
 augmentation part   168.1284753 magnetization 

 Broyden mixing:
  rms(total) = 0.30438E+00    rms(broyden)= 0.30438E+00
  rms(prec ) = 0.43608E+00
  weight for this iteration     100.00

 eigenvalues of (default mixing * dielectric matrix)
  average eigenvalue GAMMA=   1.0903
  1.0903

 Free energy of the ion-electron system (eV)
  ---------------------------------------------------
  alpha Z        PSCENC =      3346.80653808
  Ewald energy   TEWEN  =    -31327.91764054
  -1/2 Hartree   DENC   =     -6158.66989485
  -V(xc)+E(xc)   XCENC  =      -352.75366570
  PAW double counting   =     27530.55051399   -26074.30421754
  entropy T*S    EENTRO =        -0.00094161
  eigenvalues    EBANDS =      -251.07773045
  atomic energy  EATOM  =     33197.19690173
  ---------------------------------------------------
  free energy    TOTEN  =       -90.17013688 eV

  energy without entropy =      -90.16919527  energy(sigma->0) =      -90.16966607


--------------------------------------------------------------------------------------------------------




----------------------------------------- Iteration    1(   7)  ---------------------------------------


    POTLOK:  VPU time    0.71: CPU time    0.71
    SETDIJ:  VPU time    1.27: CPU time    1.28
    EDDAV :  VPU time 2950.14: CPU time 2958.33
    DOS   :  VPU time    0.00: CPU time   -0.00
    CHARGE:  VPU time  120.80: CPU time  121.07
    MIXING:  VPU time    0.02: CPU time    0.02
    ------------------------------------------
      LOOP:  VPU time 3073.13: CPU time 3081.60

 eigenvalue-minimisations  : 86956
 total energy-change (2. order) : 0.2358637E+00  (-0.5273397E-01)
 number of electron  352.0000011 magnetization 
 augmentation part   168.5314302 magnetization 

 Broyden mixing:
  rms(total) = 0.15254E+00    rms(broyden)= 0.15254E+00
  rms(prec ) = 0.20154E+00
  weight for this iteration     100.00

 eigenvalues of (default mixing * dielectric matrix)
  average eigenvalue GAMMA=   1.7333
  1.0570  2.4095

 Free energy of the ion-electron system (eV)
  ---------------------------------------------------
  alpha Z        PSCENC =      3346.80653808
  Ewald energy   TEWEN  =    -31327.91764054
  -1/2 Hartree   DENC   =     -6110.32341626
  -V(xc)+E(xc)   XCENC  =      -354.56697816
  PAW double counting   =     27648.85123789   -26215.56316445
  entropy T*S    EENTRO =        -0.00108233
  eigenvalues    EBANDS =      -274.41666917
  atomic energy  EATOM  =     33197.19690173
[...]
     68      -1.0853      2.00000
     69      -1.0847      2.00000
     70      -1.0846      2.00000
     71      -1.0842      2.00000
     72      -1.0842      2.00000
     73      -1.0366      2.00000
     74      -1.0364      2.00000
     75      -1.0351      2.00000
     76      -1.0351      2.00000
     77      -1.0350      2.00000
     78      -1.0350      2.00000
     79      -1.0337      2.00000
     80      -1.0334      2.00000
     81      -0.8017      2.00000
     82      -0.8017      2.00000
     83      -0.8004      2.00000
     84      -0.8000      2.00000
     85      -0.7988      2.00000
     86      -0.7985      2.00000
     87      -0.7985      2.00000
     88      -0.7985      2.00000
     89      -0.7985      2.00000
     90      -0.7985      2.00000
     91      -0.7984      2.00000
     92      -0.7984      2.00000
     93      -0.7983      2.00000
     94      -0.7983      2.00000
     95      -0.7982      2.00000
     96      -0.7982      2.00000
     97      -0.7982      2.00000
     98      -0.7982      2.00000
     99      -0.7982      2.00000
    100      -0.7979      2.00000
    101      -0.7967      2.00000
    102      -0.7962      2.00000
    103      -0.7950      2.00000
    104      -0.7950      2.00000
    105      -0.4474      2.00000
    106      -0.4461      2.00000
    107      -0.4461      2.00000
    108      -0.4442      2.00000
    109      -0.4441      2.00000
    110      -0.4440      2.00000
    111      -0.4440      2.00000
    112      -0.4438      2.00000
    113      -0.4436      2.00000
    114      -0.4436      2.00000
    115      -0.4436      2.00000
    116      -0.4436      2.00000
    117      -0.4435      2.00000
    118      -0.4435      2.00000
    119      -0.4435      2.00000
    120      -0.4435      2.00000
    121      -0.4434      2.00000
    122      -0.4431      2.00000
    123      -0.4431      2.00000
    124      -0.4431      2.00000
    125      -0.4429      2.00000
    126      -0.4410      2.00000
    127      -0.4410      2.00000
    128      -0.4398      2.00000
    129      -0.1199      2.00000
    130      -0.1186      2.00000
    131      -0.1186      2.00000
    132      -0.1186      2.00000
    133      -0.1177      2.00000
    134      -0.1177      2.00000
    135      -0.1175      2.00000
    136      -0.1174      2.00000
    137      -0.1173      2.00000
    138      -0.1172      2.00000
    139      -0.1170      2.00000
    140      -0.1170      2.00000
    141      -0.1161      2.00000
    142      -0.1161      2.00000
    143      -0.1160      2.00000
    144      -0.1147      2.00000
    145       0.6132      2.00000
    146       0.6132      2.00000
    147       0.6135      2.00000
    148       0.6136      2.00000
    149       0.6137      2.00000
    150       0.6137      2.00000
    151       0.6137      2.00000
    152       0.6137      2.00000
    153       0.6138      2.00000
    154       0.6139      2.00000
    155       0.6139      2.00000
    156       0.6139      2.00000
    157       0.6141      2.00000
    158       0.6141      2.00000
    159       0.6141      2.00000
    160       0.6142      2.00000
    161       0.6142      2.00000
    162       0.6143      2.00000
    163       0.6143      2.00000
    164       0.6143      2.00000
    165       0.6144      2.00000
    166       0.6146      2.00000
    167       0.6148      2.00000
    168       0.6148      2.00000
    169       4.5665      0.00000
    170       4.5685      0.00000
    171       4.5685      0.00000
    172       4.5709      0.00000
    173       4.5713      0.00000
    174       4.5714      0.00000
    175       4.5714      0.00000
    176       4.5715      0.00000
    177       4.5716      0.00000
    178       4.5716      0.00000
    179       4.5716      0.00000
    180       4.5716      0.00000
    181       4.5718      0.00000
    182       4.5719      0.00000
    183       4.5719      0.00000
    184       4.5719      0.00000
    185       4.5719      0.00000
    186       4.5721      0.00000
    187       4.5721      0.00000
    188       4.5721      0.00000
    189       4.5725      0.00000
    190       4.5750      0.00000
    191       4.5750      0.00000
    192       4.5769      0.00000
    193       9.7322      0.00000
    194       9.7323      0.00000
    195       9.7337      0.00000
    196       9.7363      0.00000
    197       9.7366      0.00000
    198       9.7369      0.00000
    199       9.7371      0.00000
    200       9.7373      0.00000
    201       9.7374      0.00000
    202       9.7374      0.00000
    203       9.7375      0.00000
    204       9.7376      0.00000
    205       9.7376      0.00000
    206       9.7378      0.00000
    207       9.7378      0.00000
    208       9.7381      0.00000
    209       9.7385      0.00000
    210       9.7390      0.00000
    211       9.7393      0.00000
    212       9.7403      0.00000


--------------------------------------------------------------------------------------------------------


 soft charge-density along one line, spin component           1
         0         1         2         3         4         5         6         7         8         9
 total charge-density along one line
 
 pseudopotential strength for first ion, spin component:           1
-11.968  -0.000  -0.000  -0.000   0.000   0.092   0.000   0.000
 -0.000 -11.968   0.000  -0.000   0.000   0.000   0.092  -0.000
 -0.000   0.000 -11.957   0.000  -0.000   0.000  -0.000   0.090
 -0.000  -0.000   0.000 -11.968  -0.000   0.000   0.000  -0.000
  0.000   0.000  -0.000  -0.000 -11.957  -0.000  -0.000   0.000
  0.092   0.000   0.000   0.000  -0.000   0.464  -0.000  -0.000
  0.000   0.092  -0.000   0.000  -0.000  -0.000   0.464   0.000
  0.000  -0.000   0.090  -0.000   0.000  -0.000   0.000   0.465
  0.000   0.000  -0.000   0.092   0.000  -0.000  -0.000   0.000
 -0.000  -0.000   0.000   0.000   0.090   0.000   0.000  -0.000
 -0.000   0.000   0.000   0.000  -0.000   0.000  -0.000  -0.000
  0.000  -0.000  -0.000  -0.000   0.000  -0.000   0.000   0.000
  0.000  -0.000   0.000  -0.000  -0.000   0.000   0.000  -0.000
 -0.000  -0.000   0.000   0.000  -0.000   0.000   0.000   0.000
 -0.000  -0.000   0.000  -0.000  -0.000   0.000   0.000  -0.000
  0.000   0.000  -0.000   0.000   0.000  -0.000  -0.000   0.000
  0.000   0.000  -0.000   0.000   0.000  -0.000  -0.000   0.000
  0.000   0.000  -0.000   0.000   0.000  -0.000  -0.000   0.000
 total augmentation occupancy for first ion, spin component:           1
  1.936   0.000  -0.001  -0.000  -0.000  -0.014  -0.000  -0.000   0.000   0.000   0.004  -0.000   0.000   0.000   0.000  -0.000
  0.000   1.939  -0.001  -0.001  -0.001  -0.000  -0.017   0.002   0.000   0.000   0.004  -0.001   0.000   0.000  -0.000  -0.000
 -0.001  -0.001   1.966  -0.001  -0.003  -0.000   0.002  -0.050   0.001   0.002   0.014   0.002  -0.000  -0.000  -0.000  -0.000
 -0.000  -0.001  -0.001   1.942   0.000   0.000   0.000   0.001  -0.021   0.001   0.003  -0.001   0.000   0.000  -0.000  -0.000
 -0.000  -0.001  -0.003   0.000   1.957   0.000   0.000   0.002   0.001  -0.043   0.008   0.001   0.000   0.000   0.000  -0.000
 -0.014  -0.000  -0.000   0.000   0.000   0.090   0.000   0.001   0.000  -0.000  -0.002   0.001   0.001  -0.000  -0.000  -0.000
 -0.000  -0.017   0.002   0.000   0.000   0.000   0.093  -0.002  -0.000   0.001  -0.001   0.001  -0.000  -0.000   0.000   0.000
 -0.000   0.002  -0.050   0.001   0.002   0.001  -0.002   0.080  -0.002  -0.001  -0.012  -0.000   0.000   0.000  -0.000   0.000
  0.000   0.000   0.001  -0.021   0.001   0.000  -0.000  -0.002   0.097  -0.002   0.000   0.001  -0.000   0.001   0.000   0.000
  0.000   0.000   0.002   0.001  -0.043  -0.000   0.001  -0.001  -0.002   0.076  -0.007  -0.000  -0.000  -0.000   0.000   0.000
  0.004   0.004   0.014   0.003   0.008  -0.002  -0.001  -0.012   0.000  -0.007   1.075  -0.380   0.000  -0.000   0.002   0.000
 -0.000  -0.001   0.002  -0.001   0.001   0.001   0.001  -0.000   0.001  -0.000  -0.380   0.204   0.000  -0.000  -0.001  -0.000
  0.000   0.000  -0.000   0.000   0.000   0.001  -0.000   0.000  -0.000  -0.000   0.000   0.000   0.120   0.000   0.002  -0.007
  0.000   0.000  -0.000   0.000   0.000  -0.000  -0.000   0.000   0.001  -0.000  -0.000  -0.000   0.000   0.126  -0.001  -0.000
  0.000  -0.000  -0.000  -0.000   0.000  -0.000   0.000  -0.000   0.000   0.000   0.002  -0.001   0.002  -0.001   0.123  -0.000
 -0.000  -0.000  -0.000  -0.000  -0.000  -0.000   0.000   0.000   0.000   0.000   0.000  -0.000  -0.007  -0.000  -0.000   0.000
 -0.000  -0.000   0.000  -0.000   0.000   0.000   0.000  -0.000  -0.000   0.000   0.000   0.000  -0.000  -0.007  -0.000   0.000
  0.000  -0.000   0.000   0.000  -0.000  -0.000  -0.000   0.000  -0.000  -0.000  -0.000   0.000  -0.000  -0.000  -0.007   0.000


------------------------ aborting loop because EDIFF is reached ----------------------------------------




--------------------------------------------------------------------------------------------------------


    CHARGE:  VPU time   96.01: CPU time   96.18
    FORLOC:  VPU time    0.12: CPU time    0.12
    FORNL :  VPU time  674.06: CPU time  675.19
    STRESS:  VPU time 3783.89: CPU time 3790.93
    FORCOR:  VPU time    0.85: CPU time    0.85
    FORHAR:  VPU time    0.27: CPU time    0.27
    MIXING:  VPU time    0.02: CPU time    0.02


--------------------------------------------------------------------------------------------------------



  FREE ENERGIE OF THE ION-ELECTRON SYSTEM (eV)
  ---------------------------------------------------
  free  energy   TOTEN  =       -89.831106 eV

  energy  without entropy=      -89.830017  energy(sigma->0) =      -89.830562
 

  FORCE on cell =-STRESS in cart. coord.  units (eV/reduce length):
  Direction    X        Y        Z        XY       YZ       ZX
  --------------------------------------------------------------------------------------
  Alpha Z   3346.81   3346.81   3346.81
  Ewald   -10442.71 -10442.67 -10442.67     -0.00      0.00      0.00
  Hartree   2023.69   2023.72   2023.72     -0.00     -0.00     -0.00
  E(xc)    -1864.07  -1864.07  -1864.07      0.00     -0.00     -0.00
  Local     3337.06   3336.99   3336.99     -0.00     -0.00      0.00
  n-local  -2081.13  -2085.19  -2077.07      1.92      1.22      0.52
  augment   1342.64   1342.64   1342.64     -0.00     -0.00     -0.00
  Kinetic   4359.69   4352.94   4366.45      0.79     -0.61     -2.01
  -------------------------------------------------------------------------------------
  Total       21.98     21.98     21.98      0.00      0.00     -0.00
  in kB       64.81     64.81     64.81      0.00      0.00     -0.00
  external pressure =       64.81 kB  Pullay stress =        0.00 kB


 VOLUME and BASIS-vectors are now :
 -----------------------------------------------------------------------------
  energy-cutoff  :      750.00
  volume of cell :      543.32
      direct lattice vectors                 reciprocal lattice vectors
     8.159920572  0.000000000  0.000000000     0.122550212  0.000000000  0.000000000
     0.000000000  8.159920572  0.000000000     0.000000000  0.122550212  0.000000000
     0.000000000  0.000000000  8.159920572     0.000000000  0.000000000  0.122550212

  length of vectors
     8.159920572  8.159920572  8.159920572     0.122550212  0.122550212  0.122550212


 FORCES acting on ions
    electron-ion (+dipol)            ewald-force                    non-local-force                 convergence-correction
 -----------------------------------------------------------------------------------------------
   0.413E+01 0.815E-13 0.531E-07   -.416E+01 0.924E-13 -.213E-13   -.241E-01 -.224E-19 -.186E-19   -.180E-04 0.500E-13 -.148E-12
   -.109E+01 0.234E-12 -.545E-07   0.110E+01 -.711E-13 -.284E-13   -.851E-02 0.130E-19 0.724E-20   0.190E-04 0.539E-13 -.260E-12
   0.345E+00 -.125E-12 -.222E-10   -.348E+00 -.533E-13 -.142E-13   0.261E-02 0.482E-20 -.503E-20   -.422E-05 -.214E-12 -.673E-13
   -.278E+00 0.113E-11 -.222E-10   0.273E+00 -.568E-13 -.426E-13   0.411E-02 -.394E-20 0.152E-20   -.347E-05 -.215E-12 -.110E-12
   0.345E+00 0.743E-13 -.850E-10   -.348E+00 -.746E-13 -.391E-13   0.261E-02 -.511E-21 -.637E-20   -.378E-05 0.601E-13 0.233E-13
   -.278E+00 0.220E-13 -.836E-10   0.273E+00 -.711E-13 0.142E-13   0.411E-02 -.315E-20 -.224E-20   -.356E-05 0.649E-13 0.102E-12
   0.144E+00 -.118E-12 0.338E-10   -.144E+00 -.817E-13 -.213E-13   -.632E-03 0.170E-20 0.636E-20   0.482E-05 -.226E-12 -.678E-13
   -.134E+00 -.626E-11 0.354E-10   0.134E+00 -.853E-13 0.426E-13   -.801E-03 -.464E-20 0.260E-20   -.245E-05 -.225E-12 -.446E-13
   -.524E+00 -.101E+01 0.371E-10   0.528E+00 0.102E+01 0.107E-13   0.423E-02 0.250E-02 -.319E-20   0.573E-05 0.113E-04 -.197E-12
   -.528E+00 0.100E+01 0.291E-10   0.531E+00 -.101E+01 0.391E-13   0.427E-02 -.254E-02 0.137E-19   0.110E-05 -.847E-05 -.137E-12
   -.524E+00 0.101E+01 0.370E-10   0.528E+00 -.102E+01 0.000E+00   0.423E-02 -.250E-02 0.949E-20   0.573E-05 -.113E-04 -.147E-12
   -.528E+00 -.100E+01 0.445E-10   0.531E+00 0.101E+01 -.568E-13   0.427E-02 0.254E-02 -.105E-19   0.110E-05 0.847E-05 -.105E-12
   -.144E-01 -.838E-01 0.896E-10   0.161E-01 0.834E-01 -.249E-13   -.144E-02 0.355E-03 -.548E-20   0.316E-05 0.339E-05 0.554E-13
   -.161E-01 0.836E-01 0.905E-10   0.177E-01 -.833E-01 0.320E-13   -.143E-02 -.356E-03 0.452E-20   -.621E-06 -.490E-06 -.130E-13
   -.144E-01 0.838E-01 0.898E-10   0.161E-01 -.834E-01 -.284E-13   -.144E-02 -.355E-03 0.536E-20   0.316E-05 -.339E-05 -.230E-14
   -.161E-01 -.836E-01 0.751E-10   0.177E-01 0.833E-01 0.284E-13   -.143E-02 0.356E-03 -.715E-20   -.621E-06 0.490E-06 -.382E-13
   -.524E+00 0.339E-13 -.101E+01   0.528E+00 -.107E-13 0.102E+01   0.423E-02 -.155E-20 0.250E-02   0.565E-05 0.268E-13 0.114E-04
   -.528E+00 0.601E-13 0.100E+01   0.531E+00 -.107E-13 -.101E+01   0.427E-02 -.499E-20 -.254E-02   0.102E-05 0.644E-13 -.854E-05
   -.144E-01 0.787E-12 -.838E-01   0.161E-01 -.213E-13 0.834E-01   -.144E-02 0.329E-20 0.355E-03   0.318E-05 -.182E-12 0.346E-05
   -.161E-01 0.919E-11 0.836E-01   0.177E-01 -.213E-13 -.833E-01   -.143E-02 0.184E-20 -.356E-03   -.598E-06 -.221E-12 -.562E-06
   -.524E+00 0.118E-12 0.101E+01   0.528E+00 -.284E-13 -.102E+01   0.423E-02 0.863E-20 -.250E-02   0.565E-05 0.786E-13 -.114E-04
   -.528E+00 0.871E-13 -.100E+01   0.531E+00 -.284E-13 0.101E+01   0.427E-02 0.409E-20 0.254E-02   0.102E-05 0.940E-13 0.854E-05
   -.144E-01 0.102E-11 0.838E-01   0.161E-01 -.426E-13 -.834E-01   -.144E-02 0.390E-20 -.355E-03   0.318E-05 -.235E-12 -.346E-05
   -.161E-01 -.662E-11 -.836E-01   0.177E-01 -.426E-13 0.833E-01   -.143E-02 0.322E-20 0.356E-03   -.598E-06 -.251E-12 0.562E-06
   0.653E+00 0.253E-02 0.253E-02   -.656E+00 -.253E-02 -.253E-02   0.186E-02 -.159E-04 -.159E-04   -.891E-05 0.157E-05 0.157E-05
   -.366E+00 -.745E-03 -.745E-03   0.369E+00 0.758E-03 0.758E-03   -.234E-02 -.128E-04 -.128E-04   0.242E-05 0.120E-05 0.120E-05
   0.653E+00 -.253E-02 0.253E-02   -.656E+00 0.253E-02 -.253E-02   0.186E-02 0.159E-04 -.159E-04   -.891E-05 -.157E-05 0.157E-05
   -.366E+00 0.745E-03 -.745E-03   0.369E+00 -.758E-03 0.758E-03   -.234E-02 0.128E-04 -.128E-04   0.242E-05 -.120E-05 0.120E-05
   0.653E+00 0.253E-02 -.253E-02   -.656E+00 -.253E-02 0.253E-02   0.186E-02 -.159E-04 0.159E-04   -.891E-05 0.157E-05 -.157E-05
   -.366E+00 -.745E-03 0.745E-03   0.369E+00 0.758E-03 -.758E-03   -.234E-02 -.128E-04 0.128E-04   0.242E-05 0.120E-05 -.120E-05
   0.653E+00 -.253E-02 -.253E-02   -.656E+00 0.253E-02 0.253E-02   0.186E-02 0.159E-04 0.159E-04   -.891E-05 -.157E-05 -.157E-05
   -.366E+00 0.745E-03 0.745E-03   0.369E+00 -.758E-03 -.758E-03   -.234E-02 0.128E-04 0.128E-04   0.242E-05 -.120E-05 -.120E-05
 -----------------------------------------------------------------------------------------------
   0.106E-06 0.234E-11 -.525E-09   0.167E-13 0.189E-12 0.989E-13   -.105E-05 0.117E-17 0.171E-18   -.425E-06 -.736E-12 -.428E-12
 
 
 POSITION                                       TOTAL-FORCE (eV/Angst)
 -----------------------------------------------------------------------------------
      0.01000      0.00000      0.00000        -0.060798     -0.000000      0.000000
      4.07996      0.00000      0.00000         0.001182     -0.000000      0.000000
      0.00000      4.07996      0.00000        -0.000394     -0.000000      0.000000
      4.07996      4.07996      0.00000        -0.000425      0.000000     -0.000000
      0.00000      0.00000      4.07996        -0.000394     -0.000000      0.000000
      4.07996      0.00000      4.07996        -0.000425     -0.000000      0.000000
      0.00000      4.07996      4.07996        -0.000238     -0.000000      0.000000
      4.07996      4.07996      4.07996         0.000004     -0.000000      0.000000
      2.03998      2.03998      0.00000         0.008082      0.009455      0.000000
      6.11994      2.03998      0.00000         0.007847     -0.009119     -0.000000
      2.03998      6.11994      0.00000         0.008082     -0.009455     -0.000000
      6.11994      6.11994      0.00000         0.007847      0.009119     -0.000000
      2.03998      2.03998      4.07996         0.000221      0.000018     -0.000000
      6.11994      2.03998      4.07996         0.000224     -0.000016     -0.000000
      2.03998      6.11994      4.07996         0.000221     -0.000018     -0.000000
      6.11994      6.11994      4.07996         0.000224      0.000016     -0.000000
      2.03998      0.00000      2.03998         0.008082     -0.000000      0.009455
      6.11994      0.00000      2.03998         0.007847      0.000000     -0.009119
      2.03998      4.07996      2.03998         0.000221      0.000000      0.000018
      6.11994      4.07996      2.03998         0.000224      0.000000     -0.000016
      2.03998      0.00000      6.11994         0.008082      0.000000     -0.009455
      6.11994      0.00000      6.11994         0.007847     -0.000000      0.009119
      2.03998      4.07996      6.11994         0.000221      0.000000     -0.000018
      6.11994      4.07996      6.11994         0.000224     -0.000000      0.000016
      0.00000      2.03998      2.03998        -0.001547     -0.000013     -0.000013
      4.07996      2.03998      2.03998         0.000546      0.000001      0.000001
      0.00000      6.11994      2.03998        -0.001547      0.000013     -0.000013
      4.07996      6.11994      2.03998         0.000546     -0.000001      0.000001
      0.00000      2.03998      6.11994        -0.001547     -0.000013      0.000013
      4.07996      2.03998      6.11994         0.000546      0.000001     -0.000001
      0.00000      6.11994      6.11994        -0.001547      0.000013      0.000013
      4.07996      6.11994      6.11994         0.000546     -0.000001     -0.000001
 -----------------------------------------------------------------------------------
    total drift:                               -0.000001      0.000000     -0.000000


--------------------------------------------------------------------------------------------------------



 mean value of Nose-termostat <S>:     1.000 mean value of <T> :     0.000
 mean temperature <T/S>/<1/S>  :     0.000

     LOOP+:  VPU time47860.33: CPU time47955.93
  
  
 General timing and accounting informations for this job:
 ========================================================
  
                  Total CPU time used (sec):    48325.048
                            User time (sec):    47682.447
                          System time (sec):      642.601
                         Elapsed time (sec):    48421.465
  
                   Maximum memory used (kb):     9903592.
                   Average memory used (kb):           0.
  
                          Minor page faults:      1134241
                          Major page faults:            2
                 Voluntary context switches:         1054
