<?xml version="1.0" encoding="ISO-8859-1"?>
<modeling>
 <generator>
  <i name="program" type="string">vasp</i>
  <i name="version" type="string">4.6.28 </i>
  <i name="subversion" type="string">25Jul05 complex  parallel</i>
  <i name="platform" type="string">LinuxIFC</i>
  <i name="date" type="string">2017 01 10</i>
  <i name="time" type="string">03:59:34</i>
 </generator>
 <incar>
  <i type="string" name="PREC">accurate</i>
  <i type="int" name="IALGO">    38</i>
  <i type="logical" name="ADDGRID"> T  </i>
  <i name="EDIFF">      0.00000001</i>
  <i type="int" name="IBRION">    -1</i>
  <i name="ENCUT">    750.00000000</i>
  <i type="logical" name="LREAL"> F  </i>
  <i type="int" name="ISMEAR">     0</i>
  <i name="SIGMA">      0.01000000</i>
  <i type="logical" name="LWAVE"> F  </i>
  <i type="logical" name="LCHARG"> F  </i>
 </incar>
 <kpoints>
  <generation param="Gamma">
   <v type="int" name="divisions">      12      12      12</v>
   <v name="usershift">      0.00000000      0.00000000      0.00000000</v>
   <v name="genvec1">      0.08333333      0.00000000      0.00000000</v>
   <v name="genvec2">      0.00000000      0.08333333      0.00000000</v>
   <v name="genvec3">      0.00000000      0.00000000      0.08333333</v>
   <v name="shift">      0.00000000      0.00000000      0.00000000</v>
  </generation>
  <varray name="kpointlist" >
   <v>       0.00000000      0.00000000      0.00000000</v>
   <v>       0.08333333      0.00000000      0.00000000</v>
   <v>       0.16666667      0.00000000      0.00000000</v>
   <v>       0.25000000      0.00000000      0.00000000</v>
   <v>       0.33333333      0.00000000      0.00000000</v>
   <v>       0.41666667      0.00000000      0.00000000</v>
   <v>       0.50000000      0.00000000      0.00000000</v>
   <v>       0.00000000      0.08333333      0.00000000</v>
   <v>       0.08333333      0.08333333      0.00000000</v>
   <v>       0.16666667      0.08333333      0.00000000</v>
   <v>       0.25000000      0.08333333      0.00000000</v>
   <v>       0.33333333      0.08333333      0.00000000</v>
   <v>       0.41666667      0.08333333      0.00000000</v>
   <v>       0.50000000      0.08333333      0.00000000</v>
   <v>       0.00000000      0.16666667      0.00000000</v>
   <v>       0.08333333      0.16666667      0.00000000</v>
   <v>       0.16666667      0.16666667      0.00000000</v>
   <v>       0.25000000      0.16666667      0.00000000</v>
   <v>       0.33333333      0.16666667      0.00000000</v>
   <v>       0.41666667      0.16666667      0.00000000</v>
   <v>       0.50000000      0.16666667      0.00000000</v>
   <v>       0.00000000      0.25000000      0.00000000</v>
   <v>       0.08333333      0.25000000      0.00000000</v>
   <v>       0.16666667      0.25000000      0.00000000</v>
   <v>       0.25000000      0.25000000      0.00000000</v>
   <v>       0.33333333      0.25000000      0.00000000</v>
   <v>       0.41666667      0.25000000      0.00000000</v>
   <v>       0.50000000      0.25000000      0.00000000</v>
   <v>       0.00000000      0.33333333      0.00000000</v>
   <v>       0.08333333      0.33333333      0.00000000</v>
   <v>       0.16666667      0.33333333      0.00000000</v>
   <v>       0.25000000      0.33333333      0.00000000</v>
   <v>       0.33333333      0.33333333      0.00000000</v>
   <v>       0.41666667      0.33333333      0.00000000</v>
   <v>       0.50000000      0.33333333      0.00000000</v>
   <v>       0.00000000      0.41666667      0.00000000</v>
   <v>       0.08333333      0.41666667      0.00000000</v>
   <v>       0.16666667      0.41666667      0.00000000</v>
   <v>       0.25000000      0.41666667      0.00000000</v>
   <v>       0.33333333      0.41666667      0.00000000</v>
   <v>       0.41666667      0.41666667      0.00000000</v>
   <v>       0.50000000      0.41666667      0.00000000</v>
   <v>       0.00000000      0.50000000      0.00000000</v>
   <v>       0.08333333      0.50000000      0.00000000</v>
   <v>       0.16666667      0.50000000      0.00000000</v>
   <v>       0.25000000      0.50000000      0.00000000</v>
   <v>       0.33333333      0.50000000      0.00000000</v>
   <v>       0.41666667      0.50000000      0.00000000</v>
   <v>       0.50000000      0.50000000      0.00000000</v>
   <v>       0.00000000      0.08333333      0.08333333</v>
   <v>       0.08333333      0.08333333      0.08333333</v>
   <v>       0.16666667      0.08333333      0.08333333</v>
   <v>       0.25000000      0.08333333      0.08333333</v>
   <v>       0.33333333      0.08333333      0.08333333</v>
   <v>       0.41666667      0.08333333      0.08333333</v>
   <v>       0.50000000      0.08333333      0.08333333</v>
   <v>       0.00000000      0.16666667      0.08333333</v>
   <v>       0.08333333      0.16666667      0.08333333</v>
   <v>       0.16666667      0.16666667      0.08333333</v>
   <v>       0.25000000      0.16666667      0.08333333</v>
   <v>       0.33333333      0.16666667      0.08333333</v>
   <v>       0.41666667      0.16666667      0.08333333</v>
   <v>       0.50000000      0.16666667      0.08333333</v>
   <v>       0.00000000      0.25000000      0.08333333</v>
   <v>       0.08333333      0.25000000      0.08333333</v>
   <v>       0.16666667      0.25000000      0.08333333</v>
   <v>       0.25000000      0.25000000      0.08333333</v>
   <v>       0.33333333      0.25000000      0.08333333</v>
   <v>       0.41666667      0.25000000      0.08333333</v>
   <v>       0.50000000      0.25000000      0.08333333</v>
   <v>       0.00000000      0.33333333      0.08333333</v>
   <v>       0.08333333      0.33333333      0.08333333</v>
   <v>       0.16666667      0.33333333      0.08333333</v>
   <v>       0.25000000      0.33333333      0.08333333</v>
   <v>       0.33333333      0.33333333      0.08333333</v>
   <v>       0.41666667      0.33333333      0.08333333</v>
   <v>       0.50000000      0.33333333      0.08333333</v>
   <v>       0.00000000      0.41666667      0.08333333</v>
   <v>       0.08333333      0.41666667      0.08333333</v>
   <v>       0.16666667      0.41666667      0.08333333</v>
   <v>       0.25000000      0.41666667      0.08333333</v>
   <v>       0.33333333      0.41666667      0.08333333</v>
   <v>       0.41666667      0.41666667      0.08333333</v>
   <v>       0.50000000      0.41666667      0.08333333</v>
   <v>       0.00000000      0.50000000      0.08333333</v>
   <v>       0.08333333      0.50000000      0.08333333</v>
   <v>       0.16666667      0.50000000      0.08333333</v>
   <v>       0.25000000      0.50000000      0.08333333</v>
   <v>       0.33333333      0.50000000      0.08333333</v>
   <v>       0.41666667      0.50000000      0.08333333</v>
   <v>       0.50000000      0.50000000      0.08333333</v>
   <v>       0.00000000      0.16666667      0.16666667</v>
   <v>       0.08333333      0.16666667      0.16666667</v>
   <v>       0.16666667      0.16666667      0.16666667</v>
   <v>       0.25000000      0.16666667      0.16666667</v>
   <v>       0.33333333      0.16666667      0.16666667</v>
   <v>       0.41666667      0.16666667      0.16666667</v>
   <v>       0.50000000      0.16666667      0.16666667</v>
   <v>       0.00000000      0.25000000      0.16666667</v>
   <v>       0.08333333      0.25000000      0.16666667</v>
   <v>       0.16666667      0.25000000      0.16666667</v>
   <v>       0.25000000      0.25000000      0.16666667</v>
   <v>       0.33333333      0.25000000      0.16666667</v>
   <v>       0.41666667      0.25000000      0.16666667</v>
   <v>       0.50000000      0.25000000      0.16666667</v>
   <v>       0.00000000      0.33333333      0.16666667</v>
   <v>       0.08333333      0.33333333      0.16666667</v>
   <v>       0.16666667      0.33333333      0.16666667</v>
   <v>       0.25000000      0.33333333      0.16666667</v>
   <v>       0.33333333      0.33333333      0.16666667</v>
   <v>       0.41666667      0.33333333      0.16666667</v>
   <v>       0.50000000      0.33333333      0.16666667</v>
   <v>       0.00000000      0.41666667      0.16666667</v>
   <v>       0.08333333      0.41666667      0.16666667</v>
   <v>       0.16666667      0.41666667      0.16666667</v>
   <v>       0.25000000      0.41666667      0.16666667</v>
   <v>       0.33333333      0.41666667      0.16666667</v>
   <v>       0.41666667      0.41666667      0.16666667</v>
   <v>       0.50000000      0.41666667      0.16666667</v>
   <v>       0.00000000      0.50000000      0.16666667</v>
   <v>       0.08333333      0.50000000      0.16666667</v>
   <v>       0.16666667      0.50000000      0.16666667</v>
   <v>       0.25000000      0.50000000      0.16666667</v>
   <v>       0.33333333      0.50000000      0.16666667</v>
   <v>       0.41666667      0.50000000      0.16666667</v>
   <v>       0.50000000      0.50000000      0.16666667</v>
   <v>       0.00000000      0.25000000      0.25000000</v>
   <v>       0.08333333      0.25000000      0.25000000</v>
   <v>       0.16666667      0.25000000      0.25000000</v>
   <v>       0.25000000      0.25000000      0.25000000</v>
   <v>       0.33333333      0.25000000      0.25000000</v>
   <v>       0.41666667      0.25000000      0.25000000</v>
   <v>       0.50000000      0.25000000      0.25000000</v>
   <v>       0.00000000      0.33333333      0.25000000</v>
   <v>       0.08333333      0.33333333      0.25000000</v>
   <v>       0.16666667      0.33333333      0.25000000</v>
   <v>       0.25000000      0.33333333      0.25000000</v>
   <v>       0.33333333      0.33333333      0.25000000</v>
   <v>       0.41666667      0.33333333      0.25000000</v>
   <v>       0.50000000      0.33333333      0.25000000</v>
   <v>       0.00000000      0.41666667      0.25000000</v>
   <v>       0.08333333      0.41666667      0.25000000</v>
   <v>       0.16666667      0.41666667      0.25000000</v>
   <v>       0.25000000      0.41666667      0.25000000</v>
   <v>       0.33333333      0.41666667      0.25000000</v>
   <v>       0.41666667      0.41666667      0.25000000</v>
   <v>       0.50000000      0.41666667      0.25000000</v>
   <v>       0.00000000      0.50000000      0.25000000</v>
   <v>       0.08333333      0.50000000      0.25000000</v>
   <v>       0.16666667      0.50000000      0.25000000</v>
   <v>       0.25000000      0.50000000      0.25000000</v>
   <v>       0.33333333      0.50000000      0.25000000</v>
   <v>       0.41666667      0.50000000      0.25000000</v>
   <v>       0.50000000      0.50000000      0.25000000</v>
   <v>       0.00000000      0.33333333      0.33333333</v>
   <v>       0.08333333      0.33333333      0.33333333</v>
   <v>       0.16666667      0.33333333      0.33333333</v>
   <v>       0.25000000      0.33333333      0.33333333</v>
   <v>       0.33333333      0.33333333      0.33333333</v>
   <v>       0.41666667      0.33333333      0.33333333</v>
   <v>       0.50000000      0.33333333      0.33333333</v>
   <v>       0.00000000      0.41666667      0.33333333</v>
   <v>       0.08333333      0.41666667      0.33333333</v>
   <v>       0.16666667      0.41666667      0.33333333</v>
   <v>       0.25000000      0.41666667      0.33333333</v>
   <v>       0.33333333      0.41666667      0.33333333</v>
   <v>       0.41666667      0.41666667      0.33333333</v>
   <v>       0.50000000      0.41666667      0.33333333</v>
   <v>       0.00000000      0.50000000      0.33333333</v>
   <v>       0.08333333      0.50000000      0.33333333</v>
   <v>       0.16666667      0.50000000      0.33333333</v>
   <v>       0.25000000      0.50000000      0.33333333</v>
   <v>       0.33333333      0.50000000      0.33333333</v>
   <v>       0.41666667      0.50000000      0.33333333</v>
   <v>       0.50000000      0.50000000      0.33333333</v>
   <v>       0.00000000      0.41666667      0.41666667</v>
   <v>       0.08333333      0.41666667      0.41666667</v>
   <v>       0.16666667      0.41666667      0.41666667</v>
   <v>       0.25000000      0.41666667      0.41666667</v>
   <v>       0.33333333      0.41666667      0.41666667</v>
   <v>       0.41666667      0.41666667      0.41666667</v>
   <v>       0.50000000      0.41666667      0.41666667</v>
   <v>       0.00000000      0.50000000      0.41666667</v>
   <v>       0.08333333      0.50000000      0.41666667</v>
   <v>       0.16666667      0.50000000      0.41666667</v>
   <v>       0.25000000      0.50000000      0.41666667</v>
   <v>       0.33333333      0.50000000      0.41666667</v>
   <v>       0.41666667      0.50000000      0.41666667</v>
   <v>       0.50000000      0.50000000      0.41666667</v>
   <v>       0.00000000      0.50000000      0.50000000</v>
   <v>       0.08333333      0.50000000      0.50000000</v>
   <v>       0.16666667      0.50000000      0.50000000</v>
   <v>       0.25000000      0.50000000      0.50000000</v>
   <v>       0.33333333      0.50000000      0.50000000</v>
   <v>       0.41666667      0.50000000      0.50000000</v>
   <v>       0.50000000      0.50000000      0.50000000</v>
  </varray>
  <varray name="weights" >
   <v>       0.00057870</v>
   <v>       0.00115741</v>
   <v>       0.00115741</v>
   <v>       0.00115741</v>
   <v>       0.00115741</v>
   <v>       0.00115741</v>
   <v>       0.00057870</v>
   <v>       0.00231481</v>
   <v>       0.00462963</v>
   <v>       0.00462963</v>
   <v>       0.00462963</v>
   <v>       0.00462963</v>
   <v>       0.00462963</v>
   <v>       0.00231481</v>
   <v>       0.00231481</v>
   <v>       0.00462963</v>
   <v>       0.00462963</v>
   <v>       0.00462963</v>
   <v>       0.00462963</v>
   <v>       0.00462963</v>
   <v>       0.00231481</v>
   <v>       0.00231481</v>
   <v>       0.00462963</v>
   <v>       0.00462963</v>
   <v>       0.00462963</v>
   <v>       0.00462963</v>
   <v>       0.00462963</v>
   <v>       0.00231481</v>
   <v>       0.00231481</v>
   <v>       0.00462963</v>
   <v>       0.00462963</v>
   <v>       0.00462963</v>
   <v>       0.00462963</v>
   <v>       0.00462963</v>
   <v>       0.00231481</v>
   <v>       0.00231481</v>
   <v>       0.00462963</v>
   <v>       0.00462963</v>
   <v>       0.00462963</v>
   <v>       0.00462963</v>
   <v>       0.00462963</v>
   <v>       0.00231481</v>
   <v>       0.00115741</v>
   <v>       0.00231481</v>
   <v>       0.00231481</v>
   <v>       0.00231481</v>
   <v>       0.00231481</v>
   <v>       0.00231481</v>
   <v>       0.00115741</v>
   <v>       0.00231481</v>
   <v>       0.00462963</v>
   <v>       0.00462963</v>
   <v>       0.00462963</v>
   <v>       0.00462963</v>
   <v>       0.00462963</v>
   <v>       0.00231481</v>
   <v>       0.00462963</v>
   <v>       0.00925926</v>
   <v>       0.00925926</v>
   <v>       0.00925926</v>
   <v>       0.00925926</v>
   <v>       0.00925926</v>
   <v>       0.00462963</v>
   <v>       0.00462963</v>
   <v>       0.00925926</v>
   <v>       0.00925926</v>
   <v>       0.00925926</v>
   <v>       0.00925926</v>
   <v>       0.00925926</v>
   <v>       0.00462963</v>
   <v>       0.00462963</v>
   <v>       0.00925926</v>
   <v>       0.00925926</v>
   <v>       0.00925926</v>
   <v>       0.00925926</v>
   <v>       0.00925926</v>
   <v>       0.00462963</v>
   <v>       0.00462963</v>
   <v>       0.00925926</v>
   <v>       0.00925926</v>
   <v>       0.00925926</v>
   <v>       0.00925926</v>
   <v>       0.00925926</v>
   <v>       0.00462963</v>
   <v>       0.00231481</v>
   <v>       0.00462963</v>
   <v>       0.00462963</v>
   <v>       0.00462963</v>
   <v>       0.00462963</v>
   <v>       0.00462963</v>
   <v>       0.00231481</v>
   <v>       0.00231481</v>
   <v>       0.00462963</v>
   <v>       0.00462963</v>
   <v>       0.00462963</v>
   <v>       0.00462963</v>
   <v>       0.00462963</v>
   <v>       0.00231481</v>
   <v>       0.00462963</v>
   <v>       0.00925926</v>
   <v>       0.00925926</v>
   <v>       0.00925926</v>
   <v>       0.00925926</v>
   <v>       0.00925926</v>
   <v>       0.00462963</v>
   <v>       0.00462963</v>
   <v>       0.00925926</v>
   <v>       0.00925926</v>
   <v>       0.00925926</v>
   <v>       0.00925926</v>
   <v>       0.00925926</v>
   <v>       0.00462963</v>
   <v>       0.00462963</v>
   <v>       0.00925926</v>
   <v>       0.00925926</v>
   <v>       0.00925926</v>
   <v>       0.00925926</v>
   <v>       0.00925926</v>
   <v>       0.00462963</v>
   <v>       0.00231481</v>
   <v>       0.00462963</v>
   <v>       0.00462963</v>
   <v>       0.00462963</v>
   <v>       0.00462963</v>
   <v>       0.00462963</v>
   <v>       0.00231481</v>
   <v>       0.00231481</v>
   <v>       0.00462963</v>
   <v>       0.00462963</v>
   <v>       0.00462963</v>
   <v>       0.00462963</v>
   <v>       0.00462963</v>
   <v>       0.00231481</v>
   <v>       0.00462963</v>
   <v>       0.00925926</v>
   <v>       0.00925926</v>
   <v>       0.00925926</v>
   <v>       0.00925926</v>
   <v>       0.00925926</v>
   <v>       0.00462963</v>
   <v>       0.00462963</v>
   <v>       0.00925926</v>
   <v>       0.00925926</v>
   <v>       0.00925926</v>
   <v>       0.00925926</v>
   <v>       0.00925926</v>
   <v>       0.00462963</v>
   <v>       0.00231481</v>
   <v>       0.00462963</v>
   <v>       0.00462963</v>
   <v>       0.00462963</v>
   <v>       0.00462963</v>
   <v>       0.00462963</v>
   <v>       0.00231481</v>
   <v>       0.00231481</v>
   <v>       0.00462963</v>
   <v>       0.00462963</v>
   <v>       0.00462963</v>
   <v>       0.00462963</v>
   <v>       0.00462963</v>
   <v>       0.00231481</v>
   <v>       0.00462963</v>
   <v>       0.00925926</v>
   <v>       0.00925926</v>
   <v>       0.00925926</v>
   <v>       0.00925926</v>
   <v>       0.00925926</v>
   <v>       0.00462963</v>
   <v>       0.00231481</v>
   <v>       0.00462963</v>
   <v>       0.00462963</v>
   <v>       0.00462963</v>
   <v>       0.00462963</v>
   <v>       0.00462963</v>
   <v>       0.00231481</v>
   <v>       0.00231481</v>
   <v>       0.00462963</v>
   <v>       0.00462963</v>
   <v>       0.00462963</v>
   <v>       0.00462963</v>
   <v>       0.00462963</v>
   <v>       0.00231481</v>
   <v>       0.00231481</v>
   <v>       0.00462963</v>
   <v>       0.00462963</v>
   <v>       0.00462963</v>
   <v>       0.00462963</v>
   <v>       0.00462963</v>
   <v>       0.00231481</v>
   <v>       0.00057870</v>
   <v>       0.00115741</v>
   <v>       0.00115741</v>
   <v>       0.00115741</v>
   <v>       0.00115741</v>
   <v>       0.00115741</v>
   <v>       0.00057870</v>
  </varray>
 </kpoints>
 <parameters>
  <separator name="general" >
   <i type="string" name="SYSTEM">unknown system</i>
   <i type="logical" name="LCOMPAT"> F  </i>
  </separator>
  <separator name="electronic" >
   <i type="string" name="PREC">accura</i>
   <i name="ENMAX">    750.00000000</i>
   <i name="ENAUG">    412.49600000</i>
   <i name="EDIFF">      0.00000001</i>
   <i type="int" name="IALGO">    38</i>
   <i type="int" name="IWAVPR">    10</i>
   <i type="int" name="NBANDS">   211</i>
   <i name="NELECT">    352.00000000</i>
   <separator name="electronic smearing" >
    <i type="int" name="ISMEAR">     0</i>
    <i name="SIGMA">      0.01000000</i>
   </separator>
   <separator name="electronic projectors" >
    <i type="logical" name="LREAL"> F  </i>
    <v name="ROPT">      0.00000000</v>
    <i type="int" name="LMAXPAW">  -100</i>
    <i type="int" name="LMAXMIX">     2</i>
   </separator>
   <separator name="electronic startup" >
    <i type="int" name="ISTART">     0</i>
    <i type="int" name="ICHARG">     2</i>
    <i type="int" name="INIWAV">     1</i>
   </separator>
   <separator name="electronic spin" >
    <i type="int" name="ISPIN">     1</i>
    <i type="logical" name="LNONCOLLINEAR"> F  </i>
    <v name="MAGMOM">      1.00000000      1.00000000      1.00000000      1.00000000      1.00000000      1.00000000      1.00000000      1.00000000      1.00000000      1.00000000      1.00000000      1.00000000      1.00000000      1.00000000      1.00000000      1.00000000      1.00000000      1.00000000      1.00000000      1.00000000
      1.00000000      1.00000000      1.00000000      1.00000000      1.00000000      1.00000000      1.00000000      1.00000000      1.00000000      1.00000000      1.00000000      1.00000000</v>
    <i name="NUPDOWN">     -1.00000000</i>
    <i type="logical" name="LSORBIT"> F  </i>
    <v name="SAXIS">      0.00000000      0.00000000      1.00000000</v>
    <i type="logical" name="LSPIRAL"> F  </i>
    <v name="QSPIRAL">      0.00000000      0.00000000      0.00000000</v>
    <i type="logical" name="LZEROZ"> F  </i>
   </separator>
   <separator name="electronic exchange-correlation" >
    <i type="string" name="GGA">--</i>
    <i type="int" name="VOSKOWN">     0</i>
    <i type="logical" name="LASPH"> F  </i>
    <i type="logical" name="LMETAGGA"> F  </i>
    <i type="string" name="GGA2">--</i>
   </separator>
   <separator name="electronic convergence" >
    <i type="int" name="NELM">    60</i>
    <i type="int" name="NELMDL">     0</i>
    <i type="int" name="NELMIN">     2</i>
    <i name="ENINI">    750.00000000</i>
    <separator name="electronic convergence detail" >
     <i type="logical" name="LDIAG"> T  </i>
     <i name="WEIMIN">      0.00000000</i>
     <i name="EBREAK">      0.00000000</i>
     <i name="DEPER">      0.30000000</i>
     <i type="int" name="NRMM">     4</i>
     <i name="TIME">      0.10000000</i>
    </separator>
   </separator>
   <separator name="electronic mixer" >
    <i name="AMIX">      0.40000000</i>
    <i name="BMIX">      1.00000000</i>
    <i name="AMIN">      0.10000000</i>
    <i name="AMIX_MAG">      1.60000000</i>
    <i name="BMIX_MAG">      1.00000000</i>
    <separator name="electronic mixer details" >
     <i type="int" name="IMIX">     4</i>
     <i type="int" name="MAXMIX">   -45</i>
     <i name="WC">    100.00000000</i>
     <i type="int" name="INIMIX">     1</i>
     <i type="int" name="MIXPRE">     1</i>
     <i type="int" name="MREMOVE">     5</i>
    </separator>
   </separator>
   <separator name="electronic dipolcorrection" >
    <i type="int" name="IDIPOL">     0</i>
    <i type="logical" name="LDIPOL"> F  </i>
    <v name="DIPOL">   -100.00000000</v>
    <i name="EFIELD">      0.00000000</i>
   </separator>
  </separator>
  <separator name="grids" >
   <i type="int" name="NGX">    80</i>
   <i type="int" name="NGY">    80</i>
   <i type="int" name="NGZ">    80</i>
   <i type="int" name="NGXF">   160</i>
   <i type="int" name="NGYF">   160</i>
   <i type="int" name="NGZF">   160</i>
   <i type="logical" name="ADDGRID"> T  </i>
  </separator>
  <separator name="ionic" >
   <i type="int" name="NSW">     0</i>
   <i type="int" name="IBRION">    -1</i>
   <i type="int" name="ISIF">     2</i>
   <i name="PSTRESS">      0.00000000</i>
   <i name="EDIFFG">      0.00000010</i>
   <i type="int" name="NFREE">     0</i>
   <i name="POTIM">      0.50000000</i>
   <i name="SMASS">     -3.00000000</i>
  </separator>
  <separator name="ionic md" >
   <i name="TEBEG">      0.00010000</i>
   <i name="TEEND">      0.00010000</i>
   <i type="int" name="NBLOCK">     1</i>
   <i type="int" name="KBLOCK">     1</i>
   <i type="int" name="NPACO">   256</i>
   <i name="APACO">     16.00000000</i>
  </separator>
  <separator name="symmetry" >
   <i type="int" name="ISYM">     2</i>
   <i name="SYMPREC">      0.00001000</i>
  </separator>
  <separator name="dos" >
   <i type="logical" name="LORBIT"> F  </i>
   <v name="RWIGS">     -1.00000000</v>
   <i type="int" name="NEDOS">   301</i>
   <i name="EMIN">     10.00000000</i>
   <i name="EMAX">    -10.00000000</i>
  </separator>
  <separator name="writing" >
   <i type="int" name="NWRITE">     2</i>
   <i type="logical" name="LWAVE"> F  </i>
   <i type="logical" name="LCHARG"> F  </i>
   <i type="logical" name="LPARD"> F  </i>
   <i type="logical" name="LVTOT"> F  </i>
   <i type="logical" name="LELF"> F  </i>
   <i type="logical" name="LOPTICS"> F  </i>
   <i name="STM">      0.00000000</i>
  </separator>
  <separator name="performance" >
   <i type="int" name="NPAR">     4</i>
   <i type="int" name="NSIM">     4</i>
   <i type="int" name="NBLK">   256</i>
   <i type="logical" name="LPLANE"> T  </i>
   <i type="logical" name="LCRITICAL_MEM"> F  </i>
   <i type="logical" name="LSCALAPACK"> F  </i>
   <i type="logical" name="LSCALU"> F  </i>
   <i type="logical" name="LASYNC"> F  </i>
  </separator>
  <separator name="miscellaneous" >
   <i type="int" name="IDIOT">     3</i>
   <i type="logical" name="LMUSIC"> F  </i>
   <v name="POMASS">    107.86800000</v>
   <i type="logical" name="LCORR"> T  </i>
  </separator>
  <i type="logical" name="LREAL_COMPAT"> F  </i>
  <i type="logical" name="GGA_COMPAT"> T  </i>
  <i type="logical" name="LBERRY"> F  </i>
  <i type="int" name="ICORELEVEL">     0</i>
  <i type="logical" name="LDAU"> F  </i>
  <i type="int" name="I_CONSTRAINED_M">     0</i>
 </parameters>
 <atominfo>
  <atoms>      32</atoms>
  <types>       1</types>
  <array name="atoms" >
   <dimension dim="1">ion</dimension>
   <field type="string">element</field>
   <field type="int">atomtype</field>
   <set>
    <rc><c>Ag</c><c>   1</c></rc>
    <rc><c>Ag</c><c>   1</c></rc>
    <rc><c>Ag</c><c>   1</c></rc>
    <rc><c>Ag</c><c>   1</c></rc>
    <rc><c>Ag</c><c>   1</c></rc>
    <rc><c>Ag</c><c>   1</c></rc>
    <rc><c>Ag</c><c>   1</c></rc>
    <rc><c>Ag</c><c>   1</c></rc>
    <rc><c>Ag</c><c>   1</c></rc>
    <rc><c>Ag</c><c>   1</c></rc>
    <rc><c>Ag</c><c>   1</c></rc>
    <rc><c>Ag</c><c>   1</c></rc>
    <rc><c>Ag</c><c>   1</c></rc>
    <rc><c>Ag</c><c>   1</c></rc>
    <rc><c>Ag</c><c>   1</c></rc>
    <rc><c>Ag</c><c>   1</c></rc>
    <rc><c>Ag</c><c>   1</c></rc>
    <rc><c>Ag</c><c>   1</c></rc>
    <rc><c>Ag</c><c>   1</c></rc>
    <rc><c>Ag</c><c>   1</c></rc>
    <rc><c>Ag</c><c>   1</c></rc>
    <rc><c>Ag</c><c>   1</c></rc>
    <rc><c>Ag</c><c>   1</c></rc>
    <rc><c>Ag</c><c>   1</c></rc>
    <rc><c>Ag</c><c>   1</c></rc>
    <rc><c>Ag</c><c>   1</c></rc>
    <rc><c>Ag</c><c>   1</c></rc>
    <rc><c>Ag</c><c>   1</c></rc>
    <rc><c>Ag</c><c>   1</c></rc>
    <rc><c>Ag</c><c>   1</c></rc>
    <rc><c>Ag</c><c>   1</c></rc>
    <rc><c>Ag</c><c>   1</c></rc>
   </set>
  </array>
  <array name="atomtypes" >
   <dimension dim="1">type</dimension>
   <field type="int">atomspertype</field>
   <field type="string">element</field>
   <field>mass</field>
   <field>valence</field>
   <field type="string">pseudopotential</field>
   <set>
    <rc><c>  32</c><c>Ag</c><c>    107.86800000</c><c>     11.00000000</c><c> PAW_PBE Ag 06Sep2000                   </c></rc>
   </set>
  </array>
 </atominfo>
 <structure name="initialpos" >
  <crystal>
   <varray name="basis" >
    <v>       8.15992057      0.00000000      0.00000000</v>
    <v>       0.00000000      8.15992057      0.00000000</v>
    <v>       0.00000000      0.00000000      8.15992057</v>
   </varray>
   <i name="volume">    543.32262986</i>
   <varray name="rec_basis" >
    <v>       0.12255021      0.00000000      0.00000000</v>
    <v>       0.00000000      0.12255021      0.00000000</v>
    <v>       0.00000000      0.00000000      0.12255021</v>
   </varray>
  </crystal>
  <varray name="positions" >
   <v>       0.00122550      0.00000000      0.00000000</v>
   <v>       0.50000000      0.00000000      0.00000000</v>
   <v>       0.00000000      0.50000000      0.00000000</v>
   <v>       0.50000000      0.50000000      0.00000000</v>
   <v>       0.00000000      0.00000000      0.50000000</v>
   <v>       0.50000000      0.00000000      0.50000000</v>
   <v>       0.00000000      0.50000000      0.50000000</v>
   <v>       0.50000000      0.50000000      0.50000000</v>
   <v>       0.25000000      0.25000000      0.00000000</v>
   <v>       0.75000000      0.25000000      0.00000000</v>
   <v>       0.25000000      0.75000000      0.00000000</v>
   <v>       0.75000000      0.75000000      0.00000000</v>
   <v>       0.25000000      0.25000000      0.50000000</v>
   <v>       0.75000000      0.25000000      0.50000000</v>
   <v>       0.25000000      0.75000000      0.50000000</v>
   <v>       0.75000000      0.75000000      0.50000000</v>
   <v>       0.25000000      0.00000000      0.25000000</v>
   <v>       0.75000000      0.00000000      0.25000000</v>
   <v>       0.25000000      0.50000000      0.25000000</v>
   <v>       0.75000000      0.50000000      0.25000000</v>
   <v>       0.25000000      0.00000000      0.75000000</v>
   <v>       0.75000000      0.00000000      0.75000000</v>
   <v>       0.25000000      0.50000000      0.75000000</v>
   <v>       0.75000000      0.50000000      0.75000000</v>
   <v>       0.00000000      0.25000000      0.25000000</v>
   <v>       0.50000000      0.25000000      0.25000000</v>
   <v>       0.00000000      0.75000000      0.25000000</v>
   <v>       0.50000000      0.75000000      0.25000000</v>
   <v>       0.00000000      0.25000000      0.75000000</v>
   <v>       0.50000000      0.25000000      0.75000000</v>
   <v>       0.00000000      0.75000000      0.75000000</v>
   <v>       0.50000000      0.75000000      0.75000000</v>
  </varray>
 </structure>
 <calculation>
  <scstep>
   <time name="dav"> 2864.04 2868.70</time>
   <time name="total"> 2866.26 2870.92</time>
   <energy>
    <i name="alphaZ">   3346.80653808</i>
    <i name="ewald"> -31327.91764054</i>
    <i name="hartreedc">  -6460.31342718</i>
    <i name="XCdc">   -341.91943781</i>
    <i name="pawpsdc">  27861.41421209</i>
    <i name="pawaedc"> -26376.63839568</i>
    <i name="eentropy">     -0.00054408</i>
    <i name="bandstr">   4473.52650927</i>
    <i name="atom">  33197.19690173</i>
    <i name="e_fr_energy">   4372.15471589</i>
    <i name="e_wo_entrp">   4372.15525997</i>
    <i name="e_0_energy">   4372.15498793</i>
   </energy>
  </scstep>
  <scstep>
   <time name="dav"> 2856.80 2861.40</time>
   <time name="total"> 2856.99 2861.60</time>
   <energy>
    <i name="e_fr_energy">    134.35521819</i>
    <i name="e_wo_entrp">    134.35569800</i>
    <i name="e_0_energy">    134.35545810</i>
   </energy>
  </scstep>
  <scstep>
   <time name="dav"> 2960.91 2965.58</time>
   <time name="total"> 2961.11 2965.78</time>
   <energy>
    <i name="e_fr_energy">    -92.74925222</i>
    <i name="e_wo_entrp">    -92.74861776</i>
    <i name="e_0_energy">    -92.74893499</i>
   </energy>
  </scstep>
  <scstep>
   <time name="dav"> 3033.52 3038.29</time>
   <time name="total"> 3033.71 3038.50</time>
   <energy>
    <i name="e_fr_energy">    -97.48268595</i>
    <i name="e_wo_entrp">    -97.48190272</i>
    <i name="e_0_energy">    -97.48229434</i>
   </energy>
  </scstep>
  <scstep>
   <time name="dav"> 2984.26 2990.04</time>
   <time name="total"> 3101.76 3107.78</time>
   <energy>
    <i name="e_fr_energy">    -97.51048837</i>
    <i name="e_wo_entrp">    -97.50970382</i>
    <i name="e_0_energy">    -97.51009609</i>
   </energy>
  </scstep>
  <scstep>
   <time name="dav"> 2963.89 2976.11</time>
   <time name="total"> 3084.73 3097.82</time>
   <energy>
    <i name="e_fr_energy">    -90.17013688</i>
    <i name="e_wo_entrp">    -90.16919527</i>
    <i name="e_0_energy">    -90.16966607</i>
   </energy>
  </scstep>
  <scstep>
   <time name="dav"> 2950.14 2958.33</time>
   <time name="total"> 3073.13 3081.60</time>
   <energy>
    <i name="e_fr_energy">    -89.93427320</i>
    <i name="e_wo_entrp">    -89.93319087</i>
    <i name="e_0_energy">    -89.93373203</i>
   </energy>
  </scstep>
  <scstep>
   <time name="dav"> 2947.77 2953.62</time>
   <time name="total"> 3068.40 3074.44</time>
   <energy>
    <i name="e_fr_energy">    -89.83041659</i>
    <i name="e_wo_entrp">    -89.82932753</i>
    <i name="e_0_energy">    -89.82987206</i>
   </energy>
  </scstep>
  <scstep>
   <time name="dav"> 3016.58 3021.42</time>
   <time name="total"> 3138.03 3143.08</time>
   <energy>
    <i name="e_fr_energy">    -89.83126933</i>
    <i name="e_wo_entrp">    -89.83018331</i>
    <i name="e_0_energy">    -89.83072632</i>
   </energy>
  </scstep>
  <scstep>
   <time name="dav"> 2974.09 2978.95</time>
   <time name="total"> 3094.83 3099.89</time>
   <energy>
    <i name="e_fr_energy">    -89.83111342</i>
    <i name="e_wo_entrp">    -89.83002431</i>
    <i name="e_0_energy">    -89.83056887</i>
   </energy>
  </scstep>
  <scstep>
   <time name="dav"> 3013.34 3018.55</time>
   <time name="total"> 3135.02 3140.43</time>
   <energy>
    <i name="e_fr_energy">    -89.83111274</i>
    <i name="e_wo_entrp">    -89.83002347</i>
    <i name="e_0_energy">    -89.83056811</i>
   </energy>
  </scstep>
  <scstep>
   <time name="dav"> 2983.80 2988.92</time>
   <time name="total"> 3103.97 3109.29</time>
   <energy>
    <i name="e_fr_energy">    -89.83110992</i>
    <i name="e_wo_entrp">    -89.83002058</i>
    <i name="e_0_energy">    -89.83056525</i>
   </energy>
  </scstep>
  <scstep>
   <time name="dav"> 2847.88 2852.77</time>
   <time name="total"> 2969.28 2974.37</time>
   <energy>
    <i name="e_fr_energy">    -89.83110670</i>
    <i name="e_wo_entrp">    -89.83001734</i>
    <i name="e_0_energy">    -89.83056202</i>
   </energy>
  </scstep>
  <scstep>
   <time name="dav"> 1912.23 1915.55</time>
   <time name="total"> 2033.02 2036.55</time>
   <energy>
    <i name="e_fr_energy">    -89.83110632</i>
    <i name="e_wo_entrp">    -89.83001696</i>
    <i name="e_0_energy">    -89.83056164</i>
   </energy>
  </scstep>
  <scstep>
   <time name="dav"> 1782.54 1787.99</time>
   <time name="total"> 1784.73 1790.19</time>
   <energy>
    <i name="alphaZ">   3346.80653808</i>
    <i name="ewald"> -31327.91764054</i>
    <i name="hartreedc">  -6071.12552457</i>
    <i name="XCdc">   -356.08751276</i>
    <i name="pawpsdc">  27884.13850477</i>
    <i name="pawaedc"> -26476.94134377</i>
    <i name="eentropy">     -0.00108936</i>
    <i name="bandstr">   -285.89993991</i>
    <i name="atom">  33197.19690173</i>
    <i name="e_fr_energy">    -89.83110632</i>
    <i name="e_wo_entrp">    -89.83001696</i>
    <i name="e_0_energy">    -89.83056164</i>
   </energy>
  </scstep>
  <structure>
   <crystal>
    <varray name="basis" >
     <v>       8.15992057      0.00000000      0.00000000</v>
     <v>       0.00000000      8.15992057      0.00000000</v>
     <v>       0.00000000      0.00000000      8.15992057</v>
    </varray>
    <i name="volume">    543.32262986</i>
    <varray name="rec_basis" >
     <v>       0.12255021      0.00000000      0.00000000</v>
     <v>       0.00000000      0.12255021      0.00000000</v>
     <v>       0.00000000      0.00000000      0.12255021</v>
    </varray>
   </crystal>
   <varray name="positions" >
    <v>       0.00122550      0.00000000      0.00000000</v>
    <v>       0.50000000      0.00000000      0.00000000</v>
    <v>       0.00000000      0.50000000      0.00000000</v>
    <v>       0.50000000      0.50000000      0.00000000</v>
    <v>       0.00000000      0.00000000      0.50000000</v>
    <v>       0.50000000      0.00000000      0.50000000</v>
    <v>       0.00000000      0.50000000      0.50000000</v>
    <v>       0.50000000      0.50000000      0.50000000</v>
    <v>       0.25000000      0.25000000      0.00000000</v>
    <v>       0.75000000      0.25000000      0.00000000</v>
    <v>       0.25000000      0.75000000      0.00000000</v>
    <v>       0.75000000      0.75000000      0.00000000</v>
    <v>       0.25000000      0.25000000      0.50000000</v>
    <v>       0.75000000      0.25000000      0.50000000</v>
    <v>       0.25000000      0.75000000      0.50000000</v>
    <v>       0.75000000      0.75000000      0.50000000</v>
    <v>       0.25000000      0.00000000      0.25000000</v>
    <v>       0.75000000      0.00000000      0.25000000</v>
    <v>       0.25000000      0.50000000      0.25000000</v>
    <v>       0.75000000      0.50000000      0.25000000</v>
    <v>       0.25000000      0.00000000      0.75000000</v>
    <v>       0.75000000      0.00000000      0.75000000</v>
    <v>       0.25000000      0.50000000      0.75000000</v>
    <v>       0.75000000      0.50000000      0.75000000</v>
    <v>       0.00000000      0.25000000      0.25000000</v>
    <v>       0.50000000      0.25000000      0.25000000</v>
    <v>       0.00000000      0.75000000      0.25000000</v>
    <v>       0.50000000      0.75000000      0.25000000</v>
    <v>       0.00000000      0.25000000      0.75000000</v>
    <v>       0.50000000      0.25000000      0.75000000</v>
    <v>       0.00000000      0.75000000      0.75000000</v>
    <v>       0.50000000      0.75000000      0.75000000</v>
   </varray>
  </structure>
  <varray name="forces" >
   <v>      -0.06079796     -0.00000000      0.00000000</v>
   <v>       0.00118247     -0.00000000      0.00000000</v>
   <v>      -0.00039410     -0.00000000      0.00000000</v>
   <v>      -0.00042516      0.00000000     -0.00000000</v>
   <v>      -0.00039410     -0.00000000      0.00000000</v>
   <v>      -0.00042516     -0.00000000      0.00000000</v>
   <v>      -0.00023756     -0.00000000      0.00000000</v>
   <v>       0.00000375     -0.00000000      0.00000000</v>
   <v>       0.00808162      0.00945467      0.00000000</v>
   <v>       0.00784701     -0.00911890     -0.00000000</v>
   <v>       0.00808162     -0.00945467     -0.00000000</v>
   <v>       0.00784701      0.00911890     -0.00000000</v>
   <v>       0.00022118      0.00001760     -0.00000000</v>
   <v>       0.00022384     -0.00001649     -0.00000000</v>
   <v>       0.00022118     -0.00001760     -0.00000000</v>
   <v>       0.00022384      0.00001649     -0.00000000</v>
   <v>       0.00808162     -0.00000000      0.00945467</v>
   <v>       0.00784701      0.00000000     -0.00911890</v>
   <v>       0.00022118      0.00000000      0.00001760</v>
   <v>       0.00022384      0.00000000     -0.00001649</v>
   <v>       0.00808162      0.00000000     -0.00945467</v>
   <v>       0.00784701     -0.00000000      0.00911890</v>
   <v>       0.00022118      0.00000000     -0.00001760</v>
   <v>       0.00022384     -0.00000000      0.00001649</v>
   <v>      -0.00154728     -0.00001341     -0.00001341</v>
   <v>       0.00054559      0.00000112      0.00000112</v>
   <v>      -0.00154728      0.00001341     -0.00001341</v>
   <v>       0.00054559     -0.00000112      0.00000112</v>
   <v>      -0.00154728     -0.00001341      0.00001341</v>
   <v>       0.00054559      0.00000112     -0.00000112</v>
   <v>      -0.00154728      0.00001341      0.00001341</v>
   <v>       0.00054559     -0.00000112     -0.00000112</v>
  </varray>
  <varray name="stress" >
   <v>      64.81215645      0.00000000     -0.00000000</v>
   <v>       0.00000000     64.81208016      0.00000000</v>
   <v>       0.00000000      0.00000000     64.81208016</v>
  </varray>
  <energy>
   <i name="e_fr_energy">    -89.83110632</i>
   <i name="e_wo_entrp">    -89.83056164</i>
   <i name="e_0_energy">     -0.00108936</i>
  </energy>
  <eigenvalues>
   <array>
    <dimension dim="1">band</dimension>
    <dimension dim="2">kpoint</dimension>
    <dimension dim="3">spin</dimension>
    <field>eigene</field>
    <field>occ</field>
    <set>
     <set comment="spin 1">
      <set comment="kpoint 1">
       <r>  -4.2400  1.0000</r>
       <r>  -2.9375  1.0000</r>
       <r>  -2.9375  1.0000</r>
       <r>  -2.9375  1.0000</r>
       <r>  -2.8867  1.0000</r>
       <r>  -2.8867  1.0000</r>
       <r>  -2.8867  1.0000</r>
       <r>  -2.8867  1.0000</r>
       <r>  -2.7981  1.0000</r>
       <r>  -2.7981  1.0000</r>
       <r>  -2.7981  1.0000</r>
       <r>  -2.4623  1.0000</r>
       <r>  -2.4604  1.0000</r>
       <r>  -2.4604  1.0000</r>
       <r>  -2.4604  1.0000</r>
       <r>  -2.4604  1.0000</r>
       <r>  -2.4585  1.0000</r>
       <r>  -2.1824  1.0000</r>
       <r>  -2.1806  1.0000</r>
       <r>  -2.1806  1.0000</r>
       <r>  -2.1806  1.0000</r>
       <r>  -2.1806  1.0000</r>
       <r>  -2.1788  1.0000</r>
       <r>  -2.0884  1.0000</r>
       <r>  -2.0866  1.0000</r>
       <r>  -2.0866  1.0000</r>
       <r>  -2.0866  1.0000</r>
       <r>  -2.0866  1.0000</r>
       <r>  -2.0848  1.0000</r>
       <r>  -1.8420  1.0000</r>
       <r>  -1.8420  1.0000</r>
       <r>  -1.8416  1.0000</r>
       <r>  -1.8408  1.0000</r>
       <r>  -1.8404  1.0000</r>
       <r>  -1.8404  1.0000</r>
       <r>  -1.8404  1.0000</r>
       <r>  -1.8404  1.0000</r>
       <r>  -1.8401  1.0000</r>
       <r>  -1.8393  1.0000</r>
       <r>  -1.8389  1.0000</r>
       <r>  -1.8389  1.0000</r>
       <r>  -1.6234  1.0000</r>
       <r>  -1.6211  1.0000</r>
       <r>  -1.6211  1.0000</r>
       <r>  -1.6201  1.0000</r>
       <r>  -1.6201  1.0000</r>
       <r>  -1.6201  1.0000</r>
       <r>  -1.6201  1.0000</r>
       <r>  -1.6201  1.0000</r>
       <r>  -1.6200  1.0000</r>
       <r>  -1.6191  1.0000</r>
       <r>  -1.6191  1.0000</r>
       <r>  -1.6169  1.0000</r>
       <r>  -1.5634  1.0000</r>
       <r>  -1.5634  1.0000</r>
       <r>  -1.5615  1.0000</r>
       <r>  -1.5615  1.0000</r>
       <r>  -1.5614  1.0000</r>
       <r>  -1.5614  1.0000</r>
       <r>  -1.5614  1.0000</r>
       <r>  -1.5614  1.0000</r>
       <r>  -1.5614  1.0000</r>
       <r>  -1.5612  1.0000</r>
       <r>  -1.5593  1.0000</r>
       <r>  -1.5593  1.0000</r>
       <r>  -1.3107  1.0000</r>
       <r>  -1.3107  1.0000</r>
       <r>  -1.3107  1.0000</r>
       <r>  -1.3107  1.0000</r>
       <r>  -1.3107  1.0000</r>
       <r>  -1.3107  1.0000</r>
       <r>  -1.3107  1.0000</r>
       <r>  -1.3107  1.0000</r>
       <r>  -1.2886  1.0000</r>
       <r>  -1.2886  1.0000</r>
       <r>  -1.2885  1.0000</r>
       <r>  -1.2205  1.0000</r>
       <r>  -1.2181  1.0000</r>
       <r>  -1.2178  1.0000</r>
       <r>  -1.2178  1.0000</r>
       <r>  -1.2176  1.0000</r>
       <r>  -1.2176  1.0000</r>
       <r>  -1.2176  1.0000</r>
       <r>  -1.2176  1.0000</r>
       <r>  -1.2174  1.0000</r>
       <r>  -1.2174  1.0000</r>
       <r>  -1.2171  1.0000</r>
       <r>  -1.2147  1.0000</r>
       <r>  -0.6280  1.0000</r>
       <r>  -0.6274  1.0000</r>
       <r>  -0.6264  1.0000</r>
       <r>  -0.6264  1.0000</r>
       <r>  -0.6259  1.0000</r>
       <r>  -0.6259  1.0000</r>
       <r>  -0.6259  1.0000</r>
       <r>  -0.6259  1.0000</r>
       <r>  -0.6254  1.0000</r>
       <r>  -0.6254  1.0000</r>
       <r>  -0.6244  1.0000</r>
       <r>  -0.6239  1.0000</r>
       <r>  -0.4092  1.0000</r>
       <r>  -0.4092  1.0000</r>
       <r>  -0.4071  1.0000</r>
       <r>  -0.4071  1.0000</r>
       <r>  -0.4069  1.0000</r>
       <r>  -0.4069  1.0000</r>
       <r>  -0.4069  1.0000</r>
       <r>  -0.4069  1.0000</r>
       <r>  -0.4067  1.0000</r>
       <r>  -0.4067  1.0000</r>
       <r>  -0.4047  1.0000</r>
       <r>  -0.4047  1.0000</r>
       <r>  -0.2651  1.0000</r>
       <r>  -0.2634  1.0000</r>
       <r>  -0.2632  1.0000</r>
       <r>  -0.2632  1.0000</r>
       <r>  -0.2632  1.0000</r>
       <r>  -0.2615  1.0000</r>
       <r>  -0.2449  1.0000</r>
       <r>  -0.2446  1.0000</r>
       <r>  -0.2351  1.0000</r>
       <r>  -0.2351  1.0000</r>
       <r>  -0.2348  1.0000</r>
       <r>  -0.2330  1.0000</r>
       <r>  -0.2329  1.0000</r>
       <r>  -0.2327  1.0000</r>
       <r>  -0.2326  1.0000</r>
       <r>  -0.2326  1.0000</r>
       <r>  -0.2323  1.0000</r>
       <r>  -0.2319  1.0000</r>
       <r>  -0.2319  1.0000</r>
       <r>  -0.2319  1.0000</r>
       <r>  -0.2319  1.0000</r>
       <r>  -0.2318  1.0000</r>
       <r>  -0.2315  1.0000</r>
       <r>  -0.2300  1.0000</r>
       <r>  -0.2289  1.0000</r>
       <r>  -0.2289  1.0000</r>
       <r>   0.1291  1.0000</r>
       <r>   0.1301  1.0000</r>
       <r>   0.1301  1.0000</r>
       <r>   0.1301  1.0000</r>
       <r>   0.1301  1.0000</r>
       <r>   0.1311  1.0000</r>
       <r>   0.5245  1.0000</r>
       <r>   0.5245  1.0000</r>
       <r>   0.5245  1.0000</r>
       <r>   0.5563  1.0000</r>
       <r>   0.5563  1.0000</r>
       <r>   0.5563  1.0000</r>
       <r>   0.5563  1.0000</r>
       <r>   0.5563  1.0000</r>
       <r>   0.5563  1.0000</r>
       <r>   0.5563  1.0000</r>
       <r>   0.5563  1.0000</r>
       <r>   0.7650  1.0000</r>
       <r>   0.7653  1.0000</r>
       <r>   0.7653  1.0000</r>
       <r>   0.7653  1.0000</r>
       <r>   0.7653  1.0000</r>
       <r>   0.7653  1.0000</r>
       <r>   0.7663  1.0000</r>
       <r>   0.7664  1.0000</r>
       <r>   0.7664  1.0000</r>
       <r>   0.7664  1.0000</r>
       <r>   0.7664  1.0000</r>
       <r>   0.7667  1.0000</r>
       <r>   3.0044  1.0000</r>
       <r>   3.0050  1.0000</r>
       <r>   3.0050  1.0000</r>
       <r>   3.0060  1.0000</r>
       <r>   3.0064  1.0000</r>
       <r>   3.0064  1.0000</r>
       <r>   3.0064  1.0000</r>
       <r>   3.0064  1.0000</r>
       <r>   3.0067  1.0000</r>
       <r>   3.0078  1.0000</r>
       <r>   3.0078  1.0000</r>
       <r>   3.0083  1.0000</r>
       <r>   3.1429  1.0000</r>
       <r>   3.1430  1.0000</r>
       <r>   3.1430  1.0000</r>
       <r>   3.1430  1.0000</r>
       <r>   5.1739  0.0000</r>
       <r>   5.1739  0.0000</r>
       <r>   5.1739  0.0000</r>
       <r>   7.1950  0.0000</r>
       <r>   7.1950  0.0000</r>
       <r>   7.1950  0.0000</r>
       <r>   7.1950  0.0000</r>
       <r>   9.5431  0.0000</r>
       <r>   9.5431  0.0000</r>
       <r>   9.5458  0.0000</r>
       <r>   9.5458  0.0000</r>
       <r>   9.5462  0.0000</r>
       <r>   9.5462  0.0000</r>
       <r>   9.5462  0.0000</r>
       <r>   9.5462  0.0000</r>
       <r>   9.5466  0.0000</r>
       <r>   9.5466  0.0000</r>
       <r>   9.5492  0.0000</r>
       <r>   9.5492  0.0000</r>
       <r>  10.3432  0.0000</r>
       <r>  10.3432  0.0000</r>
       <r>  10.3432  0.0000</r>
       <r>  10.7002  0.0000</r>
       <r>  10.7002  0.0000</r>
       <r>  10.7002  0.0000</r>
       <r>  10.7003  0.0000</r>
       <r>  10.7003  0.0000</r>
       <r>  10.7003  0.0000</r>
       <r>  11.7679  0.0000</r>
      </set>
      <set comment="kpoint 2">
       <r>  -4.2217  1.0000</r>
       <r>  -2.9298  1.0000</r>
       <r>  -2.9276  1.0000</r>
       <r>  -2.9276  1.0000</r>
       <r>  -2.8775  1.0000</r>
       <r>  -2.8775  1.0000</r>
       <r>  -2.8775  1.0000</r>
       <r>  -2.8775  1.0000</r>
       <r>  -2.7923  1.0000</r>
       <r>  -2.7893  1.0000</r>
       <r>  -2.7893  1.0000</r>
       <r>  -2.5670  1.0000</r>
       <r>  -2.4482  1.0000</r>
       <r>  -2.4481  1.0000</r>
       <r>  -2.4481  1.0000</r>
       <r>  -2.4481  1.0000</r>
       <r>  -2.4189  1.0000</r>
       <r>  -2.1989  1.0000</r>
       <r>  -2.1987  1.0000</r>
       <r>  -2.1839  1.0000</r>
       <r>  -2.1730  1.0000</r>
       <r>  -2.1730  1.0000</r>
       <r>  -2.1730  1.0000</r>
       <r>  -2.1729  1.0000</r>
       <r>  -2.0817  1.0000</r>
       <r>  -2.0817  1.0000</r>
       <r>  -2.0817  1.0000</r>
       <r>  -2.0816  1.0000</r>
       <r>  -1.9878  1.0000</r>
       <r>  -1.9133  1.0000</r>
       <r>  -1.9133  1.0000</r>
       <r>  -1.9133  1.0000</r>
       <r>  -1.9133  1.0000</r>
       <r>  -1.8572  1.0000</r>
       <r>  -1.8572  1.0000</r>
       <r>  -1.8572  1.0000</r>
       <r>  -1.8572  1.0000</r>
       <r>  -1.8229  1.0000</r>
       <r>  -1.8229  1.0000</r>
       <r>  -1.8229  1.0000</r>
       <r>  -1.8229  1.0000</r>
       <r>  -1.7538  1.0000</r>
       <r>  -1.7538  1.0000</r>
       <r>  -1.6604  1.0000</r>
       <r>  -1.6603  1.0000</r>
       <r>  -1.6603  1.0000</r>
       <r>  -1.6602  1.0000</r>
       <r>  -1.5889  1.0000</r>
       <r>  -1.5884  1.0000</r>
       <r>  -1.5884  1.0000</r>
       <r>  -1.5884  1.0000</r>
       <r>  -1.5793  1.0000</r>
       <r>  -1.5793  1.0000</r>
       <r>  -1.5793  1.0000</r>
       <r>  -1.5790  1.0000</r>
       <r>  -1.5648  1.0000</r>
       <r>  -1.5648  1.0000</r>
       <r>  -1.5648  1.0000</r>
       <r>  -1.5648  1.0000</r>
       <r>  -1.5606  1.0000</r>
       <r>  -1.5605  1.0000</r>
       <r>  -1.5605  1.0000</r>
       <r>  -1.5603  1.0000</r>
       <r>  -1.3555  1.0000</r>
       <r>  -1.3555  1.0000</r>
       <r>  -1.3139  1.0000</r>
       <r>  -1.3139  1.0000</r>
       <r>  -1.3139  1.0000</r>
       <r>  -1.3139  1.0000</r>
       <r>  -1.3039  1.0000</r>
       <r>  -1.3039  1.0000</r>
       <r>  -1.3039  1.0000</r>
       <r>  -1.3039  1.0000</r>
       <r>  -1.2958  1.0000</r>
       <r>  -1.2818  1.0000</r>
       <r>  -1.2818  1.0000</r>
       <r>  -1.2626  1.0000</r>
       <r>  -1.2626  1.0000</r>
       <r>  -1.2626  1.0000</r>
       <r>  -1.2626  1.0000</r>
       <r>  -1.2241  1.0000</r>
       <r>  -1.2241  1.0000</r>
       <r>  -1.2240  1.0000</r>
       <r>  -1.2240  1.0000</r>
       <r>  -1.1711  1.0000</r>
       <r>  -1.1711  1.0000</r>
       <r>  -1.1711  1.0000</r>
       <r>  -1.1710  1.0000</r>
       <r>  -0.6580  1.0000</r>
       <r>  -0.6579  1.0000</r>
       <r>  -0.6579  1.0000</r>
       <r>  -0.6579  1.0000</r>
       <r>  -0.6185  1.0000</r>
       <r>  -0.6185  1.0000</r>
       <r>  -0.6185  1.0000</r>
       <r>  -0.6185  1.0000</r>
       <r>  -0.5838  1.0000</r>
       <r>  -0.5838  1.0000</r>
       <r>  -0.5838  1.0000</r>
       <r>  -0.5838  1.0000</r>
       <r>  -0.5348  1.0000</r>
       <r>  -0.5348  1.0000</r>
       <r>  -0.5233  1.0000</r>
       <r>  -0.5233  1.0000</r>
       <r>  -0.5233  1.0000</r>
       <r>  -0.5233  1.0000</r>
       <r>  -0.4594  1.0000</r>
       <r>  -0.4074  1.0000</r>
       <r>  -0.4074  1.0000</r>
       <r>  -0.4074  1.0000</r>
       <r>  -0.4074  1.0000</r>
       <r>  -0.2922  1.0000</r>
       <r>  -0.2922  1.0000</r>
       <r>  -0.2921  1.0000</r>
       <r>  -0.2921  1.0000</r>
       <r>  -0.2743  1.0000</r>
       <r>  -0.2743  1.0000</r>
       <r>  -0.2520  1.0000</r>
       <r>  -0.2416  1.0000</r>
       <r>  -0.2332  1.0000</r>
       <r>  -0.2330  1.0000</r>
       <r>  -0.2330  1.0000</r>
       <r>  -0.2330  1.0000</r>
       <r>  -0.2147  1.0000</r>
       <r>  -0.2146  1.0000</r>
       <r>  -0.1981  1.0000</r>
       <r>  -0.1981  1.0000</r>
       <r>  -0.1981  1.0000</r>
       <r>  -0.1980  1.0000</r>
       <r>  -0.1567  1.0000</r>
       <r>  -0.1567  1.0000</r>
       <r>  -0.1566  1.0000</r>
       <r>  -0.1566  1.0000</r>
       <r>  -0.1544  1.0000</r>
       <r>  -0.1543  1.0000</r>
       <r>  -0.1543  1.0000</r>
       <r>  -0.1543  1.0000</r>
       <r>   0.0318  1.0000</r>
       <r>   0.0801  1.0000</r>
       <r>   0.1422  1.0000</r>
       <r>   0.1422  1.0000</r>
       <r>   0.1422  1.0000</r>
       <r>   0.1422  1.0000</r>
       <r>   0.1804  1.0000</r>
       <r>   0.5148  1.0000</r>
       <r>   0.5148  1.0000</r>
       <r>   0.5211  1.0000</r>
       <r>   0.5281  1.0000</r>
       <r>   0.5281  1.0000</r>
       <r>   0.5281  1.0000</r>
       <r>   0.5281  1.0000</r>
       <r>   0.5477  1.0000</r>
       <r>   0.5477  1.0000</r>
       <r>   0.5477  1.0000</r>
       <r>   0.5477  1.0000</r>
       <r>   0.7293  1.0000</r>
       <r>   0.7293  1.0000</r>
       <r>   0.7532  1.0000</r>
       <r>   0.7532  1.0000</r>
       <r>   0.7532  1.0000</r>
       <r>   0.7532  1.0000</r>
       <r>   0.7534  1.0000</r>
       <r>   0.7534  1.0000</r>
       <r>   0.7650  1.0000</r>
       <r>   0.7653  1.0000</r>
       <r>   0.7663  1.0000</r>
       <r>   0.7667  1.0000</r>
       <r>   2.6241  1.0000</r>
       <r>   2.6241  1.0000</r>
       <r>   2.6241  1.0000</r>
       <r>   2.6241  1.0000</r>
       <r>   3.0080  1.0000</r>
       <r>   3.0080  1.0000</r>
       <r>   3.0081  1.0000</r>
       <r>   3.0081  1.0000</r>
       <r>   3.1393  1.0000</r>
       <r>   3.1393  1.0000</r>
       <r>   3.1393  1.0000</r>
       <r>   3.1393  1.0000</r>
       <r>   3.4207  1.0000</r>
       <r>   3.4207  1.0000</r>
       <r>   3.4207  1.0000</r>
       <r>   3.4207  1.0000</r>
       <r>   5.0449  0.0000</r>
       <r>   5.2248  0.0000</r>
       <r>   5.2248  0.0000</r>
       <r>   7.2525  0.0000</r>
       <r>   7.2525  0.0000</r>
       <r>   7.2525  0.0000</r>
       <r>   7.2525  0.0000</r>
       <r>   9.0287  0.0000</r>
       <r>   9.0287  0.0000</r>
       <r>   9.2249  0.0000</r>
       <r>   9.2249  0.0000</r>
       <r>   9.2250  0.0000</r>
       <r>   9.2250  0.0000</r>
       <r>   9.5753  0.0000</r>
       <r>   9.5753  0.0000</r>
       <r>   9.5753  0.0000</r>
       <r>   9.5753  0.0000</r>
       <r>  10.0697  0.0000</r>
       <r>  10.0697  0.0000</r>
       <r>  10.3458  0.0000</r>
       <r>  10.3458  0.0000</r>
       <r>  10.5003  0.0000</r>
       <r>  10.6843  0.0000</r>
       <r>  10.6843  0.0000</r>
       <r>  10.8792  0.0000</r>
       <r>  10.8792  0.0000</r>
       <r>  10.8792  0.0000</r>
       <r>  10.8792  0.0000</r>
       <r>  11.8114  0.0000</r>
      </set>
      <set comment="kpoint 3">
       <r>  -4.1669  1.0000</r>
       <r>  -2.9071  1.0000</r>
       <r>  -2.8982  1.0000</r>
       <r>  -2.8982  1.0000</r>
       <r>  -2.8502  1.0000</r>
       <r>  -2.8502  1.0000</r>
       <r>  -2.8502  1.0000</r>
       <r>  -2.8502  1.0000</r>
       <r>  -2.7751  1.0000</r>
       <r>  -2.7629  1.0000</r>
       <r>  -2.7629  1.0000</r>
       <r>  -2.7353  1.0000</r>
       <r>  -2.4302  1.0000</r>
       <r>  -2.4118  1.0000</r>
       <r>  -2.4118  1.0000</r>
       <r>  -2.4118  1.0000</r>
       <r>  -2.4117  1.0000</r>
       <r>  -2.2781  1.0000</r>
       <r>  -2.2501  1.0000</r>
       <r>  -2.2501  1.0000</r>
       <r>  -2.1506  1.0000</r>
       <r>  -2.1506  1.0000</r>
       <r>  -2.1506  1.0000</r>
       <r>  -2.1506  1.0000</r>
       <r>  -2.0670  1.0000</r>
       <r>  -2.0670  1.0000</r>
       <r>  -2.0670  1.0000</r>
       <r>  -2.0669  1.0000</r>
       <r>  -2.0485  1.0000</r>
       <r>  -2.0484  1.0000</r>
       <r>  -2.0484  1.0000</r>
       <r>  -2.0484  1.0000</r>
       <r>  -1.9315  1.0000</r>
       <r>  -1.9315  1.0000</r>
       <r>  -1.8893  1.0000</r>
       <r>  -1.8711  1.0000</r>
       <r>  -1.8711  1.0000</r>
       <r>  -1.8711  1.0000</r>
       <r>  -1.8711  1.0000</r>
       <r>  -1.8125  1.0000</r>
       <r>  -1.8125  1.0000</r>
       <r>  -1.8125  1.0000</r>
       <r>  -1.8125  1.0000</r>
       <r>  -1.7077  1.0000</r>
       <r>  -1.7077  1.0000</r>
       <r>  -1.7077  1.0000</r>
       <r>  -1.7076  1.0000</r>
       <r>  -1.5743  1.0000</r>
       <r>  -1.5743  1.0000</r>
       <r>  -1.5743  1.0000</r>
       <r>  -1.5743  1.0000</r>
       <r>  -1.5662  1.0000</r>
       <r>  -1.5656  1.0000</r>
       <r>  -1.5656  1.0000</r>
       <r>  -1.5656  1.0000</r>
       <r>  -1.5581  1.0000</r>
       <r>  -1.5581  1.0000</r>
       <r>  -1.5581  1.0000</r>
       <r>  -1.5576  1.0000</r>
       <r>  -1.5282  1.0000</r>
       <r>  -1.5282  1.0000</r>
       <r>  -1.5282  1.0000</r>
       <r>  -1.5281  1.0000</r>
       <r>  -1.3395  1.0000</r>
       <r>  -1.3394  1.0000</r>
       <r>  -1.3394  1.0000</r>
       <r>  -1.3394  1.0000</r>
       <r>  -1.3234  1.0000</r>
       <r>  -1.3234  1.0000</r>
       <r>  -1.3234  1.0000</r>
       <r>  -1.3233  1.0000</r>
       <r>  -1.3174  1.0000</r>
       <r>  -1.2836  1.0000</r>
       <r>  -1.2835  1.0000</r>
       <r>  -1.2835  1.0000</r>
       <r>  -1.2835  1.0000</r>
       <r>  -1.2704  1.0000</r>
       <r>  -1.2704  1.0000</r>
       <r>  -1.2704  1.0000</r>
       <r>  -1.2704  1.0000</r>
       <r>  -1.2617  1.0000</r>
       <r>  -1.2617  1.0000</r>
       <r>  -1.1372  1.0000</r>
       <r>  -1.1372  1.0000</r>
       <r>  -1.0441  1.0000</r>
       <r>  -1.0441  1.0000</r>
       <r>  -1.0441  1.0000</r>
       <r>  -1.0441  1.0000</r>
       <r>  -0.7322  1.0000</r>
       <r>  -0.7321  1.0000</r>
       <r>  -0.7321  1.0000</r>
       <r>  -0.7321  1.0000</r>
       <r>  -0.6836  1.0000</r>
       <r>  -0.6836  1.0000</r>
       <r>  -0.6836  1.0000</r>
       <r>  -0.6836  1.0000</r>
       <r>  -0.6562  1.0000</r>
       <r>  -0.6562  1.0000</r>
       <r>  -0.5631  1.0000</r>
       <r>  -0.5626  1.0000</r>
       <r>  -0.5626  1.0000</r>
       <r>  -0.5626  1.0000</r>
       <r>  -0.5608  1.0000</r>
       <r>  -0.5157  1.0000</r>
       <r>  -0.5157  1.0000</r>
       <r>  -0.5157  1.0000</r>
       <r>  -0.5157  1.0000</r>
       <r>  -0.4088  1.0000</r>
       <r>  -0.4088  1.0000</r>
       <r>  -0.4088  1.0000</r>
       <r>  -0.4088  1.0000</r>
       <r>  -0.3376  1.0000</r>
       <r>  -0.3376  1.0000</r>
       <r>  -0.3376  1.0000</r>
       <r>  -0.3376  1.0000</r>
       <r>  -0.2737  1.0000</r>
       <r>  -0.2336  1.0000</r>
       <r>  -0.2336  1.0000</r>
       <r>  -0.2336  1.0000</r>
       <r>  -0.2335  1.0000</r>
       <r>  -0.2322  1.0000</r>
       <r>  -0.1629  1.0000</r>
       <r>  -0.1629  1.0000</r>
       <r>  -0.1391  1.0000</r>
       <r>  -0.1391  1.0000</r>
       <r>  -0.1188  1.0000</r>
       <r>  -0.1188  1.0000</r>
       <r>  -0.1188  1.0000</r>
       <r>  -0.1188  1.0000</r>
       <r>  -0.0676  1.0000</r>
       <r>  -0.0676  1.0000</r>
       <r>  -0.0675  1.0000</r>
       <r>  -0.0675  1.0000</r>
       <r>  -0.0534  1.0000</r>
       <r>  -0.0534  1.0000</r>
       <r>  -0.0534  1.0000</r>
       <r>  -0.0534  1.0000</r>
       <r>   0.0313  1.0000</r>
       <r>   0.2154  1.0000</r>
       <r>   0.2154  1.0000</r>
       <r>   0.2154  1.0000</r>
       <r>   0.2154  1.0000</r>
       <r>   0.2302  1.0000</r>
       <r>   0.4137  1.0000</r>
       <r>   0.4463  1.0000</r>
       <r>   0.4463  1.0000</r>
       <r>   0.4463  1.0000</r>
       <r>   0.4463  1.0000</r>
       <r>   0.4858  1.0000</r>
       <r>   0.4858  1.0000</r>
       <r>   0.5108  1.0000</r>
       <r>   0.5221  1.0000</r>
       <r>   0.5221  1.0000</r>
       <r>   0.5221  1.0000</r>
       <r>   0.5221  1.0000</r>
       <r>   0.6262  1.0000</r>
       <r>   0.6262  1.0000</r>
       <r>   0.7147  1.0000</r>
       <r>   0.7147  1.0000</r>
       <r>   0.7147  1.0000</r>
       <r>   0.7147  1.0000</r>
       <r>   0.7180  1.0000</r>
       <r>   0.7180  1.0000</r>
       <r>   0.7650  1.0000</r>
       <r>   0.7653  1.0000</r>
       <r>   0.7663  1.0000</r>
       <r>   0.7666  1.0000</r>
       <r>   2.2708  1.0000</r>
       <r>   2.2708  1.0000</r>
       <r>   2.2708  1.0000</r>
       <r>   2.2708  1.0000</r>
       <r>   3.0130  1.0000</r>
       <r>   3.0130  1.0000</r>
       <r>   3.0130  1.0000</r>
       <r>   3.0130  1.0000</r>
       <r>   3.1290  1.0000</r>
       <r>   3.1290  1.0000</r>
       <r>   3.1291  1.0000</r>
       <r>   3.1291  1.0000</r>
       <r>   3.8691  0.0000</r>
       <r>   3.8691  0.0000</r>
       <r>   3.8691  0.0000</r>
       <r>   3.8691  0.0000</r>
       <r>   4.6979  0.0000</r>
       <r>   5.3727  0.0000</r>
       <r>   5.3727  0.0000</r>
       <r>   7.4215  0.0000</r>
       <r>   7.4215  0.0000</r>
       <r>   7.4215  0.0000</r>
       <r>   7.4215  0.0000</r>
       <r>   8.5207  0.0000</r>
       <r>   8.5207  0.0000</r>
       <r>   8.6129  0.0000</r>
       <r>   8.6129  0.0000</r>
       <r>   8.6129  0.0000</r>
       <r>   8.6129  0.0000</r>
       <r>   9.6620  0.0000</r>
       <r>   9.6620  0.0000</r>
       <r>   9.6620  0.0000</r>
       <r>   9.6620  0.0000</r>
       <r>  10.3536  0.0000</r>
       <r>  10.3536  0.0000</r>
       <r>  10.5960  0.0000</r>
       <r>  10.5960  0.0000</r>
       <r>  10.6434  0.0000</r>
       <r>  10.6434  0.0000</r>
       <r>  10.9316  0.0000</r>
       <r>  11.0809  0.0000</r>
       <r>  11.0809  0.0000</r>
       <r>  11.0809  0.0000</r>
       <r>  11.0809  0.0000</r>
       <r>  11.4961  0.0000</r>
      </set>
      <set comment="kpoint 4">
       <r>  -4.0764  1.0000</r>
       <r>  -2.9454  1.0000</r>
       <r>  -2.8701  1.0000</r>
       <r>  -2.8503  1.0000</r>
       <r>  -2.8503  1.0000</r>
       <r>  -2.8049  1.0000</r>
       <r>  -2.8049  1.0000</r>
       <r>  -2.8049  1.0000</r>
       <r>  -2.8049  1.0000</r>
       <r>  -2.7465  1.0000</r>
       <r>  -2.7190  1.0000</r>
       <r>  -2.7190  1.0000</r>
       <r>  -2.4759  1.0000</r>
       <r>  -2.3679  1.0000</r>
       <r>  -2.3528  1.0000</r>
       <r>  -2.3527  1.0000</r>
       <r>  -2.3526  1.0000</r>
       <r>  -2.3526  1.0000</r>
       <r>  -2.3267  1.0000</r>
       <r>  -2.3266  1.0000</r>
       <r>  -2.1914  1.0000</r>
       <r>  -2.1913  1.0000</r>
       <r>  -2.1913  1.0000</r>
       <r>  -2.1913  1.0000</r>
       <r>  -2.1149  1.0000</r>
       <r>  -2.1149  1.0000</r>
       <r>  -2.1149  1.0000</r>
       <r>  -2.1149  1.0000</r>
       <r>  -2.0938  1.0000</r>
       <r>  -2.0938  1.0000</r>
       <r>  -2.0428  1.0000</r>
       <r>  -2.0427  1.0000</r>
       <r>  -2.0427  1.0000</r>
       <r>  -2.0427  1.0000</r>
       <r>  -1.8837  1.0000</r>
       <r>  -1.8837  1.0000</r>
       <r>  -1.8837  1.0000</r>
       <r>  -1.8836  1.0000</r>
       <r>  -1.8252  1.0000</r>
       <r>  -1.8252  1.0000</r>
       <r>  -1.8252  1.0000</r>
       <r>  -1.8252  1.0000</r>
       <r>  -1.7927  1.0000</r>
       <r>  -1.7602  1.0000</r>
       <r>  -1.7601  1.0000</r>
       <r>  -1.7601  1.0000</r>
       <r>  -1.7601  1.0000</r>
       <r>  -1.5873  1.0000</r>
       <r>  -1.5872  1.0000</r>
       <r>  -1.5872  1.0000</r>
       <r>  -1.5872  1.0000</r>
       <r>  -1.5554  1.0000</r>
       <r>  -1.5544  1.0000</r>
       <r>  -1.5544  1.0000</r>
       <r>  -1.5544  1.0000</r>
       <r>  -1.5509  1.0000</r>
       <r>  -1.5509  1.0000</r>
       <r>  -1.5509  1.0000</r>
       <r>  -1.5499  1.0000</r>
       <r>  -1.4921  1.0000</r>
       <r>  -1.4921  1.0000</r>
       <r>  -1.4921  1.0000</r>
       <r>  -1.4921  1.0000</r>
       <r>  -1.4256  1.0000</r>
       <r>  -1.4256  1.0000</r>
       <r>  -1.4256  1.0000</r>
       <r>  -1.4255  1.0000</r>
       <r>  -1.3529  1.0000</r>
       <r>  -1.3385  1.0000</r>
       <r>  -1.3385  1.0000</r>
       <r>  -1.3385  1.0000</r>
       <r>  -1.3385  1.0000</r>
       <r>  -1.3163  1.0000</r>
       <r>  -1.3163  1.0000</r>
       <r>  -1.3163  1.0000</r>
       <r>  -1.3162  1.0000</r>
       <r>  -1.2499  1.0000</r>
       <r>  -1.2499  1.0000</r>
       <r>  -1.2499  1.0000</r>
       <r>  -1.2499  1.0000</r>
       <r>  -1.2283  1.0000</r>
       <r>  -1.2283  1.0000</r>
       <r>  -0.9084  1.0000</r>
       <r>  -0.9084  1.0000</r>
       <r>  -0.8677  1.0000</r>
       <r>  -0.8676  1.0000</r>
       <r>  -0.8676  1.0000</r>
       <r>  -0.8676  1.0000</r>
       <r>  -0.8369  1.0000</r>
       <r>  -0.8369  1.0000</r>
       <r>  -0.8369  1.0000</r>
       <r>  -0.8369  1.0000</r>
       <r>  -0.8209  1.0000</r>
       <r>  -0.8209  1.0000</r>
       <r>  -0.8209  1.0000</r>
       <r>  -0.8209  1.0000</r>
       <r>  -0.7697  1.0000</r>
       <r>  -0.7697  1.0000</r>
       <r>  -0.5899  1.0000</r>
       <r>  -0.4797  1.0000</r>
       <r>  -0.4796  1.0000</r>
       <r>  -0.4796  1.0000</r>
       <r>  -0.4796  1.0000</r>
       <r>  -0.4434  1.0000</r>
       <r>  -0.4434  1.0000</r>
       <r>  -0.4434  1.0000</r>
       <r>  -0.4433  1.0000</r>
       <r>  -0.4106  1.0000</r>
       <r>  -0.4106  1.0000</r>
       <r>  -0.4106  1.0000</r>
       <r>  -0.4106  1.0000</r>
       <r>  -0.3700  1.0000</r>
       <r>  -0.3700  1.0000</r>
       <r>  -0.3700  1.0000</r>
       <r>  -0.3700  1.0000</r>
       <r>  -0.3086  1.0000</r>
       <r>  -0.2365  1.0000</r>
       <r>  -0.2365  1.0000</r>
       <r>  -0.2365  1.0000</r>
       <r>  -0.2365  1.0000</r>
       <r>  -0.2168  1.0000</r>
       <r>  -0.0857  1.0000</r>
       <r>  -0.0857  1.0000</r>
       <r>  -0.0434  1.0000</r>
       <r>  -0.0434  1.0000</r>
       <r>  -0.0434  1.0000</r>
       <r>  -0.0434  1.0000</r>
       <r>  -0.0221  1.0000</r>
       <r>  -0.0219  1.0000</r>
       <r>  -0.0219  1.0000</r>
       <r>  -0.0219  1.0000</r>
       <r>  -0.0152  1.0000</r>
       <r>  -0.0035  1.0000</r>
       <r>  -0.0035  1.0000</r>
       <r>   0.0332  1.0000</r>
       <r>   0.0332  1.0000</r>
       <r>   0.0332  1.0000</r>
       <r>   0.0332  1.0000</r>
       <r>   0.2786  1.0000</r>
       <r>   0.3181  1.0000</r>
       <r>   0.3181  1.0000</r>
       <r>   0.3181  1.0000</r>
       <r>   0.3181  1.0000</r>
       <r>   0.3831  1.0000</r>
       <r>   0.3832  1.0000</r>
       <r>   0.3832  1.0000</r>
       <r>   0.3832  1.0000</r>
       <r>   0.4384  1.0000</r>
       <r>   0.4384  1.0000</r>
       <r>   0.4687  1.0000</r>
       <r>   0.4687  1.0000</r>
       <r>   0.4802  1.0000</r>
       <r>   0.4802  1.0000</r>
       <r>   0.4802  1.0000</r>
       <r>   0.4803  1.0000</r>
       <r>   0.4938  1.0000</r>
       <r>   0.6530  1.0000</r>
       <r>   0.6530  1.0000</r>
       <r>   0.6530  1.0000</r>
       <r>   0.6530  1.0000</r>
       <r>   0.6605  1.0000</r>
       <r>   0.6605  1.0000</r>
       <r>   0.7651  1.0000</r>
       <r>   0.7654  1.0000</r>
       <r>   0.7662  1.0000</r>
       <r>   0.7666  1.0000</r>
       <r>   0.8647  1.0000</r>
       <r>   1.9433  1.0000</r>
       <r>   1.9433  1.0000</r>
       <r>   1.9433  1.0000</r>
       <r>   1.9433  1.0000</r>
       <r>   3.0211  1.0000</r>
       <r>   3.0211  1.0000</r>
       <r>   3.0211  1.0000</r>
       <r>   3.0211  1.0000</r>
       <r>   3.1141  1.0000</r>
       <r>   3.1141  1.0000</r>
       <r>   3.1142  1.0000</r>
       <r>   3.1142  1.0000</r>
       <r>   4.2125  0.0000</r>
       <r>   4.3530  0.0000</r>
       <r>   4.3530  0.0000</r>
       <r>   4.3530  0.0000</r>
       <r>   4.3530  0.0000</r>
       <r>   5.6047  0.0000</r>
       <r>   5.6047  0.0000</r>
       <r>   7.6925  0.0000</r>
       <r>   7.6925  0.0000</r>
       <r>   7.6926  0.0000</r>
       <r>   7.6926  0.0000</r>
       <r>   7.9470  0.0000</r>
       <r>   7.9470  0.0000</r>
       <r>   7.9470  0.0000</r>
       <r>   7.9470  0.0000</r>
       <r>   8.0255  0.0000</r>
       <r>   8.0255  0.0000</r>
       <r>   9.8039  0.0000</r>
       <r>   9.8039  0.0000</r>
       <r>   9.8039  0.0000</r>
       <r>   9.8039  0.0000</r>
       <r>  10.3670  0.0000</r>
       <r>  10.3670  0.0000</r>
       <r>  10.5909  0.0000</r>
       <r>  10.5909  0.0000</r>
       <r>  10.8110  0.0000</r>
       <r>  10.8110  0.0000</r>
       <r>  10.8110  0.0000</r>
       <r>  10.8111  0.0000</r>
       <r>  11.1215  0.0000</r>
       <r>  11.1234  0.0000</r>
       <r>  11.2096  0.0000</r>
       <r>  11.2096  0.0000</r>
      </set>
      <set comment="kpoint 5">
       <r>  -3.9514  1.0000</r>
       <r>  -3.1728  1.0000</r>
       <r>  -2.8199  1.0000</r>
       <r>  -2.7854  1.0000</r>
       <r>  -2.7854  1.0000</r>
       <r>  -2.7420  1.0000</r>
       <r>  -2.7420  1.0000</r>
       <r>  -2.7420  1.0000</r>
       <r>  -2.7420  1.0000</r>
       <r>  -2.7070  1.0000</r>
       <r>  -2.6576  1.0000</r>
       <r>  -2.6576  1.0000</r>
       <r>  -2.5411  1.0000</r>
       <r>  -2.4518  1.0000</r>
       <r>  -2.4189  1.0000</r>
       <r>  -2.4188  1.0000</r>
       <r>  -2.3281  1.0000</r>
       <r>  -2.3281  1.0000</r>
       <r>  -2.3281  1.0000</r>
       <r>  -2.3281  1.0000</r>
       <r>  -2.2733  1.0000</r>
       <r>  -2.2732  1.0000</r>
       <r>  -2.2732  1.0000</r>
       <r>  -2.2732  1.0000</r>
       <r>  -2.2400  1.0000</r>
       <r>  -2.2400  1.0000</r>
       <r>  -2.0686  1.0000</r>
       <r>  -2.0686  1.0000</r>
       <r>  -2.0686  1.0000</r>
       <r>  -2.0686  1.0000</r>
       <r>  -2.0099  1.0000</r>
       <r>  -2.0099  1.0000</r>
       <r>  -2.0099  1.0000</r>
       <r>  -2.0098  1.0000</r>
       <r>  -1.8996  1.0000</r>
       <r>  -1.8996  1.0000</r>
       <r>  -1.8996  1.0000</r>
       <r>  -1.8995  1.0000</r>
       <r>  -1.8775  1.0000</r>
       <r>  -1.8775  1.0000</r>
       <r>  -1.8775  1.0000</r>
       <r>  -1.8775  1.0000</r>
       <r>  -1.8151  1.0000</r>
       <r>  -1.8151  1.0000</r>
       <r>  -1.8151  1.0000</r>
       <r>  -1.8151  1.0000</r>
       <r>  -1.6999  1.0000</r>
       <r>  -1.5997  1.0000</r>
       <r>  -1.5997  1.0000</r>
       <r>  -1.5997  1.0000</r>
       <r>  -1.5997  1.0000</r>
       <r>  -1.5505  1.0000</r>
       <r>  -1.5499  1.0000</r>
       <r>  -1.5499  1.0000</r>
       <r>  -1.5499  1.0000</r>
       <r>  -1.5431  1.0000</r>
       <r>  -1.5431  1.0000</r>
       <r>  -1.5431  1.0000</r>
       <r>  -1.5425  1.0000</r>
       <r>  -1.5046  1.0000</r>
       <r>  -1.5046  1.0000</r>
       <r>  -1.5046  1.0000</r>
       <r>  -1.5046  1.0000</r>
       <r>  -1.4625  1.0000</r>
       <r>  -1.4625  1.0000</r>
       <r>  -1.4625  1.0000</r>
       <r>  -1.4625  1.0000</r>
       <r>  -1.4014  1.0000</r>
       <r>  -1.3583  1.0000</r>
       <r>  -1.3583  1.0000</r>
       <r>  -1.3583  1.0000</r>
       <r>  -1.3583  1.0000</r>
       <r>  -1.3239  1.0000</r>
       <r>  -1.3239  1.0000</r>
       <r>  -1.3239  1.0000</r>
       <r>  -1.3239  1.0000</r>
       <r>  -1.2036  1.0000</r>
       <r>  -1.2036  1.0000</r>
       <r>  -1.2036  1.0000</r>
       <r>  -1.2036  1.0000</r>
       <r>  -1.1820  1.0000</r>
       <r>  -1.1820  1.0000</r>
       <r>  -0.9773  1.0000</r>
       <r>  -0.9773  1.0000</r>
       <r>  -0.9773  1.0000</r>
       <r>  -0.9773  1.0000</r>
       <r>  -0.9113  1.0000</r>
       <r>  -0.9113  1.0000</r>
       <r>  -0.9113  1.0000</r>
       <r>  -0.9113  1.0000</r>
       <r>  -0.8741  1.0000</r>
       <r>  -0.8741  1.0000</r>
       <r>  -0.6714  1.0000</r>
       <r>  -0.6714  1.0000</r>
       <r>  -0.6668  1.0000</r>
       <r>  -0.6668  1.0000</r>
       <r>  -0.6667  1.0000</r>
       <r>  -0.6667  1.0000</r>
       <r>  -0.5711  1.0000</r>
       <r>  -0.4122  1.0000</r>
       <r>  -0.4122  1.0000</r>
       <r>  -0.4122  1.0000</r>
       <r>  -0.4122  1.0000</r>
       <r>  -0.3913  1.0000</r>
       <r>  -0.3913  1.0000</r>
       <r>  -0.3913  1.0000</r>
       <r>  -0.3913  1.0000</r>
       <r>  -0.3877  1.0000</r>
       <r>  -0.3875  1.0000</r>
       <r>  -0.3875  1.0000</r>
       <r>  -0.3875  1.0000</r>
       <r>  -0.3784  1.0000</r>
       <r>  -0.3784  1.0000</r>
       <r>  -0.3784  1.0000</r>
       <r>  -0.3782  1.0000</r>
       <r>  -0.3550  1.0000</r>
       <r>  -0.2444  1.0000</r>
       <r>  -0.2443  1.0000</r>
       <r>  -0.2443  1.0000</r>
       <r>  -0.2443  1.0000</r>
       <r>  -0.1955  1.0000</r>
       <r>  -0.0799  1.0000</r>
       <r>  -0.0799  1.0000</r>
       <r>  -0.0799  1.0000</r>
       <r>  -0.0799  1.0000</r>
       <r>  -0.0596  1.0000</r>
       <r>   0.0071  1.0000</r>
       <r>   0.0071  1.0000</r>
       <r>   0.0792  1.0000</r>
       <r>   0.0792  1.0000</r>
       <r>   0.0792  1.0000</r>
       <r>   0.0792  1.0000</r>
       <r>   0.1300  1.0000</r>
       <r>   0.1300  1.0000</r>
       <r>   0.1422  1.0000</r>
       <r>   0.1422  1.0000</r>
       <r>   0.1422  1.0000</r>
       <r>   0.1422  1.0000</r>
       <r>   0.1536  1.0000</r>
       <r>   0.1536  1.0000</r>
       <r>   0.1536  1.0000</r>
       <r>   0.1536  1.0000</r>
       <r>   0.2717  1.0000</r>
       <r>   0.2717  1.0000</r>
       <r>   0.3247  1.0000</r>
       <r>   0.3740  1.0000</r>
       <r>   0.3740  1.0000</r>
       <r>   0.4231  1.0000</r>
       <r>   0.4232  1.0000</r>
       <r>   0.4232  1.0000</r>
       <r>   0.4232  1.0000</r>
       <r>   0.4705  1.0000</r>
       <r>   0.5716  1.0000</r>
       <r>   0.5716  1.0000</r>
       <r>   0.5716  1.0000</r>
       <r>   0.5716  1.0000</r>
       <r>   0.5830  1.0000</r>
       <r>   0.5830  1.0000</r>
       <r>   0.5969  1.0000</r>
       <r>   0.5970  1.0000</r>
       <r>   0.5970  1.0000</r>
       <r>   0.5970  1.0000</r>
       <r>   0.7651  1.0000</r>
       <r>   0.7655  1.0000</r>
       <r>   0.7661  1.0000</r>
       <r>   0.7665  1.0000</r>
       <r>   1.3686  1.0000</r>
       <r>   1.6383  1.0000</r>
       <r>   1.6383  1.0000</r>
       <r>   1.6383  1.0000</r>
       <r>   1.6384  1.0000</r>
       <r>   3.0321  1.0000</r>
       <r>   3.0321  1.0000</r>
       <r>   3.0321  1.0000</r>
       <r>   3.0321  1.0000</r>
       <r>   3.0968  1.0000</r>
       <r>   3.0968  1.0000</r>
       <r>   3.0968  1.0000</r>
       <r>   3.0968  1.0000</r>
       <r>   3.6559  0.0000</r>
       <r>   4.8727  0.0000</r>
       <r>   4.8727  0.0000</r>
       <r>   4.8727  0.0000</r>
       <r>   4.8727  0.0000</r>
       <r>   5.9054  0.0000</r>
       <r>   5.9054  0.0000</r>
       <r>   7.2821  0.0000</r>
       <r>   7.2821  0.0000</r>
       <r>   7.2821  0.0000</r>
       <r>   7.2821  0.0000</r>
       <r>   7.5469  0.0000</r>
       <r>   7.5469  0.0000</r>
       <r>   8.0534  0.0000</r>
       <r>   8.0534  0.0000</r>
       <r>   8.0534  0.0000</r>
       <r>   8.0534  0.0000</r>
       <r>   9.9976  0.0000</r>
       <r>   9.9976  0.0000</r>
       <r>   9.9976  0.0000</r>
       <r>   9.9976  0.0000</r>
       <r>  10.1619  0.0000</r>
       <r>  10.1619  0.0000</r>
       <r>  10.1619  0.0000</r>
       <r>  10.1619  0.0000</r>
       <r>  10.3866  0.0000</r>
       <r>  10.3866  0.0000</r>
       <r>  10.5374  0.0000</r>
       <r>  10.5374  0.0000</r>
       <r>  11.2023  0.0000</r>
       <r>  11.2026  0.0000</r>
       <r>  11.2040  0.0000</r>
       <r>  11.2088  0.0000</r>
      </set>
      <set comment="kpoint 6">
       <r>  -3.7942  1.0000</r>
       <r>  -3.3981  1.0000</r>
       <r>  -2.7587  1.0000</r>
       <r>  -2.7059  1.0000</r>
       <r>  -2.7059  1.0000</r>
       <r>  -2.6620  1.0000</r>
       <r>  -2.6620  1.0000</r>
       <r>  -2.6620  1.0000</r>
       <r>  -2.6620  1.0000</r>
       <r>  -2.6571  1.0000</r>
       <r>  -2.6147  1.0000</r>
       <r>  -2.5789  1.0000</r>
       <r>  -2.5789  1.0000</r>
       <r>  -2.5286  1.0000</r>
       <r>  -2.5175  1.0000</r>
       <r>  -2.5175  1.0000</r>
       <r>  -2.4537  1.0000</r>
       <r>  -2.4537  1.0000</r>
       <r>  -2.4537  1.0000</r>
       <r>  -2.4537  1.0000</r>
       <r>  -2.3698  1.0000</r>
       <r>  -2.3698  1.0000</r>
       <r>  -2.1775  1.0000</r>
       <r>  -2.1775  1.0000</r>
       <r>  -2.1775  1.0000</r>
       <r>  -2.1775  1.0000</r>
       <r>  -2.0165  1.0000</r>
       <r>  -2.0164  1.0000</r>
       <r>  -2.0164  1.0000</r>
       <r>  -2.0164  1.0000</r>
       <r>  -1.9692  1.0000</r>
       <r>  -1.9692  1.0000</r>
       <r>  -1.9692  1.0000</r>
       <r>  -1.9691  1.0000</r>
       <r>  -1.9661  1.0000</r>
       <r>  -1.9661  1.0000</r>
       <r>  -1.9661  1.0000</r>
       <r>  -1.9661  1.0000</r>
       <r>  -1.9256  1.0000</r>
       <r>  -1.9256  1.0000</r>
       <r>  -1.9256  1.0000</r>
       <r>  -1.9255  1.0000</r>
       <r>  -1.8698  1.0000</r>
       <r>  -1.8698  1.0000</r>
       <r>  -1.8698  1.0000</r>
       <r>  -1.8698  1.0000</r>
       <r>  -1.6127  1.0000</r>
       <r>  -1.6056  1.0000</r>
       <r>  -1.6056  1.0000</r>
       <r>  -1.6056  1.0000</r>
       <r>  -1.6056  1.0000</r>
       <r>  -1.5639  1.0000</r>
       <r>  -1.5639  1.0000</r>
       <r>  -1.5639  1.0000</r>
       <r>  -1.5639  1.0000</r>
       <r>  -1.5462  1.0000</r>
       <r>  -1.5454  1.0000</r>
       <r>  -1.5454  1.0000</r>
       <r>  -1.5454  1.0000</r>
       <r>  -1.5406  1.0000</r>
       <r>  -1.5406  1.0000</r>
       <r>  -1.5406  1.0000</r>
       <r>  -1.5398  1.0000</r>
       <r>  -1.4618  1.0000</r>
       <r>  -1.4347  1.0000</r>
       <r>  -1.4347  1.0000</r>
       <r>  -1.4347  1.0000</r>
       <r>  -1.4347  1.0000</r>
       <r>  -1.3818  1.0000</r>
       <r>  -1.3818  1.0000</r>
       <r>  -1.3818  1.0000</r>
       <r>  -1.3818  1.0000</r>
       <r>  -1.2835  1.0000</r>
       <r>  -1.2835  1.0000</r>
       <r>  -1.2835  1.0000</r>
       <r>  -1.2835  1.0000</r>
       <r>  -1.1454  1.0000</r>
       <r>  -1.1454  1.0000</r>
       <r>  -1.1454  1.0000</r>
       <r>  -1.1453  1.0000</r>
       <r>  -1.1228  1.0000</r>
       <r>  -1.1228  1.0000</r>
       <r>  -1.1016  1.0000</r>
       <r>  -1.1015  1.0000</r>
       <r>  -1.1015  1.0000</r>
       <r>  -1.1015  1.0000</r>
       <r>  -0.9975  1.0000</r>
       <r>  -0.9975  1.0000</r>
       <r>  -0.9975  1.0000</r>
       <r>  -0.9975  1.0000</r>
       <r>  -0.9682  1.0000</r>
       <r>  -0.9682  1.0000</r>
       <r>  -0.5260  1.0000</r>
       <r>  -0.4554  1.0000</r>
       <r>  -0.4554  1.0000</r>
       <r>  -0.4554  1.0000</r>
       <r>  -0.4554  1.0000</r>
       <r>  -0.4295  1.0000</r>
       <r>  -0.4295  1.0000</r>
       <r>  -0.4126  1.0000</r>
       <r>  -0.4126  1.0000</r>
       <r>  -0.4126  1.0000</r>
       <r>  -0.4126  1.0000</r>
       <r>  -0.4100  1.0000</r>
       <r>  -0.4041  1.0000</r>
       <r>  -0.4040  1.0000</r>
       <r>  -0.4040  1.0000</r>
       <r>  -0.4040  1.0000</r>
       <r>  -0.3258  1.0000</r>
       <r>  -0.3257  1.0000</r>
       <r>  -0.3257  1.0000</r>
       <r>  -0.3257  1.0000</r>
       <r>  -0.2963  1.0000</r>
       <r>  -0.2963  1.0000</r>
       <r>  -0.2963  1.0000</r>
       <r>  -0.2962  1.0000</r>
       <r>  -0.2601  1.0000</r>
       <r>  -0.2601  1.0000</r>
       <r>  -0.2601  1.0000</r>
       <r>  -0.2601  1.0000</r>
       <r>  -0.1687  1.0000</r>
       <r>  -0.1384  1.0000</r>
       <r>  -0.1384  1.0000</r>
       <r>  -0.1384  1.0000</r>
       <r>  -0.1384  1.0000</r>
       <r>  -0.1002  1.0000</r>
       <r>  -0.0366  1.0000</r>
       <r>  -0.0366  1.0000</r>
       <r>  -0.0366  1.0000</r>
       <r>  -0.0366  1.0000</r>
       <r>   0.0493  1.0000</r>
       <r>   0.0493  1.0000</r>
       <r>   0.1063  1.0000</r>
       <r>   0.1063  1.0000</r>
       <r>   0.1777  1.0000</r>
       <r>   0.1777  1.0000</r>
       <r>   0.1777  1.0000</r>
       <r>   0.1778  1.0000</r>
       <r>   0.2553  1.0000</r>
       <r>   0.2553  1.0000</r>
       <r>   0.2553  1.0000</r>
       <r>   0.2553  1.0000</r>
       <r>   0.2585  1.0000</r>
       <r>   0.2585  1.0000</r>
       <r>   0.2948  1.0000</r>
       <r>   0.2949  1.0000</r>
       <r>   0.3523  1.0000</r>
       <r>   0.3523  1.0000</r>
       <r>   0.3524  1.0000</r>
       <r>   0.3524  1.0000</r>
       <r>   0.3678  1.0000</r>
       <r>   0.4413  1.0000</r>
       <r>   0.4750  1.0000</r>
       <r>   0.4750  1.0000</r>
       <r>   0.4750  1.0000</r>
       <r>   0.4750  1.0000</r>
       <r>   0.4881  1.0000</r>
       <r>   0.4881  1.0000</r>
       <r>   0.7651  1.0000</r>
       <r>   0.7657  1.0000</r>
       <r>   0.7659  1.0000</r>
       <r>   0.7665  1.0000</r>
       <r>   0.8326  1.0000</r>
       <r>   0.8326  1.0000</r>
       <r>   0.8326  1.0000</r>
       <r>   0.8326  1.0000</r>
       <r>   1.3529  1.0000</r>
       <r>   1.3529  1.0000</r>
       <r>   1.3529  1.0000</r>
       <r>   1.3529  1.0000</r>
       <r>   1.9124  1.0000</r>
       <r>   3.0455  1.0000</r>
       <r>   3.0457  1.0000</r>
       <r>   3.0457  1.0000</r>
       <r>   3.0457  1.0000</r>
       <r>   3.0709  1.0000</r>
       <r>   3.0788  1.0000</r>
       <r>   3.0788  1.0000</r>
       <r>   3.0788  1.0000</r>
       <r>   3.0792  1.0000</r>
       <r>   5.4277  0.0000</r>
       <r>   5.4277  0.0000</r>
       <r>   5.4277  0.0000</r>
       <r>   5.4277  0.0000</r>
       <r>   6.2605  0.0000</r>
       <r>   6.2605  0.0000</r>
       <r>   6.6359  0.0000</r>
       <r>   6.6359  0.0000</r>
       <r>   6.6360  0.0000</r>
       <r>   6.6360  0.0000</r>
       <r>   7.0893  0.0000</r>
       <r>   7.0893  0.0000</r>
       <r>   8.4912  0.0000</r>
       <r>   8.4912  0.0000</r>
       <r>   8.4912  0.0000</r>
       <r>   8.4912  0.0000</r>
       <r>   9.5542  0.0000</r>
       <r>   9.5542  0.0000</r>
       <r>   9.5542  0.0000</r>
       <r>   9.5542  0.0000</r>
[...]
       <r>  -0.7137  1.0000</r>
       <r>  -0.7137  1.0000</r>
       <r>  -0.7130  1.0000</r>
       <r>  -0.7130  1.0000</r>
       <r>  -0.6819  1.0000</r>
       <r>  -0.6818  1.0000</r>
       <r>  -0.6818  1.0000</r>
       <r>  -0.6818  1.0000</r>
       <r>  -0.6314  1.0000</r>
       <r>  -0.6314  1.0000</r>
       <r>  -0.6314  1.0000</r>
       <r>  -0.6314  1.0000</r>
       <r>  -0.5519  1.0000</r>
       <r>  -0.5519  1.0000</r>
       <r>  -0.5517  1.0000</r>
       <r>  -0.5517  1.0000</r>
       <r>  -0.5516  1.0000</r>
       <r>  -0.5516  1.0000</r>
       <r>  -0.5514  1.0000</r>
       <r>  -0.5514  1.0000</r>
       <r>  -0.2978  1.0000</r>
       <r>  -0.2976  1.0000</r>
       <r>  -0.2976  1.0000</r>
       <r>  -0.2976  1.0000</r>
       <r>  -0.2534  1.0000</r>
       <r>  -0.2534  1.0000</r>
       <r>  -0.2534  1.0000</r>
       <r>  -0.2534  1.0000</r>
       <r>  -0.2388  1.0000</r>
       <r>  -0.2388  1.0000</r>
       <r>  -0.2383  1.0000</r>
       <r>  -0.2383  1.0000</r>
       <r>  -0.2383  1.0000</r>
       <r>  -0.2381  1.0000</r>
       <r>  -0.2377  1.0000</r>
       <r>  -0.2377  1.0000</r>
       <r>  -0.0548  1.0000</r>
       <r>  -0.0548  1.0000</r>
       <r>  -0.0548  1.0000</r>
       <r>  -0.0548  1.0000</r>
       <r>   0.0039  1.0000</r>
       <r>   0.0039  1.0000</r>
       <r>   0.0039  1.0000</r>
       <r>   0.0039  1.0000</r>
       <r>   0.0722  1.0000</r>
       <r>   0.0722  1.0000</r>
       <r>   0.0722  1.0000</r>
       <r>   0.0722  1.0000</r>
       <r>   0.5693  1.0000</r>
       <r>   0.5693  1.0000</r>
       <r>   0.5694  1.0000</r>
       <r>   0.5694  1.0000</r>
       <r>   0.5694  1.0000</r>
       <r>   0.5695  1.0000</r>
       <r>   0.5696  1.0000</r>
       <r>   0.5696  1.0000</r>
       <r>   0.5817  1.0000</r>
       <r>   0.5817  1.0000</r>
       <r>   0.5817  1.0000</r>
       <r>   0.5817  1.0000</r>
       <r>   0.5968  1.0000</r>
       <r>   0.5968  1.0000</r>
       <r>   0.5968  1.0000</r>
       <r>   0.5968  1.0000</r>
       <r>   0.6003  1.0000</r>
       <r>   0.6003  1.0000</r>
       <r>   0.6005  1.0000</r>
       <r>   0.6005  1.0000</r>
       <r>   0.6005  1.0000</r>
       <r>   0.6005  1.0000</r>
       <r>   0.6007  1.0000</r>
       <r>   0.6007  1.0000</r>
       <r>   3.3521  1.0000</r>
       <r>   3.3521  1.0000</r>
       <r>   3.3521  1.0000</r>
       <r>   3.3521  1.0000</r>
       <r>   4.1563  0.0000</r>
       <r>   4.1563  0.0000</r>
       <r>   4.1567  0.0000</r>
       <r>   4.1567  0.0000</r>
       <r>   4.1567  0.0000</r>
       <r>   4.1567  0.0000</r>
       <r>   4.1570  0.0000</r>
       <r>   4.1570  0.0000</r>
       <r>   5.0709  0.0000</r>
       <r>   5.0709  0.0000</r>
       <r>   5.0718  0.0000</r>
       <r>   5.0718  0.0000</r>
       <r>   5.0718  0.0000</r>
       <r>   5.0718  0.0000</r>
       <r>   5.0727  0.0000</r>
       <r>   5.0727  0.0000</r>
       <r>   5.8740  0.0000</r>
       <r>   5.8740  0.0000</r>
       <r>   5.8740  0.0000</r>
       <r>   5.8740  0.0000</r>
       <r>   8.7248  0.0000</r>
       <r>   8.7248  0.0000</r>
       <r>   8.7254  0.0000</r>
       <r>   8.7254  0.0000</r>
       <r>   8.7255  0.0000</r>
       <r>   8.7255  0.0000</r>
       <r>   8.7261  0.0000</r>
       <r>   8.7261  0.0000</r>
       <r>   9.2779  0.0000</r>
       <r>   9.2779  0.0000</r>
       <r>   9.2779  0.0000</r>
       <r>   9.2779  0.0000</r>
       <r>  10.3386  0.0000</r>
       <r>  10.3386  0.0000</r>
       <r>  10.3386  0.0000</r>
       <r>  10.3386  0.0000</r>
       <r>  10.8982  0.0000</r>
       <r>  10.8984  0.0000</r>
       <r>  10.8985  0.0000</r>
       <r>  10.8988  0.0000</r>
      </set>
      <set comment="kpoint 195">
       <r>  -2.9219  1.0000</r>
       <r>  -2.9218  1.0000</r>
       <r>  -2.9218  1.0000</r>
       <r>  -2.9218  1.0000</r>
       <r>  -2.8072  1.0000</r>
       <r>  -2.8072  1.0000</r>
       <r>  -2.8072  1.0000</r>
       <r>  -2.8071  1.0000</r>
       <r>  -2.4355  1.0000</r>
       <r>  -2.4354  1.0000</r>
       <r>  -2.4354  1.0000</r>
       <r>  -2.4352  1.0000</r>
       <r>  -2.4350  1.0000</r>
       <r>  -2.4350  1.0000</r>
       <r>  -2.4349  1.0000</r>
       <r>  -2.4349  1.0000</r>
       <r>  -2.4325  1.0000</r>
       <r>  -2.4323  1.0000</r>
       <r>  -2.4323  1.0000</r>
       <r>  -2.4322  1.0000</r>
       <r>  -2.4089  1.0000</r>
       <r>  -2.4089  1.0000</r>
       <r>  -2.4089  1.0000</r>
       <r>  -2.4089  1.0000</r>
       <r>  -2.3899  1.0000</r>
       <r>  -2.3899  1.0000</r>
       <r>  -2.3895  1.0000</r>
       <r>  -2.3895  1.0000</r>
       <r>  -2.3895  1.0000</r>
       <r>  -2.3894  1.0000</r>
       <r>  -2.3891  1.0000</r>
       <r>  -2.3891  1.0000</r>
       <r>  -1.9395  1.0000</r>
       <r>  -1.9395  1.0000</r>
       <r>  -1.9391  1.0000</r>
       <r>  -1.9390  1.0000</r>
       <r>  -1.9390  1.0000</r>
       <r>  -1.9390  1.0000</r>
       <r>  -1.9385  1.0000</r>
       <r>  -1.9385  1.0000</r>
       <r>  -1.9205  1.0000</r>
       <r>  -1.9204  1.0000</r>
       <r>  -1.9204  1.0000</r>
       <r>  -1.9204  1.0000</r>
       <r>  -1.7733  1.0000</r>
       <r>  -1.7733  1.0000</r>
       <r>  -1.7729  1.0000</r>
       <r>  -1.7729  1.0000</r>
       <r>  -1.7729  1.0000</r>
       <r>  -1.7728  1.0000</r>
       <r>  -1.7724  1.0000</r>
       <r>  -1.7724  1.0000</r>
       <r>  -1.7668  1.0000</r>
       <r>  -1.7668  1.0000</r>
       <r>  -1.7668  1.0000</r>
       <r>  -1.7668  1.0000</r>
       <r>  -1.1854  1.0000</r>
       <r>  -1.1854  1.0000</r>
       <r>  -1.1854  1.0000</r>
       <r>  -1.1853  1.0000</r>
       <r>  -1.1056  1.0000</r>
       <r>  -1.1056  1.0000</r>
       <r>  -1.1055  1.0000</r>
       <r>  -1.1055  1.0000</r>
       <r>  -1.0874  1.0000</r>
       <r>  -1.0874  1.0000</r>
       <r>  -1.0874  1.0000</r>
       <r>  -1.0873  1.0000</r>
       <r>  -1.0742  1.0000</r>
       <r>  -1.0742  1.0000</r>
       <r>  -1.0741  1.0000</r>
       <r>  -1.0741  1.0000</r>
       <r>  -1.0601  1.0000</r>
       <r>  -1.0601  1.0000</r>
       <r>  -1.0601  1.0000</r>
       <r>  -1.0601  1.0000</r>
       <r>  -0.9057  1.0000</r>
       <r>  -0.9057  1.0000</r>
       <r>  -0.9057  1.0000</r>
       <r>  -0.9057  1.0000</r>
       <r>  -0.8584  1.0000</r>
       <r>  -0.8584  1.0000</r>
       <r>  -0.8572  1.0000</r>
       <r>  -0.8569  1.0000</r>
       <r>  -0.8569  1.0000</r>
       <r>  -0.8569  1.0000</r>
       <r>  -0.8568  1.0000</r>
       <r>  -0.8568  1.0000</r>
       <r>  -0.8568  1.0000</r>
       <r>  -0.8565  1.0000</r>
       <r>  -0.8553  1.0000</r>
       <r>  -0.8553  1.0000</r>
       <r>  -0.7488  1.0000</r>
       <r>  -0.7488  1.0000</r>
       <r>  -0.7478  1.0000</r>
       <r>  -0.7477  1.0000</r>
       <r>  -0.7477  1.0000</r>
       <r>  -0.7477  1.0000</r>
       <r>  -0.7468  1.0000</r>
       <r>  -0.7468  1.0000</r>
       <r>  -0.7384  1.0000</r>
       <r>  -0.7384  1.0000</r>
       <r>  -0.7383  1.0000</r>
       <r>  -0.7383  1.0000</r>
       <r>  -0.5392  1.0000</r>
       <r>  -0.5391  1.0000</r>
       <r>  -0.5391  1.0000</r>
       <r>  -0.5391  1.0000</r>
       <r>  -0.5066  1.0000</r>
       <r>  -0.5066  1.0000</r>
       <r>  -0.5062  1.0000</r>
       <r>  -0.5062  1.0000</r>
       <r>  -0.5062  1.0000</r>
       <r>  -0.5062  1.0000</r>
       <r>  -0.5058  1.0000</r>
       <r>  -0.5058  1.0000</r>
       <r>  -0.3547  1.0000</r>
       <r>  -0.3547  1.0000</r>
       <r>  -0.3542  1.0000</r>
       <r>  -0.3541  1.0000</r>
       <r>  -0.3541  1.0000</r>
       <r>  -0.3541  1.0000</r>
       <r>  -0.3536  1.0000</r>
       <r>  -0.3536  1.0000</r>
       <r>  -0.3473  1.0000</r>
       <r>  -0.3473  1.0000</r>
       <r>  -0.3473  1.0000</r>
       <r>  -0.3472  1.0000</r>
       <r>  -0.2100  1.0000</r>
       <r>  -0.2100  1.0000</r>
       <r>  -0.2100  1.0000</r>
       <r>  -0.2099  1.0000</r>
       <r>  -0.1003  1.0000</r>
       <r>  -0.1002  1.0000</r>
       <r>  -0.1002  1.0000</r>
       <r>  -0.1002  1.0000</r>
       <r>  -0.0925  1.0000</r>
       <r>  -0.0925  1.0000</r>
       <r>  -0.0925  1.0000</r>
       <r>  -0.0923  1.0000</r>
       <r>  -0.0225  1.0000</r>
       <r>  -0.0225  1.0000</r>
       <r>  -0.0225  1.0000</r>
       <r>  -0.0224  1.0000</r>
       <r>   0.5965  1.0000</r>
       <r>   0.5965  1.0000</r>
       <r>   0.5966  1.0000</r>
       <r>   0.5966  1.0000</r>
       <r>   0.5966  1.0000</r>
       <r>   0.5967  1.0000</r>
       <r>   0.5967  1.0000</r>
       <r>   0.5967  1.0000</r>
       <r>   0.6033  1.0000</r>
       <r>   0.6033  1.0000</r>
       <r>   0.6033  1.0000</r>
       <r>   0.6033  1.0000</r>
       <r>   0.6120  1.0000</r>
       <r>   0.6120  1.0000</r>
       <r>   0.6121  1.0000</r>
       <r>   0.6121  1.0000</r>
       <r>   0.6165  1.0000</r>
       <r>   0.6165  1.0000</r>
       <r>   0.6166  1.0000</r>
       <r>   0.6166  1.0000</r>
       <r>   0.6166  1.0000</r>
       <r>   0.6166  1.0000</r>
       <r>   0.6167  1.0000</r>
       <r>   0.6167  1.0000</r>
       <r>   3.9487  0.0000</r>
       <r>   3.9487  0.0000</r>
       <r>   3.9487  0.0000</r>
       <r>   3.9487  0.0000</r>
       <r>   4.3496  0.0000</r>
       <r>   4.3496  0.0000</r>
       <r>   4.3501  0.0000</r>
       <r>   4.3501  0.0000</r>
       <r>   4.3501  0.0000</r>
       <r>   4.3501  0.0000</r>
       <r>   4.3506  0.0000</r>
       <r>   4.3506  0.0000</r>
       <r>   4.8141  0.0000</r>
       <r>   4.8141  0.0000</r>
       <r>   4.8148  0.0000</r>
       <r>   4.8148  0.0000</r>
       <r>   4.8148  0.0000</r>
       <r>   4.8148  0.0000</r>
       <r>   4.8156  0.0000</r>
       <r>   4.8156  0.0000</r>
       <r>   5.2162  0.0000</r>
       <r>   5.2162  0.0000</r>
       <r>   5.2162  0.0000</r>
       <r>   5.2163  0.0000</r>
       <r>   9.2100  0.0000</r>
       <r>   9.2100  0.0000</r>
       <r>   9.2106  0.0000</r>
       <r>   9.2106  0.0000</r>
       <r>   9.2106  0.0000</r>
       <r>   9.2106  0.0000</r>
       <r>   9.2112  0.0000</r>
       <r>   9.2112  0.0000</r>
       <r>   9.4883  0.0000</r>
       <r>   9.4883  0.0000</r>
       <r>   9.4883  0.0000</r>
       <r>   9.4883  0.0000</r>
       <r>  10.0220  0.0000</r>
       <r>  10.0220  0.0000</r>
       <r>  10.0220  0.0000</r>
       <r>  10.0220  0.0000</r>
       <r>  10.3009  0.0000</r>
       <r>  10.3010  0.0000</r>
       <r>  10.3013  0.0000</r>
       <r>  10.3017  0.0000</r>
      </set>
      <set comment="kpoint 196">
       <r>  -2.8689  1.0000</r>
       <r>  -2.8672  1.0000</r>
       <r>  -2.8672  1.0000</r>
       <r>  -2.8672  1.0000</r>
       <r>  -2.8662  1.0000</r>
       <r>  -2.8662  1.0000</r>
       <r>  -2.8661  1.0000</r>
       <r>  -2.8645  1.0000</r>
       <r>  -2.4203  1.0000</r>
       <r>  -2.4198  1.0000</r>
       <r>  -2.4198  1.0000</r>
       <r>  -2.4197  1.0000</r>
       <r>  -2.4185  1.0000</r>
       <r>  -2.4180  1.0000</r>
       <r>  -2.4178  1.0000</r>
       <r>  -2.4178  1.0000</r>
       <r>  -2.4178  1.0000</r>
       <r>  -2.4177  1.0000</r>
       <r>  -2.4177  1.0000</r>
       <r>  -2.4177  1.0000</r>
       <r>  -2.4175  1.0000</r>
       <r>  -2.4175  1.0000</r>
       <r>  -2.4175  1.0000</r>
       <r>  -2.4174  1.0000</r>
       <r>  -2.4174  1.0000</r>
       <r>  -2.4174  1.0000</r>
       <r>  -2.4172  1.0000</r>
       <r>  -2.4168  1.0000</r>
       <r>  -2.4156  1.0000</r>
       <r>  -2.4155  1.0000</r>
       <r>  -2.4155  1.0000</r>
       <r>  -2.4149  1.0000</r>
       <r>  -1.8549  1.0000</r>
       <r>  -1.8513  1.0000</r>
       <r>  -1.8512  1.0000</r>
       <r>  -1.8510  1.0000</r>
       <r>  -1.8510  1.0000</r>
       <r>  -1.8504  1.0000</r>
       <r>  -1.8501  1.0000</r>
       <r>  -1.8501  1.0000</r>
       <r>  -1.8500  1.0000</r>
       <r>  -1.8499  1.0000</r>
       <r>  -1.8499  1.0000</r>
       <r>  -1.8499  1.0000</r>
       <r>  -1.8498  1.0000</r>
       <r>  -1.8498  1.0000</r>
       <r>  -1.8498  1.0000</r>
       <r>  -1.8498  1.0000</r>
       <r>  -1.8496  1.0000</r>
       <r>  -1.8496  1.0000</r>
       <r>  -1.8493  1.0000</r>
       <r>  -1.8487  1.0000</r>
       <r>  -1.8487  1.0000</r>
       <r>  -1.8485  1.0000</r>
       <r>  -1.8485  1.0000</r>
       <r>  -1.8449  1.0000</r>
       <r>  -1.0869  1.0000</r>
       <r>  -1.0869  1.0000</r>
       <r>  -1.0866  1.0000</r>
       <r>  -1.0863  1.0000</r>
       <r>  -1.0858  1.0000</r>
       <r>  -1.0857  1.0000</r>
       <r>  -1.0857  1.0000</r>
       <r>  -1.0857  1.0000</r>
       <r>  -1.0854  1.0000</r>
       <r>  -1.0854  1.0000</r>
       <r>  -1.0853  1.0000</r>
       <r>  -1.0853  1.0000</r>
       <r>  -1.0847  1.0000</r>
       <r>  -1.0846  1.0000</r>
       <r>  -1.0842  1.0000</r>
       <r>  -1.0842  1.0000</r>
       <r>  -1.0366  1.0000</r>
       <r>  -1.0364  1.0000</r>
       <r>  -1.0351  1.0000</r>
       <r>  -1.0351  1.0000</r>
       <r>  -1.0350  1.0000</r>
       <r>  -1.0350  1.0000</r>
       <r>  -1.0337  1.0000</r>
       <r>  -1.0334  1.0000</r>
       <r>  -0.8017  1.0000</r>
       <r>  -0.8017  1.0000</r>
       <r>  -0.8004  1.0000</r>
       <r>  -0.8000  1.0000</r>
       <r>  -0.7988  1.0000</r>
       <r>  -0.7985  1.0000</r>
       <r>  -0.7985  1.0000</r>
       <r>  -0.7985  1.0000</r>
       <r>  -0.7985  1.0000</r>
       <r>  -0.7985  1.0000</r>
       <r>  -0.7984  1.0000</r>
       <r>  -0.7984  1.0000</r>
       <r>  -0.7983  1.0000</r>
       <r>  -0.7983  1.0000</r>
       <r>  -0.7982  1.0000</r>
       <r>  -0.7982  1.0000</r>
       <r>  -0.7982  1.0000</r>
       <r>  -0.7982  1.0000</r>
       <r>  -0.7982  1.0000</r>
       <r>  -0.7979  1.0000</r>
       <r>  -0.7967  1.0000</r>
       <r>  -0.7962  1.0000</r>
       <r>  -0.7950  1.0000</r>
       <r>  -0.7950  1.0000</r>
       <r>  -0.4474  1.0000</r>
       <r>  -0.4461  1.0000</r>
       <r>  -0.4461  1.0000</r>
       <r>  -0.4442  1.0000</r>
       <r>  -0.4441  1.0000</r>
       <r>  -0.4440  1.0000</r>
       <r>  -0.4440  1.0000</r>
       <r>  -0.4438  1.0000</r>
       <r>  -0.4436  1.0000</r>
       <r>  -0.4436  1.0000</r>
       <r>  -0.4436  1.0000</r>
       <r>  -0.4436  1.0000</r>
       <r>  -0.4435  1.0000</r>
       <r>  -0.4435  1.0000</r>
       <r>  -0.4435  1.0000</r>
       <r>  -0.4435  1.0000</r>
       <r>  -0.4434  1.0000</r>
       <r>  -0.4431  1.0000</r>
       <r>  -0.4431  1.0000</r>
       <r>  -0.4431  1.0000</r>
       <r>  -0.4429  1.0000</r>
       <r>  -0.4410  1.0000</r>
       <r>  -0.4410  1.0000</r>
       <r>  -0.4398  1.0000</r>
       <r>  -0.1199  1.0000</r>
       <r>  -0.1186  1.0000</r>
       <r>  -0.1186  1.0000</r>
       <r>  -0.1186  1.0000</r>
       <r>  -0.1177  1.0000</r>
       <r>  -0.1177  1.0000</r>
       <r>  -0.1175  1.0000</r>
       <r>  -0.1174  1.0000</r>
       <r>  -0.1173  1.0000</r>
       <r>  -0.1172  1.0000</r>
       <r>  -0.1170  1.0000</r>
       <r>  -0.1170  1.0000</r>
       <r>  -0.1161  1.0000</r>
       <r>  -0.1161  1.0000</r>
       <r>  -0.1160  1.0000</r>
       <r>  -0.1147  1.0000</r>
       <r>   0.6132  1.0000</r>
       <r>   0.6132  1.0000</r>
       <r>   0.6135  1.0000</r>
       <r>   0.6136  1.0000</r>
       <r>   0.6137  1.0000</r>
       <r>   0.6137  1.0000</r>
       <r>   0.6137  1.0000</r>
       <r>   0.6137  1.0000</r>
       <r>   0.6138  1.0000</r>
       <r>   0.6139  1.0000</r>
       <r>   0.6139  1.0000</r>
       <r>   0.6139  1.0000</r>
       <r>   0.6141  1.0000</r>
       <r>   0.6141  1.0000</r>
       <r>   0.6141  1.0000</r>
       <r>   0.6142  1.0000</r>
       <r>   0.6142  1.0000</r>
       <r>   0.6143  1.0000</r>
       <r>   0.6143  1.0000</r>
       <r>   0.6143  1.0000</r>
       <r>   0.6144  1.0000</r>
       <r>   0.6146  1.0000</r>
       <r>   0.6148  1.0000</r>
       <r>   0.6148  1.0000</r>
       <r>   4.5665  0.0000</r>
       <r>   4.5685  0.0000</r>
       <r>   4.5685  0.0000</r>
       <r>   4.5709  0.0000</r>
       <r>   4.5713  0.0000</r>
       <r>   4.5714  0.0000</r>
       <r>   4.5714  0.0000</r>
       <r>   4.5715  0.0000</r>
       <r>   4.5716  0.0000</r>
       <r>   4.5716  0.0000</r>
       <r>   4.5716  0.0000</r>
       <r>   4.5716  0.0000</r>
       <r>   4.5718  0.0000</r>
       <r>   4.5719  0.0000</r>
       <r>   4.5719  0.0000</r>
       <r>   4.5719  0.0000</r>
       <r>   4.5719  0.0000</r>
       <r>   4.5721  0.0000</r>
       <r>   4.5721  0.0000</r>
       <r>   4.5721  0.0000</r>
       <r>   4.5725  0.0000</r>
       <r>   4.5750  0.0000</r>
       <r>   4.5750  0.0000</r>
       <r>   4.5769  0.0000</r>
       <r>   9.7322  0.0000</r>
       <r>   9.7323  0.0000</r>
       <r>   9.7337  0.0000</r>
       <r>   9.7363  0.0000</r>
       <r>   9.7366  0.0000</r>
       <r>   9.7369  0.0000</r>
       <r>   9.7371  0.0000</r>
       <r>   9.7373  0.0000</r>
       <r>   9.7374  0.0000</r>
       <r>   9.7374  0.0000</r>
       <r>   9.7375  0.0000</r>
       <r>   9.7376  0.0000</r>
       <r>   9.7376  0.0000</r>
       <r>   9.7378  0.0000</r>
       <r>   9.7378  0.0000</r>
       <r>   9.7381  0.0000</r>
       <r>   9.7385  0.0000</r>
       <r>   9.7390  0.0000</r>
       <r>   9.7393  0.0000</r>
       <r>   9.7403  0.0000</r>
      </set>
     </set>
    </set>
   </array>
  </eigenvalues>
 </calculation>
 <structure name="finalpos" >
  <crystal>
   <varray name="basis" >
    <v>       8.15992057      0.00000000      0.00000000</v>
    <v>       0.00000000      8.15992057      0.00000000</v>
    <v>       0.00000000      0.00000000      8.15992057</v>
   </varray>
   <i name="volume">    543.32262986</i>
   <varray name="rec_basis" >
    <v>       0.12255021      0.00000000      0.00000000</v>
    <v>       0.00000000      0.12255021      0.00000000</v>
    <v>       0.00000000      0.00000000      0.12255021</v>
   </varray>
  </crystal>
  <varray name="positions" >
   <v>       0.00122550      0.00000000      0.00000000</v>
   <v>       0.50000000      0.00000000      0.00000000</v>
   <v>       0.00000000      0.50000000      0.00000000</v>
   <v>       0.50000000      0.50000000      0.00000000</v>
   <v>       0.00000000      0.00000000      0.50000000</v>
   <v>       0.50000000      0.00000000      0.50000000</v>
   <v>       0.00000000      0.50000000      0.50000000</v>
   <v>       0.50000000      0.50000000      0.50000000</v>
   <v>       0.25000000      0.25000000      0.00000000</v>
   <v>       0.75000000      0.25000000      0.00000000</v>
   <v>       0.25000000      0.75000000      0.00000000</v>
   <v>       0.75000000      0.75000000      0.00000000</v>
   <v>       0.25000000      0.25000000      0.50000000</v>
   <v>       0.75000000      0.25000000      0.50000000</v>
   <v>       0.25000000      0.75000000      0.50000000</v>
   <v>       0.75000000      0.75000000      0.50000000</v>
   <v>       0.25000000      0.00000000      0.25000000</v>
   <v>       0.75000000      0.00000000      0.25000000</v>
   <v>       0.25000000      0.50000000      0.25000000</v>
   <v>       0.75000000      0.50000000      0.25000000</v>
   <v>       0.25000000      0.00000000      0.75000000</v>
   <v>       0.75000000      0.00000000      0.75000000</v>
   <v>       0.25000000      0.50000000      0.75000000</v>
   <v>       0.75000000      0.50000000      0.75000000</v>
   <v>       0.00000000      0.25000000      0.25000000</v>
   <v>       0.50000000      0.25000000      0.25000000</v>
   <v>       0.00000000      0.75000000      0.25000000</v>
   <v>       0.50000000      0.75000000      0.25000000</v>
   <v>       0.00000000      0.25000000      0.75000000</v>
   <v>       0.50000000      0.25000000      0.75000000</v>
   <v>       0.00000000      0.75000000      0.75000000</v>
   <v>       0.50000000      0.75000000      0.75000000</v>
  </varray>
 </structure>
</modeling>
