# Thermal properties / unit cell (natom)

unit:
  temperature:   K
  free_energy:   kJ/mol
  entropy:       J/K/mol
  heat_capacity: J/K/mol

natom:     4
num_modes: 6144
num_integrated_modes: 6144

zero_point_energy:      11.7949829
high_T_entropy:        394.5064151

thermal_properties:
- temperature:         0.0000000
  free_energy:        11.7949829
  entropy:             0.0000000
  heat_capacity:       0.0000000
  energy:             11.7949829

- temperature:        10.0000000
  free_energy:        11.7948747
  entropy:             0.0526740
  heat_capacity:       0.1815050
  energy:             11.7954014

- temperature:        20.0000000
  free_energy:        11.7925463
  entropy:             0.5353362
  heat_capacity:       1.8509383
  energy:             11.8032530

- temperature:        30.0000000
  free_energy:        11.7802424
  entropy:             2.1821416
  heat_capacity:       7.3477799
  energy:             11.8457066

- temperature:        40.0000000
  free_energy:        11.7434162
  entropy:             5.4491770
  heat_capacity:      16.1534175
  energy:             11.9613833

- temperature:        50.0000000
  free_energy:        11.6665603
  entropy:            10.1197256
  heat_capacity:      26.1227482
  energy:             12.1725465

- temperature:        60.0000000
  free_energy:        11.5378335
  entropy:            15.7490028
  heat_capacity:      35.7996764
  energy:             12.4827737

- temperature:        70.0000000
  free_energy:        11.3497313
  entropy:            21.9367115
  heat_capacity:      44.5197967
  energy:             12.8853011

- temperature:        80.0000000
  free_energy:        11.0982308
  entropy:            28.3881817
  heat_capacity:      52.0817741
  energy:             13.3692854

- temperature:        90.0000000
  free_energy:        10.7817599
  entropy:            34.9043422
  heat_capacity:      58.5108798
  energy:             13.9231507

- temperature:       100.0000000
  free_energy:        10.4003590
  entropy:            41.3576304
  heat_capacity:      63.9264598
  energy:             14.5361220

- temperature:       110.0000000
  free_energy:         9.9550803
  entropy:            47.6700792
  heat_capacity:      68.4745832
  energy:             15.1987891

- temperature:       120.0000000
  free_energy:         9.4475788
  entropy:            53.7968165
  heat_capacity:      72.2970508
  energy:             15.9031968

- temperature:       130.0000000
  free_energy:         8.8798423
  entropy:            59.7145320
  heat_capacity:      75.5192570
  energy:             16.6427314

- temperature:       140.0000000
  free_energy:         8.2540176
  entropy:            65.4137048
  heat_capacity:      78.2471366
  energy:             17.4119362

- temperature:       150.0000000
  free_energy:         7.5723001
  entropy:            70.8934627
  heat_capacity:      80.5680899
  energy:             18.2063195

- temperature:       160.0000000
  free_energy:         6.8368653
  entropy:            76.1582206
  heat_capacity:      82.5533682
  energy:             19.0221806

- temperature:       170.0000000
  free_energy:         6.0498275
  entropy:            81.2154960
  heat_capacity:      84.2607569
  energy:             19.8564618

- temperature:       180.0000000
  free_energy:         5.2132164
  entropy:            86.0745005
  heat_capacity:      85.7370682
  energy:             20.7066265

- temperature:       190.0000000
  free_energy:         4.3289651
  entropy:            90.7452380
  heat_capacity:      87.0202784
  energy:             21.5705603

- temperature:       200.0000000
  free_energy:         3.3989051
  entropy:            95.2379346
  heat_capacity:      88.1412877
  energy:             22.4464920

- temperature:       210.0000000
  free_energy:         2.4247662
  entropy:            99.5626850
  heat_capacity:      89.1253378
  energy:             23.3329300

- temperature:       220.0000000
  free_energy:         1.4081786
  entropy:           103.7292410
  heat_capacity:      89.9931417
  energy:             24.2286117

- temperature:       230.0000000
  free_energy:         0.3506776
  entropy:           107.7468912
  heat_capacity:      90.7617781
  energy:             25.1324626

- temperature:       240.0000000
  free_energy:        -0.7462921
  entropy:           111.6244009
  heat_capacity:      91.4453996
  energy:             26.0435641

- temperature:       250.0000000
  free_energy:        -1.8813707
  entropy:           115.3699897
  heat_capacity:      92.0557927
  energy:             26.9611267

- temperature:       260.0000000
  free_energy:        -3.0532778
  entropy:           118.9913336
  heat_capacity:      92.6028223
  energy:             27.8844689

- temperature:       270.0000000
  free_energy:        -4.2608071
  entropy:           122.4955810
  heat_capacity:      93.0947848
  energy:             28.8129997

- temperature:       280.0000000
  free_energy:        -5.5028213
  entropy:           125.8893781
  heat_capacity:      93.5386909
  energy:             29.7462045

- temperature:       290.0000000
  free_energy:        -6.7782471
  entropy:           129.1788981
  heat_capacity:      93.9404920
  energy:             30.6836333

- temperature:       300.0000000
  free_energy:        -8.0860708
  entropy:           132.3698729
  heat_capacity:      94.3052625
  energy:             31.6248910

- temperature:       310.0000000
  free_energy:        -9.4253339
  entropy:           135.4676244
  heat_capacity:      94.6373475
  energy:             32.5696297

- temperature:       320.0000000
  free_energy:       -10.7951291
  entropy:           138.4770958
  heat_capacity:      94.9404829
  energy:             33.5175415

- temperature:       330.0000000
  free_energy:       -12.1945969
  entropy:           141.4028804
  heat_capacity:      95.2178936
  energy:             34.4683536

- temperature:       340.0000000
  free_energy:       -13.6229220
  entropy:           144.2492501
  heat_capacity:      95.4723733
  energy:             35.4218230

- temperature:       350.0000000
  free_energy:       -15.0793305
  entropy:           147.0201807
  heat_capacity:      95.7063518
  energy:             36.3777328

- temperature:       360.0000000
  free_energy:       -16.5630866
  entropy:           149.7193760
  heat_capacity:      95.9219488
  energy:             37.3358888

- temperature:       370.0000000
  free_energy:       -18.0734904
  entropy:           152.3502895
  heat_capacity:      96.1210203
  energy:             38.2961167

- temperature:       380.0000000
  free_energy:       -19.6098755
  entropy:           154.9161450
  heat_capacity:      96.3051962
  energy:             39.2582596

- temperature:       390.0000000
  free_energy:       -21.1716065
  entropy:           157.4199546
  heat_capacity:      96.4759123
  energy:             40.2221758

- temperature:       400.0000000
  free_energy:       -22.7580772
  entropy:           159.8645360
  heat_capacity:      96.6344371
  energy:             41.1877372

- temperature:       410.0000000
  free_energy:       -24.3687086
  entropy:           162.2525275
  heat_capacity:      96.7818944
  energy:             42.1548277

- temperature:       420.0000000
  free_energy:       -26.0029474
  entropy:           164.5864022
  heat_capacity:      96.9192828
  energy:             43.1233415

- temperature:       430.0000000
  free_energy:       -27.6602640
  entropy:           166.8684808
  heat_capacity:      97.0474914
  energy:             44.0931827

- temperature:       440.0000000
  free_energy:       -29.3401516
  entropy:           169.1009433
  heat_capacity:      97.1673140
  energy:             45.0642634

- temperature:       450.0000000
  free_energy:       -31.0421243
  entropy:           171.2858395
  heat_capacity:      97.2794613
  energy:             46.0365034

- temperature:       460.0000000
  free_energy:       -32.7657163
  entropy:           173.4250989
  heat_capacity:      97.3845707
  energy:             47.0098292

- temperature:       470.0000000
  free_energy:       -34.5104803
  entropy:           175.5205395
  heat_capacity:      97.4832151
  energy:             47.9841733

- temperature:       480.0000000
  free_energy:       -36.2759867
  entropy:           177.5738759
  heat_capacity:      97.5759108
  energy:             48.9594737

- temperature:       490.0000000
  free_energy:       -38.0618228
  entropy:           179.5867267
  heat_capacity:      97.6631238
  energy:             49.9356732

- temperature:       500.0000000
  free_energy:       -39.8675914
  entropy:           181.5606214
  heat_capacity:      97.7452757
  energy:             50.9127193

- temperature:       510.0000000
  free_energy:       -41.6929102
  entropy:           183.4970067
  heat_capacity:      97.8227484
  energy:             51.8905632

- temperature:       520.0000000
  free_energy:       -43.5374111
  entropy:           185.3972518
  heat_capacity:      97.8958889
  energy:             52.8691598

- temperature:       530.0000000
  free_energy:       -45.4007392
  entropy:           187.2626542
  heat_capacity:      97.9650125
  energy:             53.8484676

- temperature:       540.0000000
  free_energy:       -47.2825522
  entropy:           189.0944441
  heat_capacity:      98.0304068
  energy:             54.8284476

- temperature:       550.0000000
  free_energy:       -49.1825199
  entropy:           190.8937891
  heat_capacity:      98.0923338
  energy:             55.8090641

- temperature:       560.0000000
  free_energy:       -51.1003235
  entropy:           192.6617983
  heat_capacity:      98.1510335
  energy:             56.7902836

- temperature:       570.0000000
  free_energy:       -53.0356549
  entropy:           194.3995258
  heat_capacity:      98.2067252
  energy:             57.7720748

- temperature:       580.0000000
  free_energy:       -54.9882164
  entropy:           196.1079744
  heat_capacity:      98.2596101
  energy:             58.7544087

- temperature:       590.0000000
  free_energy:       -56.9577200
  entropy:           197.7880987
  heat_capacity:      98.3098730
  energy:             59.7372582

- temperature:       600.0000000
  free_energy:       -58.9438870
  entropy:           199.4408084
  heat_capacity:      98.3576836
  energy:             60.7205980

- temperature:       610.0000000
  free_energy:       -60.9464477
  entropy:           201.0669704
  heat_capacity:      98.4031983
  energy:             61.7044043

- temperature:       620.0000000
  free_energy:       -62.9651407
  entropy:           202.6674121
  heat_capacity:      98.4465613
  energy:             62.6886548

- temperature:       630.0000000
  free_energy:       -64.9997128
  entropy:           204.2429231
  heat_capacity:      98.4879057
  energy:             63.6733288

- temperature:       640.0000000
  free_energy:       -67.0499186
  entropy:           205.7942581
  heat_capacity:      98.5273542
  energy:             64.6584066

- temperature:       650.0000000
  free_energy:       -69.1155198
  entropy:           207.3221380
  heat_capacity:      98.5650208
  energy:             65.6438699

- temperature:       660.0000000
  free_energy:       -71.1962855
  entropy:           208.8272528
  heat_capacity:      98.6010108
  energy:             66.6297014

- temperature:       670.0000000
  free_energy:       -73.2919912
  entropy:           210.3102627
  heat_capacity:      98.6354219
  energy:             67.6158849

- temperature:       680.0000000
  free_energy:       -75.4024191
  entropy:           211.7718000
  heat_capacity:      98.6683449
  energy:             68.6024049

- temperature:       690.0000000
  free_energy:       -77.5273576
  entropy:           213.2124706
  heat_capacity:      98.6998641
  energy:             69.5892471

- temperature:       700.0000000
  free_energy:       -79.6666009
  entropy:           214.6328553
  heat_capacity:      98.7300579
  energy:             70.5763978

- temperature:       710.0000000
  free_energy:       -81.8199490
  entropy:           216.0335113
  heat_capacity:      98.7589995
  energy:             71.5638441

- temperature:       720.0000000
  free_energy:       -83.9872072
  entropy:           217.4149736
  heat_capacity:      98.7867569
  energy:             72.5515738

- temperature:       730.0000000
  free_energy:       -86.1681862
  entropy:           218.7777557
  heat_capacity:      98.8133937
  energy:             73.5395755

- temperature:       740.0000000
  free_energy:       -88.3627017
  entropy:           220.1223511
  heat_capacity:      98.8389692
  energy:             74.5278381

- temperature:       750.0000000
  free_energy:       -90.5705742
  entropy:           221.4492342
  heat_capacity:      98.8635390
  energy:             75.5163515

- temperature:       760.0000000
  free_energy:       -92.7916288
  entropy:           222.7588613
  heat_capacity:      98.8871550
  energy:             76.5051057

- temperature:       770.0000000
  free_energy:       -95.0256953
  entropy:           224.0516713
  heat_capacity:      98.9098657
  energy:             77.4940916

- temperature:       780.0000000
  free_energy:       -97.2726076
  entropy:           225.3280869
  heat_capacity:      98.9317169
  energy:             78.4833002

- temperature:       790.0000000
  free_energy:       -99.5322038
  entropy:           226.5885152
  heat_capacity:      98.9527511
  energy:             79.4727232

- temperature:       800.0000000
  free_energy:      -101.8043259
  entropy:           227.8333482
  heat_capacity:      98.9730086
  energy:             80.4623526

- temperature:       810.0000000
  free_energy:      -104.0888200
  entropy:           229.0629641
  heat_capacity:      98.9925270
  energy:             81.4521809

- temperature:       820.0000000
  free_energy:      -106.3855357
  entropy:           230.2777275
  heat_capacity:      99.0113418
  energy:             82.4422008

- temperature:       830.0000000
  free_energy:      -108.6943262
  entropy:           231.4779901
  heat_capacity:      99.0294863
  energy:             83.4324055

- temperature:       840.0000000
  free_energy:      -111.0150483
  entropy:           232.6640913
  heat_capacity:      99.0469919
  energy:             84.4227884

- temperature:       850.0000000
  free_energy:      -113.3475620
  entropy:           233.8363591
  heat_capacity:      99.0638883
  energy:             85.4133433

- temperature:       860.0000000
  free_energy:      -115.6917304
  entropy:           234.9951101
  heat_capacity:      99.0802032
  energy:             86.4040642

- temperature:       870.0000000
  free_energy:      -118.0474201
  entropy:           236.1406502
  heat_capacity:      99.0959631
  energy:             87.3949455

- temperature:       880.0000000
  free_energy:      -120.4145004
  entropy:           237.2732751
  heat_capacity:      99.1111927
  energy:             88.3859817

- temperature:       890.0000000
  free_energy:      -122.7928435
  entropy:           238.3932710
  heat_capacity:      99.1259157
  energy:             89.3771677

- temperature:       900.0000000
  free_energy:      -125.1823246
  entropy:           239.5009145
  heat_capacity:      99.1401540
  energy:             90.3684984

- temperature:       910.0000000
  free_energy:      -127.5828215
  entropy:           240.5964734
  heat_capacity:      99.1539288
  energy:             91.3599692

- temperature:       920.0000000
  free_energy:      -129.9942147
  entropy:           241.6802068
  heat_capacity:      99.1672600
  energy:             92.3515755

- temperature:       930.0000000
  free_energy:      -132.4163871
  entropy:           242.7523657
  heat_capacity:      99.1801662
  energy:             93.3433130

- temperature:       940.0000000
  free_energy:      -134.8492242
  entropy:           243.8131933
  heat_capacity:      99.1926655
  energy:             94.3351775

- temperature:       950.0000000
  free_energy:      -137.2926140
  entropy:           244.8629253
  heat_capacity:      99.2047746
  energy:             95.3271650

- temperature:       960.0000000
  free_energy:      -139.7464465
  entropy:           245.9017899
  heat_capacity:      99.2165097
  energy:             96.3192717

- temperature:       970.0000000
  free_energy:      -142.2106143
  entropy:           246.9300086
  heat_capacity:      99.2278859
  energy:             97.3114940

- temperature:       980.0000000
  free_energy:      -144.6850119
  entropy:           247.9477962
  heat_capacity:      99.2389177
  energy:             98.3038283

- temperature:       990.0000000
  free_energy:      -147.1695361
  entropy:           248.9553610
  heat_capacity:      99.2496189
  energy:             99.2962713

- temperature:      1000.0000000
  free_energy:      -149.6640857
  entropy:           249.9529054
  heat_capacity:      99.2600025
  energy:            100.2888196

- temperature:      1010.0000000
  free_energy:      -152.1685615
  entropy:           250.9406255
  heat_capacity:      99.2700809
  energy:            101.2814703

- temperature:      1020.0000000
  free_energy:      -154.6828661
  entropy:           251.9187122
  heat_capacity:      99.2798661
  energy:            102.2742203

- temperature:      1030.0000000
  free_energy:      -157.2069042
  entropy:           252.8873504
  heat_capacity:      99.2893691
  energy:            103.2670667

- temperature:      1040.0000000
  free_energy:      -159.7405823
  entropy:           253.8467202
  heat_capacity:      99.2986008
  energy:            104.2600068

- temperature:      1050.0000000
  free_energy:      -162.2838083
  entropy:           254.7969964
  heat_capacity:      99.3075714
  energy:            105.2530378

- temperature:      1060.0000000
  free_energy:      -164.8364924
  entropy:           255.7383488
  heat_capacity:      99.3162906
  energy:            106.2461573

- temperature:      1070.0000000
  free_energy:      -167.3985461
  entropy:           256.6709430
  heat_capacity:      99.3247677
  energy:            107.2393628

- temperature:      1080.0000000
  free_energy:      -169.9698826
  entropy:           257.5949394
  heat_capacity:      99.3330116
  energy:            108.2326519

- temperature:      1090.0000000
  free_energy:      -172.5504168
  entropy:           258.5104946
  heat_capacity:      99.3410307
  energy:            109.2260223

- temperature:      1100.0000000
  free_energy:      -175.1400649
  entropy:           259.4177606
  heat_capacity:      99.3488331
  energy:            110.2194718

- temperature:      1110.0000000
  free_energy:      -177.7387448
  entropy:           260.3168857
  heat_capacity:      99.3564267
  energy:            111.2129983

- temperature:      1120.0000000
  free_energy:      -180.3463760
  entropy:           261.2080140
  heat_capacity:      99.3638186
  energy:            112.2065997

- temperature:      1130.0000000
  free_energy:      -182.9628789
  entropy:           262.0912858
  heat_capacity:      99.3710161
  energy:            113.2002740

- temperature:      1140.0000000
  free_energy:      -185.5881759
  entropy:           262.9668380
  heat_capacity:      99.3780258
  energy:            114.1940194

- temperature:      1150.0000000
  free_energy:      -188.2221904
  entropy:           263.8348038
  heat_capacity:      99.3848543
  energy:            115.1878339

- temperature:      1160.0000000
  free_energy:      -190.8648472
  entropy:           264.6953130
  heat_capacity:      99.3915077
  energy:            116.1817159

- temperature:      1170.0000000
  free_energy:      -193.5160722
  entropy:           265.5484921
  heat_capacity:      99.3979919
  energy:            117.1756635

- temperature:      1180.0000000
  free_energy:      -196.1757930
  entropy:           266.3944645
  heat_capacity:      99.4043127
  energy:            118.1696752

- temperature:      1190.0000000
  free_energy:      -198.8439379
  entropy:           267.2333505
  heat_capacity:      99.4104754
  energy:            119.1637492

- temperature:      1200.0000000
  free_energy:      -201.5204368
  entropy:           268.0652674
  heat_capacity:      99.4164854
  energy:            120.1578842

- temperature:      1210.0000000
  free_energy:      -204.2052204
  entropy:           268.8903296
  heat_capacity:      99.4223475
  energy:            121.1520785

- temperature:      1220.0000000
  free_energy:      -206.8982209
  entropy:           269.7086488
  heat_capacity:      99.4280666
  energy:            122.1463306

- temperature:      1230.0000000
  free_energy:      -209.5993713
  entropy:           270.5203338
  heat_capacity:      99.4336473
  energy:            123.1406393

- temperature:      1240.0000000
  free_energy:      -212.3086058
  entropy:           271.3254911
  heat_capacity:      99.4390941
  energy:            124.1350031

- temperature:      1250.0000000
  free_energy:      -215.0258597
  entropy:           272.1242244
  heat_capacity:      99.4444111
  energy:            125.1294208

- temperature:      1260.0000000
  free_energy:      -217.7510692
  entropy:           272.9166350
  heat_capacity:      99.4496026
  energy:            126.1238909

- temperature:      1270.0000000
  free_energy:      -220.4841716
  entropy:           273.7028221
  heat_capacity:      99.4546723
  energy:            127.1184124

- temperature:      1280.0000000
  free_energy:      -223.2251052
  entropy:           274.4828822
  heat_capacity:      99.4596240
  energy:            128.1129840

- temperature:      1290.0000000
  free_energy:      -225.9738092
  entropy:           275.2569098
  heat_capacity:      99.4644615
  energy:            129.1076045

- temperature:      1300.0000000
  free_energy:      -228.7302236
  entropy:           276.0249973
  heat_capacity:      99.4691881
  energy:            130.1022729

- temperature:      1310.0000000
  free_energy:      -231.4942896
  entropy:           276.7872348
  heat_capacity:      99.4738073
  energy:            131.0969879

- temperature:      1320.0000000
  free_energy:      -234.2659491
  entropy:           277.5437104
  heat_capacity:      99.4783222
  energy:            132.0917487

- temperature:      1330.0000000
  free_energy:      -237.0451449
  entropy:           278.2945105
  heat_capacity:      99.4827360
  energy:            133.0865540

- temperature:      1340.0000000
  free_energy:      -239.8318207
  entropy:           279.0397192
  heat_capacity:      99.4870517
  energy:            134.0814030

- temperature:      1350.0000000
  free_energy:      -242.6259209
  entropy:           279.7794190
  heat_capacity:      99.4912721
  energy:            135.0762947

- temperature:      1360.0000000
  free_energy:      -245.4273910
  entropy:           280.5136906
  heat_capacity:      99.4954001
  energy:            136.0712282

- temperature:      1370.0000000
  free_energy:      -248.2361769
  entropy:           281.2426127
  heat_capacity:      99.4994383
  energy:            137.0662024

- temperature:      1380.0000000
  free_energy:      -251.0522256
  entropy:           281.9662625
  heat_capacity:      99.5033892
  energy:            138.0612167

- temperature:      1390.0000000
  free_energy:      -253.8754848
  entropy:           282.6847157
  heat_capacity:      99.5072555
  energy:            139.0562700

- temperature:      1400.0000000
  free_energy:      -256.7059029
  entropy:           283.3980460
  heat_capacity:      99.5110395
  energy:            140.0513615

- temperature:      1410.0000000
  free_energy:      -259.5434289
  entropy:           284.1063258
  heat_capacity:      99.5147434
  energy:            141.0464905

- temperature:      1420.0000000
  free_energy:      -262.3880128
  entropy:           284.8096260
  heat_capacity:      99.5183696
  energy:            142.0416561

- temperature:      1430.0000000
  free_energy:      -265.2396051
  entropy:           285.5080159
  heat_capacity:      99.5219203
  energy:            143.0368576

- temperature:      1440.0000000
  free_energy:      -268.0981570
  entropy:           286.2015634
  heat_capacity:      99.5253974
  energy:            144.0320943

- temperature:      1450.0000000
  free_energy:      -270.9636204
  entropy:           286.8903350
  heat_capacity:      99.5288030
  energy:            145.0273653

- temperature:      1460.0000000
  free_energy:      -273.8359480
  entropy:           287.5743959
  heat_capacity:      99.5321391
  energy:            146.0226701

- temperature:      1470.0000000
  free_energy:      -276.7150929
  entropy:           288.2538100
  heat_capacity:      99.5354075
  energy:            147.0180079

- temperature:      1480.0000000
  free_energy:      -279.6010089
  entropy:           288.9286398
  heat_capacity:      99.5386100
  energy:            148.0133780

- temperature:      1490.0000000
  free_energy:      -282.4936506
  entropy:           289.5989466
  heat_capacity:      99.5417485
  energy:            149.0087799

- temperature:      1500.0000000
  free_energy:      -285.3929730
  entropy:           290.2647905
  heat_capacity:      99.5448245
  energy:            150.0042128

- temperature:      1510.0000000
  free_energy:      -288.2989317
  entropy:           290.9262304
  heat_capacity:      99.5478398
  energy:            150.9996762

- temperature:      1520.0000000
  free_energy:      -291.2114831
  entropy:           291.5833240
  heat_capacity:      99.5507959
  energy:            151.9951694

- temperature:      1530.0000000
  free_energy:      -294.1305839
  entropy:           292.2361279
  heat_capacity:      99.5536944
  energy:            152.9906919

- temperature:      1540.0000000
  free_energy:      -297.0561915
  entropy:           292.8846978
  heat_capacity:      99.5565368
  energy:            153.9862431

- temperature:      1550.0000000
  free_energy:      -299.9882639
  entropy:           293.5290880
  heat_capacity:      99.5593244
  energy:            154.9818224

- temperature:      1560.0000000
  free_energy:      -302.9267595
  entropy:           294.1693519
  heat_capacity:      99.5620588
  energy:            155.9774294

- temperature:      1570.0000000
  free_energy:      -305.8716374
  entropy:           294.8055419
  heat_capacity:      99.5647411
  energy:            156.9730634

- temperature:      1580.0000000
  free_energy:      -308.8228570
  entropy:           295.4377095
  heat_capacity:      99.5673729
  energy:            157.9687240

- temperature:      1590.0000000
  free_energy:      -311.7803783
  entropy:           296.0659051
  heat_capacity:      99.5699552
  energy:            158.9644107

- temperature:      1600.0000000
  free_energy:      -314.7441620
  entropy:           296.6901781
  heat_capacity:      99.5724894
  energy:            159.9601230

- temperature:      1610.0000000
  free_energy:      -317.7141690
  entropy:           297.3105772
  heat_capacity:      99.5749766
  energy:            160.9558604

- temperature:      1620.0000000
  free_energy:      -320.6903608
  entropy:           297.9271501
  heat_capacity:      99.5774180
  energy:            161.9516224

- temperature:      1630.0000000
  free_energy:      -323.6726994
  entropy:           298.5399435
  heat_capacity:      99.5798147
  energy:            162.9474086

- temperature:      1640.0000000
  free_energy:      -326.6611472
  entropy:           299.1490035
  heat_capacity:      99.5821678
  energy:            163.9432185

- temperature:      1650.0000000
  free_energy:      -329.6556671
  entropy:           299.7543751
  heat_capacity:      99.5844783
  energy:            164.9390518

- temperature:      1660.0000000
  free_energy:      -332.6562225
  entropy:           300.3561027
  heat_capacity:      99.5867473
  energy:            165.9349079

- temperature:      1670.0000000
  free_energy:      -335.6627772
  entropy:           300.9542298
  heat_capacity:      99.5889757
  energy:            166.9307866

- temperature:      1680.0000000
  free_energy:      -338.6752953
  entropy:           301.5487992
  heat_capacity:      99.5911646
  energy:            167.9266873

- temperature:      1690.0000000
  free_energy:      -341.6937415
  entropy:           302.1398528
  heat_capacity:      99.5933147
  energy:            168.9226098

- temperature:      1700.0000000
  free_energy:      -344.7180808
  entropy:           302.7274319
  heat_capacity:      99.5954271
  energy:            169.9185535

- temperature:      1710.0000000
  free_energy:      -347.7482787
  entropy:           303.3115771
  heat_capacity:      99.5975027
  energy:            170.9145182

- temperature:      1720.0000000
  free_energy:      -350.7843010
  entropy:           303.8923282
  heat_capacity:      99.5995422
  energy:            171.9105034

- temperature:      1730.0000000
  free_energy:      -353.8261140
  entropy:           304.4697242
  heat_capacity:      99.6015465
  energy:            172.9065089

- temperature:      1740.0000000
  free_energy:      -356.8736844
  entropy:           305.0438038
  heat_capacity:      99.6035164
  energy:            173.9025342

- temperature:      1750.0000000
  free_energy:      -359.9269792
  entropy:           305.6146047
  heat_capacity:      99.6054527
  energy:            174.8985791

- temperature:      1760.0000000
  free_energy:      -362.9859657
  entropy:           306.1821641
  heat_capacity:      99.6073562
  energy:            175.8946432

- temperature:      1770.0000000
  free_energy:      -366.0506118
  entropy:           306.7465186
  heat_capacity:      99.6092275
  energy:            176.8907261

- temperature:      1780.0000000
  free_energy:      -369.1208855
  entropy:           307.3077040
  heat_capacity:      99.6110675