 running on    8 nodes
 distr:  one band on    1 nodes,    8 groups
 vasp.4.6.28 25Jul05 complex 
 POSCAR found :  1 types and   32 ions

 ----------------------------------------------------------------------------- 
|                                                                             |
|  ADVICE TO THIS USER RUNNING 'VASP/VAMP'   (HEAR YOUR MASTER'S VOICE ...):  |
|                                                                             |
|      You have a (more or less) 'large supercell' and for larger cells       |
|      it might be more efficient to use real space projection operators      |
|      So try LREAL= Auto  in the INCAR   file.                               |
|      Mind: If you want to do an extremely accurate calculations keep the    |
|      reciprocal projection scheme          (i.e. LREAL=.FALSE.)             |
|                                                                             |
 ----------------------------------------------------------------------------- 

 LDA part: xc-table for Pade appr. of Perdew
 generate k-points for:   6   6   6
 POSCAR, INCAR and KPOINTS ok, starting setup
 FFT: planning ...           1
 reading WAVECAR
 WARNING: random wavefunctions but no delay for mixing, default for NELMDL
 entering main loop
       N       E                     dE             d eps       ncg     rms          rms(c)
DAV:   1     0.119783587995E+03    0.11978E+03   -0.32691E+04  5760   0.104E+03
DAV:   2    -0.107312956740E+03   -0.22710E+03   -0.21061E+03  6768   0.139E+02
DAV:   3    -0.120256216818E+03   -0.12943E+02   -0.12336E+02  7208   0.264E+01
DAV:   4    -0.120490602844E+03   -0.23439E+00   -0.23264E+00  6704   0.380E+00
DAV:   5    -0.120493424812E+03   -0.28220E-02   -0.28204E-02  6760   0.486E-01    0.531E+00
DAV:   6    -0.120069356054E+03    0.42407E+00   -0.51079E-02  6560   0.699E-01    0.330E+00
DAV:   7    -0.119760198099E+03    0.30916E+00   -0.15327E-01  6352   0.113E+00    0.136E-01
DAV:   8    -0.119760310249E+03   -0.11215E-03   -0.12659E-03  6800   0.131E-01    0.466E-02
DAV:   9    -0.119760339058E+03   -0.28809E-04   -0.53191E-05  6712   0.204E-02    0.414E-03
DAV:  10    -0.119760340692E+03   -0.16340E-05   -0.35618E-06  6752   0.561E-03    0.202E-03
DAV:  11    -0.119760337778E+03    0.29143E-05   -0.25232E-07  6760   0.144E-03    0.775E-04
DAV:  12    -0.119760336713E+03    0.10645E-05   -0.24239E-08  4776   0.468E-04    0.145E-04
DAV:  13    -0.119760336508E+03    0.20530E-06   -0.29549E-09  3728   0.188E-04    0.336E-05
DAV:  14    -0.119760336499E+03    0.85720E-08   -0.47847E-10  3648   0.725E-05
   1 F= -.11976034E+03 E0= -.11976007E+03  d E =-.538007E-03
