  32  32   0   0
  0.1645056E+02  0.8074400E-09  0.8074400E-09  0.8074400E-09  0.5000000E-15
  1.000000000000000E-004
  CAR 
 unknown system                          
     12.63403218     -3.87440769  301      8.00205501      1.00000000
     -3.874  0.0000E+00  0.0000E+00
     -3.819  0.0000E+00  0.0000E+00
     -3.764  0.0000E+00  0.0000E+00
     -3.709  0.0000E+00  0.0000E+00
     -3.654  0.0000E+00  0.0000E+00
     -3.599  0.0000E+00  0.0000E+00
     -3.544  0.0000E+00  0.0000E+00
     -3.489  0.0000E+00  0.0000E+00
     -3.434  0.0000E+00  0.0000E+00
     -3.379  0.0000E+00  0.0000E+00
     -3.324  0.0000E+00  0.0000E+00
     -3.269  0.0000E+00  0.0000E+00
     -3.214  0.0000E+00  0.0000E+00
     -3.159  0.6171E-07  0.3396E-08
     -3.104  0.1679E+00  0.9238E-02
     -3.049  0.9645E+00  0.6231E-01
     -2.994  0.1484E+01  0.1440E+00
     -2.939  0.9647E+00  0.1971E+00
     -2.884  0.1008E+01  0.2525E+00
     -2.829  0.9736E+00  0.3061E+00
     -2.774  0.4029E+01  0.5278E+00
     -2.719  0.4038E+01  0.7500E+00
     -2.664  0.7868E-09  0.7500E+00
     -2.609  0.1916E+01  0.8554E+00
     -2.554  0.3640E+01  0.1056E+01
     -2.499  0.2657E+01  0.1202E+01
     -2.444  0.3088E+01  0.1372E+01
     -2.389  0.3847E+01  0.1584E+01
     -2.334  0.1342E+01  0.1657E+01
     -2.279  0.4038E+01  0.1880E+01
     -2.224  0.8058E+01  0.2323E+01
     -2.169  0.1893E-01  0.2324E+01
     -2.114  0.7602E+00  0.2366E+01
     -2.058  0.3079E+01  0.2535E+01
     -2.003  0.5697E+01  0.2849E+01
     -1.948  0.5635E+01  0.3159E+01
     -1.893  0.4011E+01  0.3380E+01
     -1.838  0.4038E+01  0.3602E+01
     -1.783  0.8069E+01  0.4046E+01
     -1.728  0.3963E+01  0.4264E+01
     -1.673  0.8236E-01  0.4269E+01
     -1.618  0.2013E+01  0.4379E+01
     -1.563  0.2777E+01  0.4532E+01
     -1.508  0.4531E+01  0.4781E+01
     -1.453  0.1189E+02  0.5436E+01
     -1.398  0.5378E+01  0.5731E+01
     -1.343  0.2180E-05  0.5731E+01
     -1.288  0.1205E+02  0.6395E+01
     -1.233  0.7672E+01  0.6817E+01
     -1.178  0.4675E+00  0.6843E+01
     -1.123  0.6600E+00  0.6879E+01
     -1.068  0.1959E+01  0.6987E+01
     -1.013  0.7537E+01  0.7401E+01
     -0.958  0.8019E+01  0.7843E+01
     -0.903  0.8074E+01  0.8287E+01
     -0.848  0.5045E+01  0.8565E+01
     -0.793  0.3995E+01  0.8784E+01
     -0.738  0.1104E+02  0.9392E+01
     -0.683  0.1124E+01  0.9454E+01
     -0.628  0.1098E+01  0.9514E+01
     -0.573  0.3843E+01  0.9726E+01
     -0.518  0.1529E+02  0.1057E+02
     -0.463  0.8037E+01  0.1101E+02
     -0.408  0.4037E+01  0.1123E+02
     -0.353  0.4036E+01  0.1145E+02
     -0.298  0.1196E+02  0.1211E+02
     -0.243  0.7465E+01  0.1252E+02
     -0.188  0.7707E+00  0.1256E+02
     -0.132  0.3643E+00  0.1258E+02
     -0.077  0.1603E+01  0.1267E+02
     -0.022  0.8568E+01  0.1314E+02
      0.033  0.1404E+02  0.1392E+02
      0.088  0.8072E+01  0.1436E+02
      0.143  0.4037E+01  0.1458E+02
      0.198  0.1204E+02  0.1525E+02
      0.253  0.1527E+02  0.1609E+02
      0.308  0.9623E+00  0.1614E+02
      0.363  0.3130E+01  0.1631E+02
      0.418  0.5907E+01  0.1664E+02
      0.473  0.7203E+01  0.1703E+02
      0.528  0.3976E+01  0.1725E+02
      0.583  0.1209E+02  0.1792E+02
      0.638  0.1261E-04  0.1792E+02
      0.693  0.1209E+02  0.1858E+02
      0.748  0.1585E+02  0.1945E+02
      0.803  0.3333E+00  0.1947E+02
      0.858  0.7170E+00  0.1951E+02
      0.913  0.5081E+01  0.1979E+02
      0.968  0.1270E+02  0.2049E+02
      1.023  0.1486E+02  0.2131E+02
      1.078  0.4003E+01  0.2153E+02
      1.133  0.8068E+01  0.2197E+02
      1.188  0.1615E+02  0.2286E+02
      1.243  0.8046E+01  0.2330E+02
      1.298  0.3105E-01  0.2331E+02
      1.353  0.5345E+01  0.2360E+02
      1.408  0.5777E+01  0.2392E+02
      1.463  0.9170E+01  0.2442E+02
      1.518  0.1475E+02  0.2523E+02
      1.573  0.8748E+01  0.2572E+02
      1.628  0.4023E+01  0.2594E+02
      1.683  0.1613E+02  0.2682E+02
      1.738  0.8076E+01  0.2727E+02
      1.793  0.1312E-06  0.2727E+02
      1.849  0.4002E+01  0.2749E+02
      1.904  0.1573E+02  0.2835E+02
      1.959  0.8214E+01  0.2881E+02
      2.014  0.7060E+01  0.2919E+02
      2.069  0.7884E+01  0.2963E+02
      2.124  0.7266E+01  0.3003E+02
      2.179  0.7676E+01  0.3045E+02
      2.234  0.1991E+02  0.3155E+02
      2.289  0.2477E-04  0.3155E+02
      2.344  0.4036E+01  0.3177E+02
      2.399  0.2416E+02  0.3310E+02
      2.454  0.1978E+02  0.3419E+02
      2.509  0.8319E+01  0.3464E+02
      2.564  0.2398E+00  0.3466E+02
      2.619  0.3117E+01  0.3483E+02
      2.674  0.8701E+01  0.3531E+02
      2.729  0.1241E+02  0.3599E+02
      2.784  0.2209E-01  0.3599E+02
      2.839  0.4033E+01  0.3621E+02
      2.894  0.8063E+01  0.3666E+02
      2.949  0.1817E+02  0.3766E+02
      3.004  0.1209E+02  0.3832E+02
      3.059  0.4997E+01  0.3860E+02
      3.114  0.2701E+02  0.4008E+02
      3.169  0.8233E+01  0.4054E+02
      3.224  0.1173E+01  0.4060E+02
      3.279  0.5816E+01  0.4092E+02
      3.334  0.1447E+02  0.4172E+02
      3.389  0.8855E+01  0.4221E+02
      3.444  0.1203E+02  0.4287E+02
      3.499  0.1263E+02  0.4356E+02
      3.554  0.7400E+01  0.4397E+02
      3.609  0.1222E+02  0.4464E+02
      3.664  0.1675E+02  0.4556E+02
      3.719  0.6750E-02  0.4556E+02
      3.775  0.4546E+01  0.4581E+02
      3.830  0.1845E+02  0.4683E+02
      3.885  0.5749E+01  0.4715E+02
      3.940  0.1326E+02  0.4788E+02
      3.995  0.6029E+01  0.4821E+02
      4.050  0.1121E+02  0.4882E+02
      4.105  0.1576E+02  0.4969E+02
      4.160  0.1383E+02  0.5045E+02
      4.215  0.9258E+00  0.5050E+02
      4.270  0.1625E+02  0.5140E+02
      4.325  0.1353E+02  0.5214E+02
      4.380  0.6649E+01  0.5251E+02
      4.435  0.1599E+00  0.5252E+02
      4.490  0.1231E+02  0.5320E+02
      4.545  0.2786E+02  0.5473E+02
      4.600  0.1617E+02  0.5562E+02
      4.655  0.3691E-01  0.5562E+02
      4.710  0.3334E+01  0.5580E+02
      4.765  0.1682E+02  0.5673E+02
      4.820  0.1842E+02  0.5774E+02
      4.875  0.1210E+02  0.5841E+02
      4.930  0.1269E+02  0.5911E+02
      4.985  0.7482E+01  0.5952E+02
      5.040  0.1237E+02  0.6020E+02
      5.095  0.6326E+01  0.6055E+02
      5.150  0.6152E+01  0.6089E+02
      5.205  0.1101E+02  0.6149E+02
      5.260  0.2908E+02  0.6309E+02
      5.315  0.1214E+02  0.6376E+02
      5.370  0.1009E+02  0.6432E+02
      5.425  0.2010E+02  0.6542E+02
      5.480  0.1163E+00  0.6543E+02
      5.535  0.8029E+01  0.6587E+02
      5.590  0.1411E+02  0.6665E+02
      5.645  0.1012E+02  0.6720E+02
      5.700  0.8443E+01  0.6767E+02
      5.756  0.1742E+02  0.6863E+02
      5.811  0.1160E+02  0.6927E+02
      5.866  0.1497E+02  0.7009E+02
      5.921  0.9550E+01  0.7061E+02
      5.976  0.4607E+01  0.7087E+02
      6.031  0.1997E+02  0.7197E+02
      6.086  0.4487E+01  0.7221E+02
      6.141  0.1446E+02  0.7301E+02
      6.196  0.9469E+01  0.7353E+02
      6.251  0.1789E+02  0.7452E+02
      6.306  0.2054E+02  0.7565E+02
      6.361  0.1337E+02  0.7638E+02
      6.416  0.1392E+00  0.7639E+02
      6.471  0.4984E+00  0.7642E+02
      6.526  0.1152E+02  0.7705E+02
      6.581  0.1070E+02  0.7764E+02
      6.636  0.1211E+02  0.7831E+02
      6.691  0.2277E+02  0.7956E+02
      6.746  0.9471E+01  0.8008E+02
      6.801  0.1614E+02  0.8097E+02
      6.856  0.7864E-01  0.8097E+02
      6.911  0.2506E+02  0.8235E+02
      6.966  0.8003E+01  0.8279E+02
      7.021  0.1446E+02  0.8359E+02
      7.076  0.1098E+02  0.8419E+02
      7.131  0.8221E+01  0.8464E+02
      7.186  0.1281E+02  0.8535E+02
      7.241  0.1570E+02  0.8621E+02
      7.296  0.5950E+01  0.8654E+02
      7.351  0.1224E+02  0.8721E+02
      7.406  0.2302E+02  0.8848E+02
      7.461  0.1322E+02  0.8921E+02
      7.516  0.7259E+01  0.8961E+02
      7.571  0.3604E+01  0.8981E+02
      7.626  0.1230E+00  0.8981E+02
      7.682  0.1874E+02  0.9084E+02
      7.737  0.1555E+02  0.9170E+02
      7.792  0.1837E+02  0.9271E+02
      7.847  0.1330E+02  0.9344E+02
      7.902  0.1468E+02  0.9425E+02
      7.957  0.9558E+01  0.9478E+02
      8.012  0.2387E+02  0.9609E+02
      8.067  0.1591E+02  0.9697E+02
      8.122  0.2321E+02  0.9824E+02
      8.177  0.3881E+01  0.9846E+02
      8.232  0.1023E+02  0.9902E+02
      8.287  0.7224E+01  0.9942E+02
      8.342  0.1996E+02  0.1005E+03
      8.397  0.8303E+01  0.1010E+03
      8.452  0.3054E+01  0.1011E+03
      8.507  0.9539E+01  0.1017E+03
      8.562  0.2305E+02  0.1029E+03
      8.617  0.1224E+02  0.1036E+03
      8.672  0.2010E+02  0.1047E+03
      8.727  0.1736E+01  0.1048E+03
      8.782  0.6852E+01  0.1052E+03
      8.837  0.5589E+01  0.1055E+03
      8.892  0.2015E+02  0.1066E+03
      8.947  0.2035E+02  0.1077E+03
      9.002  0.2198E+02  0.1089E+03
      9.057  0.1729E+02  0.1099E+03
      9.112  0.1172E+02  0.1105E+03
      9.167  0.1895E+02  0.1116E+03
      9.222  0.1417E+02  0.1124E+03
      9.277  0.1037E+02  0.1129E+03
      9.332  0.1546E+02  0.1138E+03
      9.387  0.7523E+01  0.1142E+03
      9.442  0.5474E+01  0.1145E+03
      9.497  0.2109E+02  0.1156E+03
      9.552  0.2066E+02  0.1168E+03
      9.607  0.3809E+01  0.1170E+03
      9.663  0.1509E+02  0.1178E+03
      9.718  0.6257E+00  0.1179E+03
      9.773  0.3856E+02  0.1200E+03
      9.828  0.3221E+01  0.1202E+03
      9.883  0.1362E+02  0.1209E+03
      9.938  0.1988E+02  0.1220E+03
      9.993  0.1164E+02  0.1226E+03
     10.048  0.1932E+02  0.1237E+03
     10.103  0.8024E+01  0.1241E+03
     10.158  0.2339E+02  0.1254E+03
     10.213  0.8184E+01  0.1259E+03
     10.268  0.1181E+02  0.1265E+03
     10.323  0.3655E+01  0.1267E+03
     10.378  0.1251E+02  0.1274E+03
     10.433  0.1486E+02  0.1282E+03
     10.488  0.1998E+02  0.1293E+03
     10.543  0.2494E+02  0.1307E+03
     10.598  0.4941E+01  0.1310E+03
     10.653  0.1522E+02  0.1318E+03
     10.708  0.8798E+01  0.1323E+03
     10.763  0.1951E+02  0.1334E+03
     10.818  0.7288E+01  0.1338E+03
     10.873  0.1722E+02  0.1347E+03
     10.928  0.2039E+02  0.1359E+03
     10.983  0.1254E+02  0.1365E+03
     11.038  0.2503E+02  0.1379E+03
     11.093  0.5863E+01  0.1382E+03
     11.148  0.1324E+02  0.1390E+03
     11.203  0.6688E+01  0.1393E+03
     11.258  0.2141E+02  0.1405E+03
     11.313  0.5547E+01  0.1408E+03
     11.368  0.8684E+01  0.1413E+03
     11.423  0.2393E+02  0.1426E+03
     11.478  0.2070E+01  0.1427E+03
     11.533  0.4442E+01  0.1430E+03
     11.588  0.1175E+02  0.1436E+03
     11.644  0.4785E+00  0.1436E+03
     11.699  0.8907E+00  0.1437E+03
     11.754  0.4554E+00  0.1437E+03
     11.809  0.2115E+01  0.1438E+03
     11.864  0.1927E+01  0.1439E+03
     11.919  0.1006E+01  0.1440E+03
     11.974  0.0000E+00  0.1440E+03
     12.029  0.0000E+00  0.1440E+03
     12.084  0.0000E+00  0.1440E+03
     12.139  0.0000E+00  0.1440E+03
     12.194  0.0000E+00  0.1440E+03
     12.249  0.0000E+00  0.1440E+03
     12.304  0.0000E+00  0.1440E+03
     12.359  0.0000E+00  0.1440E+03
     12.414  0.0000E+00  0.1440E+03
     12.469  0.0000E+00  0.1440E+03
     12.524  0.0000E+00  0.1440E+03
     12.579  0.0000E+00  0.1440E+03
     12.634  0.0000E+00  0.1440E+03
