   32   32    1    1
  0.1645056E+02  0.8074400E-09  0.8074400E-09  0.8074400E-09  0.5000000E-15
  1.000000000000000E-004
  CAR 
 unknown system                          
   96   40   72
 
  0.0000000E+00  0.0000000E+00  0.0000000E+00  0.4629630E-02
   1       -3.1240
   2       -0.8751
   3       -0.8714
   4       -0.8714
   5       -0.8714
   6       -0.8714
   7       -0.8677
   8        1.3397
   9        1.3441
  10        1.3441
  11        1.3457
  12        1.3459
  13        1.3459
  14        1.3459
  15        1.3459
  16        1.3461
  17        1.3478
  18        1.3478
  19        1.3522
  20        3.4263
  21        3.4264
  22        3.4264
  23        3.4264
  24        3.6471
  25        3.6471
  26        3.6471
  27        3.6471
  28        5.0999
  29        5.0999
  30        5.1000
  31        6.4300
  32        6.4300
  33        6.4300
  34        7.1767
  35        7.1767
  36        7.1811
  37        7.1811
  38        7.1812
  39        7.1812
  40        7.1812
  41        7.1812
  42        7.1813
  43        7.1813
  44        7.1856
  45        7.1856
  46        8.1920
  47        8.1961
  48        8.1961
  49        8.1961
  50        8.1961
  51        8.2002
  52        9.1533
  53        9.1543
  54        9.1543
  55        9.1543
  56        9.1543
  57        9.1554
  58        9.2648
  59        9.2648
  60        9.2664
  61        9.2687
  62        9.2689
  63        9.2689
  64        9.2689
  65        9.2689
  66        9.2690
  67        9.2713
  68        9.2730
  69        9.2730
  70       10.7912
  71       10.7933
  72       10.7940
 
  0.1666667E+00  0.0000000E+00  0.0000000E+00  0.9259259E-02
   1       -3.0610
   2       -1.5558
   3       -0.8094
   4       -0.8094
   5       -0.8094
   6       -0.8094
   7       -0.0672
   8        0.6722
   9        0.6722
  10        0.6722
  11        0.6722
  12        1.4070
  13        1.4070
  14        1.4070
  15        1.4070
  16        2.1376
  17        2.1376
  18        2.1376
  19        2.1376
  20        2.8628
  21        2.8628
  22        2.8628
  23        2.8628
  24        4.2315
  25        4.3275
  26        4.3275
  27        4.3275
  28        4.3275
  29        5.1576
  30        5.1576
  31        6.3464
  32        6.3464
  33        6.3464
  34        6.3464
  35        6.4910
  36        6.4910
  37        6.5444
  38        6.5444
  39        7.2391
  40        7.2391
  41        7.2391
  42        7.2391
  43        7.4076
  44        7.8649
  45        7.8649
  46        7.9346
  47        7.9346
  48        8.4822
  49        8.4822
  50        8.4822
  51        8.4823
  52        8.5891
  53        8.5891
  54        8.5891
  55        8.5892
  56        8.6304
  57        8.6304
  58        8.6305
  59        8.6305
  60        9.5936
  61        9.5936
  62        9.7632
  63        9.7632
  64        9.7632
  65        9.7632
  66       10.0238
  67       10.0238
  68       10.0238
  69       10.0238
  70       10.1495
  71       10.1495
  72       10.1495
 
  0.3333333E+00  0.0000000E+00  0.0000000E+00  0.9259259E-02
   1       -2.8720
   2       -2.1183
   3       -0.6234
   4       -0.6233
   5       -0.6233
   6       -0.6233
   7        0.1184
   8        0.1184
   9        0.1184
  10        0.1184
  11        0.8541
  12        1.5902
  13        1.5903
  14        1.5903
  15        1.5903
  16        2.3202
  17        2.3203
  18        2.3203
  19        2.3203
  20        3.0257
  21        3.0440
  22        3.0440
  23        3.0440
  24        3.0441
  25        5.1744
  26        5.1744
  27        5.1744
  28        5.1744
  29        5.2198
  30        5.2198
  31        5.2198
  32        5.2198
  33        5.3308
  34        5.3308
  35        6.0239
  36        6.0239
  37        6.6728
  38        6.6728
  39        7.3265
  40        7.3265
  41        7.3265
  42        7.3265
  43        7.3805
  44        7.3806
  45        7.4129
  46        7.4129
  47        7.4129
  48        7.4129
  49        8.1084
  50        8.1084
  51        8.1084
  52        8.1084
  53        8.8048
  54        8.8048
  55        8.8673
  56        8.8673
  57        8.8673
  58        8.8673
  59        8.9407
  60        9.6141
  61        9.6141
  62        9.6141
  63        9.6141
  64       10.3984
  65       10.3984
  66       10.8941
  67       10.8941
  68       10.8952
  69       10.8952
  70       10.8968
  71       10.8968
  72       11.1568
 
  0.5000000E+00  0.0000000E+00  0.0000000E+00  0.4629630E-02
   1       -2.5589
   2       -2.5560
   3       -0.3178
   4       -0.3147
   5       -0.3147
   6       -0.3138
   7       -0.3138
   8       -0.3130
   9       -0.3130
  10       -0.3099
  11        1.8860
  12        1.8883
  13        1.8934
  14        1.8938
  15        1.8938
  16        1.8946
  17        1.8955
  18        1.8963
  19        1.8963
  20        1.8987
  21        4.0593
  22        4.0593
  23        4.0593
  24        4.0600
  25        4.0603
  26        4.0609
  27        4.0610
  28        4.0610
  29        5.6179
  30        5.6179
  31        5.6210
  32        5.6210
  33        6.2230
  34        6.2230
  35        6.2235
  36        6.2238
  37        6.2242
  38        6.2246
  39        6.2251
  40        6.2251
  41        6.9704
  42        6.9714
  43        6.9732
  44        6.9742
  45        7.7003
  46        7.7003
  47        7.7012
  48        7.7026
  49        7.7027
  50        7.7041
  51        7.7049
  52        7.7049
  53        9.1869
  54        9.1879
  55        9.1879
  56        9.1880
  57        9.1901
  58        9.1903
  59        9.1903
  60        9.1913
  61        9.7908
  62        9.7908
  63        9.7931
  64        9.7931
  65       10.6223
  66       10.6237
  67       11.3243
  68       11.3248
  69       11.3261
  70       11.3266
  71       11.8821
  72       11.8836
 
  0.0000000E+00  0.1666667E+00  0.0000000E+00  0.1851852E-01
   1       -3.0610
   2       -1.5558
   3       -0.8122
   4       -0.8094
   5       -0.8093
   6       -0.8065
   7       -0.0672
   8        0.6693
   9        0.6722
  10        0.6722
  11        0.6750
  12        1.4049
  13        1.4059
  14        1.4082
  15        1.4092
  16        2.1347
  17        2.1376
  18        2.1376
  19        2.1405
  20        2.8607
  21        2.8617
  22        2.8640
  23        2.8650
  24        4.2315
  25        4.3253
  26        4.3263
  27        4.3287
  28        4.3297
  29        5.1576
  30        5.1577
  31        6.3433
  32        6.3464
  33        6.3464
  34        6.3495
  35        6.4909
  36        6.4910
  37        6.5444
  38        6.5444
  39        7.2363
  40        7.2391
  41        7.2391
  42        7.2418
  43        7.4076
  44        7.8649
  45        7.8649
  46        7.9346
  47        7.9346
  48        8.4797
  49        8.4811
  50        8.4834
  51        8.4848
  52        8.5866
  53        8.5891
  54        8.5891
  55        8.5916
  56        8.6277
  57        8.6305
  58        8.6305
  59        8.6332
  60        9.5936
  61        9.5936
  62        9.7614
  63        9.7632
  64        9.7632
  65        9.7650
  66       10.0210
  67       10.0238
  68       10.0238
  69       10.0266
  70       10.1480
  71       10.1495
  72       10.1512
 
  0.1666667E+00  0.1666667E+00  0.0000000E+00  0.3703704E-01
   1       -2.9979
   2       -1.4946
   3       -1.4923
   4       -0.7473
   5       -0.7473
   6       -0.0071
   7       -0.0052
   8       -0.0035
   9        0.7319
  10        0.7329
  11        0.7343
  12        0.7352
  13        1.4671
  14        1.4682
  15        2.1961
  16        2.1973
  17        2.1986
  18        2.1987
  19        2.1999
  20        2.2010
  21        2.9246
  22        3.5430
  23        3.5430
  24        3.7703
  25        3.7703
  26        4.2904
  27        4.2913
  28        5.1019
  29        5.1019
  30        5.2154
  31        5.7047
  32        5.7071
  33        6.3029
  34        6.3029
  35        6.5287
  36        6.5287
  37        6.5516
  38        6.6009
  39        6.6036
  40        7.0757
  41        7.0776
  42        7.4662
  43        7.4671
  44        7.8363
  45        7.8373
  46        7.8387
  47        7.8397
  48        7.9903
  49        7.9925
  50        7.9947
  51        8.0539
  52        8.0555
  53        8.7271
  54        8.7295
  55        9.2403
  56        9.2413
  57        9.2416
  58        9.2426
  59        9.3098
  60        9.3099
  61        9.3842
  62        9.3861
  63        9.5021
  64        9.7358
  65        9.7365
  66       10.0213
  67       10.0213
  68       10.4265
  69       10.4286
  70       10.7788
  71       10.9017
  72       10.9019
 
  0.3333333E+00  0.1666667E+00  0.0000000E+00  0.3703704E-01
   1       -2.8090
   2       -2.0557
   3       -1.3065
   4       -0.5627
   5       -0.5614
   6       -0.5599
   7        0.1783
   8        0.1800
   9        0.1812
  10        0.9142
  11        0.9171
  12        0.9177
  13        0.9188
  14        1.6516
  15        1.6516
  16        2.3785
  17        2.3804
  18        2.3806
  19        3.0858
  20        3.1021
  21        3.1026
  22        3.1047
  23        3.1054
  24        3.8253
  25        4.4685
  26        4.5225
  27        4.5660
  28        4.5660
  29        5.1772
  30        5.2296
  31        5.2297
  32        5.3885
  33        5.9355
  34        5.9929
  35        5.9929
  36        6.0817
  37        6.6087
  38        6.6087
  39        6.6772
  40        6.6772
  41        6.7318
  42        6.7759
  43        7.3099
  44        7.3099
  45        7.3873
  46        7.4708
  47        7.6429
  48        8.0911
  49        8.0911
  50        8.0989
  51        8.1665
  52        8.2412
  53        8.3219
  54        8.8612
  55        8.8644
  56        8.9657
  57        8.9978
  58        9.5391
  59        9.7635
  60        9.7635
  61       10.1087
  62       10.1137
  63       10.1139
  64       10.2565
  65       10.3666
  66       10.4710
  67       10.5181
  68       10.5181
  69       10.6101
  70       10.9540
  71       11.2340
  72       11.2364
 
  0.5000000E+00  0.1666667E+00  0.0000000E+00  0.1851852E-01
   1       -2.4960
   2       -2.4932
   3       -0.9969
   4       -0.9941
   5       -0.2540
   6       -0.2528
   7       -0.2512
   8       -0.2500
   9        0.4858
  10        0.4887
  11        1.2219
  12        1.2231
  13        1.2248
  14        1.2259
  15        1.9483
  16        1.9496
  17        2.6809
  18        2.6821
  19        2.6838
  20        2.6849
  21        3.3998
  22        3.4012
  23        4.1184
  24        4.1188
  25        4.1197
  26        4.1201
  27        4.7628
  28        4.7657
  29        4.8330
  30        4.8343
  31        5.5702
  32        5.5704
  33        5.5717
  34        5.5718
  35        5.6757
  36        5.6788
  37        6.8971
  38        6.8983
  39        6.9001
  40        6.9013
  41        6.9925
  42        6.9927
  43        6.9939
  44        6.9941
  45        7.0242
  46        7.0270
  47        7.0638
  48        7.0669
  49        7.9310
  50        7.9338
  51        8.4550
  52        8.4581
  53        8.5432
  54        8.5459
  55        9.0283
  56        9.0301
  57        9.8490
  58        9.8513
  59        9.9295
  60        9.9325
  61       10.0944
  62       10.0951
  63       10.0974
  64       10.0981
  65       10.6764
  66       10.6777
  67       11.0945
  68       11.0946
  69       11.0963
  70       11.0965
  71       11.2435
  72       11.2459
 
  0.0000000E+00  0.3333333E+00  0.0000000E+00  0.1851852E-01
   1       -2.8719
   2       -2.1183
   3       -0.6262
   4       -0.6233
   5       -0.6233
   6       -0.6205
   7        0.1155
   8        0.1184
   9        0.1184
  10        0.1213
  11        0.8541
  12        1.5881
  13        1.5891
  14        1.5914
  15        1.5924
  16        2.3181
  17        2.3191
  18        2.3214
  19        2.3224
  20        3.0257
  21        3.0411
  22        3.0440
  23        3.0440
  24        3.0469
  25        5.1714
  26        5.1744
  27        5.1745
  28        5.1774
  29        5.2176
  30        5.2186
  31        5.2210
  32        5.2220
  33        5.3308
  34        5.3308
  35        6.0239
  36        6.0239
  37        6.6728
  38        6.6728
  39        7.3242
  40        7.3254
  41        7.3277
  42        7.3289
  43        7.3805
  44        7.3805
  45        7.4101
  46        7.4129
  47        7.4130
  48        7.4156
  49        8.1057
  50        8.1084
  51        8.1084
  52        8.1112
  53        8.8047
  54        8.8048
  55        8.8650
  56        8.8673
  57        8.8673
  58        8.8696
  59        8.9407
  60        9.6119
  61        9.6141
  62        9.6141
  63        9.6164
  64       10.3984
  65       10.3984
  66       10.8923
  67       10.8952
  68       10.8952
  69       10.8957
  70       10.8957
  71       10.8981
  72       11.1553
 
  0.1666667E+00  0.3333333E+00  0.0000000E+00  0.3703704E-01
   1       -2.8090
   2       -2.0557
   3       -1.3065
   4       -0.5627
   5       -0.5614
   6       -0.5599
   7        0.1783
   8        0.1800
   9        0.1812
  10        0.9144
  11        0.9165
  12        0.9177
  13        0.9192
  14        1.6516
  15        1.6516
  16        2.3779
  17        2.3804
  18        2.3812
  19        3.0858
  20        3.1027
  21        3.1030
  22        3.1043
  23        3.1047
  24        3.8253
  25        4.4685
  26        4.5225
  27        4.5660
  28        4.5660
  29        5.1772
  30        5.2297
  31        5.2297
  32        5.3885
  33        5.9355
  34        5.9929
  35        5.9929
  36        6.0817
  37        6.6087
  38        6.6087
  39        6.6772
  40        6.6772
  41        6.7318
  42        6.7758
  43        7.3099
  44        7.3099
  45        7.3873
  46        7.4708
  47        7.6429
  48        8.0911
  49        8.0912
  50        8.0989
  51        8.1665
  52        8.2412
  53        8.3219
  54        8.8620
  55        8.8636
  56        8.9657
  57        8.9978
  58        9.5391
  59        9.7635
  60        9.7635
  61       10.1089
  62       10.1137
  63       10.1137
  64       10.2565
  65       10.3666
  66       10.4710
  67       10.5181
  68       10.5181
  69       10.6101
  70       10.9540
  71       11.2340
  72       11.2479
 
  0.3333333E+00  0.3333333E+00  0.0000000E+00  0.3703704E-01
   1       -2.6203
   2       -1.8692
   3       -1.8669
   4       -1.1198
   5       -0.3757
   6       -0.3757
   7        0.3632
   8        0.3641
   9        0.3655
  10        0.3665
  11        1.0976
  12        1.0998
  13        1.1016
  14        1.1024
  15        1.8313
  16        1.8323
  17        3.2658
  18        3.2668
  19        3.2828
  20        3.2837
  21        3.2851
  22        3.2861
  23        3.8928
  24        3.8928
  25        3.9846
  26        3.9870
  27        4.1377
  28        4.1378
  29        4.7183
  30        5.2848
  31        5.2848
  32        5.5606
  33        5.5616
  34        5.5627
  35        6.1436
  36        6.1446
  37        6.1460
  38        6.1471
  39        6.2539
  40        6.2565
  41        6.7729
  42        6.7748
  43        6.8800
  44        6.8800
  45        6.9044
  46        6.9495
  47        7.7504
  48        7.7517
  49        8.4301
  50        8.9671
  51        8.9682
  52        8.9684
  53        8.9694
  54        8.9754
  55        9.0357
  56        9.0384
  57        9.1666
  58        9.1678
  59        9.7329
  60        9.7348
  61        9.7451
  62        9.7475
  63       10.7386
  64       10.7393
  65       11.0323
  66       11.0323
  67       11.0364
  68       11.0365
  69       11.1276
  70       11.1296
  71       11.2071
  72       11.2074
 
  0.5000000E+00  0.3333333E+00  0.0000000E+00  0.1851852E-01
   1       -2.3078
   2       -2.3050
   3       -1.5572
   4       -1.5544
   5       -0.0687
   6       -0.0675
   7       -0.0658
   8       -0.0647
   9        0.6703
  10        0.6714
  11        0.6731
  12        0.6743
  13        1.4034
  14        1.4063
  15        2.1306
  16        2.1319
  17        2.8574
  18        2.8587
  19        3.5651
  20        3.5680
  21        3.5796
  22        3.5809
  23        3.5825
  24        3.5838
  25        4.2932
  26        4.2937
  27        4.2945
  28        4.2950
  29        5.0384
  30        5.0385
  31        5.0398
  32        5.0399
  33        5.7133
  34        5.7146
  35        5.7335
  36        5.7345
  37        5.7363
  38        5.7373
  39        5.8490
  40        5.8521
  41        6.5428
  42        6.5459
  43        7.1441
  44        7.1466
  45        7.8749
  46        7.8750
  47        7.8763
  48        7.8765
  49        7.9485
  50        7.9498
  51        8.0144
  52        8.0171
  53        9.3258
  54        9.3289
  55        9.4374
  56        9.4403
  57        9.9527
  58        9.9527
  59        9.9543
  60        9.9544
  61       10.0233
  62       10.0257
  63       10.7092
  64       10.7123
  65       10.7207
  66       10.7230
  67       10.8319
  68       10.8330
  69       11.4181
  70       11.4213
  71       11.5669
  72       11.5686
 
  0.0000000E+00  0.5000000E+00  0.0000000E+00  0.9259259E-02
   1       -2.5575
   2       -2.5574
   3       -0.3190
   4       -0.3144
   5       -0.3138
   6       -0.3138
   7       -0.3138
   8       -0.3138
   9       -0.3133
  10       -0.3086
  11        1.8868
  12        1.8880
  13        1.8922
  14        1.8930
  15        1.8945
  16        1.8948
  17        1.8953
  18        1.8957
  19        1.8971
  20        1.8992
  21        4.0569
  22        4.0574
  23        4.0601
  24        4.0601
  25        4.0601
  26        4.0601
  27        4.0628
  28        4.0633
  29        5.6194
  30        5.6195
  31        5.6195
  32        5.6195
  33        6.2210
  34        6.2225
  35        6.2227
  36        6.2230
  37        6.2251
  38        6.2253
  39        6.2256
  40        6.2270
  41        6.9722
  42        6.9723
  43        6.9723
  44        6.9723
  45        7.6976
  46        7.7021
  47        7.7026
  48        7.7026
  49        7.7026
  50        7.7027
  51        7.7031
  52        7.7076
  53        9.1850
  54        9.1886
  55        9.1891
  56        9.1891
  57        9.1891
  58        9.1891
  59        9.1896
  60        9.1931
  61        9.7920
  62        9.7920
  63        9.7920
  64        9.7920
  65       10.6230
  66       10.6230
  67       11.3254
  68       11.3254
  69       11.3254
  70       11.3255
  71       11.8826
  72       11.8832
 
  0.1666667E+00  0.5000000E+00  0.0000000E+00  0.1851852E-01
   1       -2.4946
   2       -2.4946
   3       -0.9955
   4       -0.9955
   5       -0.2520
   6       -0.2520
   7       -0.2520
   8       -0.2520
   9        0.4873
  10        0.4873
  11        1.2239
  12        1.2239
  13        1.2240
  14        1.2240
  15        1.9490
  16        1.9490
  17        2.6829
  18        2.6829
  19        2.6829
  20        2.6829
  21        3.4005
  22        3.4005
  23        4.1192
  24        4.1192
  25        4.1193
  26        4.1193
  27        4.7642
  28        4.7643
  29        4.8337
  30        4.8337
  31        5.5710
  32        5.5710
  33        5.5710
  34        5.5710
  35        5.6772
  36        5.6772
  37        6.8992
  38        6.8992
  39        6.8992
  40        6.8992
  41        6.9933
  42        6.9933
  43        6.9933
  44        6.9933
  45        7.0255
  46        7.0256
  47        7.0653
  48        7.0654
  49        7.9324
  50        7.9324
  51        8.4565
  52        8.4566
  53        8.5446
  54        8.5446
  55        9.0292
  56        9.0292
  57        9.8501
  58        9.8501
  59        9.9309
  60        9.9310
  61       10.0962
  62       10.0962
  63       10.0962
  64       10.0963
  65       10.6770
  66       10.6770
  67       11.0955
  68       11.0955
  69       11.0955
  70       11.0955
  71       11.2446
  72       11.2449
 
  0.3333333E+00  0.5000000E+00  0.0000000E+00  0.1851852E-01
   1       -2.3064
   2       -2.3064
   3       -1.5558
   4       -1.5558
   5       -0.0667
   6       -0.0667
   7       -0.0667
   8       -0.0667
   9        0.6723
  10        0.6723
  11        0.6723
  12        0.6723
  13        1.4049
  14        1.4049
  15        2.1312
  16        2.1312
  17        2.8580
  18        2.8580
  19        3.5666
  20        3.5666
  21        3.5817
  22        3.5817
  23        3.5817
  24        3.5817
  25        4.2941
  26        4.2941
  27        4.2941
  28        4.2941
  29        5.0392
  30        5.0392
  31        5.0392
  32        5.0392
  33        5.7139
  34        5.7139
  35        5.7353
  36        5.7354
  37        5.7354
  38        5.7354
  39        5.8505
  40        5.8506
  41        6.5444
  42        6.5444
  43        7.1453
  44        7.1453
  45        7.8757
  46        7.8757
  47        7.8757
  48        7.8757
  49        7.9491
  50        7.9491
  51        8.0157
  52        8.0157
  53        9.3273
  54        9.3273
  55        9.4389
  56        9.4389
  57        9.9535
  58        9.9535
  59        9.9535
  60        9.9535
  61       10.0245
  62       10.0245
  63       10.7107
  64       10.7107
  65       10.7219
  66       10.7219
  67       10.8325
  68       10.8325
  69       11.4196
  70       11.4198
  71       11.5643
  72       11.5666
 
  0.5000000E+00  0.5000000E+00  0.0000000E+00  0.9259259E-02
   1       -1.9958
   2       -1.9934
   3       -1.9929
   4       -1.9906
   5        0.2380
   6        0.2401
   7        0.2413
   8        0.2415
   9        0.2418
  10        0.2420
  11        0.2432
  12        0.2453
  13        2.4306
  14        2.4325
  15        2.4342
  16        2.4344
  17        2.4346
  18        2.4349
  19        2.4365
  20        2.4384
  21        4.4718
  22        4.4733
  23        4.4741
  24        4.4746
  25        4.4747
  26        4.4753
  27        4.4760
  28        4.4775
  29        4.7394
  30        4.7396
  31        4.7405
  32        4.7414
  33        4.7415
  34        4.7424
  35        4.7434
  36        4.7435
  37        6.1367
  38        6.1393
  39        6.1397
  40        6.1423
  41        6.6639
  42        6.6648
  43        6.6659
  44        6.6667
  45        7.6375
  46        7.6387
  47        7.6396
  48        7.6409
  49        8.8643
  50        8.8652
  51        8.8654
  52        8.8657
  53        8.8666
  54        8.8669
  55        8.8671
  56        8.8680
  57       10.3095
  58       10.3133
  59       10.3148
  60       10.3150
  61       10.3152
  62       10.3154
  63       10.3169
  64       10.3207
  65       11.0252
  66       11.0269
  67       11.0284
  68       11.0285
  69       11.0289
  70       11.0290
  71       11.0306
  72       11.0322
 
  0.0000000E+00  0.1666667E+00  0.1666667E+00  0.1851852E-01
   1       -2.9979
   2       -1.4935
   3       -1.4935
   4       -0.7490
   5       -0.7457
   6       -0.0055
   7       -0.0055
   8       -0.0048
   9        0.7309
  10        0.7329
  11        0.7343
  12        0.7362
  13        1.4676
  14        1.4676
  15        2.1955
  16        2.1975
  17        2.1976
  18        2.1990
  19        2.2004
  20        2.2014
  21        2.9246
  22        3.5430
  23        3.5430
  24        3.7703
  25        3.7703
  26        4.2908
  27        4.2908
  28        5.1002
  29        5.1036
  30        5.2154
  31        5.7059
  32        5.7059
  33        6.3029
  34        6.3029
  35        6.5287
  36        6.5287
  37        6.5515
  38        6.6022
  39        6.6023
  40        7.0767
  41        7.0767
  42        7.4666
  43        7.4666
  44        7.8351
  45        7.8372
  46        7.8388
  47        7.8408
  48        7.9924
  49        7.9925
  50        7.9925
  51        8.0547
  52        8.0547
  53        8.7283
  54        8.7283
  55        9.2392
  56        9.2400
  57        9.2430
  58        9.2437
  59        9.3098
  60        9.3098
  61        9.3851
  62        9.3852
  63        9.5021
  64        9.7362
  65        9.7362
  66       10.0213
  67       10.0213
  68       10.4276
  69       10.4276
  70       10.7788
  71       10.9018
  72       10.9018
 
  0.1666667E+00  0.1666667E+00  0.1666667E+00  0.3703704E-01
   1       -2.9349
   2       -1.4328
   3       -1.4311
   4       -1.4295
   5        0.0530
   6        0.0560
   7        0.0562
   8        0.0569
   9        0.0571
  10        0.0600
  11        1.5255
  12        1.5276
  13        1.5285
  14        1.5287
  15        1.5297
  16        1.5298
  17        1.5323
  18        2.9813
  19        2.9825
  20        2.9830
  21        2.9841
  22        2.9852
  23        2.9870
  24        4.3494
  25        4.3500
  26        4.3507
  27        4.4466
  28        4.4473
  29        4.4480
  30        5.7587
  31        5.7602
  32        5.7615
  33        5.7615
  34        5.7629
  35        5.7643
  36        5.8758
  37        7.1776
  38        7.1780
  39        7.1795
  40        7.1796
  41        7.1809
  42        7.1813
  43        7.1915
  44        7.1932
  45        7.1949
  46        7.5245
  47        7.5252
  48        7.5259
  49        8.5962
  50        8.5971
  51        8.5982
  52        8.5982
  53        8.5994
  54        8.6003
  55        8.9370
  56        8.9378
  57        8.9390
  58        8.9390
  59        8.9401
  60        8.9410
  61        9.9982
  62        9.9992
  63       10.0001
  64       10.4072
  65       10.4081
  66       10.4089
  67       10.5046
  68       10.5055
  69       10.5065
  70       10.5065
  71       10.5075
  72       10.5084
 
  0.3333333E+00  0.1666667E+00  0.1666667E+00  0.3703704E-01
   1       -2.7461
   2       -1.9932
   3       -1.2443
   4       -1.2443
   5       -0.4993
   6       -0.4993
   7        0.2411
   8        0.2411
   9        0.2418
  10        0.9754
  11        0.9783
  12        0.9789
  13        0.9800
  14        1.7117
  15        1.7117
  16        2.4384
  17        2.4389
  18        2.4414
  19        2.4419
  20        3.1460
  21        3.1653
  22        3.7762
  23        3.8846
  24        3.8846
  25        4.0157
  26        4.5276
  27        4.5276
  28        4.5813
  29        4.5813
  30        5.2355
  31        5.2355
  32        5.3386
  33        5.3386
  34        5.8499
  35        5.8499
  36        6.0272
  37        6.1091
  38        6.1091
  39        6.6652
  40        6.6652
  41        6.7637
  42        7.3635
  43        7.3635
  44        7.4434
  45        7.4434
  46        7.6990
  47        7.6990
  48        7.9843
  49        7.9843
  50        8.0706
  51        8.0706
  52        8.5105
  53        8.5105
  54        8.8536
  55        9.0535
  56        9.1565
  57        9.1565
  58        9.4718
  59        9.4718
  60        9.8790
  61        9.8790
  62       10.1694
  63       10.1694
  64       10.2293
  65       10.2293
  66       10.8694
  67       10.8694
  68       10.8873
  69       10.8873
  70       11.2600
  71       11.2602
  72       11.3227
 
  0.5000000E+00  0.1666667E+00  0.1666667E+00  0.1851852E-01
   1       -2.4333
   2       -2.4304
   3       -0.9358
   4       -0.9338
   5       -0.9330
   6       -0.9310
   7        0.5461
   8        0.5483
   9        0.5484
  10        0.5492
  11        0.5504
  12        0.5517
  13        2.0084
  14        2.0100
  15        2.0150
  16        2.0152
  17        2.0175
  18        2.0184
  19        3.4595
  20        3.4600
  21        3.4609
  22        3.4610
  23        3.4621
  24        3.4646
  25        4.8215
  26        4.8218
  27        4.8245
  28        4.8247
  29        4.8883
  30        4.8887
  31        4.8896
  32        4.8899
  33        4.9191
  34        4.9204
  35        6.2558
  36        6.2578
  37        6.2587
  38        6.2607
  39        6.3408
  40        6.3415
  41        6.3422
  42        6.3429
  43        7.6572
  44        7.6579
  45        7.6602
  46        7.6609
  47        7.7594
  48        7.7609
  49        7.9729
  50        7.9736
  51        7.9757
  52        7.9764
  53        9.0988
  54        9.0994
  55        9.1006
  56        9.1011
  57        9.4606
  58        9.4615
  59        9.4635
  60        9.4643
  61       10.4538
  62       10.4545
  63       10.4557
  64       10.4563
  65       10.7225
  66       10.7236
  67       10.8139
  68       10.8161
  69       10.8171
  70       10.8192
  71       11.8021
  72       11.8060
 
  0.0000000E+00  0.3333333E+00  0.1666667E+00  0.3703704E-01
   1       -2.8090
   2       -2.0557
   3       -1.3065
   4       -0.5635
   5       -0.5613
   6       -0.5592
   7        0.1777
   8        0.1797
   9        0.1821
  10        0.9145
  11        0.9165
  12        0.9171
  13        0.9197
  14        1.6499
  15        1.6533
  16        2.3782
  17        2.3791
  18        2.3821
  19        3.0858
  20        3.1014
  21        3.1026
  22        3.1047
  23        3.1060
  24        3.8253
  25        4.4685
  26        4.5225
  27        4.5643
  28        4.5677
  29        5.1772
  30        5.2280
  31        5.2314
  32        5.3885
  33        5.9355
  34        5.9912
  35        5.9947
  36        6.0817
  37        6.6069
  38        6.6105
  39        6.6754
  40        6.6790
  41        6.7318
  42        6.7759
  43        7.3081
  44        7.3117
  45        7.3873
  46        7.4708
  47        7.6429
  48        8.0893
  49        8.0929
  50        8.0989
  51        8.1665
  52        8.2412
  53        8.3219
  54        8.8627
  55        8.8628
  56        8.9657
  57        8.9978
  58        9.5391
  59        9.7621