 vasp.4.6.28 25Jul05 complex 
 executed on             LinuxIFC date 2016.10.19  12:07:28
 running on    8 nodes
 distr:  one band on    1 nodes,    8 groups


--------------------------------------------------------------------------------------------------------


 INCAR:
 POTCAR:   PAW_PBE Al 04Jan2001                   
 POTCAR:   PAW_PBE Al 04Jan2001                   
   VRHFIN =Al: s2p1                                                             
   LEXCH  = PE                                                                  
   EATOM  =    53.5387 eV,    3.9350 Ry                                         
                                                                                
   TITEL  = PAW_PBE Al 04Jan2001                                                
   LULTRA =        F    use ultrasoft PP ?                                      
   IUNSCR =        1    unscreen: 0-lin 1-nonlin 2-no                           
   RPACOR =    1.500    partial core radius                                     
   POMASS =   26.982; ZVAL   =    3.000    mass and valenz                      
   RCORE  =    1.900    outmost cutoff radius                                   
   RWIGS  =    2.650; RWIGS  =    1.402    wigner-seitz radius (au A)           
   ENMAX  =  240.300; ENMIN  =  180.225 eV                                      
   ICORE  =        2    local potential                                         
   LCOR   =        T    correct aug charges                                     
   LPAW   =        T    paw PP                                                  
   EAUG   =  291.052                                                            
   DEXC   =    -.041                                                            
   RMAX   =    2.974    core radius for proj-oper                               
   RAUG   =    1.300    factor for augmentation sphere                          
   RDEP   =    1.966    radius for radial grids                                 
   QCUT   =   -4.203; QGAM   =    8.405    optimization parameters              
                                                                                
   Description                                                                  
     l     E      TYP  RCUT    TYP  RCUT                                        
     0   .000     23  1.900                                                     
     0   .000     23  1.900                                                     
     1   .000     23  1.900                                                     
     1  1.000     23  1.900                                                     
     2   .000      7  1.900                                                     
  local pseudopotential read in
  partial core-charges read in
  atomic valenz-charges read in
  non local Contribution for L=           0  read in
    real space projection operators read in
  non local Contribution for L=           0  read in
    real space projection operators read in
  non local Contribution for L=           1  read in
    real space projection operators read in
  non local Contribution for L=           1  read in
    real space projection operators read in
    PAW grid and wavefunctions read in
 
   number of l-projection  operators is LMAX  =           4
   number of lm-projection operators is LMMAX =           8
 

 ----------------------------------------------------------------------------- 
|                                                                             |
|  ADVICE TO THIS USER RUNNING 'VASP/VAMP'   (HEAR YOUR MASTER'S VOICE ...):  |
|                                                                             |
|      You have a (more or less) 'large supercell' and for larger cells       |
|      it might be more efficient to use real space projection operators      |
|      So try LREAL= Auto  in the INCAR   file.                               |
|      Mind: If you want to do an extremely accurate calculations keep the    |
|      reciprocal projection scheme          (i.e. LREAL=.FALSE.)             |
|                                                                             |
 ----------------------------------------------------------------------------- 

 PAW_PBE Al 04Jan2001                   :
 energy of atom  1       EATOM=  -53.5387
 kinetic energy error for atom=    0.0003 (will be added to EATOM!!)
 
 EXHCAR: internal setup
 exchange correlation table for  LEXCH =        8
   RHO(1)=    0.500       N(1)  =     2000
   RHO(2)=  100.500       N(2)  =     4000
 
 POSCAR: Al                                      
  positions in direct lattice
  No initial velocities read in
 


--------------------------------------------------------------------------------------------------------


 ion  position               nearest neighbor table
   1  0.251  0.250  0.000-  18 2.85  22 2.85  26 2.85  28 2.85   9 2.85  11 2.85  13 2.85  15 2.85
                            25 2.86  21 2.86  27 2.86  17 2.86
   2  0.750  0.250  0.000-  10 2.85  12 2.85  14 2.85  16 2.85  17 2.85  18 2.85  21 2.85  22 2.85
                            25 2.85  26 2.85  27 2.85  28 2.85
   3  0.250  0.750  0.000-   9 2.85  11 2.85  13 2.85  15 2.85  19 2.85  20 2.85  23 2.85  24 2.85
                            25 2.85  26 2.85  27 2.85  28 2.85
   4  0.750  0.750  0.000-  10 2.85  12 2.85  14 2.85  16 2.85  19 2.85  20 2.85  23 2.85  24 2.85
                            25 2.85  26 2.85  27 2.85  28 2.85
   5  0.250  0.250  0.500-   9 2.85  11 2.85  13 2.85  15 2.85  17 2.85  18 2.85  21 2.85  22 2.85
                            29 2.85  30 2.85  31 2.85  32 2.85
   6  0.750  0.250  0.500-  10 2.85  12 2.85  14 2.85  16 2.85  17 2.85  18 2.85  21 2.85  22 2.85
                            29 2.85  30 2.85  31 2.85  32 2.85
   7  0.250  0.750  0.500-   9 2.85  11 2.85  13 2.85  15 2.85  19 2.85  20 2.85  23 2.85  24 2.85
                            29 2.85  30 2.85  31 2.85  32 2.85
   8  0.750  0.750  0.500-  10 2.85  12 2.85  14 2.85  16 2.85  19 2.85  20 2.85  23 2.85  24 2.85
                            29 2.85  30 2.85  31 2.85  32 2.85
   9  0.250  0.000  0.250-   3 2.85   5 2.85   7 2.85  17 2.85  18 2.85  19 2.85  20 2.85  25 2.85
                            26 2.85  29 2.85  30 2.85   1 2.85
  10  0.750  0.000  0.250-   2 2.85   4 2.85   6 2.85   8 2.85  17 2.85  18 2.85  19 2.85  20 2.85
                            25 2.85  26 2.85  29 2.85  30 2.85
  11  0.250  0.500  0.250-   3 2.85   5 2.85   7 2.85  17 2.85  18 2.85  19 2.85  20 2.85  27 2.85
                            28 2.85  31 2.85  32 2.85   1 2.85
  12  0.750  0.500  0.250-   2 2.85   4 2.85   6 2.85   8 2.85  17 2.85  18 2.85  19 2.85  20 2.85
                            27 2.85  28 2.85  31 2.85  32 2.85
  13  0.250  0.000  0.750-   3 2.85   5 2.85   7 2.85  21 2.85  22 2.85  23 2.85  24 2.85  25 2.85
                            26 2.85  29 2.85  30 2.85   1 2.85
  14  0.750  0.000  0.750-   2 2.85   4 2.85   6 2.85   8 2.85  21 2.85  22 2.85  23 2.85  24 2.85
                            25 2.85  26 2.85  29 2.85  30 2.85
  15  0.250  0.500  0.750-   3 2.85   5 2.85   7 2.85  21 2.85  22 2.85  23 2.85  24 2.85  27 2.85
                            28 2.85  31 2.85  32 2.85   1 2.85
  16  0.750  0.500  0.750-   2 2.85   4 2.85   6 2.85   8 2.85  21 2.85  22 2.85  23 2.85  24 2.85
                            27 2.85  28 2.85  31 2.85  32 2.85
  17  0.000  0.250  0.250-   2 2.85   5 2.85   6 2.85   9 2.85  10 2.85  11 2.85  12 2.85  25 2.85
                            27 2.85  29 2.85  31 2.85   1 2.86
  18  0.500  0.250  0.250-   1 2.85   2 2.85   5 2.85   6 2.85   9 2.85  10 2.85  11 2.85  12 2.85
                            26 2.85  28 2.85  30 2.85  32 2.85
  19  0.000  0.750  0.250-   3 2.85   4 2.85   7 2.85   8 2.85   9 2.85  10 2.85  11 2.85  12 2.85
                            25 2.85  27 2.85  29 2.85  31 2.85
  20  0.500  0.750  0.250-   3 2.85   4 2.85   7 2.85   8 2.85   9 2.85  10 2.85  11 2.85  12 2.85
                            26 2.85  28 2.85  30 2.85  32 2.85
  21  0.000  0.250  0.750-   2 2.85   5 2.85   6 2.85  13 2.85  14 2.85  15 2.85  16 2.85  25 2.85
                            27 2.85  29 2.85  31 2.85   1 2.86
  22  0.500  0.250  0.750-   1 2.85   2 2.85   5 2.85   6 2.85  13 2.85  14 2.85  15 2.85  16 2.85
                            26 2.85  28 2.85  30 2.85  32 2.85
  23  0.000  0.750  0.750-   3 2.85   4 2.85   7 2.85   8 2.85  13 2.85  14 2.85  15 2.85  16 2.85
                            25 2.85  27 2.85  29 2.85  31 2.85
  24  0.500  0.750  0.750-   3 2.85   4 2.85   7 2.85   8 2.85  13 2.85  14 2.85  15 2.85  16 2.85
                            26 2.85  28 2.85  30 2.85  32 2.85
  25  0.000  0.000  0.000-   2 2.85   3 2.85   4 2.85   9 2.85  10 2.85  13 2.85  14 2.85  17 2.85
                            19 2.85  21 2.85  23 2.85   1 2.86
  26  0.500  0.000  0.000-   1 2.85   2 2.85   3 2.85   4 2.85   9 2.85  10 2.85  13 2.85  14 2.85
                            18 2.85  20 2.85  22 2.85  24 2.85
  27  0.000  0.500  0.000-   2 2.85   3 2.85   4 2.85  11 2.85  12 2.85  15 2.85  16 2.85  17 2.85
                            19 2.85  21 2.85  23 2.85   1 2.86
  28  0.500  0.500  0.000-   1 2.85   2 2.85   3 2.85   4 2.85  11 2.85  12 2.85  15 2.85  16 2.85
                            18 2.85  20 2.85  22 2.85  24 2.85
  29  0.000  0.000  0.500-   5 2.85   6 2.85   7 2.85   8 2.85   9 2.85  10 2.85  13 2.85  14 2.85
                            17 2.85  19 2.85  21 2.85  23 2.85
  30  0.500  0.000  0.500-   5 2.85   6 2.85   7 2.85   8 2.85   9 2.85  10 2.85  13 2.85  14 2.85
                            18 2.85  20 2.85  22 2.85  24 2.85
  31  0.000  0.500  0.500-   5 2.85   6 2.85   7 2.85   8 2.85  11 2.85  12 2.85  15 2.85  16 2.85
                            17 2.85  19 2.85  21 2.85  23 2.85
  32  0.500  0.500  0.500-   5 2.85   6 2.85   7 2.85   8 2.85  11 2.85  12 2.85  15 2.85  16 2.85
                            18 2.85  20 2.85  22 2.85  24 2.85
 
  LATTYP: Found a simple cubic cell.
 ALAT       =     8.0743998000
  
  Lattice vectors:
  
 A1 = (   8.0743998000,   0.0000000000,   0.0000000000)
 A2 = (   0.0000000000,   8.0743998000,   0.0000000000)
 A3 = (   0.0000000000,   0.0000000000,   8.0743998000)
 Subroutine PRICEL returns:
 Original cell was already a primitive cell.
 

Analysis of symmetry for initial positions (statically):

 Routine SETGRP: Setting up the symmetry group for a 
 simple cubic supercell.


 Subroutine GETGRP returns: Found  8 space group operations
 (whereof  2 operations were pure point group operations)
 out of a pool of 48 trial point group operations.


The static configuration has the point symmetry C_1h.
 The point group associated with its full space group is C_4v.

Analysis of symmetry for dynamics (positions and initial velocities):

 Subroutine DYNSYM returns: Found  8 space group operations
 (whereof  2 operations were pure point group operations)
 out of a pool of  8 trial space group operations
 (whereof  2 operations were pure point group operations)
 and found also     1 'primitive' translations


The dynamic configuration has the point symmetry C_1h.
 The point group associated with its full space group is C_4v.
 
 
 KPOINTS: Automatic mesh                          

Automatic generation of k-mesh.
 generate k-points for:   6   6   6
 
 Subroutine IBZKPT returns following result:
 ===========================================
 
 Found     40 irreducible k-points:
 
 Following reciprocal coordinates:
            Coordinates               Weight
  0.000000  0.000000  0.000000      1.000000
  0.166667  0.000000  0.000000      2.000000
  0.333333  0.000000  0.000000      2.000000
  0.500000  0.000000  0.000000      1.000000
  0.000000  0.166667  0.000000      4.000000
  0.166667  0.166667  0.000000      8.000000
  0.333333  0.166667  0.000000      8.000000
  0.500000  0.166667  0.000000      4.000000
  0.000000  0.333333  0.000000      4.000000
  0.166667  0.333333  0.000000      8.000000
  0.333333  0.333333  0.000000      8.000000
  0.500000  0.333333  0.000000      4.000000
  0.000000  0.500000  0.000000      2.000000
  0.166667  0.500000  0.000000      4.000000
  0.333333  0.500000  0.000000      4.000000
  0.500000  0.500000  0.000000      2.000000
  0.000000  0.166667  0.166667      4.000000
  0.166667  0.166667  0.166667      8.000000
  0.333333  0.166667  0.166667      8.000000
  0.500000  0.166667  0.166667      4.000000
  0.000000  0.333333  0.166667      8.000000
  0.166667  0.333333  0.166667     16.000000
  0.333333  0.333333  0.166667     16.000000
  0.500000  0.333333  0.166667      8.000000
  0.000000  0.500000  0.166667      4.000000
  0.166667  0.500000  0.166667      8.000000
  0.333333  0.500000  0.166667      8.000000
  0.500000  0.500000  0.166667      4.000000
  0.000000  0.333333  0.333333      4.000000
  0.166667  0.333333  0.333333      8.000000
  0.333333  0.333333  0.333333      8.000000
  0.500000  0.333333  0.333333      4.000000
  0.000000  0.500000  0.333333      4.000000
  0.166667  0.500000  0.333333      8.000000
  0.333333  0.500000  0.333333      8.000000
  0.500000  0.500000  0.333333      4.000000
  0.000000  0.500000  0.500000      1.000000
  0.166667  0.500000  0.500000      2.000000
  0.333333  0.500000  0.500000      2.000000
  0.500000  0.500000  0.500000      1.000000
 
 Following cartesian coordinates:
            Coordinates               Weight
  0.000000  0.000000  0.000000      1.000000
  0.020641  0.000000  0.000000      2.000000
  0.041283  0.000000  0.000000      2.000000
  0.061924  0.000000  0.000000      1.000000
  0.000000  0.020641  0.000000      4.000000
  0.020641  0.020641  0.000000      8.000000
  0.041283  0.020641  0.000000      8.000000
  0.061924  0.020641  0.000000      4.000000
  0.000000  0.041283  0.000000      4.000000
  0.020641  0.041283  0.000000      8.000000
  0.041283  0.041283  0.000000      8.000000
  0.061924  0.041283  0.000000      4.000000
  0.000000  0.061924  0.000000      2.000000
  0.020641  0.061924  0.000000      4.000000
  0.041283  0.061924  0.000000      4.000000
  0.061924  0.061924  0.000000      2.000000
  0.000000  0.020641  0.020641      4.000000
  0.020641  0.020641  0.020641      8.000000
  0.041283  0.020641  0.020641      8.000000
  0.061924  0.020641  0.020641      4.000000
  0.000000  0.041283  0.020641      8.000000
  0.020641  0.041283  0.020641     16.000000
  0.041283  0.041283  0.020641     16.000000
  0.061924  0.041283  0.020641      8.000000
  0.000000  0.061924  0.020641      4.000000
  0.020641  0.061924  0.020641      8.000000
  0.041283  0.061924  0.020641      8.000000
  0.061924  0.061924  0.020641      4.000000
  0.000000  0.041283  0.041283      4.000000
  0.020641  0.041283  0.041283      8.000000
  0.041283  0.041283  0.041283      8.000000
  0.061924  0.041283  0.041283      4.000000
  0.000000  0.061924  0.041283      4.000000
  0.020641  0.061924  0.041283      8.000000
  0.041283  0.061924  0.041283      8.000000
  0.061924  0.061924  0.041283      4.000000
  0.000000  0.061924  0.061924      1.000000
  0.020641  0.061924  0.061924      2.000000
  0.041283  0.061924  0.061924      2.000000
  0.061924  0.061924  0.061924      1.000000
 


--------------------------------------------------------------------------------------------------------




 Dimension of arrays:
   k-Points           NKPTS =     40   number of bands    NBANDS=     72
   number of dos      NEDOS =    301   number of ions     NIONS =     32
   non local maximal  LDIM  =      4   non local SUM 2l+1 LMDIM =      8
   total plane-waves  NPLWV = 216000
   max r-space proj   IRMAX =      1   max aug-charges    IRDMAX=  16167
   dimension x,y,z NGX =    60 NGY =   60 NGZ =   60
   dimension x,y,z NGXF=   120 NGYF=  120 NGZF=  120
   support grid    NGXF=   120 NGYF=  120 NGZF=  120
   ions per type =              32
 NGX,Y,Z   is equivalent  to a cutoff of  12.35, 12.35, 12.35 a.u.
 NGXF,Y,Z  is equivalent  to a cutoff of  24.71, 24.71, 24.71 a.u.


 I would recommend the setting:
   dimension x,y,z NGX =    59 NGY =   59 NGZ =   59
 SYSTEM =  unknown system                          
 POSCAR =  Al                                      

 Startparameter for this run:
   NWRITE =      2    write-flag & timer
   PREC   = accura    medium, high low
   ISTART =      0    job   : 0-new  1-cont  2-samecut
   ICHARG =      2    charge: 1-file 2-atom 10-const
   ISPIN  =      1    spin polarized calculation?
   LNONCOLLINEAR =      F non collinear calculations
   LSORBIT =      F    spin-orbit coupling
   INIWAV =      1    electr: 0-lowe 1-rand  2-diag
   LASPH  =      F    aspherical Exc in radial PAW
   METAGGA=      F    non-selfconsistent MetaGGA calc.

 Electronic Relaxation 1
   ENCUT  =  500.0 eV  36.75 Ry    6.06 a.u.  14.72 14.72 14.72*2*pi/ulx,y,z
   ENINI  =  500.0     initial cutoff
   ENAUG  =  291.1 eV  augmentation charge cutoff
   NELM   =     60;   NELMIN=  2; NELMDL=  0     # of ELM steps 
   EDIFF  = 0.1E-07   stopping-criterion for ELM
   LREAL  =      F    real-space projection
   LCOMPAT=      F    compatible to vasp.4.4
   LREAL_COMPAT= F    compatible to vasp.4.5.1-3
   GGA_COMPAT  = T    GGA compatible to vasp.4.4-vasp.4.6
   LMAXPAW     = -100 max onsite density
   LMAXMIX     =    2 max onsite mixed and CHGCAR
   VOSKOWN=      0    Vosko Wilk Nusair interpolation
   ROPT   =    0.00000
 Ionic relaxation
   EDIFFG = 0.1E-06   stopping-criterion for IOM
   NSW    =      0    number of steps for IOM
   NBLOCK =      1;   KBLOCK =      1    inner block; outer block 
   IBRION =     -1    ionic relax: 0-MD 1-quasi-New 2-CG
   NFREE  =      0    steps in history (QN), initial steepest desc. (CG)
   ISIF   =      2    stress and relaxation
   IWAVPR =     10    prediction:  0-non 1-charg 2-wave 3-comb
   ISYM   =      2    0-nonsym 1-usesym 2-fastsym
   LCORR  =      T    Harris-Foulkes like correction to forces

   POTIM  =   0.50    time-step for ionic-motion
   TEIN   =    0.0    initial temperature
   TEBEG  =    0.0;   TEEND  =   0.0 temperature during run
   SMASS  =  -3.00    Nose mass-parameter (am)
   estimated Nose-frequenzy (Omega)   =  0.10E-29 period in steps =****** mass=  -0.149E-26a.u.
   NPACO  =    256;   APACO  = 16.0  distance and # of slots for P.C.
   PSTRESS=    0.0 pullay stress

  Mass of Ions in am
   POMASS =  26.98
  Ionic Valenz
   ZVAL   =   3.00
  Atomic Wigner-Seitz radii
   RWIGS  =  -1.00
   NELECT =      96.0000    total number of electrons
   NUPDOWN=      -1.0000    fix difference up-down

 DOS related values:
   EMIN   =  10.00;   EMAX   =-10.00  energy-range for DOS
   ISMEAR =     0;   SIGMA  =   0.01  broadening in eV -4-tet -1-fermi 0-gaus

 Electronic relaxation 2 (details)
   IALGO  =     38    algorithm
   LDIAG  =      T    sub-space diagonalisation
   IMIX   =      4    mixing-type and parameters
     AMIX     =   0.40;   BMIX     =  1.00
     AMIX_MAG =   1.60;   BMIX_MAG =  1.00
     AMIN     =   0.10
     WC   =   100.;   INIMIX=   1;  MIXPRE=   1

 Intra band minimization:
   WEIMIN = 0.0000     energy-eigenvalue tresh-hold
   EBREAK =  0.38E-10  absolut break condition
   DEPER  =   0.30     relativ break condition  

   TIME   =   0.10     timestep for ELM

  volume/ion in A,a.u.               =      16.45       111.01
  Fermi-wavevector in a.u.,eV,Ry     =   0.928371 11.726495  0.861873

 Second variation
   LSECVAR=     F    do a second variation
 
 Write flags
   LWAVE  =      F    write WAVECAR
   LCHARG =      F    write CHGCAR
   LVTOT  =      F    write LOCPOT, local potential
   LELF   =      F    write electronic localiz. function (ELF)
   LORBIT =      0    0 simple, 1 ext, 2 COOP (PROOUT)


 Dipole corrections
   IDIPOL =      0    1-x, 2-y, 3-z
   LDIPOL =      F    correct potential



--------------------------------------------------------------------------------------------------------


 Static calculation
 charge density will be updated during run
 non-spin polarized calculation
 Variant of blocked Davidson
 Davidson routine will perform the subspace rotation
 performe sub-space diagonalisation
    after iterative eigenvector-optimisation
 modified Broyden-mixing scheme, WC =      100.0
 initial mixing is a Kerker type mixing with AMIX =  0.4000 and BMIX =      1.0000
 Hartree-type preconditioning will be used
 using additional bands           24
 reciprocal scheme for non local part
 use partial core corrections
 calculate Harris-corrections to forces 
   (improved forces if not selfconsistent)
 use gradient corrections 
 use of overlap-Matrix (Vanderbilt PP)
 Gauss-broadening in eV      SIGMA  =   0.01


--------------------------------------------------------------------------------------------------------


  energy-cutoff  :      500.00
  volume of cell :      526.42
      direct lattice vectors                 reciprocal lattice vectors
     8.074399800  0.000000000  0.000000000     0.123848215  0.000000000  0.000000000
     0.000000000  8.074399800  0.000000000     0.000000000  0.123848215  0.000000000
     0.000000000  0.000000000  8.074399800     0.000000000  0.000000000  0.123848215

  length of vectors
     8.074399800  8.074399800  8.074399800     0.123848215  0.123848215  0.123848215


 
 k-points in units of 2pi/SCALE and weight: Automatic mesh                          
   0.00000000  0.00000000  0.00000000       0.005
   0.02064137  0.00000000  0.00000000       0.009
   0.04128274  0.00000000  0.00000000       0.009
   0.06192411  0.00000000  0.00000000       0.005
   0.00000000  0.02064137  0.00000000       0.019
   0.02064137  0.02064137  0.00000000       0.037
   0.04128274  0.02064137  0.00000000       0.037
   0.06192411  0.02064137  0.00000000       0.019
   0.00000000  0.04128274  0.00000000       0.019
   0.02064137  0.04128274  0.00000000       0.037
   0.04128274  0.04128274  0.00000000       0.037
   0.06192411  0.04128274  0.00000000       0.019
   0.00000000  0.06192411  0.00000000       0.009
   0.02064137  0.06192411  0.00000000       0.019
   0.04128274  0.06192411  0.00000000       0.019
   0.06192411  0.06192411  0.00000000       0.009
   0.00000000  0.02064137  0.02064137       0.019
   0.02064137  0.02064137  0.02064137       0.037
   0.04128274  0.02064137  0.02064137       0.037
   0.06192411  0.02064137  0.02064137       0.019
   0.00000000  0.04128274  0.02064137       0.037
   0.02064137  0.04128274  0.02064137       0.074
   0.04128274  0.04128274  0.02064137       0.074
   0.06192411  0.04128274  0.02064137       0.037
   0.00000000  0.06192411  0.02064137       0.019
   0.02064137  0.06192411  0.02064137       0.037
   0.04128274  0.06192411  0.02064137       0.037
   0.06192411  0.06192411  0.02064137       0.019
   0.00000000  0.04128274  0.04128274       0.019
   0.02064137  0.04128274  0.04128274       0.037
   0.04128274  0.04128274  0.04128274       0.037
   0.06192411  0.04128274  0.04128274       0.019
   0.00000000  0.06192411  0.04128274       0.019
   0.02064137  0.06192411  0.04128274       0.037
   0.04128274  0.06192411  0.04128274       0.037
   0.06192411  0.06192411  0.04128274       0.019
   0.00000000  0.06192411  0.06192411       0.005
   0.02064137  0.06192411  0.06192411       0.009
   0.04128274  0.06192411  0.06192411       0.009
   0.06192411  0.06192411  0.06192411       0.005
 
 k-points in reciprocal lattice and weights: Automatic mesh                          
   0.00000000  0.00000000  0.00000000       0.005
   0.16666667  0.00000000  0.00000000       0.009
   0.33333333  0.00000000  0.00000000       0.009
   0.50000000  0.00000000  0.00000000       0.005
   0.00000000  0.16666667  0.00000000       0.019
   0.16666667  0.16666667  0.00000000       0.037
   0.33333333  0.16666667  0.00000000       0.037
   0.50000000  0.16666667  0.00000000       0.019
   0.00000000  0.33333333  0.00000000       0.019
   0.16666667  0.33333333  0.00000000       0.037
   0.33333333  0.33333333  0.00000000       0.037
   0.50000000  0.33333333  0.00000000       0.019
   0.00000000  0.50000000  0.00000000       0.009
   0.16666667  0.50000000  0.00000000       0.019
   0.33333333  0.50000000  0.00000000       0.019
   0.50000000  0.50000000  0.00000000       0.009
   0.00000000  0.16666667  0.16666667       0.019
   0.16666667  0.16666667  0.16666667       0.037
   0.33333333  0.16666667  0.16666667       0.037
   0.50000000  0.16666667  0.16666667       0.019
   0.00000000  0.33333333  0.16666667       0.037
   0.16666667  0.33333333  0.16666667       0.074
   0.33333333  0.33333333  0.16666667       0.074
   0.50000000  0.33333333  0.16666667       0.037
   0.00000000  0.50000000  0.16666667       0.019
   0.16666667  0.50000000  0.16666667       0.037
   0.33333333  0.50000000  0.16666667       0.037
   0.50000000  0.50000000  0.16666667       0.019
   0.00000000  0.33333333  0.33333333       0.019
   0.16666667  0.33333333  0.33333333       0.037
   0.33333333  0.33333333  0.33333333       0.037
   0.50000000  0.33333333  0.33333333       0.019
   0.00000000  0.50000000  0.33333333       0.019
   0.16666667  0.50000000  0.33333333       0.037
   0.33333333  0.50000000  0.33333333       0.037
   0.50000000  0.50000000  0.33333333       0.019
   0.00000000  0.50000000  0.50000000       0.005
   0.16666667  0.50000000  0.50000000       0.009
   0.33333333  0.50000000  0.50000000       0.009
   0.50000000  0.50000000  0.50000000       0.005
 
 position of ions in fractional coordinates (direct lattice) 
   0.25123848  0.25000000  0.00000000
   0.75000000  0.25000000  0.00000000
   0.25000000  0.75000000  0.00000000
   0.75000000  0.75000000  0.00000000
   0.25000000  0.25000000  0.50000000
   0.75000000  0.25000000  0.50000000
   0.25000000  0.75000000  0.50000000
   0.75000000  0.75000000  0.50000000
   0.25000000  0.00000000  0.25000000
   0.75000000  0.00000000  0.25000000
   0.25000000  0.50000000  0.25000000
   0.75000000  0.50000000  0.25000000
   0.25000000  0.00000000  0.75000000
   0.75000000  0.00000000  0.75000000
   0.25000000  0.50000000  0.75000000
   0.75000000  0.50000000  0.75000000
   0.00000000  0.25000000  0.25000000
   0.50000000  0.25000000  0.25000000
   0.00000000  0.75000000  0.25000000
   0.50000000  0.75000000  0.25000000
   0.00000000  0.25000000  0.75000000
   0.50000000  0.25000000  0.75000000
   0.00000000  0.75000000  0.75000000
   0.50000000  0.75000000  0.75000000
   0.00000000  0.00000000  0.00000000
   0.50000000  0.00000000  0.00000000
   0.00000000  0.50000000  0.00000000
   0.50000000  0.50000000  0.00000000
   0.00000000  0.00000000  0.50000000
   0.50000000  0.00000000  0.50000000
   0.00000000  0.50000000  0.50000000
   0.50000000  0.50000000  0.50000000
 
 position of ions in cartesian coordinates  (Angst):
   2.02859995  2.01859995  0.00000000
   6.05579985  2.01859995  0.00000000
   2.01859995  6.05579985  0.00000000
   6.05579985  6.05579985  0.00000000
   2.01859995  2.01859995  4.03719990
   6.05579985  2.01859995  4.03719990
   2.01859995  6.05579985  4.03719990
   6.05579985  6.05579985  4.03719990
   2.01859995  0.00000000  2.01859995
   6.05579985  0.00000000  2.01859995
   2.01859995  4.03719990  2.01859995
   6.05579985  4.03719990  2.01859995
   2.01859995  0.00000000  6.05579985
   6.05579985  0.00000000  6.05579985
   2.01859995  4.03719990  6.05579985
   6.05579985  4.03719990  6.05579985
   0.00000000  2.01859995  2.01859995
   4.03719990  2.01859995  2.01859995
   0.00000000  6.05579985  2.01859995
   4.03719990  6.05579985  2.01859995
   0.00000000  2.01859995  6.05579985
   4.03719990  2.01859995  6.05579985
   0.00000000  6.05579985  6.05579985
   4.03719990  6.05579985  6.05579985
   0.00000000  0.00000000  0.00000000
   4.03719990  0.00000000  0.00000000
   0.00000000  4.03719990  0.00000000
   4.03719990  4.03719990  0.00000000
   0.00000000  0.00000000  4.03719990
   4.03719990  0.00000000  4.03719990
   0.00000000  4.03719990  4.03719990
   4.03719990  4.03719990  4.03719990
 


--------------------------------------------------------------------------------------------------------


 k-point  1 :  0.00000.00000.0000  plane waves:  13301
 k-point  2 :  0.16670.00000.0000  plane waves:  13397
 k-point  3 :  0.33330.00000.0000  plane waves:  13350
 k-point  4 :  0.50000.00000.0000  plane waves:  13350
 k-point  5 :  0.00000.16670.0000  plane waves:  13397
 k-point  6 :  0.16670.16670.0000  plane waves:  13381
 k-point  7 :  0.33330.16670.0000  plane waves:  13347
 k-point  8 :  0.50000.16670.0000  plane waves:  13364
 k-point  9 :  0.00000.33330.0000  plane waves:  13350
 k-point 10 :  0.16670.33330.0000  plane waves:  13347
 k-point 11 :  0.33330.33330.0000  plane waves:  13415
 k-point 12 :  0.50000.33330.0000  plane waves:  13396
 k-point 13 :  0.00000.50000.0000  plane waves:  13350
 k-point 14 :  0.16670.50000.0000  plane waves:  13364
 k-point 15 :  0.33330.50000.0000  plane waves:  13396
 k-point 16 :  0.50000.50000.0000  plane waves:  13448
 k-point 17 :  0.00000.16670.1667  plane waves:  13381
 k-point 18 :  0.16670.16670.1667  plane waves:  13343
 k-point 19 :  0.33330.16670.1667  plane waves:  13366
 k-point 20 :  0.50000.16670.1667  plane waves:  13340
 k-point 21 :  0.00000.33330.1667  plane waves:  13347
 k-point 22 :  0.16670.33330.1667  plane waves:  13366
 k-point 23 :  0.33330.33330.1667  plane waves:  13371
 k-point 24 :  0.50000.33330.1667  plane waves:  13380
 k-point 25 :  0.00000.50000.1667  plane waves:  13364
 k-point 26 :  0.16670.50000.1667  plane waves:  13340
 k-point 27 :  0.33330.50000.1667  plane waves:  13380
 k-point 28 :  0.50000.50000.1667  plane waves:  13400
 k-point 29 :  0.00000.33330.3333  plane waves:  13415
 k-point 30 :  0.16670.33330.3333  plane waves:  13371
 k-point 31 :  0.33330.33330.3333  plane waves:  13361
 k-point 32 :  0.50000.33330.3333  plane waves:  13306
 k-point 33 :  0.00000.50000.3333  plane waves:  13396
 k-point 34 :  0.16670.50000.3333  plane waves:  13380
 k-point 35 :  0.33330.50000.3333  plane waves:  13306
 k-point 36 :  0.50000.50000.3333  plane waves:  13368
 k-point 37 :  0.00000.50000.5000  plane waves:  13448
 k-point 38 :  0.16670.50000.5000  plane waves:  13400
 k-point 39 :  0.33330.50000.5000  plane waves:  13368
 k-point 40 :  0.50000.50000.5000  plane waves:  13264

 maximum and minimum number of plane-waves per node :  13448 13264

 maximum number of plane-waves:  13448
 maximal index in each direction: 
   IXMAX= 14   IYMAX= 14   IZMAX= 14
   IXMIN=-15   IYMIN=-15   IZMIN=-15

 NGX is ok and might be reduce to  60
 NGY is ok and might be reduce to  60
 NGZ is ok and might be reduce to  60

 parallel 3dFFT wavefunction:
    minimum data exchange during FFTs selected (reduces bandwidth)
 parallel 3dFFT charge:
    minimum data exchange during FFTs selected (reduces bandwidth)

 For storing wavefunctions  615.99 MBYTES are necessary
 For predicting wavefunctions   34.21 MBYTES are necessary
Broyden mixing: mesh for mixing (old mesh)
   NGX = 29   NGY = 29   NGZ = 29
  (NGX  =120   NGY  =120   NGZ  =120)
 gives a total of  24389 points
 initial charge density was supplied:
 charge density of overlapping atoms calculated
 number of electron   96.0000000 magnetization 
 keeping initial charge density in first step


--------------------------------------------------------------------------------------------------------


 Maximum index for augmentation-charges         1980 (set IRDMAX)


--------------------------------------------------------------------------------------------------------


 First call to EWALD:  gamma=   0.220
 Maximum number of real-space cells 3x 3x 3
 Maximum number of reciprocal cells 3x 3x 3

    FEWALD:  VPU time    0.01: CPU time    0.01


----------------------------------------- Iteration    1(   1)  ---------------------------------------


    POTLOK:  VPU time    0.13: CPU time    0.13
    SETDIJ:  VPU time    0.01: CPU time    0.01
    EDDAV :  VPU time   17.47: CPU time   17.48
    DOS   :  VPU time    0.00: CPU time   -0.00
    ------------------------------------------
      LOOP:  VPU time   17.61: CPU time   17.62

 eigenvalue-minimisations  :  5760
 total energy-change (2. order) : 0.1197836E+03  (-0.3269084E+04)
 number of electron   96.0000000 magnetization 
 augmentation part    96.0000000 magnetization 

 Free energy of the ion-electron system (eV)
  ---------------------------------------------------
  alpha Z        PSCENC =        -6.53363553
  Ewald energy   TEWEN  =     -2354.85593599
  -1/2 Hartree   DENC   =        -3.20992959
  -V(xc)+E(xc)   XCENC  =      -839.49879349
  PAW double counting   =      1137.73615723     -115.16745734
  entropy T*S    EENTRO =        -0.00052754
  eigenvalues    EBANDS =       588.08457804
  atomic energy  EATOM  =      1713.22913220
  ---------------------------------------------------
  free energy    TOTEN  =       119.78358799 eV

  energy without entropy =      119.78411553  energy(sigma->0) =      119.78385176


--------------------------------------------------------------------------------------------------------




----------------------------------------- Iteration    1(   2)  ---------------------------------------


    EDDAV :  VPU time   19.69: CPU time   19.69
    DOS   :  VPU time    0.00: CPU time   -0.00
    ------------------------------------------
      LOOP:  VPU time   19.70: CPU time   19.70

 eigenvalue-minimisations  :  6768
 total energy-change (2. order) :-0.2270965E+03  (-0.2106074E+03)
 number of electron   96.0000000 magnetization 
 augmentation part    96.0000000 magnetization 

 Free energy of the ion-electron system (eV)
  ---------------------------------------------------
  alpha Z        PSCENC =        -6.53363553
  Ewald energy   TEWEN  =     -2354.85593599
  -1/2 Hartree   DENC   =        -3.20992959
  -V(xc)+E(xc)   XCENC  =      -839.49879349
  PAW double counting   =      1137.73615723     -115.16745734
  entropy T*S    EENTRO =        -0.00067836
  eigenvalues    EBANDS =       360.98818413
  atomic energy  EATOM  =      1713.22913220
  ---------------------------------------------------
  free energy    TOTEN  =      -107.31295674 eV

  energy without entropy =     -107.31227838  energy(sigma->0) =     -107.31261756


--------------------------------------------------------------------------------------------------------




----------------------------------------- Iteration    1(   3)  ---------------------------------------


    EDDAV :  VPU time   20.58: CPU time   20.58
    DOS   :  VPU time   -0.00: CPU time   -0.00
    ------------------------------------------
      LOOP:  VPU time   20.58: CPU time   20.58

 eigenvalue-minimisations  :  7208
 total energy-change (2. order) :-0.1294326E+02  (-0.1233628E+02)
 number of electron   96.0000000 magnetization 
 augmentation part    96.0000000 magnetization 

 Free energy of the ion-electron system (eV)
  ---------------------------------------------------
  alpha Z        PSCENC =        -6.53363553
  Ewald energy   TEWEN  =     -2354.85593599
  -1/2 Hartree   DENC   =        -3.20992959
  -V(xc)+E(xc)   XCENC  =      -839.49879349
  PAW double counting   =      1137.73615723     -115.16745734
  entropy T*S    EENTRO =        -0.00028847
  eigenvalues    EBANDS =       348.04453416
  atomic energy  EATOM  =      1713.22913220
  ---------------------------------------------------
  free energy    TOTEN  =      -120.25621682 eV

  energy without entropy =     -120.25592835  energy(sigma->0) =     -120.25607258


--------------------------------------------------------------------------------------------------------




----------------------------------------- Iteration    1(   4)  ---------------------------------------


    EDDAV :  VPU time   19.50: CPU time   19.50
    DOS   :  VPU time    0.00: CPU time   -0.00
    ------------------------------------------
      LOOP:  VPU time   19.51: CPU time   19.50

 eigenvalue-minimisations  :  6704
 total energy-change (2. order) :-0.2343860E+00  (-0.2326404E+00)
 number of electron   96.0000000 magnetization 
 augmentation part    96.0000000 magnetization 

 Free energy of the ion-electron system (eV)
  ---------------------------------------------------
  alpha Z        PSCENC =        -6.53363553
  Ewald energy   TEWEN  =     -2354.85593599
  -1/2 Hartree   DENC   =        -3.20992959
  -V(xc)+E(xc)   XCENC  =      -839.49879349
  PAW double counting   =      1137.73615723     -115.16745734
  entropy T*S    EENTRO =        -0.00035952
  eigenvalues    EBANDS =       347.81021918
  atomic energy  EATOM  =      1713.22913220
  ---------------------------------------------------
  free energy    TOTEN  =      -120.49060284 eV

  energy without entropy =     -120.49024333  energy(sigma->0) =     -120.49042309


--------------------------------------------------------------------------------------------------------




----------------------------------------- Iteration    1(   5)  ---------------------------------------


    EDDAV :  VPU time   19.57: CPU time   19.56
    DOS   :  VPU time    0.00: CPU time   -0.00
    CHARGE:  VPU time    0.66: CPU time    0.66
    MIXING:  VPU time    0.00: CPU time    0.00
    ------------------------------------------
      LOOP:  VPU time   20.24: CPU time   20.23

 eigenvalue-minimisations  :  6760
 total energy-change (2. order) :-0.2821968E-02  (-0.2820448E-02)
 number of electron   96.0000001 magnetization 
 augmentation part    -1.1821786 magnetization 

 Broyden mixing:
  rms(total) = 0.53137E+00    rms(broyden)= 0.53136E+00
  rms(prec ) = 0.76905E+00
  weight for this iteration     100.00

 Free energy of the ion-electron system (eV)
  ---------------------------------------------------
  alpha Z        PSCENC =        -6.53363553
  Ewald energy   TEWEN  =     -2354.85593599
  -1/2 Hartree   DENC   =        -3.20992959
  -V(xc)+E(xc)   XCENC  =      -839.49879349
  PAW double counting   =      1137.73615723     -115.16745734
  entropy T*S    EENTRO =        -0.00035888
  eigenvalues    EBANDS =       347.80739658
  atomic energy  EATOM  =      1713.22913220
  ---------------------------------------------------
  free energy    TOTEN  =      -120.49342481 eV

  energy without entropy =     -120.49306593  energy(sigma->0) =     -120.49324537


--------------------------------------------------------------------------------------------------------




----------------------------------------- Iteration    1(   6)  ---------------------------------------


    POTLOK:  VPU time    0.13: CPU time    0.13
    SETDIJ:  VPU time    0.01: CPU time    0.01
    EDDAV :  VPU time   19.31: CPU time   19.30
    DOS   :  VPU time    0.00: CPU time   -0.00
    CHARGE:  VPU time    0.67: CPU time    0.68
    MIXING:  VPU time    0.00: CPU time    0.00
    ------------------------------------------
      LOOP:  VPU time   20.13: CPU time   20.13

 eigenvalue-minimisations  :  6560
 total energy-change (2. order) : 0.4240688E+00  (-0.5107944E-02)
 number of electron   96.0000001 magnetization 
 augmentation part    -1.1990564 magnetization 

 Broyden mixing:
  rms(total) = 0.33001E+00    rms(broyden)= 0.33001E+00
  rms(prec ) = 0.47943E+00
  weight for this iteration     100.00

 eigenvalues of (default mixing * dielectric matrix)
  average eigenvalue GAMMA=   2.6298
  2.6298

 Free energy of the ion-electron system (eV)
  ---------------------------------------------------
  alpha Z        PSCENC =        -6.53363553
  Ewald energy   TEWEN  =     -2354.85593599
  -1/2 Hartree   DENC   =        -2.69139462
  -V(xc)+E(xc)   XCENC  =      -838.36416645
  PAW double counting   =      1138.86318135     -116.39916417
  entropy T*S    EENTRO =        -0.00036817
  eigenvalues    EBANDS =       346.68299532
  atomic energy  EATOM  =      1713.22913220
  ---------------------------------------------------
  free energy    TOTEN  =      -120.06935605 eV

  energy without entropy =     -120.06898789  energy(sigma->0) =     -120.06917197


--------------------------------------------------------------------------------------------------------




----------------------------------------- Iteration    1(   7)  ---------------------------------------


    POTLOK:  VPU time    0.13: CPU time    0.13
    SETDIJ:  VPU time    0.01: CPU time    0.01
    EDDAV :  VPU time   18.82: CPU time   18.82
    DOS   :  VPU time    0.00: CPU time   -0.00
    CHARGE:  VPU time    0.68: CPU time    0.68
    MIXING:  VPU time    0.00: CPU time    0.00
    ------------------------------------------
      LOOP:  VPU time   19.65: CPU time   19.64

 eigenvalue-minimisations  :  6352
 total energy-change (2. order) : 0.3091580E+00  (-0.1532694E-01)
 number of electron   96.0000001 magnetization 
 augmentation part    -1.2317770 magnetization 

 Broyden mixing:
  rms(total) = 0.13555E-01    rms(broyden)= 0.13555E-01
  rms(prec ) = 0.16184E-01
  weight for this iteration     100.00

 eigenvalues of (default mixing * dielectric matrix)
  average eigenvalue GAMMA=   2.4901
  2.4901  2.4901

 Free energy of the ion-electron system (eV)
  ---------------------------------------------------
  alpha Z        PSCENC =        -6.53363553
  Ewald energy   TEWEN  =     -2354.85593599
  -1/2 Hartree   DENC   =        -3.25286788
  -V(xc)+E(xc)   XCENC  =      -836.05582428
  PAW double counting   =      1140.37260609     -118.13474514
  entropy T*S    EENTRO =        -0.00051951
  eigenvalues    EBANDS =       345.47159193
  atomic energy  EATOM  =      1713.22913220
  ---------------------------------------------------
  free energy    TOTEN  =      -119.76019810 eV

  energy without entropy =     -119.75967859  energy(sigma->0) =     -119.75993835


--------------------------------------------------------------------------------------------------------




----------------------------------------- Iteration    1(   8)  ---------------------------------------


    POTLOK:  VPU time    0.13: CPU time    0.13
    SETDIJ:  VPU time    0.01: CPU time    0.01
    EDDAV :  VPU time   19.70: CPU time   19.70
    DOS   :  VPU time   -0.00: CPU time   -0.00
    CHARGE:  VPU time    0.67: CPU time    0.67
    MIXING:  VPU time    0.00: CPU time    0.00
    ------------------------------------------
      LOOP:  VPU time   20.52: CPU time   20.52

 eigenvalue-minimisations  :  6800
 total energy-change (2. order) :-0.1121497E-03  (-0.1265928E-03)
 number of electron   96.0000001 magnetization 
 augmentation part    -1.2340356 magnetization 

 Broyden mixing:
  rms(total) = 0.46581E-02    rms(broyden)= 0.46580E-02
  rms(prec ) = 0.60845E-02
  weight for this iteration     100.00

 eigenvalues of (default mixing * dielectric matrix)
  average eigenvalue GAMMA=   2.0720
  0.9825  2.6731  2.5605

 Free energy of the ion-electron system (eV)
  ---------------------------------------------------
  alpha Z        PSCENC =        -6.53363553
  Ewald energy   TEWEN  =     -2354.85593599
  -1/2 Hartree   DENC   =        -3.29504315
  -V(xc)+E(xc)   XCENC  =      -836.01469540
  PAW double counting   =      1141.16347967     -118.97802006
  entropy T*S    EENTRO =        -0.00052736
  eigenvalues    EBANDS =       345.52493536
  atomic energy  EATOM  =      1713.22913220
  ---------------------------------------------------
  free energy    TOTEN  =      -119.76031025 eV

  energy without entropy =     -119.75978289  energy(sigma->0) =     -119.76004657


--------------------------------------------------------------------------------------------------------




----------------------------------------- Iteration    1(   9)  ---------------------------------------


    POTLOK:  VPU time    0.13: CPU time    0.13
    SETDIJ:  VPU time    0.01: CPU time    0.01
    EDDAV :  VPU time   19.55: CPU time   19.55
    DOS   :  VPU time    0.00: CPU time   -0.00
    CHARGE:  VPU time    0.69: CPU time    0.69
    MIXING:  VPU time    0.00: CPU time    0.00
    ------------------------------------------
      LOOP:  VPU time   20.39: CPU time   20.39

 eigenvalue-minimisations  :  6712
 total energy-change (2. order) :-0.2880928E-04  (-0.5319094E-05)
 number of electron   96.0000001 magnetization 
 augmentation part    -1.2348950 magnetization 

 Broyden mixing:
  rms(total) = 0.41354E-03    rms(broyden)= 0.41353E-03
  rms(prec ) = 0.65838E-03
  weight for this iteration     100.00

 eigenvalues of (default mixing * dielectric matrix)
  average eigenvalue GAMMA=   1.8767
  2.6973  2.5474  0.9294  1.3326

 Free energy of the ion-electron system (eV)
  ---------------------------------------------------
  alpha Z        PSCENC =        -6.53363553
  Ewald energy   TEWEN  =     -2354.85593599
  -1/2 Hartree   DENC   =        -3.32815601
  -V(xc)+E(xc)   XCENC  =      -835.97368721
  PAW double counting   =      1141.48239678     -119.32311291
  entropy T*S    EENTRO =        -0.00053728
  eigenvalues    EBANDS =       345.54319689
  atomic energy  EATOM  =      1713.22913220
  ---------------------------------------------------
  free energy    TOTEN  =      -119.76033906 eV

  energy without entropy =     -119.75980178  energy(sigma->0) =     -119.76007042


--------------------------------------------------------------------------------------------------------




----------------------------------------- Iteration    1(  10)  ---------------------------------------


    POTLOK:  VPU time    0.13: CPU time    0.13
    SETDIJ:  VPU time    0.01: CPU time    0.01
    EDDAV :  VPU time   19.67: CPU time   19.67
    DOS   :  VPU time    0.00: CPU time   -0.00
    CHARGE:  VPU time    0.67: CPU time    0.67
    MIXING:  VPU time    0.00: CPU time    0.00
    ------------------------------------------
      LOOP:  VPU time   20.49: CPU time   20.49

 eigenvalue-minimisations  :  6752
 total energy-change (2. order) :-0.1633997E-05  (-0.3561777E-06)
 number of electron   96.0000001 magnetization 
 augmentation part    -1.2350258 magnetization 

 Broyden mixing:
  rms(total) = 0.20216E-03    rms(broyden)= 0.20216E-03
  rms(prec ) = 0.27445E-03
  weight for this iteration     100.00

 eigenvalues of (default mixing * dielectric matrix)
  average eigenvalue GAMMA=   1.8681
  2.6315  2.6315  2.2501  1.0269  0.8005

 Free energy of the ion-electron system (eV)
  ---------------------------------------------------
  alpha Z        PSCENC =        -6.53363553
  Ewald energy   TEWEN  =     -2354.85593599
  -1/2 Hartree   DENC   =        -3.33069221
  -V(xc)+E(xc)   XCENC  =      -835.97053042
  PAW double counting   =      1141.45619112     -119.29719950
  entropy T*S    EENTRO =        -0.00053780
  eigenvalues    EBANDS =       345.54286742
  atomic energy  EATOM  =      1713.22913220
  ---------------------------------------------------
  free energy    TOTEN  =      -119.76034069 eV

  energy without entropy =     -119.75980289  energy(sigma->0) =     -119.76007179


--------------------------------------------------------------------------------------------------------




----------------------------------------- Iteration    1(  11)  ---------------------------------------


    POTLOK:  VPU time    0.13: CPU time    0.13
    SETDIJ:  VPU time    0.01: CPU time    0.01
    EDDAV :  VPU time   19.56: CPU time   19.56
    DOS   :  VPU time    0.00: CPU time   -0.00
    CHARGE:  VPU time    0.67: CPU time    0.67
    MIXING:  VPU time    0.00: CPU time    0.00
    ------------------------------------------
      LOOP:  VPU time   20.37: CPU time   20.37

 eigenvalue-minimisations  :  6760
 total energy-change (2. order) : 0.2914263E-05  (-0.2523193E-07)
 number of electron   96.0000001 magnetization 
 augmentation part    -1.2350496 magnetization 

 Broyden mixing:
  rms(total) = 0.77472E-04    rms(broyden)= 0.77472E-04
  rms(prec ) = 0.97926E-04
  weight for this iteration     100.00

 eigenvalues of (default mixing * dielectric matrix)
  average eigenvalue GAMMA=   1.8174
  2.6966  2.6966  2.5053  1.0003  1.2199  0.7858

 Free energy of the ion-electron system (eV)
  ---------------------------------------------------
  alpha Z        PSCENC =        -6.53363553
  Ewald energy   TEWEN  =     -2354.85593599
  -1/2 Hartree   DENC   =        -3.33060703
  -V(xc)+E(xc)   XCENC  =      -835.97108221
  PAW double counting   =      1141.40646810     -119.24607057
  entropy T*S    EENTRO =        -0.00053794
  eigenvalues    EBANDS =       345.54193119
  atomic energy  EATOM  =      1713.22913220
  ---------------------------------------------------
  free energy    TOTEN  =      -119.76033778 eV

  energy without entropy =     -119.75979984  energy(sigma->0) =     -119.76006881


--------------------------------------------------------------------------------------------------------




----------------------------------------- Iteration    1(  12)  ---------------------------------------


    POTLOK:  VPU time    0.13: CPU time    0.13
    SETDIJ:  VPU time    0.01: CPU time    0.01
    EDDAV :  VPU time   15.45: CPU time   15.45
    DOS   :  VPU time    0.00: CPU time   -0.00
    CHARGE:  VPU time    0.69: CPU time    0.69
    MIXING:  VPU time    0.00: CPU time    0.00
    ------------------------------------------
      LOOP:  VPU time   16.28: CPU time   16.28

 eigenvalue-minimisations  :  4776
 total energy-change (2. order) : 0.1064453E-05  (-0.2423950E-08)
 number of electron   96.0000001 magnetization 
 augmentation part    -1.2350579 magnetization 

 Broyden mixing:
  rms(total) = 0.14462E-04    rms(broyden)= 0.14462E-04
  rms(prec ) = 0.22303E-04
  weight for this iteration     100.00

 eigenvalues of (default mixing * dielectric matrix)
  average eigenvalue GAMMA=   1.7457
  2.6773  2.6773  2.4828  1.5165  1.0166  1.0699  0.7797

 Free energy of the ion-electron system (eV)
  ---------------------------------------------------
  alpha Z        PSCENC =        -6.53363553
  Ewald energy   TEWEN  =     -2354.85593599
  -1/2 Hartree   DENC   =        -3.33089967
  -V(xc)+E(xc)   XCENC  =      -835.97080803
  PAW double counting   =      1141.38701276     -119.22616855
  entropy T*S    EENTRO =        -0.00053801
  eigenvalues    EBANDS =       345.54150411
  atomic energy  EATOM  =      1713.22913220
  ---------------------------------------------------
  free energy    TOTEN  =      -119.76033671 eV

  energy without entropy =     -119.75979870  energy(sigma->0) =     -119.76006771


--------------------------------------------------------------------------------------------------------




----------------------------------------- Iteration    1(  13)  ---------------------------------------


    POTLOK:  VPU time    0.13: CPU time    0.13
    SETDIJ:  VPU time    0.01: CPU time    0.01
    EDDAV :  VPU time   13.17: CPU time   13.17
    DOS   :  VPU time    0.00: CPU time   -0.00
    CHARGE:  VPU time    0.68: CPU time    0.68
    MIXING:  VPU time    0.00: CPU time    0.00
    ------------------------------------------
      LOOP:  VPU time   14.00: CPU time   14.00

 eigenvalue-minimisations  :  3728
 total energy-change (2. order) : 0.2052971E-06  (-0.2954872E-09)
 number of electron   96.0000001 magnetization 
 augmentation part    -1.2350579 magnetization 

 Broyden mixing:
  rms(total) = 0.33613E-05    rms(broyden)= 0.33613E-05
  rms(prec ) = 0.49981E-05
  weight for this iteration     100.00

 eigenvalues of (default mixing * dielectric matrix)
  average eigenvalue GAMMA=   1.7058
  2.7049  2.7049  2.5033  1.6268  1.3324  1.0567  0.9377  0.7795

 Free energy of the ion-electron system (eV)
  ---------------------------------------------------
  alpha Z        PSCENC =        -6.53363553
  Ewald energy   TEWEN  =     -2354.85593599
  -1/2 Hartree   DENC   =        -3.33087322
  -V(xc)+E(xc)   XCENC  =      -835.97088711
  PAW double counting   =      1141.38418659     -119.22325840
  entropy T*S    EENTRO =        -0.00053800
  eigenvalues    EBANDS =       345.54147294
  atomic energy  EATOM  =      1713.22913220
  ---------------------------------------------------
  free energy    TOTEN  =      -119.76033651 eV

  energy without entropy =     -119.75979850  energy(sigma->0) =     -119.76006751


--------------------------------------------------------------------------------------------------------




----------------------------------------- Iteration    1(  14)  ---------------------------------------


    POTLOK:  VPU time    0.13: CPU time    0.13
    SETDIJ:  VPU time    0.01: CPU time    0.01
    EDDAV :  VPU time   13.00: CPU time   13.00
    DOS   :  VPU time    0.00: CPU time   -0.00
    ------------------------------------------
      LOOP:  VPU time   13.14: CPU time   13.14

 eigenvalue-minimisations  :  3648
 total energy-change (2. order) : 0.8571988E-08  (-0.4784684E-10)
 number of electron   96.0000001 magnetization 
 augmentation part    -1.2350579 magnetization 

 Free energy of the ion-electron system (eV)
  ---------------------------------------------------
  alpha Z        PSCENC =        -6.53363553
  Ewald energy   TEWEN  =     -2354.85593599
  -1/2 Hartree   DENC   =        -3.33088822
  -V(xc)+E(xc)   XCENC  =      -835.97087550
  PAW double counting   =      1141.38402529     -119.22309912
  entropy T*S    EENTRO =        -0.00053801
  eigenvalues    EBANDS =       345.54147838
  atomic energy  EATOM  =      1713.22913220
  ---------------------------------------------------
  free energy    TOTEN  =      -119.76033650 eV

  energy without entropy =     -119.75979849  energy(sigma->0) =     -119.76006750


--------------------------------------------------------------------------------------------------------




 average (electrostatic) potential at core
  the test charge radii are     1.0406
  (the norm of the test charge is              1.0000)
       1 -72.5968       2 -72.5967       3 -72.5968       4 -72.5967       5 -72.5968
       6 -72.5967       7 -72.5968       8 -72.5968       9 -72.5967      10 -72.5968
      11 -72.5967      12 -72.5968      13 -72.5967      14 -72.5968      15 -72.5967
      16 -72.5968      17 -72.5975      18 -72.5960      19 -72.5968      20 -72.5967
      21 -72.5975      22 -72.5960      23 -72.5968      24 -72.5967      25 -72.5975
      26 -72.5960      27 -72.5975      28 -72.5960      29 -72.5968      30 -72.5967
      31 -72.5968      32 -72.5967
 
 
 
 E-fermi :   8.0021     XC(G=0): -10.2079     alpha+bet :-14.9211
   add alpha+bet to get absolut eigen values

 k-point   1 :       0.0000    0.0000    0.0000
  band No.  band energies     occupation 
      1      -3.1240      2.00000
      2      -0.8751      2.00000
      3      -0.8714      2.00000
      4      -0.8714      2.00000
      5      -0.8714      2.00000
      6      -0.8714      2.00000
      7      -0.8677      2.00000
      8       1.3397      2.00000
      9       1.3441      2.00000
     10       1.3441      2.00000
     11       1.3457      2.00000
     12       1.3459      2.00000
     13       1.3459      2.00000
     14       1.3459      2.00000
     15       1.3459      2.00000
     16       1.3461      2.00000
     17       1.3478      2.00000
     18       1.3478      2.00000
     19       1.3522      2.00000
     20       3.4263      2.00000
     21       3.4264      2.00000
     22       3.4264      2.00000
     23       3.4264      2.00000
     24       3.6471      2.00000
     25       3.6471      2.00000
     26       3.6471      2.00000
     27       3.6471      2.00000
     28       5.0999      2.00000
     29       5.0999      2.00000
     30       5.1000      2.00000
     31       6.4300      2.00000
     32       6.4300      2.00000
     33       6.4300      2.00000
     34       7.1767      2.00000
     35       7.1767      2.00000
     36       7.1811      2.00000
     37       7.1811      2.00000
     38       7.1812      2.00000
     39       7.1812      2.00000
     40       7.1812      2.00000
     41       7.1812      2.00000
     42       7.1813      2.00000
     43       7.1813      2.00000
     44       7.1856      2.00000
     45       7.1856      2.00000
     46       8.1920      0.00000
     47       8.1961      0.00000
     48       8.1961      0.00000
     49       8.1961      0.00000
     50       8.1961      0.00000
     51       8.2002      0.00000
     52       9.1533      0.00000
     53       9.1543      0.00000
     54       9.1543      0.00000
     55       9.1543      0.00000
     56       9.1543      0.00000
     57       9.1554      0.00000
     58       9.2648      0.00000
     59       9.2648      0.00000
     60       9.2664      0.00000
     61       9.2687      0.00000
     62       9.2689      0.00000
     63       9.2689      0.00000
     64       9.2689      0.00000
     65       9.2689      0.00000
     66       9.2690      0.00000
     67       9.2713      0.00000
     68       9.2730      0.00000
     69       9.2730      0.00000
     70      10.7912      0.00000
     71      10.7933      0.00000
     72      10.7940      0.00000

 k-point   2 :       0.1667    0.0000    0.0000
  band No.  band energies     occupation 
      1      -3.0610      2.00000
      2      -1.5558      2.00000
      3      -0.8094      2.00000
      4      -0.8094      2.00000
      5      -0.8094      2.00000
      6      -0.8094      2.00000
      7      -0.0672      2.00000
      8       0.6722      2.00000
      9       0.6722      2.00000
     10       0.6722      2.00000
     11       0.6722      2.00000
     12       1.4070      2.00000
     13       1.4070      2.00000
     14       1.4070      2.00000
     15       1.4070      2.00000
     16       2.1376      2.00000
     17       2.1376      2.00000
     18       2.1376      2.00000
     19       2.1376      2.00000
     20       2.8628      2.00000
     21       2.8628      2.00000
     22       2.8628      2.00000
     23       2.8628      2.00000
     24       4.2315      2.00000
     25       4.3275      2.00000
     26       4.3275      2.00000
     27       4.3275      2.00000
     28       4.3275      2.00000
     29       5.1576      2.00000
     30       5.1576      2.00000
     31       6.3464      2.00000
     32       6.3464      2.00000
     33       6.3464      2.00000
     34       6.3464      2.00000
     35       6.4910      2.00000
     36       6.4910      2.00000
     37       6.5444      2.00000
     38       6.5444      2.00000
     39       7.2391      2.00000
     40       7.2391      2.00000
     41       7.2391      2.00000
     42       7.2391      2.00000
     43       7.4076      2.00000
     44       7.8649      2.00000
     45       7.8649      2.00000
     46       7.9346      2.00000
     47       7.9346      2.00000
     48       8.4822      0.00000
     49       8.4822      0.00000
     50       8.4822      0.00000
     51       8.4823      0.00000
     52       8.5891      0.00000
     53       8.5891      0.00000
     54       8.5891      0.00000
     55       8.5892      0.00000
     56       8.6304      0.00000
     57       8.6304      0.00000
     58       8.6305      0.00000
     59       8.6305      0.00000
     60       9.5936      0.00000
     61       9.5936      0.00000
     62       9.7632      0.00000
     63       9.7632      0.00000
     64       9.7632      0.00000
     65       9.7632      0.00000
     66      10.0238      0.00000
     67      10.0238      0.00000
     68      10.0238      0.00000
     69      10.0238      0.00000
     70      10.1495      0.00000
     71      10.1495      0.00000
     72      10.1495      0.00000

 k-point   3 :       0.3333    0.0000    0.0000
  band No.  band energies     occupation 
      1      -2.8720      2.00000
      2      -2.1183      2.00000
      3      -0.6234      2.00000
      4      -0.6233      2.00000
      5      -0.6233      2.00000
      6      -0.6233      2.00000
      7       0.1184      2.00000
      8       0.1184      2.00000
      9       0.1184      2.00000
     10       0.1184      2.00000
     11       0.8541      2.00000
     12       1.5902      2.00000
     13       1.5903      2.00000
     14       1.5903      2.00000
     15       1.5903      2.00000
     16       2.3202      2.00000
     17       2.3203      2.00000
     18       2.3203      2.00000
     19       2.3203      2.00000
     20       3.0257      2.00000
     21       3.0440      2.00000
     22       3.0440      2.00000
     23       3.0440      2.00000
     24       3.0441      2.00000
     25       5.1744      2.00000
     26       5.1744      2.00000
     27       5.1744      2.00000
     28       5.1744      2.00000
     29       5.2198      2.00000
     30       5.2198      2.00000
     31       5.2198      2.00000
     32       5.2198      2.00000
     33       5.3308      2.00000
     34       5.3308      2.00000
     35       6.0239      2.00000
     36       6.0239      2.00000
     37       6.6728      2.00000
     38       6.6728      2.00000
     39       7.3265      2.00000
     40       7.3265      2.00000
     41       7.3265      2.00000
     42       7.3265      2.00000
     43       7.3805      2.00000
     44       7.3806      2.00000
     45       7.4129      2.00000
     46       7.4129      2.00000
     47       7.4129      2.00000
     48       7.4129      2.00000
     49       8.1084      0.00000
     50       8.1084      0.00000
     51       8.1084      0.00000
     52       8.1084      0.00000
     53       8.8048      0.00000
     54       8.8048      0.00000
     55       8.8673      0.00000
     56       8.8673      0.00000
     57       8.8673      0.00000
     58       8.8673      0.00000
     59       8.9407      0.00000
     60       9.6141      0.00000
     61       9.6141      0.00000
     62       9.6141      0.00000
     63       9.6141      0.00000
     64      10.3984      0.00000
     65      10.3984      0.00000
     66      10.8941      0.00000
     67      10.8941      0.00000
     68      10.8952      0.00000
     69      10.8952      0.00000
     70      10.8968      0.00000
     71      10.8968      0.00000
     72      11.1568      0.00000

 k-point   4 :       0.5000    0.0000    0.0000
  band No.  band energies     occupation 
      1      -2.5589      2.00000
      2      -2.5560      2.00000
      3      -0.3178      2.00000
      4      -0.3147      2.00000
      5      -0.3147      2.00000
      6      -0.3138      2.00000
      7      -0.3138      2.00000
      8      -0.3130      2.00000
      9      -0.3130      2.00000
     10      -0.3099      2.00000
     11       1.8860      2.00000
     12       1.8883      2.00000
     13       1.8934      2.00000
     14       1.8938      2.00000
     15       1.8938      2.00000
     16       1.8946      2.00000
     17       1.8955      2.00000
     18       1.8963      2.00000
     19       1.8963      2.00000
     20       1.8987      2.00000
     21       4.0593      2.00000
     22       4.0593      2.00000
     23       4.0593      2.00000
     24       4.0600      2.00000
     25       4.0603      2.00000
     26       4.0609      2.00000
     27       4.0610      2.00000
     28       4.0610      2.00000
     29       5.6179      2.00000
     30       5.6179      2.00000
     31       5.6210      2.00000
     32       5.6210      2.00000
     33       6.2230      2.00000
     34       6.2230      2.00000
     35       6.2235      2.00000
     36       6.2238      2.00000
     37       6.2242      2.00000
     38       6.2246      2.00000
     39       6.2251      2.00000
     40       6.2251      2.00000
     41       6.9704      2.00000
     42       6.9714      2.00000
     43       6.9732      2.00000
     44       6.9742      2.00000
     45       7.7003      2.00000
     46       7.7003      2.00000
     47       7.7012      2.00000
     48       7.7026      2.00000
     49       7.7027      2.00000
     50       7.7041      2.00000
     51       7.7049      2.00000
     52       7.7049      2.00000
     53       9.1869      0.00000
     54       9.1879      0.00000
     55       9.1879      0.00000
     56       9.1880      0.00000
     57       9.1901      0.00000
     58       9.1903      0.00000
     59       9.1903      0.00000
     60       9.1913      0.00000
     61       9.7908      0.00000
     62       9.7908      0.00000
     63       9.7931      0.00000
     64       9.7931      0.00000
     65      10.6223      0.00000
     66      10.6237      0.00000
     67      11.3243      0.00000
     68      11.3248      0.00000
     69      11.3261      0.00000
     70      11.3266      0.00000
     71      11.8821      0.00000
     72      11.8836      0.00000

 k-point   5 :       0.0000    0.1667    0.0000
  band No.  band energies     occupation 
      1      -3.0610      2.00000
      2      -1.5558      2.00000
      3      -0.8122      2.00000
      4      -0.8094      2.00000
      5      -0.8093      2.00000
      6      -0.8065      2.00000
      7      -0.0672      2.00000
      8       0.6693      2.00000
      9       0.6722      2.00000
     10       0.6722      2.00000
     11       0.6750      2.00000
     12       1.4049      2.00000
     13       1.4059      2.00000
     14       1.4082      2.00000
     15       1.4092      2.00000
     16       2.1347      2.00000
     17       2.1376      2.00000
     18       2.1376      2.00000
     19       2.1405      2.00000
     20       2.8607      2.00000
     21       2.8617      2.00000
     22       2.8640      2.00000
     23       2.8650      2.00000
     24       4.2315      2.00000
     25       4.3253      2.00000
     26       4.3263      2.00000
     27       4.3287      2.00000
     28       4.3297      2.00000
     29       5.1576      2.00000
     30       5.1577      2.00000
     31       6.3433      2.00000
     32       6.3464      2.00000
     33       6.3464      2.00000
     34       6.3495      2.00000
     35       6.4909      2.00000
     36       6.4910      2.00000
     37       6.5444      2.00000
     38       6.5444      2.00000
     39       7.2363      2.00000
     40       7.2391      2.00000
     41       7.2391      2.00000
     42       7.2418      2.00000
     43       7.4076      2.00000
     44       7.8649      2.00000
     45       7.8649      2.00000
     46       7.9346      2.00000
     47       7.9346      2.00000
     48       8.4797      0.00000
     49       8.4811      0.00000
     50       8.4834      0.00000
     51       8.4848      0.00000
     52       8.5866      0.00000
     53       8.5891      0.00000
     54       8.5891      0.00000
     55       8.5916      0.00000
     56       8.6277      0.00000
     57       8.6305      0.00000
     58       8.6305      0.00000
     59       8.6332      0.00000
     60       9.5936      0.00000
     61       9.5936      0.00000
     62       9.7614      0.00000
     63       9.7632      0.00000
     64       9.7632      0.00000
     65       9.7650      0.00000
     66      10.0210      0.00000
     67      10.0238      0.00000
     68      10.0238      0.00000
     69      10.0266      0.00000
     70      10.1480      0.00000
     71      10.1495      0.00000
     72      10.1512      0.00000

 k-point   6 :       0.1667    0.1667    0.0000
  band No.  band energies     occupation 
      1      -2.9979      2.00000
      2      -1.4946      2.00000
      3      -1.4923      2.00000
      4      -0.7473      2.00000
      5      -0.7473      2.00000
      6      -0.0071      2.00000
      7      -0.0052      2.00000
      8      -0.0035      2.00000
      9       0.7319      2.00000
     10       0.7329      2.00000
     11       0.7343      2.00000
     12       0.7352      2.00000
     13       1.4671      2.00000
     14       1.4682      2.00000
     15       2.1961      2.00000
     16       2.1973      2.00000
     17       2.1986      2.00000
     18       2.1987      2.00000
     19       2.1999      2.00000
     20       2.2010      2.00000
     21       2.9246      2.00000
     22       3.5430      2.00000
     23       3.5430      2.00000
     24       3.7703      2.00000
     25       3.7703      2.00000
     26       4.2904      2.00000
     27       4.2913      2.00000
     28       5.1019      2.00000
     29       5.1019      2.00000
     30       5.2154      2.00000
     31       5.7047      2.00000
     32       5.7071      2.00000
     33       6.3029      2.00000
     34       6.3029      2.00000
     35       6.5287      2.00000
     36       6.5287      2.00000
     37       6.5516      2.00000
     38       6.6009      2.00000
     39       6.6036      2.00000
     40       7.0757      2.00000
     41       7.0776      2.00000
     42       7.4662      2.00000
     43       7.4671      2.00000
     44       7.8363      2.00000
     45       7.8373      2.00000
     46       7.8387      2.00000
     47       7.8397      2.00000
     48       7.9903      1.90438
     49       7.9925      1.82344
     50       7.9947      1.69949
     51       8.0539      0.00000
     52       8.0555      0.00000
     53       8.7271      0.00000
     54       8.7295      0.00000
     55       9.2403      0.00000
     56       9.2413      0.00000
     57       9.2416      0.00000
     58       9.2426      0.00000
     59       9.3098      0.00000
     60       9.3099      0.00000
     61       9.3842      0.00000
     62       9.3861      0.00000
     63       9.5021      0.00000
     64       9.7358      0.00000
     65       9.7365      0.00000
     66      10.0213      0.00000
     67      10.0213      0.00000
     68      10.4265      0.00000
     69      10.4286      0.00000
     70      10.7788      0.00000
     71      10.9017      0.00000
     72      10.9019      0.00000

 k-point   7 :       0.3333    0.1667    0.0000
  band No.  band energies     occupation 
      1      -2.8090      2.00000
      2      -2.0557      2.00000
      3      -1.3065      2.00000
      4      -0.5627      2.00000
      5      -0.5614      2.00000
      6      -0.5599      2.00000
      7       0.1783      2.00000
      8       0.1800      2.00000
      9       0.1812      2.00000
     10       0.9142      2.00000
     11       0.9171      2.00000
     12       0.9177      2.00000
     13       0.9188      2.00000
     14       1.6516      2.00000
     15       1.6516      2.00000
     16       2.3785      2.00000
     17       2.3804      2.00000
     18       2.3806      2.00000
     19       3.0858      2.00000
     20       3.1021      2.00000
     21       3.1026      2.00000
     22       3.1047      2.00000
     23       3.1054      2.00000
     24       3.8253      2.00000
     25       4.4685      2.00000
     26       4.5225      2.00000
     27       4.5660      2.00000
     28       4.5660      2.00000
     29       5.1772      2.00000
     30       5.2296      2.00000
     31       5.2297      2.00000
     32       5.3885      2.00000
     33       5.9355      2.00000
     34       5.9929      2.00000
     35       5.9929      2.00000
     36       6.0817      2.00000
     37       6.6087      2.00000
     38       6.6087      2.00000
     39       6.6772      2.00000
     40       6.6772      2.00000
     41       6.7318      2.00000
     42       6.7759      2.00000
     43       7.3099      2.00000
     44       7.3099      2.00000
     45       7.3873      2.00000
     46       7.4708      2.00000
     47       7.6429      2.00000
     48       8.0911      0.00000
     49       8.0911      0.00000
     50       8.0989      0.00000
     51       8.1665      0.00000
     52       8.2412      0.00000
     53       8.3219      0.00000
     54       8.8612      0.00000
     55       8.8644      0.00000
     56       8.9657      0.00000
     57       8.9978      0.00000
     58       9.5391      0.00000
     59       9.7635      0.00000
     60       9.7635      0.00000
     61      10.1087      0.00000
     62      10.1137      0.00000
     63      10.1139      0.00000
     64      10.2565      0.00000
     65      10.3666      0.00000
     66      10.4710      0.00000
     67      10.5181      0.00000
     68      10.5181      0.00000
     69      10.6101      0.00000
     70      10.9540      0.00000
     71      11.2340      0.00000
     72      11.2364      0.00000

 k-point   8 :       0.5000    0.1667    0.0000
  band No.  band energies     occupation 
      1      -2.4960      2.00000
      2      -2.4932      2.00000
      3      -0.9969      2.00000
      4      -0.9941      2.00000
      5      -0.2540      2.00000
      6      -0.2528      2.00000
      7      -0.2512      2.00000
      8      -0.2500      2.00000
      9       0.4858      2.00000
     10       0.4887      2.00000
     11       1.2219      2.00000
     12       1.2231      2.00000
     13       1.2248      2.00000
     14       1.2259      2.00000
     15       1.9483      2.00000
     16       1.9496      2.00000
     17       2.6809      2.00000
     18       2.6821      2.00000
     19       2.6838      2.00000
     20       2.6849      2.00000
     21       3.3998      2.00000
     22       3.4012      2.00000
     23       4.1184      2.00000
     24       4.1188      2.00000
     25       4.1197      2.00000
     26       4.1201      2.00000
     27       4.7628      2.00000
     28       4.7657      2.00000
     29       4.8330      2.00000
     30       4.8343      2.00000
     31       5.5702      2.00000
     32       5.5704      2.00000
     33       5.5717      2.00000
     34       5.5718      2.00000
     35       5.6757      2.00000
     36       5.6788      2.00000
     37       6.8971      2.00000
     38       6.8983      2.00000
     39       6.9001      2.00000
     40       6.9013      2.00000
     41       6.9925      2.00000
     42       6.9927      2.00000
     43       6.9939      2.00000
     44       6.9941      2.00000
     45       7.0242      2.00000
     46       7.0270      2.00000
     47       7.0638      2.00000
     48       7.0669      2.00000
     49       7.9310      2.00000
     50       7.9338      2.00000
     51       8.4550      0.00000
     52       8.4581      0.00000
     53       8.5432      0.00000
     54       8.5459      0.00000
     55       9.0283      0.00000
     56       9.0301      0.00000
     57       9.8490      0.00000
     58       9.8513      0.00000
     59       9.9295      0.00000
     60       9.9325      0.00000
     61      10.0944      0.00000
     62      10.0951      0.00000
     63      10.0974      0.00000
     64      10.0981      0.00000
     65      10.6764      0.00000
     66      10.6777      0.00000
     67      11.0945      0.00000
     68      11.0946      0.00000
     69      11.0963      0.00000
     70      11.0965      0.00000
     71      11.2435      0.00000
     72      11.2459      0.00000

 k-point   9 :       0.0000    0.3333    0.0000
  band No.  band energies     occupation 
      1      -2.8719      2.00000
      2      -2.1183      2.00000
      3      -0.6262      2.00000
      4      -0.6233      2.00000
      5      -0.6233      2.00000
      6      -0.6205      2.00000
      7       0.1155      2.00000
      8       0.1184      2.00000
      9       0.1184      2.00000
     10       0.1213      2.00000
     11       0.8541      2.00000
     12       1.5881      2.00000
     13       1.5891      2.00000
     14       1.5914      2.00000
     15       1.5924      2.00000
     16       2.3181      2.00000
     17       2.3191      2.00000
     18       2.3214      2.00000
     19       2.3224      2.00000
     20       3.0257      2.00000
     21       3.0411      2.00000
     22       3.0440      2.00000
     23       3.0440      2.00000
     24       3.0469      2.00000
     25       5.1714      2.00000
     26       5.1744      2.00000
     27       5.1745      2.00000
     28       5.1774      2.00000
     29       5.2176      2.00000
     30       5.2186      2.00000
     31       5.2210      2.00000
     32       5.2220      2.00000
     33       5.3308      2.00000
     34       5.3308      2.00000
     35       6.0239      2.00000
     36       6.0239      2.00000
     37       6.6728      2.00000
     38       6.6728      2.00000
     39       7.3242      2.00000
     40       7.3254      2.00000
     41       7.3277      2.00000
     42       7.3289      2.00000
     43       7.3805      2.00000
     44       7.3805      2.00000
     45       7.4101      2.00000
     46       7.4129      2.00000
     47       7.4130      2.00000
     48       7.4156      2.00000
     49       8.1057      0.00000
     50       8.1084      0.00000
     51       8.1084      0.00000
     52       8.1112      0.00000
     53       8.8047      0.00000
     54       8.8048      0.00000
     55       8.8650      0.00000
     56       8.8673      0.00000
     57       8.8673      0.00000
     58       8.8696      0.00000
     59       8.9407      0.00000
     60       9.6119      0.00000
     61       9.6141      0.00000
     62       9.6141      0.00000
     63       9.6164      0.00000
     64      10.3984      0.00000
     65      10.3984      0.00000
     66      10.8923      0.00000
     67      10.8952      0.00000
     68      10.8952      0.00000
     69      10.8957      0.00000
     70      10.8957      0.00000
     71      10.8981      0.00000
     72      11.1553      0.00000

 k-point  10 :       0.1667    0.3333    0.0000
  band No.  band energies     occupation 
      1      -2.8090      2.00000
      2      -2.0557      2.00000
      3      -1.3065      2.00000
      4      -0.5627      2.00000
      5      -0.5614      2.00000
      6      -0.5599      2.00000
      7       0.1783      2.00000
      8       0.1800      2.00000
      9       0.1812      2.00000
     10       0.9144      2.00000
     11       0.9165      2.00000
     12       0.9177      2.00000
     13       0.9192      2.00000
     14       1.6516      2.00000
     15       1.6516      2.00000
     16       2.3779      2.00000
     17       2.3804      2.00000
     18       2.3812      2.00000
     19       3.0858      2.00000
     20       3.1027      2.00000
     21       3.1030      2.00000
     22       3.1043      2.00000
     23       3.1047      2.00000
     24       3.8253      2.00000
     25       4.4685      2.00000
     26       4.5225      2.00000
     27       4.5660      2.00000
     28       4.5660      2.00000
     29       5.1772      2.00000
     30       5.2297      2.00000
     31       5.2297      2.00000
     32       5.3885      2.00000
     33       5.9355      2.00000
     34       5.9929      2.00000
     35       5.9929      2.00000
     36       6.0817      2.00000
     37       6.6087      2.00000
     38       6.6087      2.00000
     39       6.6772      2.00000
     40       6.6772      2.00000
     41       6.7318      2.00000
     42       6.7758      2.00000
     43       7.3099      2.00000
     44       7.3099      2.00000
     45       7.3873      2.00000
     46       7.4708      2.00000
     47       7.6429      2.00000
     48       8.0911      0.00000
     49       8.0912      0.00000
     50       8.0989      0.00000
     51       8.1665      0.00000
     52       8.2412      0.00000
     53       8.3219      0.00000
     54       8.8620      0.00000
     55       8.8636      0.00000
     56       8.9657      0.00000
     57       8.9978      0.00000
     58       9.5391      0.00000
     59       9.7635      0.00000
     60       9.7635      0.00000
     61      10.1089      0.00000
     62      10.1137      0.00000
     63      10.1137      0.00000
     64      10.2565      0.00000
     65      10.3666      0.00000
     66      10.4710      0.00000
     67      10.5181      0.00000
     68      10.5181      0.00000
     69      10.6101      0.00000
     70      10.9540      0.00000
     71      11.2340      0.00000
     72      11.2479      0.00000

 k-point  11 :       0.3333    0.3333    0.0000
  band No.  band energies     occupation 
      1      -2.6203      2.00000
[...]
      6      -0.4374      2.00000
      7      -0.4374      2.00000
      8      -0.4374      2.00000
      9       1.0396      2.00000
     10       1.0396      2.00000
     11       1.0396      2.00000
     12       1.0396      2.00000
     13       2.4951      2.00000
     14       2.4951      2.00000
     15       2.4951      2.00000
     16       2.4951      2.00000
     17       2.4951      2.00000
     18       2.4951      2.00000
     19       2.4951      2.00000
     20       2.4951      2.00000
     21       3.9355      2.00000
     22       3.9355      2.00000
     23       3.9357      2.00000
     24       3.9357      2.00000
     25       3.9357      2.00000
     26       3.9358      2.00000
     27       3.9359      2.00000
     28       3.9359      2.00000
     29       5.2904      2.00000
     30       5.2904      2.00000
     31       5.2904      2.00000
     32       5.2904      2.00000
     33       5.3959      2.00000
     34       5.3959      2.00000
     35       5.3963      2.00000
     36       5.3963      2.00000
     37       5.3963      2.00000
     38       5.3964      2.00000
     39       5.3967      2.00000
     40       5.3967      2.00000
     41       6.7863      2.00000
     42       6.7863      2.00000
     43       6.7863      2.00000
     44       6.7863      2.00000
     45       8.2197      0.00000
     46       8.2197      0.00000
     47       8.2197      0.00000
     48       8.2197      0.00000
     49       8.5350      0.00000
     50       8.5350      0.00000
     51       8.5350      0.00000
     52       8.5350      0.00000
     53       9.5104      0.00000
     54       9.5104      0.00000
     55       9.5108      0.00000
     56       9.5109      0.00000
     57       9.5109      0.00000
     58       9.5109      0.00000
     59       9.5113      0.00000
     60       9.5113      0.00000
     61       9.6265      0.00000
     62       9.6265      0.00000
     63       9.6265      0.00000
     64       9.6265      0.00000
     65      11.2011      0.00000
     66      11.2011      0.00000
     67      11.2019      0.00000
     68      11.2019      0.00000
     69      11.2019      0.00000
     70      11.2019      0.00000
     71      11.2028      0.00000
     72      11.2028      0.00000

 k-point  39 :       0.3333    0.5000    0.5000
  band No.  band energies     occupation 
      1      -1.7431      2.00000
      2      -1.7431      2.00000
      3      -1.7431      2.00000
      4      -1.7431      2.00000
      5      -0.9955      2.00000
      6      -0.9955      2.00000
      7      -0.9955      2.00000
      8      -0.9955      2.00000
      9       1.9535      2.00000
     10       1.9535      2.00000
     11       1.9535      2.00000
     12       1.9535      2.00000
     13       2.6766      2.00000
     14       2.6766      2.00000
     15       2.6766      2.00000
     16       2.6766      2.00000
     17       2.6766      2.00000
     18       2.6766      2.00000
     19       2.6766      2.00000
     20       2.6766      2.00000
     21       3.3995      2.00000
     22       3.3995      2.00000
     23       3.3996      2.00000
     24       3.3996      2.00000
     25       3.3996      2.00000
     26       3.3996      2.00000
     27       3.3997      2.00000
     28       3.3997      2.00000
     29       4.1041      2.00000
     30       4.1041      2.00000
     31       4.1041      2.00000
     32       4.1041      2.00000
     33       6.2789      2.00000
     34       6.2789      2.00000
     35       6.2792      2.00000
     36       6.2792      2.00000
     37       6.2792      2.00000
     38       6.2792      2.00000
     39       6.2795      2.00000
     40       6.2795      2.00000
     41       6.9754      2.00000
     42       6.9754      2.00000
     43       6.9754      2.00000
     44       6.9754      2.00000
     45       7.6887      2.00000
     46       7.6887      2.00000
     47       7.6887      2.00000
     48       7.6887      2.00000
     49       8.3656      0.00000
     50       8.3656      0.00000
     51       8.3659      0.00000
     52       8.3659      0.00000
     53       8.3659      0.00000
     54       8.3659      0.00000
     55       8.3662      0.00000
     56       8.3662      0.00000
     57      10.0345      0.00000
     58      10.0345      0.00000
     59      10.0345      0.00000
     60      10.0345      0.00000
     61      10.4981      0.00000
     62      10.4981      0.00000
     63      10.4981      0.00000
     64      10.4981      0.00000
     65      11.4021      0.00000
     66      11.4021      0.00000
     67      11.4026      0.00000
     68      11.4027      0.00000
     69      11.4027      0.00000
     70      11.4027      0.00000
     71      11.4032      0.00000
     72      11.4032      0.00000

 k-point  40 :       0.5000    0.5000    0.5000
  band No.  band energies     occupation 
      1      -1.4359      2.00000
      2      -1.4315      2.00000
      3      -1.4315      2.00000
      4      -1.4312      2.00000
      5      -1.4311      2.00000
      6      -1.4307      2.00000
      7      -1.4307      2.00000
      8      -1.4264      2.00000
      9       2.9684      2.00000
     10       2.9745      2.00000
     11       2.9745      2.00000
     12       2.9777      2.00000
     13       2.9781      2.00000
     14       2.9781      2.00000
     15       2.9784      2.00000
     16       2.9784      2.00000
     17       2.9785      2.00000
     18       2.9785      2.00000
     19       2.9785      2.00000
     20       2.9785      2.00000
     21       2.9786      2.00000
     22       2.9786      2.00000
     23       2.9786      2.00000
     24       2.9786      2.00000
     25       2.9787      2.00000
     26       2.9787      2.00000
     27       2.9790      2.00000
     28       2.9791      2.00000
     29       2.9794      2.00000
     30       2.9826      2.00000
     31       2.9826      2.00000
     32       2.9887      2.00000
     33       7.2680      2.00000
     34       7.2680      2.00000
     35       7.2701      2.00000
     36       7.2719      2.00000
     37       7.2733      2.00000
     38       7.2737      2.00000
     39       7.2737      2.00000
     40       7.2737      2.00000
     41       7.2739      2.00000
     42       7.2740      2.00000
     43       7.2740      2.00000
     44       7.2740      2.00000
     45       7.2741      2.00000
     46       7.2741      2.00000
     47       7.2741      2.00000
     48       7.2742      2.00000
     49       7.2743      2.00000
     50       7.2743      2.00000
     51       7.2744      2.00000
     52       7.2748      2.00000
     53       7.2762      2.00000
     54       7.2780      2.00000
     55       7.2800      2.00000
     56       7.2800      2.00000
     57      11.4749      0.00000
     58      11.4750      0.00000
     59      11.4750      0.00000
     60      11.4755      0.00000
     61      11.4771      0.00000
     62      11.4777      0.00000
     63      11.4777      0.00000
     64      11.4779      0.00000
     65      11.6935      0.00000
     66      11.6943      0.00000
     67      11.6952      0.00000
     68      11.6956      0.00000
     69      11.6962      0.00000
     70      11.6963      0.00000
     71      11.6965      0.00000
     72      11.6970      0.00000


--------------------------------------------------------------------------------------------------------


 soft charge-density along one line, spin component           1
         0         1         2         3         4         5         6         7         8         9
 total charge-density along one line
 
 pseudopotential strength for first ion, spin component:           1
  8.443  -0.006  -0.000   0.000  -0.000  -0.000   0.000  -0.000
 -0.006   0.000  -0.000   0.000  -0.000   0.000  -0.000   0.000
 -0.000  -0.000   1.988  -0.000  -0.000  -0.027   0.000   0.000
  0.000   0.000  -0.000   1.988  -0.000   0.000  -0.027   0.000
 -0.000  -0.000  -0.000  -0.000   1.988   0.000   0.000  -0.027
 -0.000   0.000  -0.027   0.000   0.000  -0.012   0.000   0.000
  0.000  -0.000   0.000  -0.027   0.000   0.000  -0.012   0.000
 -0.000   0.000   0.000   0.000  -0.027   0.000   0.000  -0.012
 total augmentation occupancy for first ion, spin component:           1
  1.324  -0.482  -0.000   0.000   0.002   0.000  -0.000  -0.001
 -0.482   0.476  -0.000   0.000  -0.003   0.000  -0.000   0.001
 -0.000  -0.000   0.733   0.005   0.009  -0.149  -0.001  -0.001
  0.000   0.000   0.005   0.738   0.002  -0.001  -0.146  -0.001
  0.002  -0.003   0.009   0.002   0.736  -0.001  -0.001  -0.148
  0.000   0.000  -0.149  -0.001  -0.001   0.035   0.000   0.000
 -0.000  -0.000  -0.001  -0.146  -0.001   0.000   0.034   0.000
 -0.001   0.001  -0.001  -0.001  -0.148   0.000   0.000   0.034


------------------------ aborting loop because EDIFF is reached ----------------------------------------




--------------------------------------------------------------------------------------------------------


    CHARGE:  VPU time    0.67: CPU time    0.67
    FORLOC:  VPU time    0.03: CPU time    0.03
    FORNL :  VPU time    6.59: CPU time    6.59
    STRESS:  VPU time   18.04: CPU time   18.04
    FORCOR:  VPU time    0.15: CPU time    0.15
    FORHAR:  VPU time    0.05: CPU time    0.05
    MIXING:  VPU time    0.00: CPU time    0.00


--------------------------------------------------------------------------------------------------------



  FREE ENERGIE OF THE ION-ELECTRON SYSTEM (eV)
  ---------------------------------------------------
  free  energy   TOTEN  =      -119.760336 eV

  energy  without entropy=     -119.759798  energy(sigma->0) =     -119.760067
 

  FORCE on cell =-STRESS in cart. coord.  units (eV/reduce length):
  Direction    X        Y        Z        XY       YZ       ZX
  --------------------------------------------------------------------------------------
  Alpha Z     -6.53     -6.53     -6.53
  Ewald     -784.96   -784.95   -784.95     -0.00     -0.00     -0.00
  Hartree      1.11      1.11      1.11     -0.00     -0.00     -0.00
  E(xc)     -274.25   -274.25   -274.25      0.00      0.00      0.00
  Local       11.81     11.81     11.81     -0.00      0.00      0.00
  n-local    604.39    604.03    604.75     -1.21     -0.38      0.45
  augment    -32.94    -32.94    -32.94      0.00      0.00      0.00
  Kinetic    481.40    476.33    486.45      7.72      2.67     -2.39
  -------------------------------------------------------------------------------------
  Total        0.02      0.02      0.02      0.00      0.00      0.00
  in kB        0.07      0.05      0.05      0.00      0.00      0.00
  external pressure =        0.06 kB  Pullay stress =        0.00 kB


 VOLUME and BASIS-vectors are now :
 -----------------------------------------------------------------------------
  energy-cutoff  :      500.00
  volume of cell :      526.42
      direct lattice vectors                 reciprocal lattice vectors
     8.074399800  0.000000000  0.000000000     0.123848215  0.000000000  0.000000000
     0.000000000  8.074399800  0.000000000     0.000000000  0.123848215  0.000000000
     0.000000000  0.000000000  8.074399800     0.000000000  0.000000000  0.123848215

  length of vectors
     8.074399800  8.074399800  8.074399800     0.123848215  0.123848215  0.123848215


 FORCES acting on ions
    electron-ion (+dipol)            ewald-force                    non-local-force                 convergence-correction
 -----------------------------------------------------------------------------------------------
   0.393E+00 -.612E-13 -.142E-07   -.320E+00 -.711E-14 0.795E-14   -.118E+00 0.000E+00 0.000E+00   -.474E-06 0.472E-14 -.237E-13
   -.844E-01 0.213E-12 -.931E-13   0.844E-01 0.305E-14 0.864E-14   0.359E-02 0.000E+00 -.339E-20   0.214E-05 0.683E-14 -.304E-13
   0.270E-01 0.595E-13 -.105E-12   -.267E-01 0.783E-14 0.365E-15   -.159E-03 0.136E-19 0.678E-20   0.557E-06 -.548E-14 -.222E-13
   -.227E-01 -.343E-12 -.267E-13   0.210E-01 0.761E-14 -.141E-14   0.118E-02 -.271E-19 0.000E+00   -.196E-05 -.763E-14 -.266E-13
   0.270E-01 0.118E-13 -.702E-13   -.267E-01 0.272E-14 -.357E-14   -.159E-03 0.000E+00 0.136E-19   0.565E-06 0.225E-14 0.240E-13
   -.227E-01 -.572E-13 -.134E-13   0.210E-01 0.272E-14 -.224E-14   0.118E-02 -.237E-19 0.000E+00   -.197E-05 0.235E-14 0.307E-13
   0.840E-02 -.232E-13 -.349E-13   -.110E-01 0.794E-14 -.108E-14   0.160E-02 0.271E-19 -.271E-19   -.174E-05 -.297E-14 0.225E-13
   -.132E-01 0.136E-12 0.369E-12   0.103E-01 0.794E-14 0.781E-14   0.104E-02 -.169E-20 0.339E-20   0.205E-05 -.314E-14 0.269E-13
   0.482E-01 -.252E-03 0.252E-03   -.504E-01 0.196E-03 -.196E-03   0.410E-03 0.506E-04 -.506E-04   -.998E-06 -.107E-07 0.107E-07
   -.293E-01 0.112E-03 -.112E-03   0.283E-01 -.588E-04 0.588E-04   0.568E-03 -.973E-05 0.973E-05   0.572E-06 0.602E-07 -.602E-07
   0.482E-01 0.252E-03 0.252E-03   -.504E-01 -.196E-03 -.196E-03   0.410E-03 -.506E-04 -.506E-04   -.998E-06 0.107E-07 0.107E-07
   -.293E-01 -.112E-03 -.112E-03   0.283E-01 0.588E-04 0.588E-04   0.568E-03 0.973E-05 0.973E-05   0.572E-06 -.602E-07 -.602E-07
   0.482E-01 -.252E-03 -.252E-03   -.504E-01 0.196E-03 0.196E-03   0.410E-03 0.506E-04 0.506E-04   -.998E-06 -.107E-07 -.107E-07
   -.293E-01 0.112E-03 0.112E-03   0.283E-01 -.588E-04 -.588E-04   0.568E-03 -.973E-05 -.973E-05   0.572E-06 0.602E-07 0.602E-07
   0.482E-01 0.252E-03 -.252E-03   -.504E-01 -.196E-03 0.196E-03   0.410E-03 -.506E-04 0.506E-04   -.998E-06 0.107E-07 -.107E-07
   -.293E-01 -.112E-03 0.112E-03   0.283E-01 0.588E-04 -.588E-04   0.568E-03 0.973E-05 -.973E-05   0.572E-06 -.602E-07 0.602E-07
   -.490E-01 -.251E-15 0.844E-01   0.408E-01 -.222E-14 -.773E-01   0.140E-01 0.000E+00 -.139E-01   0.757E-07 0.357E-14 -.128E-05
   -.488E-01 -.310E-12 -.852E-01   0.405E-01 -.616E-14 0.779E-01   0.143E-01 0.678E-20 0.143E-01   -.636E-07 0.254E-14 0.126E-05
   0.435E-03 -.102E-13 0.744E-02   0.136E-02 0.222E-15 -.639E-02   -.950E-03 0.847E-21 -.547E-03   0.461E-06 -.435E-14 0.152E-05
   0.487E-03 -.474E-13 -.741E-02   0.123E-02 0.261E-14 0.640E-02   -.935E-03 0.000E+00 0.527E-03   0.174E-06 -.335E-14 -.163E-05
   -.490E-01 -.147E-15 -.844E-01   0.408E-01 -.400E-14 0.773E-01   0.140E-01 -.678E-20 0.139E-01   0.757E-07 0.509E-14 0.128E-05
   -.488E-01 0.837E-13 0.852E-01   0.405E-01 -.616E-14 -.779E-01   0.143E-01 0.000E+00 -.143E-01   -.636E-07 0.494E-14 -.126E-05
   0.435E-03 -.130E-13 -.744E-02   0.136E-02 0.222E-15 0.639E-02   -.950E-03 0.678E-20 0.547E-03   0.461E-06 -.585E-14 -.152E-05
   0.487E-03 0.136E-12 0.741E-02   0.123E-02 0.261E-14 -.640E-02   -.935E-03 0.588E-20 -.527E-03   0.174E-06 -.572E-14 0.163E-05
   -.490E-01 -.844E-01 0.609E-14   0.408E-01 0.773E-01 0.564E-14   0.140E-01 0.139E-01 0.000E+00   0.766E-07 0.127E-05 -.257E-13
   -.488E-01 0.852E-01 0.271E-13   0.405E-01 -.779E-01 0.711E-15   0.143E-01 -.143E-01 0.000E+00   -.627E-07 -.126E-05 -.238E-13
   -.490E-01 0.844E-01 -.971E-16   0.408E-01 -.773E-01 0.188E-14   0.140E-01 -.139E-01 0.000E+00   0.766E-07 -.127E-05 -.272E-13
   -.488E-01 -.852E-01 0.357E-13   0.405E-01 0.779E-01 -.283E-14   0.143E-01 0.143E-01 0.678E-20   -.627E-07 0.126E-05 -.262E-13
   0.435E-03 -.744E-02 -.660E-14   0.136E-02 0.639E-02 -.742E-14   -.950E-03 0.547E-03 0.000E+00   0.460E-06 -.152E-05 0.260E-13
   0.487E-03 0.741E-02 -.108E-12   0.123E-02 -.640E-02 -.602E-14   -.935E-03 -.527E-03 -.847E-21   0.174E-06 0.164E-05 0.241E-13
   0.435E-03 0.744E-02 -.205E-14   0.136E-02 -.639E-02 -.541E-14   -.950E-03 -.547E-03 -.678E-20   0.460E-06 0.152E-05 0.275E-13
   0.487E-03 -.741E-02 0.104E-12   0.123E-02 0.640E-02 -.685E-15   -.935E-03 0.527E-03 0.000E+00   0.174E-06 -.164E-05 0.265E-13
 -----------------------------------------------------------------------------------------------
   -.233E-05 0.239E-12 -.142E-07   0.371E-14 -.733E-14 -.119E-13   -.491E-05 -.163E-17 0.433E-18   0.479E-07 -.304E-16 0.311E-16
 
 
 POSITION                                       TOTAL-FORCE (eV/Angst)
 -----------------------------------------------------------------------------------
      2.02860      2.01860      0.00000        -0.044736      0.000000     -0.000000
      6.05580      2.01860      0.00000         0.003519     -0.000000     -0.000000
      2.01860      6.05580      0.00000         0.000122      0.000000      0.000000
      6.05580      6.05580      0.00000        -0.000552      0.000000     -0.000000
      2.01860      2.01860      4.03720         0.000122     -0.000000      0.000000
      6.05580      2.01860      4.03720        -0.000552      0.000000      0.000000
      2.01860      6.05580      4.03720        -0.001024     -0.000000      0.000000
      6.05580      6.05580      4.03720        -0.001847      0.000000     -0.000000
      2.01860      0.00000      2.01860        -0.001811     -0.000005      0.000005
      6.05580      0.00000      2.01860        -0.000370      0.000044     -0.000044
      2.01860      4.03720      2.01860        -0.001811      0.000005      0.000005
      6.05580      4.03720      2.01860        -0.000370     -0.000044     -0.000044
      2.01860      0.00000      6.05580        -0.001811     -0.000005     -0.000005
      6.05580      0.00000      6.05580        -0.000370      0.000044      0.000044
      2.01860      4.03720      6.05580        -0.001811      0.000005     -0.000005
      6.05580      4.03720      6.05580        -0.000370     -0.000044      0.000044
      0.00000      2.01860      2.01860         0.005782      0.000000     -0.006721
      4.03720      2.01860      2.01860         0.006005      0.000000      0.006958
      0.00000      6.05580      2.01860         0.000846     -0.000000      0.000499
      4.03720      6.05580      2.01860         0.000786     -0.000000     -0.000479
      0.00000      2.01860      6.05580         0.005782      0.000000      0.006721
      4.03720      2.01860      6.05580         0.006005     -0.000000     -0.006958
      0.00000      6.05580      6.05580         0.000846      0.000000     -0.000499
      4.03720      6.05580      6.05580         0.000786      0.000000      0.000479
      0.00000      0.00000      0.00000         0.005782      0.006721      0.000000
      4.03720      0.00000      0.00000         0.006005     -0.006958      0.000000
      0.00000      4.03720      0.00000         0.005782     -0.006721      0.000000
      4.03720      4.03720      0.00000         0.006005      0.006958      0.000000
      0.00000      0.00000      4.03720         0.000846     -0.000499     -0.000000
      4.03720      0.00000      4.03720         0.000786      0.000479      0.000000
      0.00000      4.03720      4.03720         0.000846      0.000499     -0.000000
      4.03720      4.03720      4.03720         0.000786     -0.000479     -0.000000
 -----------------------------------------------------------------------------------
    total drift:                               -0.000007      0.000000     -0.000000


--------------------------------------------------------------------------------------------------------



 mean value of Nose-termostat <S>:     1.000 mean value of <T> :     0.000
 mean temperature <T/S>/<1/S>  :     0.000

     LOOP+:  VPU time  288.16: CPU time  288.15
  
  
 General timing and accounting informations for this job:
 ========================================================
  
                  Total CPU time used (sec):      295.659
                            User time (sec):      273.561
                          System time (sec):       22.098
                         Elapsed time (sec):      295.646
  
                   Maximum memory used (kb):      940584.
                   Average memory used (kb):           0.
  
                          Minor page faults:       222994
                          Major page faults:            0
                 Voluntary context switches:         1000
