 running on    4 nodes
 distr:  one band on    1 nodes,    4 groups
 vasp.4.6.28 25Jul05 complex 
 POSCAR found :  1 types and    2 ions
 LDA part: xc-table for Pade appr. of Perdew
 POSCAR, INCAR and KPOINTS ok, starting setup
 FFT: planning ...           1
 reading WAVECAR
 WARNING: random wavefunctions but no delay for mixing, default for NELMDL
 entering main loop
       N       E                     dE             d eps       ncg     rms          rms(c)
DAV:   1     0.151181388487E+03    0.15118E+03   -0.10920E+04   864   0.134E+03
DAV:   2    -0.137305026139E+02   -0.16491E+03   -0.16331E+03   880   0.391E+02
DAV:   3    -0.179877396505E+02   -0.42572E+01   -0.42265E+01  1224   0.662E+01
DAV:   4    -0.180475578007E+02   -0.59818E-01   -0.59785E-01   896   0.868E+00
DAV:   5    -0.180491989965E+02   -0.16412E-02   -0.16403E-02  1112   0.136E+00    0.851E+00
DAV:   6    -0.158923653434E+02    0.21568E+01   -0.69644E+00   984   0.281E+01    0.195E+00
DAV:   7    -0.157955322100E+02    0.96833E-01   -0.57004E-01  1104   0.731E+00    0.773E-01
DAV:   8    -0.157849203957E+02    0.10612E-01   -0.28772E-02   912   0.201E+00    0.169E-01
DAV:   9    -0.157839210203E+02    0.99938E-03   -0.69573E-03   976   0.861E-01    0.386E-02
DAV:  10    -0.157839085947E+02    0.12426E-04   -0.16244E-04  1080   0.136E-01    0.111E-02
DAV:  11    -0.157839075022E+02    0.10926E-05   -0.81168E-06  1048   0.315E-02    0.480E-03
DAV:  12    -0.157839032167E+02    0.42855E-05   -0.13350E-06  1192   0.103E-02    0.638E-04
DAV:  13    -0.157839032442E+02   -0.27506E-07   -0.36044E-08   736   0.238E-03    0.318E-04
DAV:  14    -0.157839033955E+02   -0.15131E-06   -0.78171E-09   520   0.923E-04    0.392E-05
DAV:  15    -0.157839034073E+02   -0.11842E-07   -0.79685E-10   456   0.311E-04    0.129E-05
DAV:  16    -0.157839034055E+02    0.18126E-08   -0.14466E-10   480   0.120E-04
   1 F= -.15783903E+02 E0= -.15783812E+02  d E =-.183589E-03
