   2   2   0   0
  0.1763494E+02  0.2940234E-09  0.2940234E-09  0.4695812E-09  0.5000000E-15
  1.000000000000000E-004
  CAR 
 unknown system                          
     10.96715136    -29.47672492  301      5.72132976      1.00000000
    -29.477  0.0000E+00  0.0000E+00
    -29.342  0.0000E+00  0.0000E+00
    -29.207  0.0000E+00  0.0000E+00
    -29.072  0.0000E+00  0.0000E+00
    -28.937  0.0000E+00  0.0000E+00
    -28.803  0.0000E+00  0.0000E+00
    -28.668  0.0000E+00  0.0000E+00
    -28.533  0.0000E+00  0.0000E+00
    -28.398  0.0000E+00  0.0000E+00
    -28.263  0.0000E+00  0.0000E+00
    -28.129  0.0000E+00  0.0000E+00
    -27.994  0.0000E+00  0.0000E+00
    -27.859  0.0000E+00  0.0000E+00
    -27.724  0.0000E+00  0.0000E+00
    -27.589  0.1298E+00  0.1749E-01
    -27.455  0.9814E+01  0.1467E+01
    -27.320  0.6117E+01  0.3209E+01
    -27.185  0.4253E+01  0.4877E+01
    -27.050  0.1773E+02  0.8967E+01
    -26.915  0.7415E+01  0.1196E+02
    -26.780  0.0000E+00  0.1200E+02
    -26.646  0.0000E+00  0.1200E+02
    -26.511  0.0000E+00  0.1200E+02
    -26.376  0.0000E+00  0.1200E+02
    -26.241  0.0000E+00  0.1200E+02
    -26.106  0.0000E+00  0.1200E+02
    -25.972  0.0000E+00  0.1200E+02
    -25.837  0.0000E+00  0.1200E+02
    -25.702  0.0000E+00  0.1200E+02
    -25.567  0.0000E+00  0.1200E+02
    -25.432  0.0000E+00  0.1200E+02
    -25.298  0.0000E+00  0.1200E+02
    -25.163  0.0000E+00  0.1200E+02
    -25.028  0.0000E+00  0.1200E+02
    -24.893  0.0000E+00  0.1200E+02
    -24.758  0.0000E+00  0.1200E+02
    -24.623  0.0000E+00  0.1200E+02
    -24.489  0.0000E+00  0.1200E+02
    -24.354  0.0000E+00  0.1200E+02
    -24.219  0.0000E+00  0.1200E+02
    -24.084  0.0000E+00  0.1200E+02
    -23.949  0.0000E+00  0.1200E+02
    -23.815  0.0000E+00  0.1200E+02
    -23.680  0.0000E+00  0.1200E+02
    -23.545  0.0000E+00  0.1200E+02
    -23.410  0.0000E+00  0.1200E+02
    -23.275  0.0000E+00  0.1200E+02
    -23.141  0.0000E+00  0.1200E+02
    -23.006  0.0000E+00  0.1200E+02
    -22.871  0.0000E+00  0.1200E+02
    -22.736  0.0000E+00  0.1200E+02
    -22.601  0.0000E+00  0.1200E+02
    -22.466  0.0000E+00  0.1200E+02
    -22.332  0.0000E+00  0.1200E+02
    -22.197  0.0000E+00  0.1200E+02
    -22.062  0.0000E+00  0.1200E+02
    -21.927  0.0000E+00  0.1200E+02
    -21.792  0.0000E+00  0.1200E+02
    -21.658  0.0000E+00  0.1200E+02
    -21.523  0.0000E+00  0.1200E+02
    -21.388  0.0000E+00  0.1200E+02
    -21.253  0.0000E+00  0.1200E+02
    -21.118  0.0000E+00  0.1200E+02
    -20.984  0.0000E+00  0.1200E+02
    -20.849  0.0000E+00  0.1200E+02
    -20.714  0.0000E+00  0.1200E+02
    -20.579  0.0000E+00  0.1200E+02
    -20.444  0.0000E+00  0.1200E+02
    -20.309  0.0000E+00  0.1200E+02
    -20.175  0.0000E+00  0.1200E+02
    -20.040  0.0000E+00  0.1200E+02
    -19.905  0.0000E+00  0.1200E+02
    -19.770  0.0000E+00  0.1200E+02
    -19.635  0.0000E+00  0.1200E+02
    -19.501  0.0000E+00  0.1200E+02
    -19.366  0.0000E+00  0.1200E+02
    -19.231  0.0000E+00  0.1200E+02
    -19.096  0.0000E+00  0.1200E+02
    -18.961  0.0000E+00  0.1200E+02
    -18.827  0.0000E+00  0.1200E+02
    -18.692  0.0000E+00  0.1200E+02
    -18.557  0.0000E+00  0.1200E+02
    -18.422  0.0000E+00  0.1200E+02
    -18.287  0.0000E+00  0.1200E+02
    -18.152  0.0000E+00  0.1200E+02
    -18.018  0.0000E+00  0.1200E+02
    -17.883  0.0000E+00  0.1200E+02
    -17.748  0.0000E+00  0.1200E+02
    -17.613  0.0000E+00  0.1200E+02
    -17.478  0.0000E+00  0.1200E+02
    -17.344  0.0000E+00  0.1200E+02
    -17.209  0.0000E+00  0.1200E+02
    -17.074  0.0000E+00  0.1200E+02
    -16.939  0.0000E+00  0.1200E+02
    -16.804  0.0000E+00  0.1200E+02
    -16.669  0.0000E+00  0.1200E+02
    -16.535  0.0000E+00  0.1200E+02
    -16.400  0.0000E+00  0.1200E+02
    -16.265  0.0000E+00  0.1200E+02
    -16.130  0.0000E+00  0.1200E+02
    -15.995  0.0000E+00  0.1200E+02
    -15.861  0.0000E+00  0.1200E+02
    -15.726  0.0000E+00  0.1200E+02
    -15.591  0.0000E+00  0.1200E+02
    -15.456  0.0000E+00  0.1200E+02
    -15.321  0.0000E+00  0.1200E+02
    -15.187  0.0000E+00  0.1200E+02
    -15.052  0.0000E+00  0.1200E+02
    -14.917  0.0000E+00  0.1200E+02
    -14.782  0.0000E+00  0.1200E+02
    -14.647  0.0000E+00  0.1200E+02
    -14.512  0.0000E+00  0.1200E+02
    -14.378  0.0000E+00  0.1200E+02
    -14.243  0.0000E+00  0.1200E+02
    -14.108  0.0000E+00  0.1200E+02
    -13.973  0.0000E+00  0.1200E+02
    -13.838  0.0000E+00  0.1200E+02
    -13.704  0.0000E+00  0.1200E+02
    -13.569  0.0000E+00  0.1200E+02
    -13.434  0.0000E+00  0.1200E+02
    -13.299  0.0000E+00  0.1200E+02
    -13.164  0.0000E+00  0.1200E+02
    -13.030  0.0000E+00  0.1200E+02
    -12.895  0.0000E+00  0.1200E+02
    -12.760  0.0000E+00  0.1200E+02
    -12.625  0.0000E+00  0.1200E+02
    -12.490  0.0000E+00  0.1200E+02
    -12.355  0.0000E+00  0.1200E+02
    -12.221  0.0000E+00  0.1200E+02
    -12.086  0.0000E+00  0.1200E+02
    -11.951  0.0000E+00  0.1200E+02
    -11.816  0.0000E+00  0.1200E+02
    -11.681  0.0000E+00  0.1200E+02
    -11.547  0.0000E+00  0.1200E+02
    -11.412  0.0000E+00  0.1200E+02
    -11.277  0.0000E+00  0.1200E+02
    -11.142  0.0000E+00  0.1200E+02
    -11.007  0.0000E+00  0.1200E+02
    -10.873  0.0000E+00  0.1200E+02
    -10.738  0.0000E+00  0.1200E+02
    -10.603  0.0000E+00  0.1200E+02
    -10.468  0.0000E+00  0.1200E+02
    -10.333  0.0000E+00  0.1200E+02
    -10.198  0.0000E+00  0.1200E+02
    -10.064  0.0000E+00  0.1200E+02
     -9.929  0.0000E+00  0.1200E+02
     -9.794  0.0000E+00  0.1200E+02
     -9.659  0.0000E+00  0.1200E+02
     -9.524  0.0000E+00  0.1200E+02
     -9.390  0.0000E+00  0.1200E+02
     -9.255  0.0000E+00  0.1200E+02
     -9.120  0.0000E+00  0.1200E+02
     -8.985  0.0000E+00  0.1200E+02
     -8.850  0.0000E+00  0.1200E+02
     -8.716  0.0000E+00  0.1200E+02
     -8.581  0.0000E+00  0.1200E+02
     -8.446  0.0000E+00  0.1200E+02
     -8.311  0.0000E+00  0.1200E+02
     -8.176  0.0000E+00  0.1200E+02
     -8.041  0.0000E+00  0.1200E+02
     -7.907  0.0000E+00  0.1200E+02
     -7.772  0.0000E+00  0.1200E+02
     -7.637  0.0000E+00  0.1200E+02
     -7.502  0.0000E+00  0.1200E+02
     -7.367  0.0000E+00  0.1200E+02
     -7.233  0.0000E+00  0.1200E+02
     -7.098  0.0000E+00  0.1200E+02
     -6.963  0.0000E+00  0.1200E+02
     -6.828  0.0000E+00  0.1200E+02
     -6.693  0.0000E+00  0.1200E+02
     -6.559  0.0000E+00  0.1200E+02
     -6.424  0.0000E+00  0.1200E+02
     -6.289  0.0000E+00  0.1200E+02
     -6.154  0.0000E+00  0.1200E+02
     -6.019  0.0000E+00  0.1200E+02
     -5.884  0.0000E+00  0.1200E+02
     -5.750  0.0000E+00  0.1200E+02
     -5.615  0.0000E+00  0.1200E+02
     -5.480  0.0000E+00  0.1200E+02
     -5.345  0.0000E+00  0.1200E+02
     -5.210  0.0000E+00  0.1200E+02
     -5.076  0.0000E+00  0.1200E+02
     -4.941  0.0000E+00  0.1200E+02
     -4.806  0.0000E+00  0.1200E+02
     -4.671  0.0000E+00  0.1200E+02
     -4.536  0.0000E+00  0.1200E+02
     -4.402  0.0000E+00  0.1200E+02
     -4.267  0.0000E+00  0.1200E+02
     -4.132  0.0000E+00  0.1200E+02
     -3.997  0.0000E+00  0.1200E+02
     -3.862  0.0000E+00  0.1200E+02
     -3.727  0.0000E+00  0.1200E+02
     -3.593  0.0000E+00  0.1200E+02
     -3.458  0.0000E+00  0.1200E+02
     -3.323  0.0000E+00  0.1200E+02
     -3.188  0.0000E+00  0.1200E+02
     -3.053  0.0000E+00  0.1200E+02
     -2.919  0.0000E+00  0.1200E+02
     -2.784  0.0000E+00  0.1200E+02
     -2.649  0.0000E+00  0.1200E+02
     -2.514  0.0000E+00  0.1200E+02
     -2.379  0.0000E+00  0.1200E+02
     -2.245  0.0000E+00  0.1200E+02
     -2.110  0.0000E+00  0.1200E+02
     -1.975  0.0000E+00  0.1200E+02
     -1.840  0.0000E+00  0.1200E+02
     -1.705  0.0000E+00  0.1200E+02
     -1.570  0.0000E+00  0.1200E+02
     -1.436  0.0000E+00  0.1200E+02
     -1.301  0.0000E+00  0.1200E+02
     -1.166  0.0000E+00  0.1200E+02
     -1.031  0.0000E+00  0.1200E+02
     -0.896  0.0000E+00  0.1200E+02
     -0.762  0.0000E+00  0.1200E+02
     -0.627  0.0000E+00  0.1200E+02
     -0.492  0.0000E+00  0.1200E+02
     -0.357  0.4131E-04  0.1200E+02
     -0.222  0.0000E+00  0.1202E+02
     -0.088  0.0000E+00  0.1202E+02
      0.047  0.2374E+00  0.1205E+02
      0.182  0.0000E+00  0.1205E+02
      0.317  0.0000E+00  0.1205E+02
      0.452  0.0000E+00  0.1205E+02
      0.587  0.0000E+00  0.1205E+02
      0.721  0.3541E+00  0.1210E+02
      0.856  0.2673E-08  0.1214E+02
      0.991  0.5414E-01  0.1218E+02
      1.126  0.0000E+00  0.1237E+02
      1.261  0.0000E+00  0.1237E+02
      1.395  0.0000E+00  0.1237E+02
      1.530  0.0000E+00  0.1237E+02
      1.665  0.0000E+00  0.1237E+02
      1.800  0.1025E+01  0.1251E+02
      1.935  0.0000E+00  0.1256E+02
      2.069  0.2455E-02  0.1256E+02
      2.204  0.0000E+00  0.1259E+02
      2.339  0.0000E+00  0.1259E+02
      2.474  0.4879E+00  0.1266E+02
      2.609  0.4819E-01  0.1269E+02
      2.744  0.0000E+00  0.1288E+02
      2.878  0.8159E+00  0.1299E+02
      3.013  0.7121E+00  0.1339E+02
      3.148  0.2884E+01  0.1378E+02
      3.283  0.0000E+00  0.1379E+02
      3.418  0.2459E-10  0.1379E+02
      3.552  0.4747E+00  0.1398E+02
      3.687  0.1814E+00  0.1401E+02
      3.822  0.3152E+01  0.1479E+02
      3.957  0.9344E+00  0.1513E+02
      4.092  0.1555E+01  0.1544E+02
      4.227  0.1810E+01  0.1586E+02
      4.361  0.2891E-08  0.1610E+02
      4.496  0.7121E+00  0.1638E+02
      4.631  0.1580E+01  0.1663E+02
      4.766  0.2849E+01  0.1706E+02
      4.901  0.2153E+01  0.1751E+02
      5.035  0.2848E+01  0.1802E+02
      5.170  0.3554E+01  0.1882E+02
      5.305  0.6456E-14  0.1917E+02
      5.440  0.9495E+00  0.1936E+02
      5.575  0.1424E+01  0.1955E+02
      5.709  0.2622E+01  0.1997E+02
      5.844  0.6308E-02  0.2006E+02
      5.979  0.1649E+01  0.2048E+02
      6.114  0.4500E+01  0.2137E+02
      6.249  0.1879E+01  0.2173E+02
      6.384  0.1233E+01  0.2193E+02
      6.518  0.4058E+01  0.2266E+02
      6.653  0.3356E+01  0.2359E+02
      6.788  0.2244E+01  0.2408E+02
      6.923  0.4182E+01  0.2492E+02
      7.058  0.1787E+01  0.2539E+02
      7.192  0.3798E+01  0.2608E+02
      7.327  0.4155E+00  0.2614E+02
      7.462  0.2372E+01  0.2669E+02
      7.597  0.7146E+00  0.2678E+02
      7.732  0.1443E+01  0.2707E+02
      7.866  0.3080E+01  0.2778E+02
      8.001  0.0000E+00  0.2810E+02
      8.136  0.0000E+00  0.2810E+02
      8.271  0.1643E+01  0.2832E+02
      8.406  0.3554E-01  0.2836E+02
      8.541  0.1950E-04  0.2854E+02
      8.675  0.3342E+01  0.2919E+02
      8.810  0.4283E+01  0.2992E+02
      8.945  0.3726E+00  0.3042E+02
      9.080  0.5129E+01  0.3148E+02
      9.215  0.0000E+00  0.3200E+02
      9.349  0.0000E+00  0.3200E+02
      9.484  0.0000E+00  0.3200E+02
      9.619  0.0000E+00  0.3200E+02
      9.754  0.0000E+00  0.3200E+02
      9.889  0.0000E+00  0.3200E+02
     10.023  0.0000E+00  0.3200E+02
     10.158  0.0000E+00  0.3200E+02
     10.293  0.0000E+00  0.3200E+02
     10.428  0.0000E+00  0.3200E+02
     10.563  0.0000E+00  0.3200E+02
     10.698  0.0000E+00  0.3200E+02
     10.832  0.0000E+00  0.3200E+02
     10.967  0.0000E+00  0.3200E+02
