    2    2    1    1
  0.1763494E+02  0.2940234E-09  0.2940234E-09  0.4695812E-09  0.5000000E-15
  1.000000000000000E-004
  CAR 
 unknown system                          
   20   27   16
 
  0.0000000E+00  0.0000000E+00  0.0000000E+00  0.8000000E-02
   1      -27.6384
   2      -27.0071
   3      -27.0011
   4      -26.9738
   5      -26.9116
   6      -26.9103
   7       -0.3332
   8        3.1517
   9        6.4676
  10        6.5273
  11        6.6167
  12        6.6184
  13        7.0210
  14        7.0780
  15        7.3859
  16        7.4400
 
  0.2000000E+00  0.0000000E+00  0.0000000E+00  0.3200000E-01
   1      -27.5601
   2      -27.1613
   3      -27.0699
   4      -27.0518
   5      -27.0087
   6      -26.9327
   7        0.7184
   8        3.8733
   9        5.2217
  10        5.6079
  11        6.5738
  12        6.9523
  13        6.9685
  14        7.3295
  15        7.3989
  16        7.7101
 
  0.4000000E+00  0.0000000E+00  0.0000000E+00  0.3200000E-01
   1      -27.4167
   2      -27.3924
   3      -27.3086
   4      -27.1257
   5      -27.1058
   6      -26.9730
   7        2.9178
   8        3.9437
   9        4.1318
  10        5.1626
  11        6.3947
  12        6.4434
  13        6.7515
  14        8.8111
  15        9.0004
  16        9.0588
 
  0.2000000E+00  0.2000000E+00  0.0000000E+00  0.1600000E-01
   1      -27.4329
   2      -27.2929
   3      -27.2798
   4      -27.1141
   5      -27.0791
   6      -27.0230
   7        2.4507
   8        4.4381
   9        4.5496
  10        4.7863
  11        6.1389
  12        6.5869
  13        6.7689
  14        7.8327
  15        8.6027
  16        9.0961
 
  0.4000000E+00  0.2000000E+00  0.0000000E+00  0.3200000E-01
   1      -27.4121
   2      -27.3029
   3      -27.3028
   4      -27.2217
   5      -27.1727
   6      -27.0832
   7        4.0079
   8        4.1081
   9        4.2004
  10        4.7936
  11        6.0515
  12        6.1986
  13        7.0732
  14        8.7572
  15        9.0317
  16        9.0604
 
 -0.4000000E+00  0.2000000E+00  0.0000000E+00  0.3200000E-01
   1      -27.4332
   2      -27.3011
   3      -27.2865
   4      -27.1139
   5      -27.0769
   6      -27.0213
   7        2.4734
   8        4.4171
   9        4.5515
  10        4.7887
  11        6.1278
  12        6.5777
  13        6.7823
  14        7.8486
  15        8.6094
  16        9.0938
 
 -0.2000000E+00  0.2000000E+00  0.0000000E+00  0.1600000E-01
   1      -27.5600
   2      -27.1603
   3      -27.0705
   4      -27.0577
   5      -27.0076
   6      -26.9355
   7        0.7281
   8        3.8771
   9        5.2059
  10        5.6437
  11        6.6121
  12        6.9154
  13        7.0089
  14        7.2799
  15        7.3992
  16        7.6822
 
  0.4000000E+00  0.4000000E+00  0.0000000E+00  0.1600000E-01
   1      -27.4175
   2      -27.3056
   3      -27.3054
   4      -27.2254
   5      -27.1680
   6      -27.0846
   7        4.0028
   8        4.0914
   9        4.1824
  10        4.8298
  11        6.0084
  12        6.2484
  13        7.1057
  14        8.7606
  15        9.0494
  16        9.0609
 
 -0.4000000E+00  0.4000000E+00  0.0000000E+00  0.1600000E-01
   1      -27.4218
   2      -27.3936
   3      -27.3110
   4      -27.1342
   5      -27.1014
   6      -26.9785
   7        2.9297
   8        3.9352
   9        4.1073
  10        5.1952
  11        6.3440
  12        6.5008
  13        6.8034
  14        8.8159
  15        8.9987
  16        9.0618
 
  0.0000000E+00  0.0000000E+00  0.2000000E+00  0.1600000E-01
   1      -27.5775
   2      -27.0400
   3      -26.9980
   4      -26.9925
   5      -26.9208
   6      -26.9190
   7       -0.0065
   8        2.9414
   9        6.0279
  10        6.4213
  11        6.4442
  12        6.5020
  13        6.8628
  14        6.9183
  15        7.6978
  16        7.7539
 
  0.2000000E+00  0.0000000E+00  0.2000000E+00  0.6400000E-01
   1      -27.5210
   2      -27.1539
   3      -27.1256
   4      -27.0405
   5      -27.0022
   6      -26.9441
   7        1.0022
   8        3.7202
   9        4.9887
  10        5.6867
  11        6.3697
  12        6.7639
  13        6.8721
  14        7.4405
  15        7.7459
  16        7.7772
 
  0.4000000E+00  0.0000000E+00  0.2000000E+00  0.6400000E-01
   1      -27.4905
   2      -27.3736
   3      -27.2731
   4      -27.1115
   5      -27.0847
   6      -26.9877
   7        2.9219
   8        3.8276
   9        4.4145
  10        5.0778
  11        6.5340
  12        6.5889
  13        6.8061
  14        8.6700
  15        8.8523
  16        8.9503
 
  0.2000000E+00  0.2000000E+00  0.2000000E+00  0.3200000E-01
   1      -27.4539
   2      -27.3206
   3      -27.2226
   4      -27.1517
   5      -27.0374
   6      -27.0353
   7        2.6178
   8        4.2287
   9        4.7131
  10        4.9024
  11        6.0959
  12        6.4953
  13        6.6829
  14        7.8638
  15        8.6211
  16        8.7863
 
  0.4000000E+00  0.2000000E+00  0.2000000E+00  0.6400000E-01
   1      -27.4544
   2      -27.3735
   3      -27.2846
   4      -27.1613
   5      -27.1458
   6      -27.0738
   7        3.7677
   8        4.2506
   9        4.6278
  10        4.7147
  11        5.9404
  12        6.1911
  13        7.1192
  14        8.5713
  15        8.7643
  16        9.1224
 
 -0.4000000E+00  0.2000000E+00  0.2000000E+00  0.6400000E-01
   1      -27.4547
   2      -27.3267
   3      -27.2290
   4      -27.1513
   5      -27.0377
   6      -27.0334
   7        2.6381
   8        4.2136
   9        4.7165
  10        4.9039
  11        6.0970
  12        6.5171
  13        6.6660
  14        7.8733
  15        8.6177
  16        8.7949
 
 -0.2000000E+00  0.2000000E+00  0.2000000E+00  0.3200000E-01
   1      -27.5205
   2      -27.1536
   3      -27.1242
   4      -27.0462
   5      -27.0028
   6      -26.9473
   7        1.0118
   8        3.7234
   9        4.9846
  10        5.7214
  11        6.4057
  12        6.7893
  13        6.8299
  14        7.3999
  15        7.7127
  16        7.7938
 
  0.4000000E+00  0.4000000E+00  0.2000000E+00  0.3200000E-01
   1      -27.4575
   2      -27.3735
   3      -27.2890
   4      -27.1637
   5      -27.1478
   6      -27.0731
   7        3.7626
   8        4.2461
   9        4.6164
  10        4.7290
  11        5.9099
  12        6.2450
  13        7.1400
  14        8.5690
  15        8.7660
  16        9.1288
 
 -0.4000000E+00  0.4000000E+00  0.2000000E+00  0.3200000E-01
   1      -27.4920
   2      -27.3742
   3      -27.2768
   4      -27.1195
   5      -27.0834
   6      -26.9936
   7        2.9338
   8        3.8279
   9        4.4016
  10        5.0903
  11        6.5392
  12        6.5875
  13        6.8657
  14        8.6596
  15        8.8556
  16        8.9505
 
  0.0000000E+00  0.0000000E+00  0.4000000E+00  0.1600000E-01
   1      -27.4156
   2      -27.2105
   3      -26.9742
   4      -26.9698
   5      -26.9447
   6      -26.9418
   7        0.8957
   8        2.0859
   9        5.7399
  10        6.0392
  11        6.3899
  12        6.4577
  13        6.5697
  14        6.6281
  15        8.2610
  16        8.3052
 
  0.2000000E+00  0.0000000E+00  0.4000000E+00  0.6400000E-01
   1      -27.4152
   2      -27.2747
   3      -27.0862
   4      -27.0309
   5      -27.0109
   6      -26.9741
   7        1.7923
   8        2.8752
   9        5.1444
  10        5.6704
  11        6.0734
  12        6.4495
  13        6.9178
  14        7.1619
  15        8.2397
  16        8.4183
 
  0.4000000E+00  0.0000000E+00  0.4000000E+00  0.6400000E-01
   1      -27.5106
   2      -27.4618
   3      -27.1583
   4      -27.0897
   5      -27.0729
   6      -27.0261
   7        3.0815
   8        3.4641
   9        4.8328
  10        5.1628
  11        6.5294
  12        6.9012
  13        7.1321
  14        7.9093
  15        8.9566
  16        9.0040
 
  0.2000000E+00  0.2000000E+00  0.4000000E+00  0.3200000E-01
   1      -27.4504
   2      -27.3944
   3      -27.1456
   4      -27.1450
   5      -27.0536
   6      -27.0319
   7        3.0776
   8        3.6967
   9        5.0828
  10        5.1913
  11        5.8599
  12        6.0095
  13        7.0200
  14        7.6024
  15        8.7346
  16        9.0696
 
  0.4000000E+00  0.2000000E+00  0.4000000E+00  0.6400000E-01
   1      -27.4879
   2      -27.4583
   3      -27.2373
   4      -27.1799
   5      -27.0782
   6      -27.0484
   7        3.7853
   8        4.0413
   9        4.9854
  10        5.3615
  11        5.5287
  12        5.9842
  13        7.3587
  14        7.8193
  15        8.8619
  16        9.0865
 
 -0.4000000E+00  0.2000000E+00  0.4000000E+00  0.6400000E-01
   1      -27.4515
   2      -27.3969
   3      -27.1512
   4      -27.1481
   5      -27.0520
   6      -27.0326
   7        3.0896
   8        3.6947
   9        5.0885
  10        5.1935
  11        5.8789
  12        6.0349
  13        6.9990
  14        7.5942
  15        8.7243
  16        9.0839
 
 -0.2000000E+00  0.2000000E+00  0.4000000E+00  0.3200000E-01
   1      -27.4139
   2      -27.2730
   3      -27.0866
   4      -27.0321
   5      -27.0158
   6      -26.9780
   7        1.8009
   8        2.8808
   9        5.1544
  10        5.6951
  11        6.0998
  12        6.4783
  13        6.8810
  14        7.1286
  15        8.2064
  16        8.4305
 
  0.4000000E+00  0.4000000E+00  0.4000000E+00  0.3200000E-01
   1      -27.4888
   2      -27.4579
   3      -27.2417
   4      -27.1836
   5      -27.0804
   6      -27.0487
   7        3.7878
   8        4.0516
   9        4.9736
  10        5.3589
  11        5.5181
  12        6.0194
  13        7.3688
  14        7.8206
  15        8.8576
  16        9.0805
 
 -0.4000000E+00  0.4000000E+00  0.4000000E+00  0.3200000E-01
   1      -27.5103
   2      -27.4610
   3      -27.1619
   4      -27.0910
   5      -27.0809
   6      -27.0328
   7        3.0957
   8        3.4783
   9        4.8309
  10        5.1594
  11        6.5707
  12        6.9555
  13        7.0908
  14        7.8819
  15        8.9592
  16        9.0086
