32   
1    

1    
  0.0100000000000000   0.0000000000000000   0.0000000000000000
  -0.0527913000    0.0000000000    0.0000000000
   0.0023617400    0.0000000000   -0.0000000000
  -0.0001178200    0.0000000000    0.0000000000
   0.0005146300    0.0000000000   -0.0000000000
  -0.0001178200    0.0000000000    0.0000000000
   0.0005146300   -0.0000000000   -0.0000000000
   0.0006048300    0.0000000000    0.0000000000
  -0.0005503500    0.0000000000    0.0000000000
  -0.0014331600    0.0000232500   -0.0000232500
  -0.0006846800   -0.0000014300    0.0000014300
  -0.0014331600   -0.0000232500   -0.0000232500
  -0.0006846800    0.0000014300    0.0000014300
  -0.0014331600    0.0000232500    0.0000232500
  -0.0006846800   -0.0000014300   -0.0000014300
  -0.0014331600   -0.0000232500    0.0000232500
  -0.0006846800    0.0000014300   -0.0000014300
   0.0071898300    0.0000000000   -0.0074444700
   0.0073535400   -0.0000000000    0.0076791400
  -0.0000180900   -0.0000000000    0.0001189900
  -0.0000120800    0.0000000000   -0.0001163400
   0.0071898300    0.0000000000    0.0074444700
   0.0073535400   -0.0000000000   -0.0076791400
  -0.0000180900   -0.0000000000   -0.0001189900
  -0.0000120800    0.0000000000    0.0001163400
   0.0071898300    0.0074444700    0.0000000000
   0.0073535400   -0.0076791400    0.0000000000
   0.0071898300   -0.0074444700    0.0000000000
   0.0073535400    0.0076791400    0.0000000000
  -0.0000180900   -0.0001189900   -0.0000000000
  -0.0000120800    0.0001163400    0.0000000000
  -0.0000180900    0.0001189900   -0.0000000000
  -0.0000120800   -0.0001163400    0.0000000000
