mesh: [    48,    48,    48 ]
nqpoint: 2600   
reciprocal_lattice:
- [   0.25019182,   0.00000000,   0.00000000 ] # a*
- [   0.00000000,   0.25019182,   0.00000000 ] # b*
- [   0.00000000,   0.00000000,   0.25019182 ] # c*
natom:   4      
lattice:
- [     3.996933305976087,     0.000000000000000,     0.000000000000000 ] # a
- [     0.000000000000000,     3.996933305976087,     0.000000000000000 ] # b
- [     0.000000000000000,     0.000000000000000,     3.996933305976087 ] # c
points:
- symbol: Al # 1
  coordinates: [  0.500000000000000,  0.500000000000000,  0.000000000000000 ]
  mass: 26.981539
- symbol: Al # 2
  coordinates: [  0.500000000000000,  0.000000000000000,  0.500000000000000 ]
  mass: 26.981539
- symbol: Al # 3
  coordinates: [  0.000000000000000,  0.500000000000000,  0.500000000000000 ]
  mass: 26.981539
- symbol: Al # 4
  coordinates: [  0.000000000000000,  0.000000000000000,  0.000000000000000 ]
  mass: 26.981539
phonon:
- q-position: [    0.0104167,    0.0104167,    0.0104167 ]
  weight: 8    
  band:
  - # 1
    frequency:     0.1447135560
  - # 2
    frequency:     0.1447135560
  - # 3
    frequency:     0.3279753850
  - # 4
    frequency:     6.1016097287
  - # 5
    frequency:     6.1016097287
  - # 6
    frequency:     6.1016097287
  - # 7
    frequency:     6.1063382852
  - # 8
    frequency:     6.1063382852
  - # 9
    frequency:     6.1063382852
  - # 10
    frequency:    10.2521588694
  - # 11
    frequency:    10.2521588694
  - # 12
    frequency:    10.2521588694

- q-position: [    0.0312500,    0.0104167,    0.0104167 ]
  weight: 24   
  band:
  - # 1
    frequency:     0.2930218000
  - # 2
    frequency:     0.3265691902
  - # 3
    frequency:     0.5957584115
  - # 4
    frequency:     6.0955732578
  - # 5
    frequency:     6.1002916599
  - # 6
    frequency:     6.1061798767
  - # 7
    frequency:     6.1061798767
  - # 8
    frequency:     6.1213479413
  - # 9
    frequency:     6.1213479413
  - # 10
    frequency:    10.2412717557
  - # 11
    frequency:    10.2454625391
  - # 12
    frequency:    10.2454625391

- q-position: [    0.0520833,    0.0104167,    0.0104167 ]
  weight: 24   
  band:
  - # 1
    frequency:     0.4991781508
  - # 2
    frequency:     0.5268907021
  - # 3
    frequency:     0.9026268837
  - # 4
    frequency:     6.0835018930
  - # 5
    frequency:     6.0881999655
  - # 6
    frequency:     6.1188876621
  - # 7
    frequency:     6.1188876621
  - # 8
    frequency:     6.1475168385
  - # 9
    frequency:     6.1475168385
  - # 10
    frequency:    10.2195084621
  - # 11
    frequency:    10.2320805274
  - # 12
    frequency:    10.2320805274

- q-position: [    0.0729167,    0.0104167,    0.0104167 ]
  weight: 24   
  band:
  - # 1
    frequency:     0.7083740270
  - # 2
    frequency:     0.7300379654
  - # 3
    frequency:     1.2219759610
  - # 4
    frequency:     6.0653988370
  - # 5
    frequency:     6.0700663635
  - # 6
    frequency:     6.1388761958
  - # 7
    frequency:     6.1388761958
  - # 8
    frequency:     6.1851450844
  - # 9
    frequency:     6.1851450844
  - # 10
    frequency:    10.1868908523
  - # 11
    frequency:    10.2120342202
  - # 12
    frequency:    10.2120342202

- q-position: [    0.0937500,    0.0104167,    0.0104167 ]
  weight: 24   
  band:
  - # 1
    frequency:     0.9161996732
  - # 2
    frequency:     0.9334622450
  - # 3
    frequency:     1.5460940404
  - # 4
    frequency:     6.0412690152
  - # 5
    frequency:     6.0458957171
  - # 6
    frequency:     6.1654241919
  - # 7
    frequency:     6.1654241919
  - # 8
    frequency:     6.2341408165
  - # 9
    frequency:     6.2341408165
  - # 10
    frequency:    10.1434517123
  - # 11
    frequency:    10.1853559146
  - # 12
    frequency:    10.1853559146

- q-position: [    0.1145833,    0.0104167,    0.0104167 ]
  weight: 24   
  band:
  - # 1
    frequency:     1.1221925343
  - # 2
    frequency:     1.1362468916
  - # 3
    frequency:     1.8717269852
  - # 4
    frequency:     6.0111192203
  - # 5
    frequency:     6.0156947352
  - # 6
    frequency:     6.1978435934
  - # 7
    frequency:     6.1978435934
  - # 8
    frequency:     6.2941472727
  - # 9
    frequency:     6.2941472727
  - # 10
    frequency:    10.0892347384
  - # 11
    frequency:    10.1520890815
  - # 12
    frequency:    10.1520890815

- q-position: [    0.1354167,    0.0104167,    0.0104167 ]
  weight: 24   
  band:
  - # 1
    frequency:     1.3262462697
  - # 2
    frequency:     1.3378761541
  - # 3
    frequency:     2.1971833473
  - # 4
    frequency:     5.9749583005
  - # 5
    frequency:     5.9794721610
  - # 6
    frequency:     6.2354164111
  - # 7
    frequency:     6.2354164111
  - # 8
    frequency:     6.3646362319
  - # 9
    frequency:     6.3646362319
  - # 10
    frequency:    10.0242945215
  - # 11
    frequency:    10.1122887140
  - # 12
    frequency:    10.1122887140

- q-position: [    0.1562500,    0.0104167,    0.0104167 ]
  weight: 24   
  band:
  - # 1
    frequency:     1.5282443227
  - # 2
    frequency:     1.5379735831
  - # 3
    frequency:     2.5214185985
  - # 4
    frequency:     5.9327973922
  - # 5
    frequency:     5.9372390032
  - # 6
    frequency:     6.2773732755
  - # 7
    frequency:     6.2773732755
  - # 8
    frequency:     6.4449634916
  - # 9
    frequency:     6.4449634916
  - # 10
    frequency:     9.9486965264
  - # 11
    frequency:    10.0660217621
  - # 12
    frequency:    10.0660217621

- q-position: [    0.1770833,    0.0104167,    0.0104167 ]
  weight: 24   
  band:
  - # 1
    frequency:     1.7280324294
  - # 2
    frequency:     1.7362236039
  - # 3
    frequency:     2.8436910152
  - # 4
    frequency:     5.8846501905
  - # 5
    frequency:     5.8890088066
  - # 6
    frequency:     6.3228942363
  - # 7
    frequency:     6.3228942363
  - # 8
    frequency:     6.5344039903
  - # 9
    frequency:     6.5344039903
  - # 10
    frequency:     9.8625170672
  - # 11
    frequency:    10.0133676519
  - # 12
    frequency:    10.0133676519

- q-position: [    0.1979167,    0.0104167,    0.0104167 ]
  weight: 24   
  band:
  - # 1
    frequency:     1.9254296701
  - # 2
    frequency:     1.9323426255
  - # 3
    frequency:     3.1634155165
  - # 4
    frequency:     5.8305332578
  - # 5
    frequency:     5.8347979583
  - # 6
    frequency:     6.3711196086
  - # 7
    frequency:     6.3711196086
  - # 8
    frequency:     6.6321770722
  - # 9
    frequency:     6.6321770722
  - # 10
    frequency:     9.7658432768
  - # 11
    frequency:     9.9544188905
  - # 12
    frequency:     9.9544188905

- q-position: [    0.2187500,    0.0104167,    0.0104167 ]
  weight: 24   
  band:
  - # 1
    frequency:     2.1202398406
  - # 2
    frequency:     2.1260668815
  - # 3
    frequency:     3.4800952742
  - # 4
    frequency:     5.7704663626
  - # 5
    frequency:     5.7746260267
  - # 6
    frequency:     6.4211648329
  - # 7
    frequency:     6.4211648329
  - # 8
    frequency:     6.7374664903
  - # 9
    frequency:     6.7374664903
  - # 10
    frequency:     9.6587730719
  - # 11
    frequency:     9.8892817532
  - # 12
    frequency:     9.8892817532

- q-position: [    0.2395833,    0.0104167,    0.0104167 ]
  weight: 24   
  band:
  - # 1
    frequency:     2.3122593443
  - # 2
    frequency:     2.3171468539
  - # 3
    frequency:     3.7932871412
  - # 4
    frequency:     5.7044728481
  - # 5
    frequency:     5.7085161270
  - # 6
    frequency:     6.4721364298
  - # 7
    frequency:     6.4721364298
  - # 8
    frequency:     6.8494369693
  - # 9
    frequency:     6.8494369693
  - # 10
    frequency:     9.5414151120
  - # 11
    frequency:     9.8180770535
  - # 12
    frequency:     9.8180770535

- q-position: [    0.2604167,    0.0104167,    0.0104167 ]
  weight: 24   
  band:
  - # 1
    frequency:     2.5012823627
  - # 2
    frequency:     2.5053445865
  - # 3
    frequency:     4.1025830644
  - # 4
    frequency:     5.6325800224
  - # 5
    frequency:     5.6364953103
  - # 6
    frequency:     6.5231475876
  - # 7
    frequency:     6.5231475876
  - # 8
    frequency:     6.9672480435
  - # 9
    frequency:     6.9672480435
  - # 10
    frequency:     9.4138887523
  - # 11
    frequency:     9.7409409954
  - # 12
    frequency:     9.7409409954

- q-position: [    0.2812500,    0.0104167,    0.0104167 ]
  weight: 24   
  band:
  - # 1
    frequency:     2.6871042667
  - # 2
    frequency:     2.6904323735
  - # 3
    frequency:     4.4075995914
  - # 4
    frequency:     5.5548195686
  - # 5
    frequency:     5.5585949696
  - # 6
    frequency:     6.5733326395
  - # 7
    frequency:     6.5733326395
  - # 8
    frequency:     7.0900654910
  - # 9
    frequency:     7.0900654910
  - # 10
    frequency:     9.2763239900
  - # 11
    frequency:     9.6580261052
  - # 12
    frequency:     9.6580261052

- q-position: [    0.3020833,    0.0104167,    0.0104167 ]
  weight: 24   
  band:
  - # 1
    frequency:     2.8695239268
  - # 2
    frequency:     2.8721921365
  - # 3
    frequency:     4.7079717197
  - # 4
    frequency:     5.4712279665
  - # 5
    frequency:     5.4748512591
  - # 6
    frequency:     6.6218600700
  - # 7
    frequency:     6.6218600700
  - # 8
    frequency:     7.2170705831
  - # 9
    frequency:     7.2170705831
  - # 10
    frequency:     9.1288614049
  - # 11
    frequency:     9.5695022439
  - # 12
    frequency:     9.5695022439

- q-position: [    0.3229167,    0.0104167,    0.0104167 ]
  weight: 24   
  band:
  - # 1
    frequency:     3.0483453241
  - # 2
    frequency:     3.0504151604
  - # 3
    frequency:     5.0033491888
  - # 4
    frequency:     5.3818469232
  - # 5
    frequency:     5.3853055200
  - # 6
    frequency:     6.6679439141
  - # 7
    frequency:     6.6679439141
  - # 8
    frequency:     7.3474673542
  - # 9
    frequency:     7.3474673542
  - # 10
    frequency:     8.9716520914
  - # 11
    frequency:     9.4755576980
  - # 12
    frequency:     9.4755576980

- q-position: [    0.3437500,    0.0104167,    0.0104167 ]
  weight: 24   
  band:
  - # 1
    frequency:     3.2233787032
  - # 2
    frequency:     3.2249020116
  - # 3
    frequency:     5.2867238059
  - # 4
    frequency:     5.2900047078
  - # 5
    frequency:     5.2933942071
  - # 6
    frequency:     6.7108535498
  - # 7
    frequency:     6.7108535498
  - # 8
    frequency:     7.4804881122
  - # 9
    frequency:     7.4804881122
  - # 10
    frequency:     8.8048575846
  - # 11
    frequency:     9.3764003483
  - # 12
    frequency:     9.3764003483

- q-position: [    0.3645833,    0.0104167,    0.0104167 ]
  weight: 24   
  band:
  - # 1
    frequency:     3.3944414126
  - # 2
    frequency:     3.3954625468
  - # 3
    frequency:     5.1859120721
  - # 4
    frequency:     5.1890018155
  - # 5
    frequency:     5.5777800477
  - # 6
    frequency:     6.7499219623
  - # 7
    frequency:     6.7499219623
  - # 8
    frequency:     7.6153974197
  - # 9
    frequency:     7.6153974197
  - # 10
    frequency:     8.6286497780
  - # 11
    frequency:     9.2722589178
  - # 12
    frequency:     9.2722589178

- q-position: [    0.3854167,    0.0104167,    0.0104167 ]
  weight: 24   
  band:
  - # 1
    frequency:     3.5613585233
  - # 2
    frequency:     3.5619159562
  - # 3
    frequency:     5.0794716915
  - # 4
    frequency:     5.0823562873
  - # 5
    frequency:     5.8561901862
  - # 6
    frequency:     6.7845526072
  - # 7
    frequency:     6.7845526072
  - # 8
    frequency:     7.7514947738
  - # 9
    frequency:     7.7514947738
  - # 10
    frequency:     8.4432108348
  - # 11
    frequency:     9.1633843034
  - # 12
    frequency:     9.1633843034

- q-position: [    0.4062500,    0.0104167,    0.0104167 ]
  weight: 24   
  band:
  - # 1
    frequency:     3.7239632796
  - # 2
    frequency:     3.7240908110
  - # 3
    frequency:     4.9674695547
  - # 4
    frequency:     4.9701344164
  - # 5
    frequency:     6.1283177866
  - # 6
    frequency:     6.8142250149
  - # 7
    frequency:     6.8142250149
  - # 8
    frequency:     7.8881161855
  - # 9
    frequency:     7.8881161855
  - # 10
    frequency:     8.2487330907
  - # 11
    frequency:     9.0500510062
  - # 12
    frequency:     9.0500510062

- q-position: [    0.4270833,    0.0104167,    0.0104167 ]
  weight: 24   
  band:
  - # 1
    frequency:     3.8818250940
  - # 2
    frequency:     3.8820974205
  - # 3
    frequency:     4.8499798639
  - # 4
    frequency:     4.8524097232
  - # 5
    frequency:     6.3938654114
  - # 6
    frequency:     6.8384992847
  - # 7
    frequency:     6.8384992847
  - # 8
    frequency:     8.0246347944
  - # 9
    frequency:     8.0246347944
  - # 10
    frequency:     8.0454189509
  - # 11
    frequency:     8.9325587259
  - # 12
    frequency:     8.9325587259

- q-position: [    0.4479167,    0.0104167,    0.0104167 ]
  weight: 24   
  band:
  - # 1
    frequency:     4.0349662021
  - # 2
    frequency:     4.0356113937
  - # 3
    frequency:     4.7270845007
  - # 4
    frequency:     4.7292633062
  - # 5
    frequency:     6.6525448800
  - # 6
    frequency:     6.8570196037
  - # 7
    frequency:     6.8570196037
  - # 8
    frequency:     7.8334807806
  - # 9
    frequency:     8.1604604080
  - # 10
    frequency:     8.1604604080
  - # 11
    frequency:     8.8112344015
  - # 12
    frequency:     8.8112344015

- q-position: [    0.4687500,    0.0104167,    0.0104167 ]
  weight: 24   
  band:
  - # 1
    frequency:     4.1833709137
  - # 2
    frequency:     4.1843644792
  - # 3
    frequency:     4.5988733668
  - # 4
    frequency:     4.6007841622
  - # 5
    frequency:     6.8695169126
  - # 6
    frequency:     6.8695169126
  - # 7
    frequency:     6.9040772256
  - # 8
    frequency:     7.6131407905
  - # 9
    frequency:     8.2950362657
  - # 10
    frequency:     8.2950362657
  - # 11
    frequency:     8.6864365427
  - # 12
    frequency:     8.6864365427

- q-position: [    0.4895833,    0.0104167,    0.0104167 ]
  weight: 24   
  band:
  - # 1
    frequency:     4.3269053165
  - # 2
    frequency:     4.3282248346
  - # 3
    frequency:     4.4654446934
  - # 4
    frequency:     4.4670694704
  - # 5
    frequency:     6.8758108165
  - # 6
    frequency:     6.8758108165
  - # 7
    frequency:     7.1481927165
  - # 8
    frequency:     7.3846309195
  - # 9
    frequency:     8.4278016675
  - # 10
    frequency:     8.4278016675
  - # 11
    frequency:     8.5585933229
  - # 12
    frequency:     8.5585933229

- q-position: [    0.0312500,    0.0312500,    0.0104167 ]
  weight: 24   
  band:
  - # 1
    frequency:     0.3204153919
  - # 2
    frequency:     0.4322976200
  - # 3
    frequency:     0.8095891409
  - # 4
    frequency:     6.1001308533
  - # 5
    frequency:     6.1001308533
  - # 6
    frequency:     6.1023066152
  - # 7
    frequency:     6.1152817561
  - # 8
    frequency:     6.1152817561
  - # 9
    frequency:     6.1446069942
  - # 10
    frequency:    10.2346394019
  - # 11
    frequency:    10.2346394019
  - # 12
    frequency:    10.2387676605

- q-position: [    0.0520833,    0.0312500,    0.0104167 ]
  weight: 48   
  band:
  - # 1
    frequency:     0.4672479826
  - # 2
    frequency:     0.5980918590
  - # 3
    frequency:     1.0780331966
  - # 4
    frequency:     6.0880342179
  - # 5
    frequency:     6.1031511089
  - # 6
    frequency:     6.1072374758
  - # 7
    frequency:     6.1127918760
  - # 8
    frequency:     6.1414331087
  - # 9
    frequency:     6.1781697621
  - # 10
    frequency:    10.2130040638
  - # 11
    frequency:    10.2213855630
  - # 12
    frequency:    10.2253885541

- q-position: [    0.0729167,    0.0312500,    0.0104167 ]
  weight: 48   
  band:
  - # 1
    frequency:     0.6623588361
  - # 2
    frequency:     0.7831517817
  - # 3
    frequency:     1.3679421634
  - # 4
    frequency:     6.0698928363
  - # 5
    frequency:     6.0849595006
  - # 6
    frequency:     6.1207127238
  - # 7
    frequency:     6.1326967706
  - # 8
    frequency:     6.1790483232
  - # 9
    frequency:     6.2217488023
  - # 10
    frequency:    10.1805783960
  - # 11
    frequency:    10.2015320654
  - # 12
    frequency:    10.2053466091

- q-position: [    0.0937500,    0.0312500,    0.0104167 ]
  weight: 48   
  band:
  - # 1
    frequency:     0.8694810805
  - # 2
    frequency:     0.9757977094
  - # 3
    frequency:     1.6693022598
  - # 4
    frequency:     6.0457111145
  - # 5
    frequency:     6.0607123172
  - # 6
    frequency:     6.1420993339
  - # 7
    frequency:     6.1591249470
  - # 8
    frequency:     6.2280345813
  - # 9
    frequency:     6.2751775957
  - # 10
    frequency:    10.1373952017
  - # 11
    frequency:    10.1751118710
  - # 12
    frequency:    10.1786741277

- q-position: [    0.1145833,    0.0312500,    0.0104167 ]
  weight: 48   
  band:
  - # 1
    frequency:     1.0786443707
  - # 2
    frequency:     1.1715352981
  - # 3
    frequency:     1.9771493054
  - # 4
    frequency:     6.0154951248
  - # 5
    frequency:     6.0304169904
  - # 6
    frequency:     6.1706324640
  - # 7
    frequency:     6.1913895096
  - # 8
    frequency:     6.2880335956
  - # 9
    frequency:     6.3381929181
  - # 10
    frequency:    10.0834982129
  - # 11
    frequency:    10.1421693432
  - # 12
    frequency:    10.1454145881

- q-position: [    0.1354167,    0.0312500,    0.0104167 ]
  weight: 48   
  band:
  - # 1
    frequency:     1.2868194119
  - # 2
    frequency:     1.3682476987
  - # 3
    frequency:     2.2884798972
  - # 4
    frequency:     5.9792527708
  - # 5
    frequency:     5.9940832083
  - # 6
    frequency:     6.2054520698
  - # 7
    frequency:     6.2287732240
  - # 8
    frequency:     6.3585159112
  - # 9
    frequency:     6.4104275366
  - # 10
    frequency:    10.0189420840
  - # 11
    frequency:    10.1027606010
  - # 12
    frequency:    10.1056229923

- q-position: [    0.1562500,    0.0312500,    0.0104167 ]
  weight: 48   
  band:
  - # 1
    frequency:     1.4929363483
  - # 2
    frequency:     1.5647511042
  - # 3
    frequency:     2.6012913480
  - # 4
    frequency:     5.9369939886
  - # 5
    frequency:     5.9517231759
  - # 6
    frequency:     6.2456264141
  - # 7
    frequency:     6.2705069979
  - # 8
    frequency:     6.4388364360
  - # 9
    frequency:     6.4914197414
  - # 10
    frequency:     9.9437923856
  - # 11
    frequency:    10.0569539598
  - # 12
    frequency:    10.0593663020

- q-position: [    0.1770833,    0.0312500,    0.0104167 ]
  weight: 48   
  band:
  - # 1
    frequency:     1.6965402830
  - # 2
    frequency:     1.7602830197
  - # 3
    frequency:     2.9141573647
  - # 4
    frequency:     5.8887309810
  - # 5
    frequency:     5.9033519204
  - # 6
    frequency:     6.2901737482
  - # 7
    frequency:     6.3157707556
  - # 8
    frequency:     6.5282694700
  - # 9
    frequency:     6.5806266662
  - # 10
    frequency:     9.8581255951
  - # 11
    frequency:    10.0048304583
  - # 12
    frequency:    10.0067239582

- q-position: [    0.1979167,    0.0312500,    0.0104167 ]
  weight: 48   
  band:
  - # 1
    frequency:     1.8973790307
  - # 2
    frequency:     1.9542939084
  - # 3
    frequency:     3.2260047404
  - # 4
    frequency:     5.8344784805
  - # 5
    frequency:     5.8489876395
  - # 6
    frequency:     6.3380831015
  - # 7
    frequency:     6.3637043433
  - # 8
    frequency:     6.6260338889
  - # 9
    frequency:     6.6774388218
  - # 10
    frequency:     9.7620290871
  - # 11
    frequency:     9.9464844700
  - # 12
    frequency:     9.9477884875

- q-position: [    0.2187500,    0.0312500,    0.0104167 ]
  weight: 48   
  band:
  - # 1
    frequency:     2.0952657576
  - # 2
    frequency:     2.1463525073
  - # 3
    frequency:     3.5359856966
  - # 4
    frequency:     5.7742540387
  - # 5
    frequency:     5.7886520869
  - # 6
    frequency:     6.3883338075
  - # 7
    frequency:     6.4134224186
  - # 8
    frequency:     6.7313130955
  - # 9
    frequency:     6.7811948148
  - # 10
    frequency:     9.6556011207
  - # 11
    frequency:     9.8820243991
  - # 12
    frequency:     9.8826661911

- q-position: [    0.2395833,    0.0312500,    0.0104167 ]
  weight: 48   
  band:
  - # 1
    frequency:     2.2900317804
  - # 2
    frequency:     2.3360989275
  - # 3
    frequency:     3.8434014682
  - # 4
    frequency:     5.7080783393
  - # 5
    frequency:     5.7223709891
  - # 6
    frequency:     6.4399133214
  - # 7
    frequency:     6.4640304144
  - # 8
    frequency:     6.8432715499
  - # 9
    frequency:     6.8911956081
  - # 10
    frequency:     9.5389508262
  - # 11
    frequency:     9.8114779193
  - # 12
    frequency:     9.8115734584

- q-position: [    0.2604167,    0.0312500,    0.0104167 ]
  weight: 48   
  band:
  - # 1
    frequency:     2.4815110143
  - # 2
    frequency:     2.5232197887
  - # 3
    frequency:     4.1476550652
  - # 4
    frequency:     5.6359755315
  - # 5
    frequency:     5.6501744875
  - # 6
    frequency:     6.4918330446
  - # 7
    frequency:     6.5146401283
  - # 8
    frequency:     6.9610685824
  - # 9
    frequency:     7.0067178522
  - # 10
    frequency:     9.4121981891
  - # 11
    frequency:     9.7343599284
  - # 12
    frequency:     9.7352705286

- q-position: [    0.2812500,    0.0312500,    0.0104167 ]
  weight: 48   
  band:
  - # 1
    frequency:     2.6695358909
  - # 2
    frequency:     2.7074343009
  - # 3
    frequency:     4.4482212924
  - # 4
    frequency:     5.5579735847
  - # 5
    frequency:     5.5720975943
  - # 6
    frequency:     6.5431420527
  - # 7
    frequency:     6.5643841995
  - # 8
    frequency:     7.0838698053
  - # 9
    frequency:     7.1270259439
  - # 10
    frequency:     9.2754740337
  - # 11
    frequency:     9.6514648231
  - # 12
    frequency:     9.6532710982

- q-position: [    0.3020833,    0.0312500,    0.0104167 ]
  weight: 48   
  band:
  - # 1
    frequency:     2.8539373790
  - # 2
    frequency:     2.8884861236
  - # 3
    frequency:     4.7446272793
  - # 4
    frequency:     5.4741046644
  - # 5
    frequency:     5.4881806512
  - # 6
    frequency:     6.5929387694
  - # 7
    frequency:     6.6124291177
  - # 8
    frequency:     7.2108563359
  - # 9
    frequency:     7.2513825951
  - # 10
    frequency:     9.1289200054
  - # 11
    frequency:     9.5629625851
  - # 12
    frequency:     9.5657482842

- q-position: [    0.3229167,    0.0312500,    0.0104167 ]
  weight: 48   
  band:
  - # 1
    frequency:     3.0345463310
  - # 2
    frequency:     3.0661384274
  - # 3
    frequency:     5.0364395777
  - # 4
    frequency:     5.3844055334
  - # 5
    frequency:     5.3984697786
  - # 6
    frequency:     6.6403807233
  - # 7
    frequency:     6.6579866327
  - # 8
    frequency:     7.3412320291
  - # 9
    frequency:     7.3790578044
  - # 10
    frequency:     8.9726885524
  - # 11
    frequency:     9.4690416928
  - # 12
    frequency:     9.4728939356

- q-position: [    0.3437500,    0.0312500,    0.0104167 ]
  weight: 48   
  band:
  - # 1
    frequency:     3.2111951090
  - # 2
    frequency:     3.2401707987
  - # 3
    frequency:     5.2889179825
  - # 4
    frequency:     5.3030172965
  - # 5
    frequency:     5.3232554547
  - # 6
    frequency:     6.6846925820
  - # 7
    frequency:     6.7003235648
  - # 8
    frequency:     7.4742289296
  - # 9
    frequency:     7.5093362198
  - # 10
    frequency:     8.8069429088
  - # 11
    frequency:     9.3699103437
  - # 12
    frequency:     9.3749198268

- q-position: [    0.3645833,    0.0312500,    0.0104167 ]
  weight: 48   
  band:
  - # 1
    frequency:     3.3837191157
  - # 2
    frequency:     3.4103772354
  - # 3
    frequency:     5.1876892949
  - # 4
    frequency:     5.2018821048
  - # 5
    frequency:     5.6046969269
  - # 6
    frequency:     6.7251726736
  - # 7
    frequency:     6.7387701017
  - # 8
    frequency:     7.6091111506
  - # 9
    frequency:     7.6415229366
  - # 10
    frequency:     8.6318570793
  - # 11
    frequency:     9.2657978059
  - # 12
    frequency:     9.2720589616

- q-position: [    0.3854167,    0.0312500,    0.0104167 ]
  weight: 48   
  band:
  - # 1
    frequency:     3.5519581151
  - # 2
    frequency:     3.5765647982
  - # 3
    frequency:     5.0807727449
  - # 4
    frequency:     5.0951300093
  - # 5
    frequency:     5.8804066170
  - # 6
    frequency:     6.7611982088
  - # 7
    frequency:     6.7727267076
  - # 8
    frequency:     7.7451773500
  - # 9
    frequency:     7.7749477889
  - # 10
    frequency:     8.4476158286
  - # 11
    frequency:     9.1569559691
  - # 12
    frequency:     9.1645670461

- q-position: [    0.4062500,    0.0312500,    0.0104167 ]
  weight: 48   
  band:
  - # 1
    frequency:     3.7157573336
  - # 2
    frequency:     3.7385526554
  - # 3
    frequency:     4.9682281252
  - # 4
    frequency:     4.9828339899
  - # 5
    frequency:     6.1500448458
  - # 6
    frequency:     6.7922293959
  - # 7
    frequency:     6.8016697959
  - # 8
    frequency:     7.8817618487
  - # 9
    frequency:     7.9089680897
  - # 10
    frequency:     8.2544146772
  - # 11
    frequency:     9.0436612930
  - # 12
    frequency:     9.0527242941

- q-position: [    0.4270833,    0.0312500,    0.0104167 ]
  weight: 48   
  band:
  - # 1
    frequency:     3.8749683626
  - # 2
    frequency:     3.8961713595
  - # 3
    frequency:     4.8501222866
  - # 4
    frequency:     4.8650744154
  - # 5
    frequency:     6.4132875736
  - # 6
    frequency:     6.8178126193
  - # 7
    frequency:     6.8251563143
  - # 8
    frequency:     8.0182340265
  - # 9
    frequency:     8.0429693128
  - # 10
    frequency:     8.0524599086
  - # 11
    frequency:     8.9262178278
  - # 12
    frequency:     8.9368381296

- q-position: [    0.4479167,    0.0312500,    0.0104167 ]
  weight: 48   
  band:
  - # 1
    frequency:     4.0294498919
  - # 2
    frequency:     4.0492622557
  - # 3
    frequency:     4.7265296590
  - # 4
    frequency:     4.7419392259
  - # 5
    frequency:     6.6698249353
  - # 6
    frequency:     6.8375828238
  - # 7
    frequency:     6.8428273878
  - # 8
    frequency:     7.8419685914
  - # 9
    frequency:     8.1539938164
  - # 10
    frequency:     8.1763609804
  - # 11
    frequency:     8.8049642017
  - # 12
    frequency:     8.8172491234

- q-position: [    0.4687500,    0.0312500,    0.0104167 ]
  weight: 48   
  band:
  - # 1
    frequency:     4.1790683002
  - # 2
    frequency:     4.1976769584
  - # 3
    frequency:     4.5975327177
  - # 4
    frequency:     4.6135241101
  - # 5
    frequency:     6.8512652188
  - # 6
    frequency:     6.8544111471
  - # 7
    frequency:     6.9193601930
  - # 8
    frequency:     7.6231686242
  - # 9
    frequency:     8.2884490784
  - # 10
    frequency:     8.3085488452
  - # 11
    frequency:     8.6803036375
  - # 12
    frequency:     8.6943545222

- q-position: [    0.4895833,    0.0312500,    0.0104167 ]
  weight: 48   
  band:
  - # 1
    frequency:     4.3236981162
  - # 2
    frequency:     4.3412768672
  - # 3
    frequency:     4.4632223542
  - # 4
    frequency:     4.4799327082
  - # 5
    frequency:     6.8586763858
  - # 6
    frequency:     6.8597248504
  - # 7
    frequency:     7.1616089889
  - # 8
    frequency:     7.3962988126
  - # 9
    frequency:     8.4207595679
  - # 10
    frequency:     8.4385194265
  - # 11
    frequency:     8.5531210635
  - # 12
    frequency:     8.5688647555

- q-position: [    0.0520833,    0.0520833,    0.0104167 ]
  weight: 24   
  band:
  - # 1
    frequency:     0.5166178094
  - # 2
    frequency:     0.7273264287
  - # 3
    frequency:     1.3167136643
  - # 4
    frequency:     6.1006012254
  - # 5
    frequency:     6.1006012254
  - # 6
    frequency:     6.1035186287
  - # 7
    frequency:     6.1292678839
  - # 8
    frequency:     6.1292678839
  - # 9
    frequency:     6.2196257721
  - # 10
    frequency:    10.2000065567
  - # 11
    frequency:    10.2000065567
  - # 12
    frequency:    10.2120152617

- q-position: [    0.0729167,    0.0520833,    0.0104167 ]
  weight: 48   
  band:
  - # 1
    frequency:     0.6522130452
  - # 2
    frequency:     0.8862254004
  - # 3
    frequency:     1.5815578626
  - # 4
    frequency:     6.0823175967
  - # 5
    frequency:     6.1085634016
  - # 6
    frequency:     6.1110256882
  - # 7
    frequency:     6.1203382643
  - # 8
    frequency:     6.1668576950
  - # 9
    frequency:     6.2705240540
  - # 10
    frequency:    10.1679653567
  - # 11
    frequency:    10.1805386100
  - # 12
    frequency:    10.1919820461

- q-position: [    0.0937500,    0.0520833,    0.0104167 ]
  weight: 48   
  band:
  - # 1
    frequency:     0.8318101112
  - # 2
    frequency:     1.0608041462
  - # 3
    frequency:     1.8608561346
  - # 4
    frequency:     6.0579439259
  - # 5
    frequency:     6.0867134419
  - # 6
    frequency:     6.1220631857
  - # 7
    frequency:     6.1465263425
  - # 8
    frequency:     6.2158256658
  - # 9
    frequency:     6.3304001138
  - # 10
    frequency:    10.1252947441
  - # 11
    frequency:    10.1546344541
  - # 12
    frequency:    10.1653212201

- q-position: [    0.1145833,    0.0520833,    0.0104167 ]
  weight: 48   
  band:
  - # 1
    frequency:     1.0296256554
  - # 2
    frequency:     1.2437603433
  - # 3
    frequency:     2.1491479183
  - # 4
    frequency:     6.0274843280
  - # 5
    frequency:     6.0563406181
  - # 6
    frequency:     6.1434575902
  - # 7
    frequency:     6.1784810164
  - # 8
    frequency:     6.2758104185
  - # 9
    frequency:     6.3988188960
  - # 10
    frequency:    10.0720384432
  - # 11
    frequency:    10.1223401507
  - # 12
    frequency:    10.1320762759

- q-position: [    0.1354167,    0.0520833,    0.0104167 ]
  weight: 48   
  band:
  - # 1
    frequency:     1.2342654503
  - # 2