32   
1    

1    
  0.0100000000000000   0.0000000000000000   0.0000000000000000
  -0.0412144300   -0.0000000000    0.0000000000
   0.0022300400   -0.0000000000    0.0000000000
  -0.0001030700   -0.0000000000   -0.0000000000
   0.0005542400    0.0000000000   -0.0000000000
  -0.0001030700   -0.0000000000    0.0000000000
   0.0005542400   -0.0000000000   -0.0000000000
   0.0003597500    0.0000000000    0.0000000000
  -0.0007427400   -0.0000000000    0.0000000000
  -0.0012506800    0.0000165200   -0.0000165200
  -0.0004998800    0.0000004100   -0.0000004100
  -0.0012506800   -0.0000165200   -0.0000165200
  -0.0004998800   -0.0000004100   -0.0000004100
  -0.0012506800    0.0000165200    0.0000165200
  -0.0004998800    0.0000004100    0.0000004100
  -0.0012506800   -0.0000165200    0.0000165200
  -0.0004998800   -0.0000004100    0.0000004100
   0.0056347800   -0.0000000000   -0.0059153900
   0.0057748200    0.0000000000    0.0061082300
  -0.0000227200    0.0000000000    0.0001414800
  -0.0000200700   -0.0000000000   -0.0001390100
   0.0056347800    0.0000000000    0.0059153900
   0.0057748200    0.0000000000   -0.0061082300
  -0.0000227200    0.0000000000   -0.0001414800
  -0.0000200700   -0.0000000000    0.0001390100
   0.0056347800    0.0059153900   -0.0000000000
   0.0057748200   -0.0061082300   -0.0000000000
   0.0056347800   -0.0059153900    0.0000000000
   0.0057748200    0.0061082300    0.0000000000
  -0.0000227200   -0.0001414800    0.0000000000
  -0.0000200700    0.0001390100    0.0000000000
  -0.0000227200    0.0001414800   -0.0000000000
  -0.0000200700   -0.0001390100   -0.0000000000
