mesh: [    48,    48,    48 ]
nqpoint: 2600   
reciprocal_lattice:
- [   0.24523752,   0.00000000,   0.00000000 ] # a*
- [   0.00000000,   0.24523752,   0.00000000 ] # b*
- [   0.00000000,   0.00000000,   0.24523752 ] # c*
natom:   4      
lattice:
- [     4.077679433369544,     0.000000000000000,     0.000000000000000 ] # a
- [     0.000000000000000,     4.077679433369544,     0.000000000000000 ] # b
- [     0.000000000000000,     0.000000000000000,     4.077679433369544 ] # c
points:
- symbol: Al # 1
  coordinates: [  0.500000000000000,  0.500000000000000,  0.000000000000000 ]
  mass: 26.981539
- symbol: Al # 2
  coordinates: [  0.500000000000000,  0.000000000000000,  0.500000000000000 ]
  mass: 26.981539
- symbol: Al # 3
  coordinates: [  0.000000000000000,  0.500000000000000,  0.500000000000000 ]
  mass: 26.981539
- symbol: Al # 4
  coordinates: [  0.000000000000000,  0.000000000000000,  0.000000000000000 ]
  mass: 26.981539
phonon:
- q-position: [    0.0104167,    0.0104167,    0.0104167 ]
  weight: 8    
  band:
  - # 1
    frequency:     0.1251258898
  - # 2
    frequency:     0.1251258898
  - # 3
    frequency:     0.2897995797
  - # 4
    frequency:     5.3378228877
  - # 5
    frequency:     5.3378228877
  - # 6
    frequency:     5.3378228877
  - # 7
    frequency:     5.3420862432
  - # 8
    frequency:     5.3420862432
  - # 9
    frequency:     5.3420862432
  - # 10
    frequency:     9.0730285679
  - # 11
    frequency:     9.0730285679
  - # 12
    frequency:     9.0730285679

- q-position: [    0.0312500,    0.0104167,    0.0104167 ]
  weight: 24   
  band:
  - # 1
    frequency:     0.2525480687
  - # 2
    frequency:     0.2763497494
  - # 3
    frequency:     0.5310637848
  - # 4
    frequency:     5.3320844226
  - # 5
    frequency:     5.3363396580
  - # 6
    frequency:     5.3420339795
  - # 7
    frequency:     5.3420339795
  - # 8
    frequency:     5.3555090444
  - # 9
    frequency:     5.3555090444
  - # 10
    frequency:     9.0638346028
  - # 11
    frequency:     9.0668142205
  - # 12
    frequency:     9.0668142205

- q-position: [    0.0520833,    0.0104167,    0.0104167 ]
  weight: 24   
  band:
  - # 1
    frequency:     0.4252927337
  - # 2
    frequency:     0.4444523655
  - # 3
    frequency:     0.8100020955
  - # 4
    frequency:     5.3206138752
  - # 5
    frequency:     5.3248528607
  - # 6
    frequency:     5.3538518605
  - # 7
    frequency:     5.3538518605
  - # 8
    frequency:     5.3787038706
  - # 9
    frequency:     5.3787038706
  - # 10
    frequency:     9.0454515277
  - # 11
    frequency:     9.0543977227
  - # 12
    frequency:     9.0543977227

- q-position: [    0.0729167,    0.0104167,    0.0104167 ]
  weight: 24   
  band:
  - # 1
    frequency:     0.6005979345
  - # 2
    frequency:     0.6153457192
  - # 3
    frequency:     1.1000425544
  - # 4
    frequency:     5.3034240026
  - # 5
    frequency:     5.3076385878
  - # 6
    frequency:     5.3725512420
  - # 7
    frequency:     5.3725512420
  - # 8
    frequency:     5.4118940962
  - # 9
    frequency:     5.4118940962
  - # 10
    frequency:     9.0178890985
  - # 11
    frequency:     9.0358035163
  - # 12
    frequency:     9.0358035163

- q-position: [    0.0937500,    0.0104167,    0.0104167 ]
  weight: 24   
  band:
  - # 1
    frequency:     0.7751082846
  - # 2
    frequency:     0.7867278350
  - # 3
    frequency:     1.3939286545
  - # 4
    frequency:     5.2805339176
  - # 5
    frequency:     5.2847159218
  - # 6
    frequency:     5.3974640708
  - # 7
    frequency:     5.3974640708
  - # 8
    frequency:     5.4550149137
  - # 9
    frequency:     5.4550149137
  - # 10
    frequency:     8.9811620634
  - # 11
    frequency:     9.0110683831
  - # 12
    frequency:     9.0110683831

- q-position: [    0.1145833,    0.0104167,    0.0104167 ]
  weight: 24   
  band:
  - # 1
    frequency:     0.9484428833
  - # 2
    frequency:     0.9578061521
  - # 3
    frequency:     1.6887505792
  - # 4
    frequency:     5.2519690622
  - # 5
    frequency:     5.2561102630
  - # 6
    frequency:     5.4279298578
  - # 7
    frequency:     5.4279298578
  - # 8
    frequency:     5.5077854228
  - # 9
    frequency:     5.5077854228
  - # 10
    frequency:     8.9352902980
  - # 11
    frequency:     8.9802415884
  - # 12
    frequency:     8.9802415884

- q-position: [    0.1354167,    0.0104167,    0.0104167 ]
  weight: 24   
  band:
  - # 1
    frequency:     1.1204951569
  - # 2
    frequency:     1.1281593835
  - # 3
    frequency:     1.9830200024
  - # 4
    frequency:     5.2177611717
  - # 5
    frequency:     5.2218532939
  - # 6
    frequency:     5.4632566668
  - # 7
    frequency:     5.4632566668
  - # 8
    frequency:     5.5697751006
  - # 9
    frequency:     5.5697751006
  - # 10
    frequency:     8.8802989832
  - # 11
    frequency:     8.9433850730
  - # 12
    frequency:     8.9433850730

- q-position: [    0.1562500,    0.0104167,    0.0104167 ]
  weight: 24   
  band:
  - # 1
    frequency:     1.2911616156
  - # 2
    frequency:     1.2974936856
  - # 3
    frequency:     2.2758117380
  - # 4
    frequency:     5.1779482306
  - # 5
    frequency:     5.1819829340
  - # 6
    frequency:     5.5027065452
  - # 7
    frequency:     5.5027065452
  - # 8
    frequency:     5.6404491853
  - # 9
    frequency:     5.6404491853
  - # 10
    frequency:     8.8162188228
  - # 11
    frequency:     8.9005736947
  - # 12
    frequency:     8.9005736947

- q-position: [    0.1770833,    0.0104167,    0.0104167 ]
  weight: 24   
  band:
  - # 1
    frequency:     1.4603175400
  - # 2
    frequency:     1.4655690632
  - # 3
    frequency:     2.5664582758
  - # 4
    frequency:     5.1325744191
  - # 5
    frequency:     5.1365432856
  - # 6
    frequency:     5.5454972453
  - # 7
    frequency:     5.5454972453
  - # 8
    frequency:     5.7191994291
  - # 9
    frequency:     5.7191994291
  - # 10
    frequency:     8.7430862986
  - # 11
    frequency:     8.8518955200
  - # 12
    frequency:     8.8518955200

- q-position: [    0.1979167,    0.0104167,    0.0104167 ]
  weight: 24   
  band:
  - # 1
    frequency:     1.6278216741
  - # 2
    frequency:     1.6321719772
  - # 3
    frequency:     2.8544246922
  - # 4
    frequency:     5.0816900527
  - # 5
    frequency:     5.0855845719
  - # 6
    frequency:     5.5908123545
  - # 7
    frequency:     5.5908123545
  - # 8
    frequency:     5.8053665477
  - # 9
    frequency:     5.8053665477
  - # 10
    frequency:     8.6609439592
  - # 11
    frequency:     8.7974521667
  - # 12
    frequency:     8.7974521667

- q-position: [    0.2187500,    0.0104167,    0.0104167 ]
  weight: 24   
  band:
  - # 1
    frequency:     1.7935222896
  - # 2
    frequency:     1.7971036038
  - # 3
    frequency:     3.1392516383
  - # 4
    frequency:     5.0253515118
  - # 5
    frequency:     5.0291630658
  - # 6
    frequency:     5.6378150522
  - # 7
    frequency:     5.6378150522
  - # 8
    frequency:     5.8982578443
  - # 9
    frequency:     5.8982578443
  - # 10
    frequency:     8.5698407392
  - # 11
    frequency:     8.7373591990
  - # 12
    frequency:     8.7373591990

- q-position: [    0.2395833,    0.0104167,    0.0104167 ]
  weight: 24   
  band:
  - # 1
    frequency:     1.9572615087
  - # 2
    frequency:     1.9601742807
  - # 3
    frequency:     3.4205271264
  - # 4
    frequency:     4.9636211654
  - # 5
    frequency:     4.9673410117
  - # 6
    frequency:     5.6856628852
  - # 7
    frequency:     5.6856628852
  - # 8
    frequency:     5.9971616305
  - # 9
    frequency:     5.9971616305
  - # 10
    frequency:     8.4698323045
  - # 11
    frequency:     8.6717465771
  - # 12
    frequency:     8.6717465771

- q-position: [    0.2604167,    0.0104167,    0.0104167 ]
  weight: 24   
  band:
  - # 1
    frequency:     2.1188781414
  - # 2
    frequency:     2.1212006913
  - # 3
    frequency:     3.6978716535
  - # 4
    frequency:     4.8965672857
  - # 5
    frequency:     4.9001865382
  - # 6
    frequency:     5.7335221676
  - # 7
    frequency:     5.7335221676
  - # 8
    frequency:     6.1013591686
  - # 9
    frequency:     6.1013591686
  - # 10
    frequency:     8.3609814190
  - # 11
    frequency:     8.6007591611
  - # 12
    frequency:     8.6007591611

- q-position: [    0.2812500,    0.0104167,    0.0104167 ]
  weight: 24   
  band:
  - # 1
    frequency:     2.2782095491
  - # 2
    frequency:     2.2800043736
  - # 3
    frequency:     3.9709299684
  - # 4
    frequency:     4.8242639560
  - # 5
    frequency:     4.8277735638
  - # 6
    frequency:     5.7805812860
  - # 7
    frequency:     5.7805812860
  - # 8
    frequency:     6.2101344942
  - # 9
    frequency:     6.2101344942
  - # 10
    frequency:     8.2433583286
  - # 11
    frequency:     8.5245572723
  - # 12
    frequency:     8.5245572723

- q-position: [    0.3020833,    0.0104167,    0.0104167 ]
  weight: 24   
  band:
  - # 1
    frequency:     2.4350929033
  - # 2
    frequency:     2.4364109173
  - # 3
    frequency:     4.2393663456
  - # 4
    frequency:     4.7467909717
  - # 5
    frequency:     4.7501816950
  - # 6
    frequency:     5.8260625660
  - # 7
    frequency:     5.8260625660
  - # 8
    frequency:     6.3227823477
  - # 9
    frequency:     6.3227823477
  - # 10
    frequency:     8.1170411572
  - # 11
    frequency:     8.4433173139
  - # 12
    frequency:     8.4433173139

- q-position: [    0.3229167,    0.0104167,    0.0104167 ]
  weight: 24   
  band:
  - # 1
    frequency:     2.5893660708
  - # 2
    frequency:     2.5902495372
  - # 3
    frequency:     4.5028618003
  - # 4
    frequency:     4.6642337344
  - # 5
    frequency:     4.6674961171
  - # 6
    frequency:     5.8692325849
  - # 7
    frequency:     5.8692325849
  - # 8
    frequency:     6.4386144148
  - # 9
    frequency:     6.4386144148
  - # 10
    frequency:     7.9821163094
  - # 11
    frequency:     8.3572324509
  - # 12
    frequency:     8.3572324509

- q-position: [    0.3437500,    0.0104167,    0.0104167 ]
  weight: 24   
  band:
  - # 1
    frequency:     2.7408682621
  - # 2
    frequency:     2.7413528658
  - # 3
    frequency:     4.5766831400
  - # 4
    frequency:     4.5798074786
  - # 5
    frequency:     4.7611124154
  - # 6
    frequency:     5.9094109472
  - # 7
    frequency:     5.9094109472
  - # 8
    frequency:     6.5569640725
  - # 9
    frequency:     6.5569640725
  - # 10
    frequency:     7.8386788761
  - # 11
    frequency:     8.2665133546
  - # 12
    frequency:     8.2665133546

- q-position: [    0.3645833,    0.0104167,    0.0104167 ]
  weight: 24   
  band:
  - # 1
    frequency:     2.8894405303
  - # 2
    frequency:     2.8895568749
  - # 3
    frequency:     4.4842354608
  - # 4
    frequency:     4.4872117676
  - # 5
    frequency:     5.0138283214
  - # 6
    frequency:     5.9459776197
  - # 7
    frequency:     5.9459776197
  - # 8
    frequency:     6.6771898416
  - # 9
    frequency:     6.6771898416
  - # 10
    frequency:     7.6868330362
  - # 11
    frequency:     8.1713890120
  - # 12
    frequency:     8.1713890120

- q-position: [    0.3854167,    0.0104167,    0.0104167 ]
  weight: 24   
  band:
  - # 1
    frequency:     3.0347008795
  - # 2
    frequency:     3.0349261694
  - # 3
    frequency:     4.3869922223
  - # 4
    frequency:     4.3898101836
  - # 5
    frequency:     5.2607330651
  - # 6
    frequency:     5.9783789626
  - # 7
    frequency:     5.9783789626
  - # 8
    frequency:     6.7986777380
  - # 9
    frequency:     6.7986777380
  - # 10
    frequency:     7.5266924514
  - # 11
    frequency:     8.0721076100
  - # 12
    frequency:     8.0721076100

- q-position: [    0.4062500,    0.0104167,    0.0104167 ]
  weight: 24   
  band:
  - # 1
    frequency:     3.1766275918
  - # 2
    frequency:     3.1771710476
  - # 3
    frequency:     4.2850600746
  - # 4
    frequency:     4.2877090010
  - # 5
    frequency:     5.5015632093
  - # 6
    frequency:     6.0061326073
  - # 7
    frequency:     6.0061326073
  - # 8
    frequency:     6.9208426963
  - # 9
    frequency:     6.9208426963
  - # 10
    frequency:     7.3583806474
  - # 11
    frequency:     7.9689375095
  - # 12
    frequency:     7.9689375095

- q-position: [    0.4270833,    0.0104167,    0.0104167 ]
  weight: 24   
  band:
  - # 1
    frequency:     3.3151832099
  - # 2
    frequency:     3.3160238934
  - # 3
    frequency:     4.1785506603
  - # 4
    frequency:     4.1810194280
  - # 5
    frequency:     5.7360680651
  - # 6
    frequency:     6.0288313315
  - # 7
    frequency:     6.0288313315
  - # 8
    frequency:     7.0431291724
  - # 9
    frequency:     7.0431291724
  - # 10
    frequency:     7.1820313791
  - # 11
    frequency:     7.8621683751
  - # 12
    frequency:     7.8621683751

- q-position: [    0.4479167,    0.0104167,    0.0104167 ]
  weight: 24   
  band:
  - # 1
    frequency:     3.4502175277
  - # 2
    frequency:     3.4513365510
  - # 3
    frequency:     4.0675804772
  - # 4
    frequency:     4.0698574586
  - # 5
    frequency:     5.9640094971
  - # 6
    frequency:     6.0461460671
  - # 7
    frequency:     6.0461460671
  - # 8
    frequency:     6.9977889748
  - # 9
    frequency:     7.1650108077
  - # 10
    frequency:     7.1650108077
  - # 11
    frequency:     7.7521127270
  - # 12
    frequency:     7.7521127270

- q-position: [    0.4687500,    0.0104167,    0.0104167 ]
  weight: 24   
  band:
  - # 1
    frequency:     3.5815840591
  - # 2
    frequency:     3.5829642111
  - # 3
    frequency:     3.9522707391
  - # 4
    frequency:     3.9543437187
  - # 5
    frequency:     6.0578281624
  - # 6
    frequency:     6.0578281624
  - # 7
    frequency:     6.1851617609
  - # 8
    frequency:     6.8058086554
  - # 9
    frequency:     7.2859875456
  - # 10
    frequency:     7.2859875456
  - # 11
    frequency:     7.6391096491
  - # 12
    frequency:     7.6391096491

- q-position: [    0.4895833,    0.0104167,    0.0104167 ]
  weight: 24   
  band:
  - # 1
    frequency:     3.7091401730
  - # 2
    frequency:     3.7107656253
  - # 3
    frequency:     3.8327472326
  - # 4
    frequency:     3.8346033064
  - # 5
    frequency:     6.0637109924
  - # 6
    frequency:     6.0637109924
  - # 7
    frequency:     6.3993113491
  - # 8
    frequency:     6.6062568279
  - # 9
    frequency:     7.4055507572
  - # 10
    frequency:     7.4055507572
  - # 11
    frequency:     7.5235601972
  - # 12
    frequency:     7.5235601972

- q-position: [    0.0312500,    0.0312500,    0.0104167 ]
  weight: 24   
  band:
  - # 1
    frequency:     0.2828513506
  - # 2
    frequency:     0.3658579084
  - # 3
    frequency:     0.7176709375
  - # 4
    frequency:     5.3362916199
  - # 5
    frequency:     5.3362916199
  - # 6
    frequency:     5.3384369295
  - # 7
    frequency:     5.3497541396
  - # 8
    frequency:     5.3497541396
  - # 9
    frequency:     5.3765721408
  - # 10
    frequency:     9.0576785823
  - # 11
    frequency:     9.0576785823
  - # 12
    frequency:     9.0606070238

- q-position: [    0.0520833,    0.0312500,    0.0104167 ]
  weight: 48   
  band:
  - # 1
    frequency:     0.4086080385
  - # 2
    frequency:     0.5052021005
  - # 3
    frequency:     0.9585136676
  - # 4
    frequency:     5.3248130808
  - # 5
    frequency:     5.3382508108
  - # 6
    frequency:     5.3429583165
  - # 7
    frequency:     5.3480823500
  - # 8
    frequency:     5.3729511332
  - # 9
    frequency:     5.4067321804
  - # 10
    frequency:     9.0394120740
  - # 11
    frequency:     9.0453789428
  - # 12
    frequency:     9.0482047510

- q-position: [    0.0729167,    0.0312500,    0.0104167 ]
  weight: 48   
  band:
  - # 1
    frequency:     0.5725541702
  - # 2
    frequency:     0.6610048367
  - # 3
    frequency:     1.2209296485
  - # 4
    frequency:     5.3076107120
  - # 5
    frequency:     5.3210120127
  - # 6
    frequency:     5.3553787150
  - # 7
    frequency:     5.3667271175
  - # 8
    frequency:     5.4061571278
  - # 9
    frequency:     5.4457151883
  - # 10
    frequency:     9.0120242809
  - # 11
    frequency:     9.0269605370
  - # 12
    frequency:     9.0296316921

- q-position: [    0.0937500,    0.0312500,    0.0104167 ]
  weight: 48   
  band:
  - # 1
    frequency:     0.7460972222
  - # 2
    frequency:     0.8234372853
  - # 3
    frequency:     1.4944463873
  - # 4
    frequency:     5.2847030117
  - # 5
    frequency:     5.2980571603
  - # 6
    frequency:     5.3751724418
  - # 7
    frequency:     5.3915571161
  - # 8
    frequency:     5.4493064756
  - # 9
    frequency:     5.4933260195
  - # 10
    frequency:     8.9755297024
  - # 11
    frequency:     9.0024607685
  - # 12
    frequency:     9.0049244029

- q-position: [    0.1145833,    0.0312500,    0.0104167 ]
  weight: 48   
  band:
  - # 1
    frequency:     0.9214051360
  - # 2
    frequency:     0.9887118667
  - # 3
    frequency:     1.7739093623
  - # 4
    frequency:     5.2561145948
  - # 5
    frequency:     5.2694121089
  - # 6
    frequency:     5.4016791768
  - # 7
    frequency:     5.4219120642
  - # 8
    frequency:     5.5021160220
  - # 9
    frequency:     5.5492983768
  - # 10
    frequency:     8.9299478974
  - # 11
    frequency:     8.9719297415
  - # 12
    frequency:     8.9741318517

- q-position: [    0.1354167,    0.0312500,    0.0104167 ]
  weight: 48   
  band:
  - # 1
    frequency:     1.0961454268
  - # 2
    frequency:     1.1550586977
  - # 3
    frequency:     2.0562995090
  - # 4
    frequency:     5.2218761512
  - # 5
    frequency:     5.2351091273
  - # 6
    frequency:     5.4341319425
  - # 7
    frequency:     5.4571000528
  - # 8
    frequency:     5.5641527712
  - # 9
    frequency:     5.6132934055
  - # 10
    frequency:     8.8753036738
  - # 11
    frequency:     8.9354304609
  - # 12
    frequency:     8.9373156147

- q-position: [    0.1562500,    0.0312500,    0.0104167 ]
  weight: 48   
  band:
  - # 1
    frequency:     1.2695126513
  - # 2
    frequency:     1.3215015602
  - # 3
    frequency:     2.3396708849
  - # 4
    frequency:     5.1820243931
  - # 5
    frequency:     5.1951868644
  - # 6
    frequency:     5.4716787377
  - # 7
    frequency:     5.4963826975
  - # 8
    frequency:     5.6348796065
  - # 9
    frequency:     5.6849079782
  - # 10
    frequency:     8.8116273221
  - # 11
    frequency:     8.8930390840
  - # 12
    frequency:     8.8945501215

- q-position: [    0.1770833,    0.0312500,    0.0104167 ]
  weight: 48   
  band:
  - # 1
    frequency:     1.4411676280
  - # 2
    frequency:     1.4874217812
  - # 3
    frequency:     2.6226734103
  - # 4
    frequency:     5.1366019926
  - # 5
    frequency:     5.1496903096
  - # 6
    frequency:     5.5134050864
  - # 7
    frequency:     5.5389768593
  - # 8
    frequency:     5.7136860971
  - # 9
    frequency:     5.7636837934
  - # 10
    frequency:     8.7389548890
  - # 11
    frequency:     8.8448452238
  - # 12
    frequency:     8.8459229528

- q-position: [    0.1979167,    0.0312500,    0.0104167 ]
  weight: 48   
  band:
  - # 1
    frequency:     1.6109198415
  - # 2
    frequency:     1.6523799788
  - # 3
    frequency:     2.9043085223
  - # 4
    frequency:     5.0856575100
  - # 5
    frequency:     5.0986707459
  - # 6
    frequency:     5.5583572093
  - # 7
    frequency:     5.5840648258
  - # 8
    frequency:     5.7999109439
  - # 9
    frequency:     5.8491160829
  - # 10
    frequency:     8.6573284888
  - # 11
    frequency:     8.7909523046
  - # 12
    frequency:     8.7915351894

- q-position: [    0.2187500,    0.0312500,    0.0104167 ]
  weight: 48   
  band:
  - # 1
    frequency:     1.7786243101
  - # 2
    frequency:     1.8160347569
  - # 3
    frequency:     3.1837953702
  - # 4
    frequency:     5.0292453129
  - # 5
    frequency:     5.0421856974
  - # 6
    frequency:     5.6055645516
  - # 7
    frequency:     5.6308081110
  - # 8
    frequency:     5.8928595985
  - # 9
    frequency:     5.9406619254
  - # 10
    frequency:     8.5667966475
  - # 11
    frequency:     8.7314779719
  - # 12
    frequency:     8.7315018156

- q-position: [    0.2395833,    0.0312500,    0.0104167 ]
  weight: 48   
  band:
  - # 1
    frequency:     1.9441468885
  - # 2
    frequency:     1.9781022551
  - # 3
    frequency:     3.4604941354
  - # 4
    frequency:     4.9674254868
  - # 5
    frequency:     4.9802988683
  - # 6
    frequency:     5.6540604933
  - # 7
    frequency:     5.6783622556
  - # 8
    frequency:     5.9918186852
  - # 9
    frequency:     6.0377483582
  - # 10
    frequency:     8.4674146781
  - # 11
    frequency:     8.6659521787
  - # 12
    frequency:     8.6665545567

- q-position: [    0.2604167,    0.0312500,    0.0104167 ]
  weight: 48   
  band:
  - # 1
    frequency:     2.1073529549
  - # 2
    frequency:     2.1383345780
  - # 3
    frequency:     3.7338604463
  - # 4
    frequency:     4.9002637398
  - # 5
    frequency:     4.9130800738
  - # 6
    frequency:     5.7029004636
  - # 7
    frequency:     5.7258912425
  - # 8
    frequency:     6.0960679443
  - # 9
    frequency:     6.1397803880
  - # 10
    frequency:     8.3592450797
  - # 11
    frequency:     8.5950305055
  - # 12
    frequency:     8.5963295960

- q-position: [    0.2812500,    0.0312500,    0.0104167 ]
  weight: 48   
  band:
  - # 1
    frequency:     2.2681043792
  - # 2
    frequency:     2.2965076329
  - # 3
    frequency:     4.0034174088
  - # 4
    frequency:     4.8278313013
  - # 5
    frequency:     4.8406051623
  - # 6
    frequency:     5.7511771245
  - # 7
    frequency:     5.7725808096
  - # 8
    frequency:     6.2048900506
  - # 9
    frequency:     6.2461488481
  - # 10
    frequency:     8.2423579599
  - # 11
    frequency:     8.5188964811
  - # 12
    frequency:     8.5209664108

- q-position: [    0.3020833,    0.0312500,    0.0104167 ]
  weight: 48   
  band:
  - # 1
    frequency:     2.4262594055
  - # 2
    frequency:     2.4524139530
  - # 3
    frequency:     4.2687379580
  - # 4
    frequency:     4.7502048184
  - # 5
    frequency:     4.7629559263
  - # 6
    frequency:     5.7980326589
  - # 7
    frequency:     5.8176503237
  - # 8
    frequency:     6.3175785329
  - # 9
    frequency:     6.3562379209
  - # 10
    frequency:     8.1168314721
  - # 11
    frequency:     8.4377258922
  - # 12
    frequency:     8.4406447453

- q-position: [    0.3229167,    0.0312500,    0.0104167 ]
  weight: 48   
  band:
  - # 1
    frequency:     2.5816734785
  - # 2
    frequency:     2.6058583058
  - # 3
    frequency:     4.5294334418
  - # 4
    frequency:     4.6674662508
  - # 5
    frequency:     4.6802200002
  - # 6
    frequency:     5.8426684389
  - # 7
    frequency:     5.8603631016
  - # 8
    frequency:     6.4334439867
  - # 9
    frequency:     6.4694320982
  - # 10
    frequency:     7.9827522669
  - # 11
    frequency:     8.3517113437
  - # 12
    frequency:     8.3555614708

- q-position: [    0.3437500,    0.0312500,    0.0104167 ]
  weight: 48   
  band:
  - # 1
    frequency:     2.7342002869
  - # 2
    frequency:     2.7566549233
  - # 3
    frequency:     4.5797027674
  - # 4
    frequency:     4.5924907445
  - # 5
    frequency:     4.7851460685
  - # 6
    frequency:     5.8843524703
  - # 7
    frequency:     5.9000352014
  - # 8
    frequency:     6.5518187690
  - # 9
    frequency:     6.5851223588
  - # 10
    frequency:     7.8402159517
  - # 11
    frequency:     8.2610630614
  - # 12
    frequency:     8.2659313640

- q-position: [    0.3645833,    0.0312500,    0.0104167 ]
  weight: 48   
  band:
  - # 1
    frequency:     2.8836927705
  - # 2
    frequency:     2.9046257133
  - # 3
    frequency:     4.4870066459
  - # 4
    frequency:     4.4998671145
  - # 5
    frequency:     5.0355438053
  - # 6
    frequency:     5.9224250307
  - # 7
    frequency:     5.9360427823
  - # 8
    frequency:     6.6720603540
  - # 9
    frequency:     6.7027113963
  - # 10
    frequency:     7.6893275538
  - # 11
    frequency:     8.1660098081
  - # 12
    frequency:     8.1719879816

- q-position: [    0.3854167,    0.0312500,    0.0104167 ]
  weight: 48   
  band:
  - # 1
    frequency:     3.0300040158
  - # 2
    frequency:     3.0495990831
  - # 3
    frequency:     4.3894751763
  - # 4
    frequency:     4.4024535127
  - # 5
    frequency:     5.2803168619
  - # 6
    frequency:     5.9563028820
  - # 7
    frequency:     5.9678281746
  - # 8
    frequency:     6.7935534915
  - # 9
    frequency:     6.8216177656
  - # 10
    frequency:     7.5302019866
  - # 11
    frequency:     8.0667999829
  - # 12
    frequency:     8.0739846861

- q-position: [    0.4062500,    0.0312500,    0.0104167 ]
  weight: 48   
  band:
  - # 1
    frequency:     3.1729880305
  - # 2
    frequency:     3.1914091532
  - # 3
    frequency:     4.2872105669
  - # 4
    frequency:     4.3003596281
  - # 5
    frequency:     5.5191752152
  - # 6
    frequency:     5.9854823789
  - # 7
    frequency:     5.9949048165
  - # 8
    frequency:     6.9157111941
  - # 9
    frequency:     6.9412787669
  - # 10
    frequency:     7.3629645129
  - # 11
    frequency:     7.9637030923
  - # 12
    frequency:     7.9721959810

- q-position: [    0.4270833,    0.0312500,    0.0104167 ]
  weight: 48   
  band:
  - # 1
    frequency:     3.3125004119
  - # 2
    frequency:     3.3298952298
  - # 3
    frequency:     4.1803198496
  - # 4
    frequency:     4.1937002654
  - # 5
    frequency:     5.7518468282
  - # 6
    frequency:     6.0095417224
  - # 7
    frequency:     6.0168612137
  - # 8
    frequency:     7.0379741932
  - # 9
    frequency:     7.0611514947
  - # 10
    frequency:     7.1877512059
  - # 11
    frequency:     7.8570122284
  - # 12
    frequency:     7.8669196804

- q-position: [    0.4479167,    0.0312500,    0.0104167 ]
  weight: 48   
  band:
  - # 1
    frequency:     3.4483989243
  - # 2
    frequency:     3.4649014488
  - # 3
    frequency:     4.0689147784
  - # 4
    frequency:     4.0825951713
  - # 5
    frequency:     5.9780763313
  - # 6
    frequency:     6.0281425478
  - # 7
    frequency:     6.0333640683
  - # 8
    frequency:     7.0047094065
  - # 9
    frequency:     7.1598068162
  - # 10
    frequency:     7.1807094163
  - # 11
    frequency:     7.7470502842
  - # 12
    frequency:     7.7584821020

- q-position: [    0.4687500,    0.0312500,    0.0104167 ]
  weight: 48   
  band:
  - # 1
    frequency:     3.5805440006
  - # 2
    frequency:     3.5962765437
  - # 3
    frequency:     3.9531117126
  - # 4
    frequency:     3.9671688666
  - # 5
    frequency:     6.0410309804
  - # 6
    frequency:     6.0441607057
  - # 7
    frequency:     6.1976240164
  - # 8
    frequency:     6.8139981779
  - # 9
    frequency:     7.2806759966
  - # 10
    frequency:     7.2994166354
  - # 11
    frequency:     7.6341978593
  - # 12
    frequency:     7.6472596837

- q-position: [    0.4895833,    0.0312500,    0.0104167 ]
  weight: 48   
  band:
  - # 1
    frequency:     3.7087991781
  - # 2
    frequency:     3.7238737023
  - # 3
    frequency:     3.8330314755
  - # 4
    frequency:     3.8475504956
  - # 5
    frequency:     6.0480382485
  - # 6
    frequency:     6.0490809086
  - # 7
    frequency:     6.4102650395
  - # 8
    frequency:     6.6157887614
  - # 9
    frequency:     7.3998131898
  - # 10
    frequency:     7.4163357689
  - # 11
    frequency:     7.5192870318
  - # 12
    frequency:     7.5339173394

- q-position: [    0.0520833,    0.0520833,    0.0104167 ]
  weight: 24   
  band:
  - # 1
    frequency:     0.4577071843
  - # 2
    frequency:     0.6143844664
  - # 3
    frequency:     1.1684956470
  - # 4
    frequency:     5.3365489587
  - # 5
    frequency:     5.3365489587
  - # 6
    frequency:     5.3395315005
  - # 7
    frequency:     5.3614525201
  - # 8
    frequency:     5.3614525201
  - # 9
    frequency:     5.4441864141
  - # 10
    frequency:     9.0273459603
  - # 11
    frequency:     9.0273459603
  - # 12
    frequency:     9.0358307766

- q-position: [    0.0729167,    0.0520833,    0.0104167 ]
  weight: 48   
  band:
  - # 1
    frequency:     0.5746953586
  - # 2
    frequency:     0.7486651894
  - # 3
    frequency:     1.4053817381
  - # 4
    frequency:     5.3192629469
  - # 5
    frequency:     5.3441787695
  - # 6
    frequency:     5.3442217380
  - # 7
    frequency:     5.3550838358
  - # 8
    frequency:     5.3946905134
  - # 9
    frequency:     5.4899823289
  - # 10
    frequency:     9.0003079854
  - # 11
    frequency:     9.0092788267
  - # 12
    frequency:     9.0172997875

- q-position: [    0.0937500,    0.0520833,    0.0104167 ]
  weight: 48   
  band:
  - # 1
    frequency:     0.7263915434
  - # 2
    frequency:     0.8963195276
  - # 3
    frequency:     1.6571669656
  - # 4
    frequency:     5.2962412079
  - # 5
    frequency:     5.3212793053
  - # 6
    frequency:     5.3566348154
  - # 7
    frequency:     5.3797476523
  - # 8
    frequency:     5.4378972754
  - # 9
    frequency:     5.5436877752
  - # 10
    frequency:     8.9642789698
  - # 11
    frequency:     8.9852492653
  - # 12
    frequency:     8.9926478912

- q-position: [    0.1145833,    0.0520833,    0.0104167 ]
  weight: 48   
  band:
  - # 1
    frequency:     0.8926155885
  - # 2
    frequency:     1.0512234982
  - # 3
    frequency:     1.9180549937
  - # 4
    frequency:     5.2675062723
  - # 5
    frequency:     5.2926525000
  - # 6
    frequency:     5.3764209149
  - # 7
    frequency:     5.4098807052
  - # 8
    frequency:     5.4907850725
  - # 9
    frequency:     5.6048836025
  - # 10
    frequency:     8.9192777703
  - # 11
    frequency:     8.9553089789
  - # 12
    frequency:     8.9619234662

- q-position: [    0.1354167,    0.0520833,    0.0104167 ]
  weight: 48   
  band:
  - # 1
    frequency:     1.0643824553
  - # 2