 running on    4 nodes
 distr:  one band on    1 nodes,    4 groups
 vasp.4.6.28 25Jul05 complex 
 POSCAR found :  1 types and   32 ions

 ----------------------------------------------------------------------------- 
|                                                                             |
|  ADVICE TO THIS USER RUNNING 'VASP/VAMP'   (HEAR YOUR MASTER'S VOICE ...):  |
|                                                                             |
|      You have a (more or less) 'large supercell' and for larger cells       |
|      it might be more efficient to use real space projection operators      |
|      So try LREAL= Auto  in the INCAR   file.                               |
|      Mind: If you want to do an extremely accurate calculations keep the    |
|      reciprocal projection scheme          (i.e. LREAL=.FALSE.)             |
|                                                                             |
 ----------------------------------------------------------------------------- 

 LDA part: xc-table for Pade appr. of Perdew
 POSCAR, INCAR and KPOINTS ok, starting setup
 FFT: planning ...           1
 reading WAVECAR
 entering main loop
       N       E                     dE             d eps       ncg     rms          rms(c)
DAV:   1     0.186035740989E+03    0.18604E+03   -0.42677E+04 26656   0.154E+03
DAV:   2    -0.102165177936E+03   -0.28820E+03   -0.26968E+03 31112   0.170E+02
DAV:   3    -0.120024872616E+03   -0.17860E+02   -0.16836E+02 33220   0.323E+01
DAV:   4    -0.120455719119E+03   -0.43085E+00   -0.42532E+00 31408   0.494E+00
DAV:   5    -0.120461094169E+03   -0.53750E-02   -0.53666E-02 31816   0.663E-01    0.538E+00
DAV:   6    -0.120032313136E+03    0.42878E+00   -0.46757E-02 30756   0.722E-01    0.334E+00
DAV:   7    -0.119719766111E+03    0.31255E+00   -0.13925E-01 29440   0.116E+00    0.136E-01
DAV:   8    -0.119719921346E+03   -0.15524E-03   -0.12160E-03 31820   0.138E-01    0.474E-02
DAV:   9    -0.119719954615E+03   -0.33269E-04   -0.54303E-05 31132   0.217E-02    0.396E-03
DAV:  10    -0.119719955634E+03   -0.10190E-05   -0.35051E-06 31836   0.599E-03    0.203E-03
DAV:  11    -0.119719953028E+03    0.26064E-05   -0.24292E-07 31312   0.152E-03    0.796E-04
DAV:  12    -0.119719951907E+03    0.11207E-05   -0.22935E-08 21752   0.496E-04    0.127E-04
DAV:  13    -0.119719951756E+03    0.15075E-06   -0.30147E-09 17744   0.205E-04    0.341E-05
DAV:  14    -0.119719951749E+03    0.76350E-08   -0.50348E-10 17168   0.782E-05
   1 F= -.11971995E+03 E0= -.11971957E+03  d E =-.756763E-03
