  32  32   0   0
  0.1596323E+02  0.7993867E-09  0.7993867E-09  0.7993867E-09  0.5000000E-15
  1.000000000000000E-004
  CAR 
 unknown system                          
     12.84855175     -3.77101010  301      8.36390424      1.00000000
     -3.771  0.0000E+00  0.0000E+00
     -3.716  0.0000E+00  0.0000E+00
     -3.660  0.0000E+00  0.0000E+00
     -3.605  0.0000E+00  0.0000E+00
     -3.549  0.0000E+00  0.0000E+00
     -3.494  0.0000E+00  0.0000E+00
     -3.439  0.0000E+00  0.0000E+00
     -3.383  0.0000E+00  0.0000E+00
     -3.328  0.0000E+00  0.0000E+00
     -3.272  0.0000E+00  0.0000E+00
     -3.217  0.0000E+00  0.0000E+00
     -3.162  0.0000E+00  0.0000E+00
     -3.106  0.0000E+00  0.0000E+00
     -3.051  0.6452E-08  0.3574E-09
     -2.995  0.1220E+00  0.6760E-02
     -2.940  0.6845E+00  0.4468E-01
     -2.885  0.1059E+01  0.1034E+00
     -2.829  0.1692E+01  0.1971E+00
     -2.774  0.1679E+01  0.2901E+00
     -2.718  0.1850E+01  0.3926E+00
     -2.663  0.2252E+01  0.5174E+00
     -2.608  0.1433E+01  0.5968E+00
     -2.552  0.2718E+01  0.7473E+00
     -2.497  0.2197E+01  0.8691E+00
     -2.441  0.3157E+01  0.1044E+01
     -2.386  0.2503E+01  0.1183E+01
     -2.331  0.3552E+01  0.1379E+01
     -2.275  0.3071E+01  0.1550E+01
     -2.220  0.1910E+01  0.1655E+01
     -2.164  0.3908E+01  0.1872E+01
     -2.109  0.3666E+01  0.2075E+01
     -2.054  0.2975E+01  0.2240E+01
     -1.998  0.3522E+01  0.2435E+01
     -1.943  0.4324E+01  0.2674E+01
     -1.887  0.4134E+01  0.2903E+01
     -1.832  0.2922E+01  0.3065E+01
     -1.777  0.4856E+01  0.3334E+01
     -1.721  0.2598E+01  0.3478E+01
     -1.666  0.4705E+01  0.3739E+01
     -1.610  0.3865E+01  0.3953E+01
     -1.555  0.6569E+01  0.4317E+01
     -1.500  0.3195E+01  0.4494E+01
     -1.444  0.3250E+01  0.4674E+01
     -1.389  0.6325E+01  0.5024E+01
     -1.333  0.3840E+01  0.5237E+01
     -1.278  0.4604E+01  0.5492E+01
     -1.223  0.4245E+01  0.5727E+01
     -1.167  0.5238E+01  0.6017E+01
     -1.112  0.5248E+01  0.6308E+01
     -1.056  0.5162E+01  0.6594E+01
     -1.001  0.5855E+01  0.6918E+01
     -0.946  0.4373E+01  0.7161E+01
     -0.890  0.5239E+01  0.7451E+01
     -0.835  0.5146E+01  0.7736E+01
     -0.779  0.5835E+01  0.8059E+01
     -0.724  0.3479E+01  0.8252E+01
     -0.669  0.7236E+01  0.8653E+01
     -0.613  0.6773E+01  0.9028E+01
     -0.558  0.6022E+01  0.9362E+01
     -0.502  0.4548E+01  0.9614E+01
     -0.447  0.4829E+01  0.9881E+01
     -0.392  0.6444E+01  0.1024E+02
     -0.336  0.4895E+01  0.1051E+02
     -0.281  0.7407E+01  0.1092E+02
     -0.226  0.7042E+01  0.1131E+02
     -0.170  0.4116E+01  0.1154E+02
     -0.115  0.8048E+01  0.1198E+02
     -0.059  0.6646E+01  0.1235E+02
     -0.004  0.6280E+01  0.1270E+02
      0.051  0.2503E+01  0.1284E+02
      0.107  0.8715E+01  0.1332E+02
      0.162  0.5783E+01  0.1364E+02
      0.218  0.7295E+01  0.1405E+02
      0.273  0.8203E+01  0.1450E+02
      0.328  0.7455E+01  0.1491E+02
      0.384  0.5902E+01  0.1524E+02
      0.439  0.4867E+01  0.1551E+02
      0.495  0.6686E+01  0.1588E+02
      0.550  0.6243E+01  0.1623E+02
      0.605  0.7840E+01  0.1666E+02
      0.661  0.7995E+01  0.1710E+02
      0.716  0.8658E+01  0.1758E+02
      0.772  0.6659E+01  0.1795E+02
      0.827  0.5273E+01  0.1824E+02
      0.882  0.8699E+01  0.1873E+02
      0.938  0.6726E+01  0.1910E+02
      0.993  0.7345E+01  0.1951E+02
      1.049  0.5184E+01  0.1979E+02
      1.104  0.8658E+01  0.2027E+02
      1.159  0.7279E+01  0.2068E+02
      1.215  0.9201E+01  0.2118E+02
      1.270  0.1019E+02  0.2175E+02
      1.326  0.5503E+01  0.2205E+02
      1.381  0.7899E+01  0.2249E+02
      1.436  0.7566E+01  0.2291E+02
      1.492  0.6131E+01  0.2325E+02
      1.547  0.6201E+01  0.2359E+02
      1.603  0.9629E+01  0.2413E+02
      1.658  0.8933E+01  0.2462E+02
      1.713  0.1021E+02  0.2519E+02
      1.769  0.7304E+01  0.2559E+02
      1.824  0.8716E+01  0.2608E+02
      1.880  0.8261E+01  0.2653E+02
      1.935  0.4819E+01  0.2680E+02
      1.990  0.1037E+02  0.2737E+02
      2.046  0.5686E+01  0.2769E+02
      2.101  0.9600E+01  0.2822E+02
      2.157  0.1004E+02  0.2878E+02
      2.212  0.9837E+01  0.2932E+02
      2.267  0.7133E+01  0.2972E+02
      2.323  0.6934E+01  0.3010E+02
      2.378  0.1372E+02  0.3086E+02
      2.434  0.6735E+01  0.3124E+02
      2.489  0.7795E+01  0.3167E+02
      2.544  0.7755E+01  0.3210E+02
      2.600  0.1097E+02  0.3271E+02
      2.655  0.5294E+01  0.3300E+02
      2.711  0.1054E+02  0.3358E+02
      2.766  0.8519E+01  0.3405E+02
      2.821  0.1120E+02  0.3467E+02
      2.877  0.1175E+02  0.3533E+02
      2.932  0.9624E+01  0.3586E+02
      2.988  0.8100E+01  0.3631E+02
      3.043  0.4701E+01  0.3657E+02
      3.098  0.1128E+02  0.3719E+02
      3.154  0.8916E+01  0.3769E+02
      3.209  0.1028E+02  0.3826E+02
      3.265  0.7283E+01  0.3866E+02
      3.320  0.1102E+02  0.3927E+02
      3.375  0.1139E+02  0.3990E+02
      3.431  0.1032E+02  0.4047E+02
      3.486  0.1076E+02  0.4107E+02
      3.542  0.7128E+01  0.4146E+02
      3.597  0.9833E+01  0.4201E+02
      3.652  0.1091E+02  0.4261E+02
      3.708  0.1164E+02  0.4326E+02
      3.763  0.7060E+01  0.4365E+02
      3.819  0.1133E+02  0.4428E+02
      3.874  0.8609E+01  0.4475E+02
      3.929  0.1039E+02  0.4533E+02
      3.985  0.8598E+01  0.4581E+02
      4.040  0.1312E+02  0.4653E+02
      4.096  0.9295E+01  0.4705E+02
      4.151  0.9349E+01  0.4757E+02
      4.206  0.1273E+02  0.4827E+02
      4.262  0.9939E+01  0.4882E+02
      4.317  0.1037E+02  0.4940E+02
      4.373  0.9655E+01  0.4993E+02
      4.428  0.7964E+01  0.5037E+02
      4.483  0.9359E+01  0.5089E+02
      4.539  0.1100E+02  0.5150E+02
      4.594  0.1238E+02  0.5219E+02
      4.650  0.1254E+02  0.5288E+02
      4.705  0.9890E+01  0.5343E+02
      4.760  0.1203E+02  0.5409E+02
      4.816  0.9774E+01  0.5464E+02
      4.871  0.1229E+02  0.5532E+02
      4.927  0.9573E+01  0.5585E+02
      4.982  0.8878E+01  0.5634E+02
      5.037  0.9558E+01  0.5687E+02
      5.093  0.1455E+02  0.5768E+02
      5.148  0.1465E+02  0.5849E+02
      5.204  0.1012E+02  0.5905E+02
      5.259  0.1105E+02  0.5966E+02
      5.314  0.1102E+02  0.6027E+02
      5.370  0.1008E+02  0.6083E+02
      5.425  0.9858E+01  0.6137E+02
      5.481  0.1581E+02  0.6225E+02
      5.536  0.1552E+02  0.6311E+02
      5.591  0.1273E+02  0.6382E+02
      5.647  0.8021E+01  0.6426E+02
      5.702  0.1166E+02  0.6491E+02
      5.758  0.8645E+01  0.6539E+02
      5.813  0.1457E+02  0.6619E+02
      5.868  0.1556E+02  0.6705E+02
      5.924  0.7458E+01  0.6747E+02
      5.979  0.1147E+02  0.6810E+02
      6.035  0.1221E+02  0.6878E+02
      6.090  0.1238E+02  0.6947E+02
      6.145  0.1225E+02  0.7014E+02
      6.201  0.6520E+01  0.7051E+02
      6.256  0.1362E+02  0.7126E+02
      6.312  0.1381E+02  0.7203E+02
      6.367  0.9725E+01  0.7256E+02
      6.422  0.1255E+02  0.7326E+02
      6.478  0.7997E+01  0.7370E+02
      6.533  0.7338E+01  0.7411E+02
      6.589  0.1313E+02  0.7484E+02
      6.644  0.1467E+02  0.7565E+02
      6.699  0.9730E+01  0.7619E+02
      6.755  0.9540E+01  0.7672E+02
      6.810  0.1328E+02  0.7745E+02
      6.866  0.1067E+02  0.7804E+02
      6.921  0.9956E+01  0.7859E+02
      6.976  0.1074E+02  0.7919E+02
      7.032  0.1091E+02  0.7979E+02
      7.087  0.1471E+02  0.8061E+02
      7.143  0.9820E+01  0.8115E+02
      7.198  0.1181E+02  0.8181E+02
      7.253  0.1421E+02  0.8259E+02
      7.309  0.1411E+02  0.8338E+02
      7.364  0.1022E+02  0.8394E+02
      7.419  0.1227E+02  0.8462E+02
      7.475  0.1058E+02  0.8521E+02
      7.530  0.1535E+02  0.8606E+02
      7.586  0.1297E+02  0.8678E+02
      7.641  0.1086E+02  0.8738E+02
      7.696  0.1336E+02  0.8812E+02
      7.752  0.1055E+02  0.8870E+02
      7.807  0.1425E+02  0.8949E+02
      7.863  0.1170E+02  0.9014E+02
      7.918  0.8415E+01  0.9061E+02
      7.973  0.1181E+02  0.9126E+02
      8.029  0.1431E+02  0.9205E+02
      8.084  0.1089E+02  0.9266E+02
      8.140  0.1089E+02  0.9326E+02
      8.195  0.1112E+02  0.9388E+02
      8.250  0.1309E+02  0.9460E+02
      8.306  0.1249E+02  0.9529E+02
      8.361  0.1204E+02  0.9596E+02
      8.417  0.1524E+02  0.9681E+02
      8.472  0.1096E+02  0.9741E+02
      8.527  0.1434E+02  0.9821E+02
      8.583  0.1098E+02  0.9882E+02
      8.638  0.1229E+02  0.9950E+02
      8.694  0.1697E+02  0.1004E+03
      8.749  0.7509E+01  0.1009E+03
      8.804  0.1486E+02  0.1017E+03
      8.860  0.1382E+02  0.1024E+03
      8.915  0.1820E+02  0.1035E+03
      8.971  0.1588E+02  0.1043E+03
      9.026  0.9882E+01  0.1049E+03
      9.081  0.1415E+02  0.1057E+03
      9.137  0.1225E+02  0.1063E+03
      9.192  0.9068E+01  0.1068E+03
      9.248  0.1120E+02  0.1075E+03
      9.303  0.7862E+01  0.1079E+03
      9.358  0.1715E+02  0.1088E+03
      9.414  0.1832E+02  0.1099E+03
      9.469  0.1602E+02  0.1108E+03
      9.525  0.1191E+02  0.1114E+03
      9.580  0.1466E+02  0.1122E+03
      9.635  0.1519E+02  0.1131E+03
      9.691  0.1286E+02  0.1138E+03
      9.746  0.1096E+02  0.1144E+03
      9.802  0.9457E+01  0.1149E+03
      9.857  0.1059E+02  0.1155E+03
      9.912  0.1258E+02  0.1162E+03
      9.968  0.1606E+02  0.1171E+03
     10.023  0.1394E+02  0.1179E+03
     10.079  0.1568E+02  0.1187E+03
     10.134  0.1484E+02  0.1195E+03
     10.189  0.1082E+02  0.1201E+03
     10.245  0.1616E+02  0.1210E+03
     10.300  0.1583E+02  0.1219E+03
     10.356  0.1272E+02  0.1226E+03
     10.411  0.1072E+02  0.1232E+03
     10.466  0.1290E+02  0.1239E+03
     10.522  0.1566E+02  0.1248E+03
     10.577  0.1430E+02  0.1256E+03
     10.633  0.9813E+01  0.1261E+03
     10.688  0.1760E+02  0.1271E+03
     10.743  0.7967E+01  0.1275E+03
     10.799  0.1258E+02  0.1282E+03
     10.854  0.1562E+02  0.1291E+03
     10.910  0.1385E+02  0.1299E+03
     10.965  0.8348E+01  0.1303E+03
     11.020  0.1208E+02  0.1310E+03
     11.076  0.1698E+02  0.1319E+03
     11.131  0.1376E+02  0.1327E+03
     11.187  0.7422E+01  0.1331E+03
     11.242  0.9364E+01  0.1336E+03
     11.297  0.6193E+01  0.1340E+03
     11.353  0.8018E+01  0.1344E+03
     11.408  0.9933E+01  0.1350E+03
     11.464  0.7538E+01  0.1354E+03
     11.519  0.2332E+01  0.1355E+03
     11.574  0.2407E+01  0.1357E+03
     11.630  0.1746E+01  0.1358E+03
     11.685  0.1859E+01  0.1359E+03
     11.741  0.1810E+00  0.1359E+03
     11.796  0.1326E+01  0.1359E+03
     11.851  0.3502E+00  0.1360E+03
     11.907  0.1251E+00  0.1360E+03
     11.962  0.5011E+00  0.1360E+03
     12.018  0.0000E+00  0.1360E+03
     12.073  0.2927E-03  0.1360E+03
     12.128  0.8328E-01  0.1360E+03
     12.184  0.0000E+00  0.1360E+03
     12.239  0.0000E+00  0.1360E+03
     12.295  0.0000E+00  0.1360E+03
     12.350  0.0000E+00  0.1360E+03
     12.405  0.0000E+00  0.1360E+03
     12.461  0.0000E+00  0.1360E+03
     12.516  0.0000E+00  0.1360E+03
     12.572  0.0000E+00  0.1360E+03
     12.627  0.0000E+00  0.1360E+03
     12.682  0.0000E+00  0.1360E+03
     12.738  0.0000E+00  0.1360E+03
     12.793  0.0000E+00  0.1360E+03
     12.849  0.0000E+00  0.1360E+03
