   32   32    1    1
  0.1596323E+02  0.7993867E-09  0.7993867E-09  0.7993867E-09  0.5000000E-15
  1.000000000000000E-004
  CAR 
 unknown system                          
   96  196   68
 
  0.0000000E+00  0.0000000E+00  0.0000000E+00  0.5787037E-03
   1       -3.0156
   2       -0.7224
   3       -0.7186
   4       -0.7186
   5       -0.7186
   6       -0.7186
   7       -0.7148
   8        1.5340
   9        1.5385
  10        1.5385
  11        1.5402
  12        1.5404
  13        1.5404
  14        1.5404
  15        1.5404
  16        1.5405
  17        1.5423
  18        1.5423
  19        1.5467
  20        3.6236
  21        3.6236
  22        3.6236
  23        3.6236
  24        3.9246
  25        3.9246
  26        3.9246
  27        3.9246
  28        5.3456
  29        5.3456
  30        5.3456
  31        6.7410
  32        6.7411
  33        6.7411
  34        7.4568
  35        7.4568
  36        7.4613
  37        7.4613
  38        7.4614
  39        7.4614
  40        7.4614
  41        7.4614
  42        7.4615
  43        7.4615
  44        7.4659
  45        7.4659
  46        8.4557
  47        8.4600
  48        8.4600
  49        8.4600
  50        8.4600
  51        8.4642
  52        9.5811
  53        9.5811
  54        9.5827
  55        9.5851
  56        9.5852
  57        9.5852
  58        9.5852
  59        9.5852
  60        9.5854
  61        9.5878
  62        9.5894
  63        9.5894
  64        9.6422
  65        9.6432
  66        9.6432
  67        9.6433
  68        9.6442
 
  0.8333333E-01  0.0000000E+00  0.0000000E+00  0.1157407E-02
   1       -2.9995
   2       -1.0828
   3       -0.7028
   4       -0.7028
   5       -0.7028
   6       -0.7028
   7       -0.3239
   8        1.1821
   9        1.1822
  10        1.1822
  11        1.1822
  12        1.5559
  13        1.5559
  14        1.5559
  15        1.5559
  16        1.9285
  17        1.9285
  18        1.9285
  19        1.9286
  20        3.3906
  21        3.3906
  22        3.3906
  23        3.3906
  24        4.1873
  25        4.1873
  26        4.1873
  27        4.1873
  28        5.0444
  29        5.3602
  30        5.3602
  31        6.7565
  32        6.7565
  33        7.0699
  34        7.1228
  35        7.1228
  36        7.1678
  37        7.1678
  38        7.1678
  39        7.1679
  40        7.4761
  41        7.4761
  42        7.4761
  43        7.4761
  44        7.8296
  45        7.8296
  46        8.3688
  47        8.3689
  48        8.6546
  49        8.6546
  50        8.6546
  51        8.6546
  52        9.2456
  53        9.2456
  54        9.2456
  55        9.2457
  56        9.3265
  57        9.3266
  58        9.3266
  59        9.3266
  60        9.7617
  61        9.7618
  62        9.7847
  63        9.7848
  64        9.7848
  65        9.7848
  66        9.9545
  67        9.9545
  68        9.9545
 
  0.1666667E+00  0.0000000E+00  0.0000000E+00  0.1157407E-02
   1       -2.9513
   2       -1.4163
   3       -0.6554
   4       -0.6553
   5       -0.6553
   6       -0.6553
   7        0.1010
   8        0.8542
   9        0.8542
  10        0.8542
  11        0.8542
  12        1.6026
  13        1.6026
  14        1.6026
  15        1.6026
  16        2.3463
  17        2.3463
  18        2.3463
  19        2.3463
  20        3.0809
  21        3.0809
  22        3.0809
  23        3.0810
  24        4.4734
  25        4.5861
  26        4.5861
  27        4.5861
  28        4.5861
  29        5.4042
  30        5.4042
  31        6.6185
  32        6.6185
  33        6.6185
  34        6.6185
  35        6.8026
  36        6.8026
  37        6.8139
  38        6.8139
  39        7.5203
  40        7.5203
  41        7.5203
  42        7.5203
  43        7.7238
  44        8.1636
  45        8.1636
  46        8.2274
  47        8.2274
  48        8.8013
  49        8.8013
  50        8.8013
  51        8.8013
  52        8.9022
  53        8.9022
  54        8.9022
  55        8.9023
  56        8.9357
  57        8.9357
  58        8.9358
  59        8.9358
  60       10.0491
  61       10.0491
  62       10.2140
  63       10.2140
  64       10.2140
  65       10.2144
  66       10.3534
  67       10.3534
  68       10.3534
 
  0.2500000E+00  0.0000000E+00  0.0000000E+00  0.1157407E-02
   1       -2.8709
   2       -1.7187
   3       -0.5763
   4       -0.5763
   5       -0.5763
   6       -0.5763
   7        0.5535
   8        0.5568
   9        0.5568
  10        0.5568
  11        0.5588
  12        1.6803
  13        1.6804
  14        1.6804
  15        1.6804
  16        2.7894
  17        2.7912
  18        2.7912
  19        2.7922
  20        2.7931
  21        2.7941
  22        2.7941
  23        2.7960
  24        3.8589
  25        5.0231
  26        5.0231
  27        5.0231
  28        5.0232
  29        5.4775
  30        5.4775
  31        6.0246
  32        6.0246
  33        6.0246
  34        6.0246
  35        6.5346
  36        6.5346
  37        6.8793
  38        6.8793
  39        7.5939
  40        7.5939
  41        7.5940
  42        7.5940
  43        7.9268
  44        7.9268
  45        8.2175
  46        8.2175
  47        8.2175
  48        8.2175
  49        8.4767
  50        8.6528
  51        8.6528
  52        8.6554
  53        8.6554
  54        8.6576
  55        8.6576
  56        9.0742
  57        9.0742
  58        9.0742
  59        9.0742
  60       10.2602
  61       10.2602
  62       10.2602
  63       10.2602
  64       10.4221
  65       10.4221
  66       10.7821
  67       10.7838
  68       10.7994
 
  0.3333333E+00  0.0000000E+00  0.0000000E+00  0.1157407E-02
   1       -2.7584
   2       -1.9898
   3       -0.4658
   4       -0.4657
   5       -0.4657
   6       -0.4657
   7        0.2901
   8        0.2901
   9        0.2901
  10        0.2901
  11        1.0395
  12        1.7891
  13        1.7891
  14        1.7891
  15        1.7891
  16        2.5314
  17        2.5314
  18        2.5314
  19        2.5314
  20        3.2495
  21        3.2685
  22        3.2685
  23        3.2685
  24        3.2686
  25        5.4323
  26        5.4323
  27        5.4324
  28        5.4324
  29        5.4911
  30        5.4911
  31        5.4912
  32        5.4912
  33        5.5802
  34        5.5802
  35        6.2848
  36        6.2848
  37        6.9861
  38        6.9861
  39        7.6315
  40        7.6315
  41        7.6315
  42        7.6316
  43        7.6939
  44        7.6939
  45        7.6971
  46        7.6971
  47        7.6972
  48        7.6972
  49        8.4046
  50        8.4046
  51        8.4046
  52        8.4046
  53        9.1124
  54        9.1124
  55        9.2241
  56        9.2241
  57        9.2241
  58        9.2241
  59        9.2795
  60       10.0004
  61       10.0004
  62       10.0004
  63       10.0004
  64       10.8438
  65       10.8438
  66       11.2389
  67       11.2403
  68       11.2406
 
  0.4166667E+00  0.0000000E+00  0.0000000E+00  0.1157407E-02
   1       -2.6140
   2       -2.2296
   3       -0.3238
   4       -0.3237
   5       -0.3237
   6       -0.3237
   7        0.0543
   8        0.0543
   9        0.0543
  10        0.0544
  11        1.5520
  12        1.9287
  13        1.9288
  14        1.9288
  15        1.9288
  16        2.3002
  17        2.3002
  18        2.3002
  19        2.3002
  20        2.6590
  21        3.7716
  22        3.7716
  23        3.7716
  24        3.7716
  25        4.8559
  26        4.8559
  27        4.8559
  28        4.8560
  29        5.7122
  30        5.7122
  31        5.9879
  32        5.9879
  33        5.9879
  34        5.9879
  35        6.0645
  36        6.0645
  37        7.0607
  38        7.0607
  39        7.0607
  40        7.0607
  41        7.1224
  42        7.1224
  43        7.4786
  44        7.4787
  45        7.8297
  46        7.8297
  47        7.8297
  48        7.8297
  49        8.1834
  50        8.1834
  51        8.1834
  52        8.1834
  53        9.3832
  54        9.3832
  55        9.3832
  56        9.3832
  57        9.5994
  58        9.5994
  59        9.7683
  60        9.7683
  61        9.7683
  62        9.7683
  63       10.1188
  64       10.6624
  65       10.6624
  66       11.2982
  67       11.2982
  68       11.7281
 
  0.5000000E+00  0.0000000E+00  0.0000000E+00  0.5787037E-03
   1       -2.4391
   2       -2.4362
   3       -0.1544
   4       -0.1512
   5       -0.1512
   6       -0.1504
   7       -0.1502
   8       -0.1495
   9       -0.1495
  10       -0.1463
  11        2.0902
  12        2.0925
  13        2.0975
  14        2.0979
  15        2.0979
  16        2.0988
  17        2.0996
  18        2.1005
  19        2.1005
  20        2.1030
  21        4.3005
  22        4.3005
  23        4.3007
  24        4.3012
  25        4.3015
  26        4.3020
  27        4.3022
  28        4.3022
  29        5.8721
  30        5.8721
  31        5.8752
  32        5.8752
  33        6.5107
  34        6.5107
  35        6.5112
  36        6.5116
  37        6.5119
  38        6.5123
  39        6.5128
  40        6.5128
  41        7.2852
  42        7.2862
  43        7.2880
  44        7.2891
  45        7.9894
  46        7.9894
  47        7.9903
  48        7.9917
  49        7.9919
  50        7.9933
  51        7.9942
  52        7.9942
  53        9.5609
  54        9.5618
  55        9.5618
  56        9.5620
  57        9.5643
  58        9.5644
  59        9.5644
  60        9.5653
  61       10.1150
  62       10.1150
  63       10.1173
  64       10.1173
  65       10.9885
  66       10.9898
  67       11.7754
  68       11.7769
 
  0.0000000E+00  0.8333333E-01  0.0000000E+00  0.2314815E-02
   1       -2.9995
   2       -1.0828
   3       -0.7057
   4       -0.7028
   5       -0.7028
   6       -0.6998
   7       -0.3239
   8        1.1792
   9        1.1822
  10        1.1822
  11        1.1851
  12        1.5538
  13        1.5548
  14        1.5571
  15        1.5581
  16        1.9256
  17        1.9285
  18        1.9285
  19        1.9315
  20        3.3886
  21        3.3895
  22        3.3917
  23        3.3926
  24        4.1853
  25        4.1862
  26        4.1884
  27        4.1893
  28        5.0444
  29        5.3602
  30        5.3602
  31        6.7564
  32        6.7565
  33        7.0699
  34        7.1227
  35        7.1228
  36        7.1646
  37        7.1678
  38        7.1678
  39        7.1712
  40        7.4733
  41        7.4761
  42        7.4761
  43        7.4789
  44        7.8296
  45        7.8296
  46        8.3688
  47        8.3689
  48        8.6517
  49        8.6546
  50        8.6546
  51        8.6575
  52        9.2428
  53        9.2456
  54        9.2456
  55        9.2485
  56        9.3238
  57        9.3254
  58        9.3277
  59        9.3293
  60        9.7617
  61        9.7618
  62        9.7838
  63        9.7847
  64        9.7848
  65        9.7858
  66        9.9538
  67        9.9545
  68        9.9573
 
  0.8333333E-01  0.8333333E-01  0.0000000E+00  0.4629630E-02
   1       -2.9834
   2       -1.0682
   3       -1.0658
   4       -0.6870
   5       -0.6870
   6       -0.3093
   7       -0.3069
   8        0.8230
   9        1.1961
  10        1.1970
  11        1.1985
  12        1.1995
  13        1.5709
  14        1.5719
  15        1.9424
  16        1.9433
  17        1.9448
  18        1.9458
  19        2.3155
  20        3.0504
  21        3.0504
  22        3.6533
  23        3.6533
  24        3.9560
  25        3.9560
  26        4.5556
  27        4.5557
  28        5.0589
  29        5.0596
  30        5.3749
  31        6.7718
  32        6.8319
  33        6.8342
  34        7.0847
  35        7.0854
  36        7.1139
  37        7.1140
  38        7.1362
  39        7.1390
  40        7.2639
  41        7.2639
  42        7.5221
  43        7.5239
  44        7.8429
  45        7.8457
  46        8.5052
  47        8.5075
  48        8.6320
  49        8.6348
  50        8.8675
  51        8.8675
  52        8.9062
  53        8.9841
  54        8.9850
  55        8.9865
  56        8.9874
  57        9.6138
  58        9.6157
  59        9.6955
  60        9.6965
  61        9.6970
  62        9.6980
  63        9.8294
  64        9.8300
  65        9.8952
  66        9.8952
  67        9.9726
  68        9.9742
 
  0.1666667E+00  0.8333333E-01  0.0000000E+00  0.4629630E-02
   1       -2.9352
   2       -1.4004
   3       -1.0194
   4       -0.6395
   5       -0.6395
   6       -0.2608
   7        0.1167
   8        0.4942
   9        0.8699
  10        0.8699
  11        1.2438
  12        1.2446
  13        1.2452
  14        1.9897
  15        1.9906
  16        1.9911
  17        2.3617
  18        2.3617
  19        2.7306
  20        2.7308
  21        2.7321
  22        3.4512
  23        3.4512
  24        4.2487
  25        4.2487
  26        4.4885
  27        4.9627
  28        4.9628
  29        5.1038
  30        5.4189
  31        6.2811
  32        6.5247
  33        6.6243
  34        6.6243
  35        6.8179
  36        6.8286
  37        6.9789
  38        7.1306
  39        7.1817
  40        7.2560
  41        7.2560
  42        7.7387
  43        7.8578
  44        7.8885
  45        8.2422
  46        8.3306
  47        8.4588
  48        8.4588
  49        8.4605
  50        8.5964
  51        8.6530
  52        8.6744
  53        8.6745
  54        9.0584
  55        9.1620
  56        9.1623
  57        9.1732
  58        9.1735
  59        9.3047
  60       10.0136
  61       10.0841
  62       10.0843
  63       10.0963
  64       10.0964
  65       10.2045
  66       10.2697
  67       10.2697
  68       10.2941
 
  0.2500000E+00  0.8333333E-01  0.0000000E+00  0.4629630E-02
   1       -2.8548
   2       -1.7027
   3       -0.9402
   4       -0.5605
   5       -0.5605
   6       -0.1820
   7        0.1959
   8        0.5699
   9        0.5725
  10        0.5738
  11        0.9478
  12        1.3225
  13        1.3225
  14        2.0680
  15        2.0681
  16        2.4368
  17        2.4390
  18        2.4405
  19        2.8085
  20        2.8085
  21        3.1720
  22        3.1726
  23        3.1780
  24        3.8741
  25        4.6773
  26        4.6773
  27        5.1780
  28        5.4013
  29        5.4013
  30        5.4922
  31        5.6831
  32        6.0366
  33        6.0366
  34        6.2446
  35        6.3919
  36        6.5493
  37        6.8944
  38        7.2062
  39        7.2553
  40        7.3261
  41        7.3262
  42        7.8736
  43        7.8736
  44        7.8933
  45        7.9622
  46        8.2357
  47        8.3161
  48        8.3926
  49        8.3927
  50        8.4717
  51        8.4913
  52        8.5907
  53        8.5907
  54        8.6698
  55        8.7734
  56        9.0243
  57        9.3574
  58        9.3579
  59        9.3580
  60        9.9169
  61       10.4421
  62       10.4458
  63       10.5249
  64       10.5250
  65       10.5497
  66       10.5526
  67       10.5992
  68       10.6340
 
  0.3333333E+00  0.8333333E-01  0.0000000E+00  0.4629630E-02
   1       -2.7424
   2       -1.9739
   3       -0.8293
   4       -0.4500
   5       -0.4500
   6       -0.0722
   7       -0.0710
   8        0.3058
   9        0.3058
  10        0.6819
  11        1.0551
  12        1.4316
  13        1.4316
  14        2.1757
  15        2.1761
  16        2.1769
  17        2.1773
  18        2.9146
  19        2.9149
  20        2.9155
  21        3.2649
  22        3.2838
  23        3.2838
  24        3.6512
  25        5.0874
  26        5.1437
  27        5.1437
  28        5.2820
  29        5.4461
  30        5.4462
  31        5.5949
  32        5.8046
  33        5.8693
  34        5.8693
  35        5.9934
  36        6.2995
  37        7.0008
  38        7.2865
  39        7.2865
  40        7.3115
  41        7.3584
  42        7.4290
  43        7.4290
  44        7.6962
  45        8.0055
  46        8.0060
  47        8.0092
  48        8.0647
  49        8.0663
  50        8.1405
  51        8.1405
  52        8.7734
  53        8.8861
  54        8.9011
  55        9.1271
  56        9.2938
  57        9.5150
  58        9.5150
  59        9.5580
  60        9.6576
  61       10.2913
  62       10.2913
  63       10.3693
  64       10.8631
  65       10.9003
  66       10.9802
  67       10.9827
  68       10.9836
 
  0.4166667E+00  0.8333333E-01  0.0000000E+00  0.4629630E-02
   1       -2.5980
   2       -2.2136
   3       -0.6869
   4       -0.3093
   5       -0.3079
   6       -0.3065
   7        0.0686
   8        0.0701
   9        0.0714
  10        0.4468
  11        1.5672
  12        1.5717
  13        1.5721
  14        1.9444
  15        1.9444
  16        2.3156
  17        2.3156
  18        2.6742
  19        2.6853
  20        2.6855
  21        3.4199
  22        3.7868
  23        3.7868
  24        4.1524
  25        4.5083
  26        4.8705
  27        4.8705
  28        5.2318
  29        5.4155
  30        5.6404
  31        5.6404
  32        5.7269
  33        5.7714
  34        6.0792
  35        6.3654
  36        6.3654
  37        6.7146
  38        6.7146
  39        7.1365
  40        7.4362
  41        7.4363
  42        7.4461
  43        7.4889
  44        7.4909
  45        7.5621
  46        7.5621
  47        7.7971
  48        7.8445
  49        7.9180
  50        7.9180
  51        8.1981
  52        8.5521
  53        9.0498
  54        9.3611
  55        9.4268
  56        9.6142
  57        9.6760
  58        9.6760
  59        9.7370
  60       10.0603
  61       10.0603
  62       10.1326
  63       10.1353
  64       10.4119
  65       10.6772
  66       11.3154
  67       11.3886
  68       11.4691
 
  0.5000000E+00  0.8333333E-01  0.0000000E+00  0.2314815E-02
   1       -2.4231
   2       -2.4202
   3       -0.5145
   4       -0.5116
   5       -0.1366
   6       -0.1354
   7       -0.1337
   8       -0.1325
   9        0.2413
  10        0.2442
  11        1.7406
  12        1.7418
  13        1.7435
  14        1.7447
  15        2.1072
  16        2.1085
  17        2.4832
  18        2.4845
  19        2.4862
  20        2.4874
  21        3.9509
  22        3.9522
  23        4.3154
  24        4.3159
  25        4.3167
  26        4.3172
  27        4.6793
  28        4.6806
  29        5.5771
  30        5.5802
  31        5.8867
  32        5.8899
  33        6.1640
  34        6.1642
  35        6.1654
  36        6.1656
  37        6.8876
  38        6.8878
  39        6.8890
  40        6.8892
  41        7.2986
  42        7.3015
  43        7.6069
  44        7.6098
  45        7.6513
  46        7.6545
  47        7.7229
  48        7.7243
  49        7.7260
  50        7.7274
  51        8.3587
  52        8.3619
  53        9.2230
  54        9.2259
  55        9.8541
  56        9.8547
  57        9.8571
  58        9.8577
  59        9.8703
  60        9.8724
  61        9.9243
  62        9.9274
  63       10.1298
  64       10.1321
  65       11.0019
  66       11.0031
  67       11.7921
  68       11.7963
 
  0.0000000E+00  0.1666667E+00  0.0000000E+00  0.2314815E-02
   1       -2.9513
   2       -1.4163
   3       -0.6583
   4       -0.6553
   5       -0.6553
   6       -0.6524
   7        0.1010
   8        0.8513
   9        0.8542
  10        0.8542
  11        0.8572
  12        1.6005
  13        1.6014
  14        1.6038
  15        1.6048
  16        2.3433
  17        2.3463
  18        2.3463
  19        2.3493
  20        3.0788
  21        3.0798
  22        3.0821
  23        3.0831
  24        4.4734
  25        4.5839
  26        4.5849
  27        4.5873
  28        4.5882
  29        5.4042
  30        5.4042
  31        6.6153
  32        6.6185
  33        6.6185
  34        6.6217
  35        6.8025
  36        6.8026
  37        6.8139
  38        6.8141
  39        7.5175
  40        7.5203
  41        7.5203
  42        7.5231
  43        7.7238
  44        8.1636
  45        8.1636
  46        8.2275
  47        8.2275
  48        8.7988
  49        8.8001
  50        8.8025
  51        8.8039
  52        8.8996
  53        8.9022
  54        8.9023
  55        8.9049
  56        8.9329
  57        8.9357
  58        8.9358
  59        8.9385
  60       10.0491
  61       10.0491
  62       10.2123
  63       10.2140
  64       10.2140
  65       10.2157
  66       10.3510
  67       10.3534
  68       10.3545
 
  0.8333333E-01  0.1666667E+00  0.0000000E+00  0.4629630E-02
   1       -2.9352
   2       -1.4004
   3       -1.0194
   4       -0.6395
   5       -0.6395
   6       -0.2608
   7        0.1167
   8        0.4942
   9        0.8698
  10        0.8699
  11        1.2431
  12        1.2446
  13        1.2459
  14        1.9890
  15        1.9906
  16        1.9918
  17        2.3617
  18        2.3617
  19        2.7306
  20        2.7308
  21        2.7321
  22        3.4512
  23        3.4512
  24        4.2487
  25        4.2487
  26        4.4885
  27        4.9627
  28        4.9628
  29        5.1038
  30        5.4189
  31        6.2811
  32        6.5247
  33        6.6243
  34        6.6244
  35        6.8179
  36        6.8286
  37        6.9789
  38        7.1306
  39        7.1817
  40        7.2560
  41        7.2560
  42        7.7387
  43        7.8579
  44        7.8885
  45        8.2422
  46        8.3306
  47        8.4588
  48        8.4588
  49        8.4604
  50        8.5963
  51        8.6530
  52        8.6745
  53        8.6745
  54        9.0584
  55        9.1624
  56        9.1624
  57        9.1731
  58        9.1731
  59        9.3047
  60       10.0136
  61       10.0840
  62       10.0845
  63       10.0963
  64       10.0964
  65       10.2045
  66       10.2697
  67       10.2698
  68       10.2942
 
  0.1666667E+00  0.1666667E+00  0.0000000E+00  0.4629630E-02
   1       -2.8869
   2       -1.3539
   3       -1.3515
   4       -0.5921
   5       -0.5921
   6        0.1621
   7        0.1641
   8        0.1660
   9        0.9151
  10        0.9160
  11        0.9175
  12        0.9185
  13        1.6638
  14        1.6648
  15        2.4056
  16        2.4068
  17        2.4081
  18        2.4081
  19        2.4094
  20        2.4106
  21        3.1470
  22        3.7424
  23        3.7424
  24        4.0499
  25        4.0499
  26        4.5332
  27        4.5341
  28        5.3713
  29        5.3713
  30        5.4629
  31        5.9691
  32        5.9715
  33        6.5555
  34        6.5555
  35        6.8313
  36        6.8313
  37        6.8637
  38        6.8714
  39        6.8742
  40        7.3487
  41        7.3507
  42        7.7829
  43        7.7839
  44        8.1441
  45        8.1450
  46        8.1465
  47        8.1476
  48        8.2842
  49        8.2865
  50        8.2889
  51        8.4035
  52        8.4051
  53        9.0161
  54        9.0187
  55        9.5726
  56        9.5736
  57        9.5740
  58        9.5749
  59        9.6062
  60        9.6064
  61        9.7025
  62        9.7044
  63        9.8887
  64       10.2091
  65       10.2098
  66       10.4910
  67       10.4910
  68       10.8558
 
  0.2500000E+00  0.1666667E+00  0.0000000E+00  0.4629630E-02
   1       -2.8066
   2       -1.6550
   3       -1.2733
   4       -0.5131
   5       -0.5131
   6       -0.1344
   7        0.2424
   8        0.6169
   9        0.6195
  10        0.6208
  11        0.9949
  12        0.9949
  13        1.3687
  14        2.1123
  15        2.1148
  16        2.1161
  17        2.4852
  18        2.4852
  19        2.8546
  20        2.8546
  21        3.5722
  22        3.5723
  23        3.5910
  24        3.9197
  25        4.3714
  26        4.3714
  27        4.6089
  28        5.3693
  29        5.5362
  30        5.6877
  31        5.8098
  32        5.8098
  33        6.0658
  34        6.0658
  35        6.5934
  36        6.7802
  37        6.8047
  38        6.8048
  39        6.9395
  40        6.9463
  41        7.5592
  42        7.5592
  43        7.6609
  44        7.8576
  45        7.8624
  46        7.8624
  47        8.0066
  48        8.2541
  49        8.3602
  50        8.4901
  51        8.5352
  52        8.7141
  53        8.8432
  54        8.9928
  55        8.9928
  56        9.4228
  57        9.5330
  58        9.6011
  59        9.9165
  60        9.9165
  61       10.0034
  62       10.0034
  63       10.1318
  64       10.5077
  65       10.5229
  66       10.9829
  67       10.9889
  68       11.0315
 
  0.3333333E+00  0.1666667E+00  0.0000000E+00  0.4629630E-02
   1       -2.6942
   2       -1.9260
   3       -1.1621
   4       -0.4039
   5       -0.4026
   6       -0.4011
   7        0.3512
   8        0.3529
   9        0.3540
  10        1.1007
  11        1.1037
  12        1.1043
  13        1.1054
  14        1.8514
  15        1.8514
  16        2.5914
  17        2.5931
  18        2.5934
  19        3.3107
  20        3.3248
  21        3.3250
  22        3.3298
  23        3.3302
  24        4.0627
  25        4.7142
  26        4.7710
  27        4.8288
  28        4.8289
  29        5.4340
  30        5.4862
  31        5.4862
  32        5.6389
  33        6.2020
  34        6.2771
  35        6.2771
  36        6.3436
  37        6.8974
  38        6.8974
  39        6.9711
  40        6.9711
  41        7.0448
  42        7.0494
  43        7.6086
  44        7.6086
  45        7.6784
  46        7.7561
  47        7.9609
  48        8.4095
  49        8.4095
  50        8.4468
  51        8.4635
  52        8.6018
  53        8.6358
  54        9.1699
  55        9.1734
  56        9.3366
  57        9.3424
  58        9.8710
  59       10.1118
  60       10.1118
  61       10.4606
  62       10.4614
  63       10.4626
  64       10.5900
  65       10.7626
  66       10.9034
  67       10.9034
  68       10.9228
 
  0.4166667E+00  0.1666667E+00  0.0000000E+00  0.4629630E-02
   1       -2.5499
   2       -2.1656
   3       -1.0194
   4       -0.6394
   5       -0.2607
   6       -0.2606
   7        0.1172
   8        0.1172
   9        0.4935
  10        0.8693
  11        1.2447
  12        1.2447
  13        1.6138
  14        1.6184
  15        1.6189
  16        2.7204
  17        2.7316
  18        2.7318
  19        3.0976
  20        3.0988
  21        3.0990
  22        3.8322
  23        3.8322
  24        4.1897
  25        4.5617
  26        4.8495
  27        4.9138
  28        4.9138
  29        5.2095
  30        5.3238
  31        5.3238
  32        5.6346
  33        5.7709
  34        6.1232
  35        6.3984
  36        6.3984
  37        6.7724
  38        6.7724
  39        7.0283
  40        7.0283
  41        7.1783
  42        7.1818
  43        7.3849
  44        7.3849
  45        7.5143
  46        7.5351
  47        7.8411
  48        7.8411
  49        8.0925
  50        8.4339
  51        8.5962
  52        8.7424
  53        8.8744
  54        8.9504
  55        9.1127
  56        9.6585
  57        9.9018
  58       10.1002
  59       10.1743
  60       10.2844
  61       10.2844
  62       10.5249
  63       10.6730
  64       10.6731
  65       10.7216
  66       10.9473
  67       10.9473
  68       11.0778
 
  0.5000000E+00  0.1666667E+00  0.0000000E+00  0.2314815E-02
   1       -2.3750
   2       -2.3721
   3       -0.8465
   4       -0.8436
   5       -0.0894
   6       -0.0882
   7       -0.0865
   8       -0.0853
   9        0.6644
  10        0.6673
  11        1.4141
  12        1.4153
  13        1.4170
  14        1.4182
  15        2.1536
  16        2.1549
  17        2.8983
  18        2.8995
  19        2.9012
  20        2.9025
  21        3.6304
  22        3.6316
  23        4.3601
  24        4.3606
  25        4.3614
  26        4.3618
  27        5.0131
  28        5.0161
  29        5.0859
  30        5.0871
  31        5.8473
  32        5.8475
  33        5.8487
  34        5.8488
  35        5.9308
  36        5.9339
  37        7.1891
  38        7.1903
  39        7.1921
  40        7.1934
  41        7.2935
  42        7.2937
  43        7.2949
  44        7.2951
  45        7.3359
  46        7.3388
  47        7.3422
  48        7.3453
  49        8.2495
  50        8.2525
  51        8.7570
  52        8.7601
  53        8.9112
  54        8.9141
  55        9.3688
  56        9.3705
  57       10.1742
  58       10.1764
  59       10.3060
  60       10.3092
  61       10.4661
  62       10.4668
  63       10.4691
  64       10.4699
  65       11.0416
  66       11.0428
  67       11.4598
  68       11.4659
 
  0.0000000E+00  0.2500000E+00  0.0000000E+00  0.2314815E-02
   1       -2.8709
   2       -1.7187
   3       -0.5793
   4       -0.5763
   5       -0.5763
   6       -0.5734
   7        0.5536
   8        0.5557
   9        0.5568
  10        0.5568
  11        0.5598
  12        1.6782
  13        1.6792
  14        1.6815
  15        1.6825
  16        2.7892
  17        2.7909
  18        2.7909
  19        2.7929
  20        2.7931
  21        2.7937
  22        2.7941
  23        2.7965
  24        3.8589
  25        5.0210
  26        5.0219
  27        5.0244
  28        5.0253
  29        5.4775
  30        5.4775
  31        6.0215
  32        6.0246
  33        6.0246
  34        6.0278
  35        6.5346
  36        6.5346
  37        6.8793
  38        6.8793
  39        7.5912
  40        7.5940
  41        7.5940
  42        7.5967
  43        7.9267
  44        7.9268
  45        8.2151
  46        8.2163
  47        8.2187
  48        8.2200
  49        8.4767
  50        8.6521
  51        8.6551
  52        8.6551
  53        8.6554
  54        8.6554
  55        8.6586
  56        9.0717
  57        9.0742
  58        9.0742
  59        9.0767
  60       10.2578
  61       10.2602
  62       10.2602
  63       10.2625
  64       10.4221
  65       10.4221
  66       10.7818
  67       10.7843
  68       10.7865
 