 vasp.4.6.28 25Jul05 complex 
 executed on             LinuxIFC date 2016.11.12  03:05:26
 running on    4 nodes
 distr:  one band on    1 nodes,    4 groups


--------------------------------------------------------------------------------------------------------


 INCAR:
 POTCAR:   PAW_PBE Al 04Jan2001                   
 POTCAR:   PAW_PBE Al 04Jan2001                   
   VRHFIN =Al: s2p1                                                             
   LEXCH  = PE                                                                  
   EATOM  =    53.5387 eV,    3.9350 Ry                                         
                                                                                
   TITEL  = PAW_PBE Al 04Jan2001                                                
   LULTRA =        F    use ultrasoft PP ?                                      
   IUNSCR =        1    unscreen: 0-lin 1-nonlin 2-no                           
   RPACOR =    1.500    partial core radius                                     
   POMASS =   26.982; ZVAL   =    3.000    mass and valenz                      
   RCORE  =    1.900    outmost cutoff radius                                   
   RWIGS  =    2.650; RWIGS  =    1.402    wigner-seitz radius (au A)           
   ENMAX  =  240.300; ENMIN  =  180.225 eV                                      
   ICORE  =        2    local potential                                         
   LCOR   =        T    correct aug charges                                     
   LPAW   =        T    paw PP                                                  
   EAUG   =  291.052                                                            
   DEXC   =    -.041                                                            
   RMAX   =    2.974    core radius for proj-oper                               
   RAUG   =    1.300    factor for augmentation sphere                          
   RDEP   =    1.966    radius for radial grids                                 
   QCUT   =   -4.203; QGAM   =    8.405    optimization parameters              
                                                                                
   Description                                                                  
     l     E      TYP  RCUT    TYP  RCUT                                        
     0   .000     23  1.900                                                     
     0   .000     23  1.900                                                     
     1   .000     23  1.900                                                     
     1  1.000     23  1.900                                                     
     2   .000      7  1.900                                                     
  local pseudopotential read in
  partial core-charges read in
  atomic valenz-charges read in
  non local Contribution for L=           0  read in
    real space projection operators read in
  non local Contribution for L=           0  read in
    real space projection operators read in
  non local Contribution for L=           1  read in
    real space projection operators read in
  non local Contribution for L=           1  read in
    real space projection operators read in
    PAW grid and wavefunctions read in
 
   number of l-projection  operators is LMAX  =           4
   number of lm-projection operators is LMMAX =           8
 

 ----------------------------------------------------------------------------- 
|                                                                             |
|  ADVICE TO THIS USER RUNNING 'VASP/VAMP'   (HEAR YOUR MASTER'S VOICE ...):  |
|                                                                             |
|      You have a (more or less) 'large supercell' and for larger cells       |
|      it might be more efficient to use real space projection operators      |
|      So try LREAL= Auto  in the INCAR   file.                               |
|      Mind: If you want to do an extremely accurate calculations keep the    |
|      reciprocal projection scheme          (i.e. LREAL=.FALSE.)             |
|                                                                             |
 ----------------------------------------------------------------------------- 

 PAW_PBE Al 04Jan2001                   :
 energy of atom  1       EATOM=  -53.5387
 kinetic energy error for atom=    0.0001 (will be added to EATOM!!)
 
 EXHCAR: internal setup
 exchange correlation table for  LEXCH =        8
   RHO(1)=    0.500       N(1)  =     2000
   RHO(2)=  100.500       N(2)  =     4000
 
 POSCAR: Al                                      
  positions in direct lattice
  No initial velocities read in
 


--------------------------------------------------------------------------------------------------------


 ion  position               nearest neighbor table
   1  0.251  0.250  0.000-  18 2.82  22 2.82  26 2.82  28 2.82   9 2.83  11 2.83  13 2.83  15 2.83
                            25 2.83  21 2.83  27 2.83  17 2.83
   2  0.750  0.250  0.000-  10 2.83  12 2.83  14 2.83  16 2.83  17 2.83  18 2.83  21 2.83  22 2.83
                            25 2.83  26 2.83  27 2.83  28 2.83
   3  0.250  0.750  0.000-   9 2.83  11 2.83  13 2.83  15 2.83  19 2.83  20 2.83  23 2.83  24 2.83
                            25 2.83  26 2.83  27 2.83  28 2.83
   4  0.750  0.750  0.000-  10 2.83  12 2.83  14 2.83  16 2.83  19 2.83  20 2.83  23 2.83  24 2.83
                            25 2.83  26 2.83  27 2.83  28 2.83
   5  0.250  0.250  0.500-   9 2.83  11 2.83  13 2.83  15 2.83  17 2.83  18 2.83  21 2.83  22 2.83
                            29 2.83  30 2.83  31 2.83  32 2.83
   6  0.750  0.250  0.500-  10 2.83  12 2.83  14 2.83  16 2.83  17 2.83  18 2.83  21 2.83  22 2.83
                            29 2.83  30 2.83  31 2.83  32 2.83
   7  0.250  0.750  0.500-   9 2.83  11 2.83  13 2.83  15 2.83  19 2.83  20 2.83  23 2.83  24 2.83
                            29 2.83  30 2.83  31 2.83  32 2.83
   8  0.750  0.750  0.500-  10 2.83  12 2.83  14 2.83  16 2.83  19 2.83  20 2.83  23 2.83  24 2.83
                            29 2.83  30 2.83  31 2.83  32 2.83
   9  0.250  0.000  0.250-   3 2.83   5 2.83   7 2.83  17 2.83  18 2.83  19 2.83  20 2.83  25 2.83
                            26 2.83  29 2.83  30 2.83   1 2.83
  10  0.750  0.000  0.250-   2 2.83   4 2.83   6 2.83   8 2.83  17 2.83  18 2.83  19 2.83  20 2.83
                            25 2.83  26 2.83  29 2.83  30 2.83
  11  0.250  0.500  0.250-   3 2.83   5 2.83   7 2.83  17 2.83  18 2.83  19 2.83  20 2.83  27 2.83
                            28 2.83  31 2.83  32 2.83   1 2.83
  12  0.750  0.500  0.250-   2 2.83   4 2.83   6 2.83   8 2.83  17 2.83  18 2.83  19 2.83  20 2.83
                            27 2.83  28 2.83  31 2.83  32 2.83
  13  0.250  0.000  0.750-   3 2.83   5 2.83   7 2.83  21 2.83  22 2.83  23 2.83  24 2.83  25 2.83
                            26 2.83  29 2.83  30 2.83   1 2.83
  14  0.750  0.000  0.750-   2 2.83   4 2.83   6 2.83   8 2.83  21 2.83  22 2.83  23 2.83  24 2.83
                            25 2.83  26 2.83  29 2.83  30 2.83
  15  0.250  0.500  0.750-   3 2.83   5 2.83   7 2.83  21 2.83  22 2.83  23 2.83  24 2.83  27 2.83
                            28 2.83  31 2.83  32 2.83   1 2.83
  16  0.750  0.500  0.750-   2 2.83   4 2.83   6 2.83   8 2.83  21 2.83  22 2.83  23 2.83  24 2.83
                            27 2.83  28 2.83  31 2.83  32 2.83
  17  0.000  0.250  0.250-   2 2.83   5 2.83   6 2.83   9 2.83  10 2.83  11 2.83  12 2.83  25 2.83
                            27 2.83  29 2.83  31 2.83   1 2.83
  18  0.500  0.250  0.250-   1 2.82   2 2.83   5 2.83   6 2.83   9 2.83  10 2.83  11 2.83  12 2.83
                            26 2.83  28 2.83  30 2.83  32 2.83
  19  0.000  0.750  0.250-   3 2.83   4 2.83   7 2.83   8 2.83   9 2.83  10 2.83  11 2.83  12 2.83
                            25 2.83  27 2.83  29 2.83  31 2.83
  20  0.500  0.750  0.250-   3 2.83   4 2.83   7 2.83   8 2.83   9 2.83  10 2.83  11 2.83  12 2.83
                            26 2.83  28 2.83  30 2.83  32 2.83
  21  0.000  0.250  0.750-   2 2.83   5 2.83   6 2.83  13 2.83  14 2.83  15 2.83  16 2.83  25 2.83
                            27 2.83  29 2.83  31 2.83   1 2.83
  22  0.500  0.250  0.750-   1 2.82   2 2.83   5 2.83   6 2.83  13 2.83  14 2.83  15 2.83  16 2.83
                            26 2.83  28 2.83  30 2.83  32 2.83
  23  0.000  0.750  0.750-   3 2.83   4 2.83   7 2.83   8 2.83  13 2.83  14 2.83  15 2.83  16 2.83
                            25 2.83  27 2.83  29 2.83  31 2.83
  24  0.500  0.750  0.750-   3 2.83   4 2.83   7 2.83   8 2.83  13 2.83  14 2.83  15 2.83  16 2.83
                            26 2.83  28 2.83  30 2.83  32 2.83
  25  0.000  0.000  0.000-   2 2.83   3 2.83   4 2.83   9 2.83  10 2.83  13 2.83  14 2.83  17 2.83
                            19 2.83  21 2.83  23 2.83   1 2.83
  26  0.500  0.000  0.000-   1 2.82   2 2.83   3 2.83   4 2.83   9 2.83  10 2.83  13 2.83  14 2.83
                            18 2.83  20 2.83  22 2.83  24 2.83
  27  0.000  0.500  0.000-   2 2.83   3 2.83   4 2.83  11 2.83  12 2.83  15 2.83  16 2.83  17 2.83
                            19 2.83  21 2.83  23 2.83   1 2.83
  28  0.500  0.500  0.000-   1 2.82   2 2.83   3 2.83   4 2.83  11 2.83  12 2.83  15 2.83  16 2.83
                            18 2.83  20 2.83  22 2.83  24 2.83
  29  0.000  0.000  0.500-   5 2.83   6 2.83   7 2.83   8 2.83   9 2.83  10 2.83  13 2.83  14 2.83
                            17 2.83  19 2.83  21 2.83  23 2.83
  30  0.500  0.000  0.500-   5 2.83   6 2.83   7 2.83   8 2.83   9 2.83  10 2.83  13 2.83  14 2.83
                            18 2.83  20 2.83  22 2.83  24 2.83
  31  0.000  0.500  0.500-   5 2.83   6 2.83   7 2.83   8 2.83  11 2.83  12 2.83  15 2.83  16 2.83
                            17 2.83  19 2.83  21 2.83  23 2.83
  32  0.500  0.500  0.500-   5 2.83   6 2.83   7 2.83   8 2.83  11 2.83  12 2.83  15 2.83  16 2.83
                            18 2.83  20 2.83  22 2.83  24 2.83
 
  LATTYP: Found a simple cubic cell.
 ALAT       =     7.9938666120
  
  Lattice vectors:
  
 A1 = (   7.9938666120,   0.0000000000,   0.0000000000)
 A2 = (   0.0000000000,   7.9938666120,   0.0000000000)
 A3 = (   0.0000000000,   0.0000000000,   7.9938666120)
 Subroutine PRICEL returns:
 Original cell was already a primitive cell.
 

Analysis of symmetry for initial positions (statically):

 Routine SETGRP: Setting up the symmetry group for a 
 simple cubic supercell.


 Subroutine GETGRP returns: Found  8 space group operations
 (whereof  2 operations were pure point group operations)
 out of a pool of 48 trial point group operations.


The static configuration has the point symmetry C_1h.
 The point group associated with its full space group is C_4v.

Analysis of symmetry for dynamics (positions and initial velocities):

 Subroutine DYNSYM returns: Found  8 space group operations
 (whereof  2 operations were pure point group operations)
 out of a pool of  8 trial space group operations
 (whereof  2 operations were pure point group operations)
 and found also     1 'primitive' translations


The dynamic configuration has the point symmetry C_1h.
 The point group associated with its full space group is C_4v.
 
 
 KPOINTS: Automatic mesh                          

Automatic generation of k-mesh.
 
 Subroutine IBZKPT returns following result:
 ===========================================
 
 Found    196 irreducible k-points:
 
 Following reciprocal coordinates:
            Coordinates               Weight
  0.000000  0.000000  0.000000      1.000000
  0.083333  0.000000  0.000000      2.000000
  0.166667  0.000000  0.000000      2.000000
  0.250000  0.000000  0.000000      2.000000
  0.333333  0.000000  0.000000      2.000000
  0.416667  0.000000  0.000000      2.000000
  0.500000  0.000000  0.000000      1.000000
  0.000000  0.083333  0.000000      4.000000
  0.083333  0.083333  0.000000      8.000000
  0.166667  0.083333  0.000000      8.000000
  0.250000  0.083333  0.000000      8.000000
  0.333333  0.083333  0.000000      8.000000
  0.416667  0.083333  0.000000      8.000000
  0.500000  0.083333  0.000000      4.000000
  0.000000  0.166667  0.000000      4.000000
  0.083333  0.166667  0.000000      8.000000
  0.166667  0.166667  0.000000      8.000000
  0.250000  0.166667  0.000000      8.000000
  0.333333  0.166667  0.000000      8.000000
  0.416667  0.166667  0.000000      8.000000
  0.500000  0.166667  0.000000      4.000000
  0.000000  0.250000  0.000000      4.000000
  0.083333  0.250000  0.000000      8.000000
  0.166667  0.250000  0.000000      8.000000
  0.250000  0.250000  0.000000      8.000000
  0.333333  0.250000  0.000000      8.000000
  0.416667  0.250000  0.000000      8.000000
  0.500000  0.250000  0.000000      4.000000
  0.000000  0.333333  0.000000      4.000000
  0.083333  0.333333  0.000000      8.000000
  0.166667  0.333333  0.000000      8.000000
  0.250000  0.333333  0.000000      8.000000
  0.333333  0.333333  0.000000      8.000000
  0.416667  0.333333  0.000000      8.000000
  0.500000  0.333333  0.000000      4.000000
  0.000000  0.416667  0.000000      4.000000
  0.083333  0.416667  0.000000      8.000000
  0.166667  0.416667  0.000000      8.000000
  0.250000  0.416667  0.000000      8.000000
  0.333333  0.416667  0.000000      8.000000
  0.416667  0.416667  0.000000      8.000000
  0.500000  0.416667  0.000000      4.000000
  0.000000  0.500000  0.000000      2.000000
  0.083333  0.500000  0.000000      4.000000
  0.166667  0.500000  0.000000      4.000000
  0.250000  0.500000  0.000000      4.000000
  0.333333  0.500000  0.000000      4.000000
  0.416667  0.500000  0.000000      4.000000
  0.500000  0.500000  0.000000      2.000000
  0.000000  0.083333  0.083333      4.000000
  0.083333  0.083333  0.083333      8.000000
  0.166667  0.083333  0.083333      8.000000
  0.250000  0.083333  0.083333      8.000000
  0.333333  0.083333  0.083333      8.000000
  0.416667  0.083333  0.083333      8.000000
  0.500000  0.083333  0.083333      4.000000
  0.000000  0.166667  0.083333      8.000000
  0.083333  0.166667  0.083333     16.000000
  0.166667  0.166667  0.083333     16.000000
  0.250000  0.166667  0.083333     16.000000
  0.333333  0.166667  0.083333     16.000000
  0.416667  0.166667  0.083333     16.000000
  0.500000  0.166667  0.083333      8.000000
  0.000000  0.250000  0.083333      8.000000
  0.083333  0.250000  0.083333     16.000000
  0.166667  0.250000  0.083333     16.000000
  0.250000  0.250000  0.083333     16.000000
  0.333333  0.250000  0.083333     16.000000
  0.416667  0.250000  0.083333     16.000000
  0.500000  0.250000  0.083333      8.000000
  0.000000  0.333333  0.083333      8.000000
  0.083333  0.333333  0.083333     16.000000
  0.166667  0.333333  0.083333     16.000000
  0.250000  0.333333  0.083333     16.000000
  0.333333  0.333333  0.083333     16.000000
  0.416667  0.333333  0.083333     16.000000
  0.500000  0.333333  0.083333      8.000000
  0.000000  0.416667  0.083333      8.000000
  0.083333  0.416667  0.083333     16.000000
  0.166667  0.416667  0.083333     16.000000
  0.250000  0.416667  0.083333     16.000000
  0.333333  0.416667  0.083333     16.000000
  0.416667  0.416667  0.083333     16.000000
  0.500000  0.416667  0.083333      8.000000
  0.000000  0.500000  0.083333      4.000000
  0.083333  0.500000  0.083333      8.000000
  0.166667  0.500000  0.083333      8.000000
  0.250000  0.500000  0.083333      8.000000
  0.333333  0.500000  0.083333      8.000000
  0.416667  0.500000  0.083333      8.000000
  0.500000  0.500000  0.083333      4.000000
  0.000000  0.166667  0.166667      4.000000
  0.083333  0.166667  0.166667      8.000000
  0.166667  0.166667  0.166667      8.000000
  0.250000  0.166667  0.166667      8.000000
  0.333333  0.166667  0.166667      8.000000
  0.416667  0.166667  0.166667      8.000000
  0.500000  0.166667  0.166667      4.000000
  0.000000  0.250000  0.166667      8.000000
  0.083333  0.250000  0.166667     16.000000
  0.166667  0.250000  0.166667     16.000000
  0.250000  0.250000  0.166667     16.000000
  0.333333  0.250000  0.166667     16.000000
  0.416667  0.250000  0.166667     16.000000
  0.500000  0.250000  0.166667      8.000000
  0.000000  0.333333  0.166667      8.000000
  0.083333  0.333333  0.166667     16.000000
  0.166667  0.333333  0.166667     16.000000
  0.250000  0.333333  0.166667     16.000000
  0.333333  0.333333  0.166667     16.000000
  0.416667  0.333333  0.166667     16.000000
  0.500000  0.333333  0.166667      8.000000
  0.000000  0.416667  0.166667      8.000000
  0.083333  0.416667  0.166667     16.000000
  0.166667  0.416667  0.166667     16.000000
  0.250000  0.416667  0.166667     16.000000
  0.333333  0.416667  0.166667     16.000000
  0.416667  0.416667  0.166667     16.000000
  0.500000  0.416667  0.166667      8.000000
  0.000000  0.500000  0.166667      4.000000
  0.083333  0.500000  0.166667      8.000000
  0.166667  0.500000  0.166667      8.000000
  0.250000  0.500000  0.166667      8.000000
  0.333333  0.500000  0.166667      8.000000
  0.416667  0.500000  0.166667      8.000000
  0.500000  0.500000  0.166667      4.000000
  0.000000  0.250000  0.250000      4.000000
  0.083333  0.250000  0.250000      8.000000
  0.166667  0.250000  0.250000      8.000000
  0.250000  0.250000  0.250000      8.000000
  0.333333  0.250000  0.250000      8.000000
  0.416667  0.250000  0.250000      8.000000
  0.500000  0.250000  0.250000      4.000000
  0.000000  0.333333  0.250000      8.000000
  0.083333  0.333333  0.250000     16.000000
  0.166667  0.333333  0.250000     16.000000
  0.250000  0.333333  0.250000     16.000000
  0.333333  0.333333  0.250000     16.000000
  0.416667  0.333333  0.250000     16.000000
  0.500000  0.333333  0.250000      8.000000
  0.000000  0.416667  0.250000      8.000000
  0.083333  0.416667  0.250000     16.000000
  0.166667  0.416667  0.250000     16.000000
  0.250000  0.416667  0.250000     16.000000
  0.333333  0.416667  0.250000     16.000000
  0.416667  0.416667  0.250000     16.000000
  0.500000  0.416667  0.250000      8.000000
  0.000000  0.500000  0.250000      4.000000
  0.083333  0.500000  0.250000      8.000000
  0.166667  0.500000  0.250000      8.000000
  0.250000  0.500000  0.250000      8.000000
  0.333333  0.500000  0.250000      8.000000
  0.416667  0.500000  0.250000      8.000000
  0.500000  0.500000  0.250000      4.000000
  0.000000  0.333333  0.333333      4.000000
  0.083333  0.333333  0.333333      8.000000
  0.166667  0.333333  0.333333      8.000000
  0.250000  0.333333  0.333333      8.000000
  0.333333  0.333333  0.333333      8.000000
  0.416667  0.333333  0.333333      8.000000
  0.500000  0.333333  0.333333      4.000000
  0.000000  0.416667  0.333333      8.000000
  0.083333  0.416667  0.333333     16.000000
  0.166667  0.416667  0.333333     16.000000
  0.250000  0.416667  0.333333     16.000000
  0.333333  0.416667  0.333333     16.000000
  0.416667  0.416667  0.333333     16.000000
  0.500000  0.416667  0.333333      8.000000
  0.000000  0.500000  0.333333      4.000000
  0.083333  0.500000  0.333333      8.000000
  0.166667  0.500000  0.333333      8.000000
  0.250000  0.500000  0.333333      8.000000
  0.333333  0.500000  0.333333      8.000000
  0.416667  0.500000  0.333333      8.000000
  0.500000  0.500000  0.333333      4.000000
  0.000000  0.416667  0.416667      4.000000
  0.083333  0.416667  0.416667      8.000000
  0.166667  0.416667  0.416667      8.000000
  0.250000  0.416667  0.416667      8.000000
  0.333333  0.416667  0.416667      8.000000
  0.416667  0.416667  0.416667      8.000000
  0.500000  0.416667  0.416667      4.000000
  0.000000  0.500000  0.416667      4.000000
  0.083333  0.500000  0.416667      8.000000
  0.166667  0.500000  0.416667      8.000000
  0.250000  0.500000  0.416667      8.000000
  0.333333  0.500000  0.416667      8.000000
  0.416667  0.500000  0.416667      8.000000
  0.500000  0.500000  0.416667      4.000000
  0.000000  0.500000  0.500000      1.000000
  0.083333  0.500000  0.500000      2.000000
  0.166667  0.500000  0.500000      2.000000
  0.250000  0.500000  0.500000      2.000000
  0.333333  0.500000  0.500000      2.000000
  0.416667  0.500000  0.500000      2.000000
  0.500000  0.500000  0.500000      1.000000
 
 Following cartesian coordinates:
            Coordinates               Weight
  0.000000  0.000000  0.000000      1.000000
  0.010425  0.000000  0.000000      2.000000
  0.020849  0.000000  0.000000      2.000000
  0.031274  0.000000  0.000000      2.000000
  0.041699  0.000000  0.000000      2.000000
  0.052123  0.000000  0.000000      2.000000
  0.062548  0.000000  0.000000      1.000000
  0.000000  0.010425  0.000000      4.000000
  0.010425  0.010425  0.000000      8.000000
  0.020849  0.010425  0.000000      8.000000
  0.031274  0.010425  0.000000      8.000000
  0.041699  0.010425  0.000000      8.000000
  0.052123  0.010425  0.000000      8.000000
  0.062548  0.010425  0.000000      4.000000
  0.000000  0.020849  0.000000      4.000000
  0.010425  0.020849  0.000000      8.000000
  0.020849  0.020849  0.000000      8.000000
  0.031274  0.020849  0.000000      8.000000
  0.041699  0.020849  0.000000      8.000000
  0.052123  0.020849  0.000000      8.000000
  0.062548  0.020849  0.000000      4.000000
  0.000000  0.031274  0.000000      4.000000
  0.010425  0.031274  0.000000      8.000000
  0.020849  0.031274  0.000000      8.000000
  0.031274  0.031274  0.000000      8.000000
  0.041699  0.031274  0.000000      8.000000
  0.052123  0.031274  0.000000      8.000000
  0.062548  0.031274  0.000000      4.000000
  0.000000  0.041699  0.000000      4.000000
  0.010425  0.041699  0.000000      8.000000
  0.020849  0.041699  0.000000      8.000000
  0.031274  0.041699  0.000000      8.000000
  0.041699  0.041699  0.000000      8.000000
  0.052123  0.041699  0.000000      8.000000
  0.062548  0.041699  0.000000      4.000000
  0.000000  0.052123  0.000000      4.000000
  0.010425  0.052123  0.000000      8.000000
  0.020849  0.052123  0.000000      8.000000
  0.031274  0.052123  0.000000      8.000000
  0.041699  0.052123  0.000000      8.000000
  0.052123  0.052123  0.000000      8.000000
  0.062548  0.052123  0.000000      4.000000
  0.000000  0.062548  0.000000      2.000000
  0.010425  0.062548  0.000000      4.000000
  0.020849  0.062548  0.000000      4.000000
  0.031274  0.062548  0.000000      4.000000
  0.041699  0.062548  0.000000      4.000000
  0.052123  0.062548  0.000000      4.000000
  0.062548  0.062548  0.000000      2.000000
  0.000000  0.010425  0.010425      4.000000
  0.010425  0.010425  0.010425      8.000000
  0.020849  0.010425  0.010425      8.000000
  0.031274  0.010425  0.010425      8.000000
  0.041699  0.010425  0.010425      8.000000
  0.052123  0.010425  0.010425      8.000000
  0.062548  0.010425  0.010425      4.000000
  0.000000  0.020849  0.010425      8.000000
  0.010425  0.020849  0.010425     16.000000
  0.020849  0.020849  0.010425     16.000000
  0.031274  0.020849  0.010425     16.000000
  0.041699  0.020849  0.010425     16.000000
  0.052123  0.020849  0.010425     16.000000
  0.062548  0.020849  0.010425      8.000000
  0.000000  0.031274  0.010425      8.000000
  0.010425  0.031274  0.010425     16.000000
  0.020849  0.031274  0.010425     16.000000
  0.031274  0.031274  0.010425     16.000000
  0.041699  0.031274  0.010425     16.000000
  0.052123  0.031274  0.010425     16.000000
  0.062548  0.031274  0.010425      8.000000
  0.000000  0.041699  0.010425      8.000000
  0.010425  0.041699  0.010425     16.000000
  0.020849  0.041699  0.010425     16.000000
  0.031274  0.041699  0.010425     16.000000
  0.041699  0.041699  0.010425     16.000000
  0.052123  0.041699  0.010425     16.000000
  0.062548  0.041699  0.010425      8.000000
  0.000000  0.052123  0.010425      8.000000
  0.010425  0.052123  0.010425     16.000000
  0.020849  0.052123  0.010425     16.000000
  0.031274  0.052123  0.010425     16.000000
  0.041699  0.052123  0.010425     16.000000
  0.052123  0.052123  0.010425     16.000000
  0.062548  0.052123  0.010425      8.000000
  0.000000  0.062548  0.010425      4.000000
  0.010425  0.062548  0.010425      8.000000
  0.020849  0.062548  0.010425      8.000000
  0.031274  0.062548  0.010425      8.000000
  0.041699  0.062548  0.010425      8.000000
  0.052123  0.062548  0.010425      8.000000
  0.062548  0.062548  0.010425      4.000000
  0.000000  0.020849  0.020849      4.000000
  0.010425  0.020849  0.020849      8.000000
  0.020849  0.020849  0.020849      8.000000
  0.031274  0.020849  0.020849      8.000000
  0.041699  0.020849  0.020849      8.000000
  0.052123  0.020849  0.020849      8.000000
  0.062548  0.020849  0.020849      4.000000
  0.000000  0.031274  0.020849      8.000000
  0.010425  0.031274  0.020849     16.000000
  0.020849  0.031274  0.020849     16.000000
  0.031274  0.031274  0.020849     16.000000
  0.041699  0.031274  0.020849     16.000000
  0.052123  0.031274  0.020849     16.000000
  0.062548  0.031274  0.020849      8.000000
  0.000000  0.041699  0.020849      8.000000
  0.010425  0.041699  0.020849     16.000000
  0.020849  0.041699  0.020849     16.000000
  0.031274  0.041699  0.020849     16.000000
  0.041699  0.041699  0.020849     16.000000
  0.052123  0.041699  0.020849     16.000000
  0.062548  0.041699  0.020849      8.000000
  0.000000  0.052123  0.020849      8.000000
  0.010425  0.052123  0.020849     16.000000
  0.020849  0.052123  0.020849     16.000000
  0.031274  0.052123  0.020849     16.000000
  0.041699  0.052123  0.020849     16.000000
  0.052123  0.052123  0.020849     16.000000
  0.062548  0.052123  0.020849      8.000000
  0.000000  0.062548  0.020849      4.000000
  0.010425  0.062548  0.020849      8.000000
  0.020849  0.062548  0.020849      8.000000
  0.031274  0.062548  0.020849      8.000000
  0.041699  0.062548  0.020849      8.000000
  0.052123  0.062548  0.020849      8.000000
  0.062548  0.062548  0.020849      4.000000
  0.000000  0.031274  0.031274      4.000000
  0.010425  0.031274  0.031274      8.000000
  0.020849  0.031274  0.031274      8.000000
  0.031274  0.031274  0.031274      8.000000
  0.041699  0.031274  0.031274      8.000000
  0.052123  0.031274  0.031274      8.000000
  0.062548  0.031274  0.031274      4.000000
  0.000000  0.041699  0.031274      8.000000
  0.010425  0.041699  0.031274     16.000000
  0.020849  0.041699  0.031274     16.000000
  0.031274  0.041699  0.031274     16.000000
  0.041699  0.041699  0.031274     16.000000
  0.052123  0.041699  0.031274     16.000000
  0.062548  0.041699  0.031274      8.000000
  0.000000  0.052123  0.031274      8.000000
  0.010425  0.052123  0.031274     16.000000
  0.020849  0.052123  0.031274     16.000000
  0.031274  0.052123  0.031274     16.000000
  0.041699  0.052123  0.031274     16.000000
  0.052123  0.052123  0.031274     16.000000
  0.062548  0.052123  0.031274      8.000000
  0.000000  0.062548  0.031274      4.000000
  0.010425  0.062548  0.031274      8.000000
  0.020849  0.062548  0.031274      8.000000
  0.031274  0.062548  0.031274      8.000000
  0.041699  0.062548  0.031274      8.000000
  0.052123  0.062548  0.031274      8.000000
  0.062548  0.062548  0.031274      4.000000
  0.000000  0.041699  0.041699      4.000000
  0.010425  0.041699  0.041699      8.000000
  0.020849  0.041699  0.041699      8.000000
  0.031274  0.041699  0.041699      8.000000
  0.041699  0.041699  0.041699      8.000000
  0.052123  0.041699  0.041699      8.000000
  0.062548  0.041699  0.041699      4.000000
  0.000000  0.052123  0.041699      8.000000
  0.010425  0.052123  0.041699     16.000000
  0.020849  0.052123  0.041699     16.000000
  0.031274  0.052123  0.041699     16.000000
  0.041699  0.052123  0.041699     16.000000
  0.052123  0.052123  0.041699     16.000000
  0.062548  0.052123  0.041699      8.000000
  0.000000  0.062548  0.041699      4.000000
  0.010425  0.062548  0.041699      8.000000
  0.020849  0.062548  0.041699      8.000000
  0.031274  0.062548  0.041699      8.000000
  0.041699  0.062548  0.041699      8.000000
  0.052123  0.062548  0.041699      8.000000
  0.062548  0.062548  0.041699      4.000000
  0.000000  0.052123  0.052123      4.000000
  0.010425  0.052123  0.052123      8.000000
  0.020849  0.052123  0.052123      8.000000
  0.031274  0.052123  0.052123      8.000000
  0.041699  0.052123  0.052123      8.000000
  0.052123  0.052123  0.052123      8.000000
  0.062548  0.052123  0.052123      4.000000
  0.000000  0.062548  0.052123      4.000000
  0.010425  0.062548  0.052123      8.000000
  0.020849  0.062548  0.052123      8.000000
  0.031274  0.062548  0.052123      8.000000
  0.041699  0.062548  0.052123      8.000000
  0.052123  0.062548  0.052123      8.000000
  0.062548  0.062548  0.052123      4.000000
  0.000000  0.062548  0.062548      1.000000
  0.010425  0.062548  0.062548      2.000000
  0.020849  0.062548  0.062548      2.000000
  0.031274  0.062548  0.062548      2.000000
  0.041699  0.062548  0.062548      2.000000
  0.052123  0.062548  0.062548      2.000000
  0.062548  0.062548  0.062548      1.000000
 


--------------------------------------------------------------------------------------------------------




 Dimension of arrays:
   k-Points           NKPTS =    196   number of bands    NBANDS=     68
   number of dos      NEDOS =    301   number of ions     NIONS =     32
   non local maximal  LDIM  =      4   non local SUM 2l+1 LMDIM =      8
   total plane-waves  NPLWV = 373248
   max r-space proj   IRMAX =      1   max aug-charges    IRDMAX= 227675
   dimension x,y,z NGX =    72 NGY =   72 NGZ =   72
   dimension x,y,z NGXF=   144 NGYF=  144 NGZF=  144
   support grid    NGXF=   288 NGYF=  288 NGZF=  288
   ions per type =              32
 NGX,Y,Z   is equivalent  to a cutoff of  14.97, 14.97, 14.97 a.u.
 NGXF,Y,Z  is equivalent  to a cutoff of  29.95, 29.95, 29.95 a.u.


 I would recommend the setting:
   dimension x,y,z NGX =    71 NGY =   71 NGZ =   71
 SYSTEM =  unknown system                          
 POSCAR =  Al                                      

 Startparameter for this run:
   NWRITE =      2    write-flag & timer
   PREC   = accura    medium, high low
   ISTART =      0    job   : 0-new  1-cont  2-samecut
   ICHARG =      2    charge: 1-file 2-atom 10-const
   ISPIN  =      1    spin polarized calculation?
   LNONCOLLINEAR =      F non collinear calculations
   LSORBIT =      F    spin-orbit coupling
   INIWAV =      1    electr: 0-lowe 1-rand  2-diag
   LASPH  =      F    aspherical Exc in radial PAW
   METAGGA=      F    non-selfconsistent MetaGGA calc.

 Electronic Relaxation 1
   ENCUT  =  750.0 eV  55.12 Ry    7.42 a.u.  17.85 17.85 17.85*2*pi/ulx,y,z
   ENINI  =  750.0     initial cutoff
   ENAUG  =  291.1 eV  augmentation charge cutoff
   NELM   =     60;   NELMIN=  2; NELMDL= -5     # of ELM steps 
   EDIFF  = 0.1E-07   stopping-criterion for ELM
   LREAL  =      F    real-space projection
   LCOMPAT=      F    compatible to vasp.4.4
   LREAL_COMPAT= F    compatible to vasp.4.5.1-3
   GGA_COMPAT  = T    GGA compatible to vasp.4.4-vasp.4.6
   LMAXPAW     = -100 max onsite density
   LMAXMIX     =    2 max onsite mixed and CHGCAR
   VOSKOWN=      0    Vosko Wilk Nusair interpolation
   ROPT   =    0.00000
 Ionic relaxation
   EDIFFG = 0.1E-06   stopping-criterion for IOM
   NSW    =      0    number of steps for IOM
   NBLOCK =      1;   KBLOCK =      1    inner block; outer block 
   IBRION =     -1    ionic relax: 0-MD 1-quasi-New 2-CG
   NFREE  =      0    steps in history (QN), initial steepest desc. (CG)
   ISIF   =      2    stress and relaxation
   IWAVPR =     10    prediction:  0-non 1-charg 2-wave 3-comb
   ISYM   =      2    0-nonsym 1-usesym 2-fastsym
   LCORR  =      T    Harris-Foulkes like correction to forces

   POTIM  =   0.50    time-step for ionic-motion
   TEIN   =    0.0    initial temperature
   TEBEG  =    0.0;   TEEND  =   0.0 temperature during run
   SMASS  =  -3.00    Nose mass-parameter (am)
   estimated Nose-frequenzy (Omega)   =  0.10E-29 period in steps =****** mass=  -0.146E-26a.u.
   NPACO  =    256;   APACO  = 16.0  distance and # of slots for P.C.
   PSTRESS=    0.0 pullay stress

  Mass of Ions in am
   POMASS =  26.98
  Ionic Valenz
   ZVAL   =   3.00
  Atomic Wigner-Seitz radii
   RWIGS  =  -1.00
   NELECT =      96.0000    total number of electrons
   NUPDOWN=      -1.0000    fix difference up-down

 DOS related values:
   EMIN   =  10.00;   EMAX   =-10.00  energy-range for DOS
   ISMEAR =     0;   SIGMA  =   0.01  broadening in eV -4-tet -1-fermi 0-gaus

 Electronic relaxation 2 (details)
   IALGO  =     38    algorithm
   LDIAG  =      T    sub-space diagonalisation
   IMIX   =      4    mixing-type and parameters
     AMIX     =   0.40;   BMIX     =  1.00
     AMIX_MAG =   1.60;   BMIX_MAG =  1.00
     AMIN     =   0.10
     WC   =   100.;   INIMIX=   1;  MIXPRE=   1

 Intra band minimization:
   WEIMIN = 0.0000     energy-eigenvalue tresh-hold
   EBREAK =  0.38E-10  absolut break condition
   DEPER  =   0.30     relativ break condition  

   TIME   =   0.10     timestep for ELM

  volume/ion in A,a.u.               =      15.96       107.73
  Fermi-wavevector in a.u.,eV,Ry     =   0.937724 11.963960  0.879326

 Second variation
   LSECVAR=     F    do a second variation
 
 Write flags
   LWAVE  =      F    write WAVECAR
   LCHARG =      F    write CHGCAR
   LVTOT  =      F    write LOCPOT, local potential
   LELF   =      F    write electronic localiz. function (ELF)
   LORBIT =      0    0 simple, 1 ext, 2 COOP (PROOUT)


 Dipole corrections
   IDIPOL =      0    1-x, 2-y, 3-z
   LDIPOL =      F    correct potential



--------------------------------------------------------------------------------------------------------


 Static calculation
 charge density will be updated during run
 non-spin polarized calculation
 Variant of blocked Davidson
 Davidson routine will perform the subspace rotation
 performe sub-space diagonalisation
    after iterative eigenvector-optimisation
 modified Broyden-mixing scheme, WC =      100.0
 initial mixing is a Kerker type mixing with AMIX =  0.4000 and BMIX =      1.0000
 Hartree-type preconditioning will be used
 using additional bands           20
 reciprocal scheme for non local part
 use partial core corrections
 calculate Harris-corrections to forces 
   (improved forces if not selfconsistent)
 use gradient corrections 
 use of overlap-Matrix (Vanderbilt PP)
 Gauss-broadening in eV      SIGMA  =   0.01


--------------------------------------------------------------------------------------------------------


  energy-cutoff  :      750.00
  volume of cell :      510.82
      direct lattice vectors                 reciprocal lattice vectors
     7.993866612  0.000000000  0.000000000     0.125095908  0.000000000  0.000000000
     0.000000000  7.993866612  0.000000000     0.000000000  0.125095908  0.000000000
     0.000000000  0.000000000  7.993866612     0.000000000  0.000000000  0.125095908

  length of vectors
     7.993866612  7.993866612  7.993866612     0.125095908  0.125095908  0.125095908


 
 k-points in units of 2pi/SCALE and weight: Automatic mesh                          
   0.00000000  0.00000000  0.00000000       0.001
   0.01042466  0.00000000  0.00000000       0.001
   0.02084932  0.00000000  0.00000000       0.001
   0.03127398  0.00000000  0.00000000       0.001
   0.04169864  0.00000000  0.00000000       0.001
   0.05212329  0.00000000  0.00000000       0.001
   0.06254795  0.00000000  0.00000000       0.001
   0.00000000  0.01042466  0.00000000       0.002
   0.01042466  0.01042466  0.00000000       0.005
   0.02084932  0.01042466  0.00000000       0.005
   0.03127398  0.01042466  0.00000000       0.005
   0.04169864  0.01042466  0.00000000       0.005
   0.05212329  0.01042466  0.00000000       0.005
   0.06254795  0.01042466  0.00000000       0.002
   0.00000000  0.02084932  0.00000000       0.002
   0.01042466  0.02084932  0.00000000       0.005
   0.02084932  0.02084932  0.00000000       0.005
   0.03127398  0.02084932  0.00000000       0.005
   0.04169864  0.02084932  0.00000000       0.005
   0.05212329  0.02084932  0.00000000       0.005
   0.06254795  0.02084932  0.00000000       0.002
   0.00000000  0.03127398  0.00000000       0.002
   0.01042466  0.03127398  0.00000000       0.005
   0.02084932  0.03127398  0.00000000       0.005
   0.03127398  0.03127398  0.00000000       0.005
   0.04169864  0.03127398  0.00000000       0.005
   0.05212329  0.03127398  0.00000000       0.005
   0.06254795  0.03127398  0.00000000       0.002
   0.00000000  0.04169864  0.00000000       0.002
   0.01042466  0.04169864  0.00000000       0.005
   0.02084932  0.04169864  0.00000000       0.005
   0.03127398  0.04169864  0.00000000       0.005
   0.04169864  0.04169864  0.00000000       0.005
   0.05212329  0.04169864  0.00000000       0.005
   0.06254795  0.04169864  0.00000000       0.002
   0.00000000  0.05212329  0.00000000       0.002
   0.01042466  0.05212329  0.00000000       0.005
   0.02084932  0.05212329  0.00000000       0.005
   0.03127398  0.05212329  0.00000000       0.005
   0.04169864  0.05212329  0.00000000       0.005
   0.05212329  0.05212329  0.00000000       0.005
   0.06254795  0.05212329  0.00000000       0.002
   0.00000000  0.06254795  0.00000000       0.001
   0.01042466  0.06254795  0.00000000       0.002
   0.02084932  0.06254795  0.00000000       0.002
   0.03127398  0.06254795  0.00000000       0.002
   0.04169864  0.06254795  0.00000000       0.002
   0.05212329  0.06254795  0.00000000       0.002
   0.06254795  0.06254795  0.00000000       0.001
   0.00000000  0.01042466  0.01042466       0.002
   0.01042466  0.01042466  0.01042466       0.005
   0.02084932  0.01042466  0.01042466       0.005
   0.03127398  0.01042466  0.01042466       0.005
   0.04169864  0.01042466  0.01042466       0.005
   0.05212329  0.01042466  0.01042466       0.005
   0.06254795  0.01042466  0.01042466       0.002
   0.00000000  0.02084932  0.01042466       0.005
   0.01042466  0.02084932  0.01042466       0.009
   0.02084932  0.02084932  0.01042466       0.009
   0.03127398  0.02084932  0.01042466       0.009
   0.04169864  0.02084932  0.01042466       0.009
   0.05212329  0.02084932  0.01042466       0.009
   0.06254795  0.02084932  0.01042466       0.005
   0.00000000  0.03127398  0.01042466       0.005
   0.01042466  0.03127398  0.01042466       0.009
   0.02084932  0.03127398  0.01042466       0.009
   0.03127398  0.03127398  0.01042466       0.009
   0.04169864  0.03127398  0.01042466       0.009
   0.05212329  0.03127398  0.01042466       0.009
   0.06254795  0.03127398  0.01042466       0.005
   0.00000000  0.04169864  0.01042466       0.005
   0.01042466  0.04169864  0.01042466       0.009
   0.02084932  0.04169864  0.01042466       0.009
   0.03127398  0.04169864  0.01042466       0.009
   0.04169864  0.04169864  0.01042466       0.009
   0.05212329  0.04169864  0.01042466       0.009
   0.06254795  0.04169864  0.01042466       0.005
   0.00000000  0.05212329  0.01042466       0.005
   0.01042466  0.05212329  0.01042466       0.009
   0.02084932  0.05212329  0.01042466       0.009
   0.03127398  0.05212329  0.01042466       0.009
   0.04169864  0.05212329  0.01042466       0.009
   0.05212329  0.05212329  0.01042466       0.009
   0.06254795  0.05212329  0.01042466       0.005
   0.00000000  0.06254795  0.01042466       0.002
   0.01042466  0.06254795  0.01042466       0.005
   0.02084932  0.06254795  0.01042466       0.005
   0.03127398  0.06254795  0.01042466       0.005
   0.04169864  0.06254795  0.01042466       0.005
   0.05212329  0.06254795  0.01042466       0.005
   0.06254795  0.06254795  0.01042466       0.002
   0.00000000  0.02084932  0.02084932       0.002
   0.01042466  0.02084932  0.02084932       0.005
   0.02084932  0.02084932  0.02084932       0.005
   0.03127398  0.02084932  0.02084932       0.005
   0.04169864  0.02084932  0.02084932       0.005
   0.05212329  0.02084932  0.02084932       0.005
   0.06254795  0.02084932  0.02084932       0.002
   0.00000000  0.03127398  0.02084932       0.005
   0.01042466  0.03127398  0.02084932       0.009
   0.02084932  0.03127398  0.02084932       0.009
   0.03127398  0.03127398  0.02084932       0.009
   0.04169864  0.03127398  0.02084932       0.009
   0.05212329  0.03127398  0.02084932       0.009
   0.06254795  0.03127398  0.02084932       0.005
   0.00000000  0.04169864  0.02084932       0.005
   0.01042466  0.04169864  0.02084932       0.009
   0.02084932  0.04169864  0.02084932       0.009
   0.03127398  0.04169864  0.02084932       0.009
   0.04169864  0.04169864  0.02084932       0.009
   0.05212329  0.04169864  0.02084932       0.009
   0.06254795  0.04169864  0.02084932       0.005
   0.00000000  0.05212329  0.02084932       0.005
   0.01042466  0.05212329  0.02084932       0.009
   0.02084932  0.05212329  0.02084932       0.009
   0.03127398  0.05212329  0.02084932       0.009
   0.04169864  0.05212329  0.02084932       0.009
   0.05212329  0.05212329  0.02084932       0.009
   0.06254795  0.05212329  0.02084932       0.005
   0.00000000  0.06254795  0.02084932       0.002
   0.01042466  0.06254795  0.02084932       0.005
   0.02084932  0.06254795  0.02084932       0.005
   0.03127398  0.06254795  0.02084932       0.005
   0.04169864  0.06254795  0.02084932       0.005
   0.05212329  0.06254795  0.02084932       0.005
   0.06254795  0.06254795  0.02084932       0.002
   0.00000000  0.03127398  0.03127398       0.002
   0.01042466  0.03127398  0.03127398       0.005
   0.02084932  0.03127398  0.03127398       0.005
   0.03127398  0.03127398  0.03127398       0.005
   0.04169864  0.03127398  0.03127398       0.005
   0.05212329  0.03127398  0.03127398       0.005
   0.06254795  0.03127398  0.03127398       0.002
   0.00000000  0.04169864  0.03127398       0.005
   0.01042466  0.04169864  0.03127398       0.009
   0.02084932  0.04169864  0.03127398       0.009
   0.03127398  0.04169864  0.03127398       0.009
   0.04169864  0.04169864  0.03127398       0.009
   0.05212329  0.04169864  0.03127398       0.009
   0.06254795  0.04169864  0.03127398       0.005
   0.00000000  0.05212329  0.03127398       0.005
   0.01042466  0.05212329  0.03127398       0.009
   0.02084932  0.05212329  0.03127398       0.009
   0.03127398  0.05212329  0.03127398       0.009
   0.04169864  0.05212329  0.03127398       0.009
   0.05212329  0.05212329  0.03127398       0.009
   0.06254795  0.05212329  0.03127398       0.005
   0.00000000  0.06254795  0.03127398       0.002
   0.01042466  0.06254795  0.03127398       0.005
   0.02084932  0.06254795  0.03127398       0.005
   0.03127398  0.06254795  0.03127398       0.005
   0.04169864  0.06254795  0.03127398       0.005
   0.05212329  0.06254795  0.03127398       0.005
   0.06254795  0.06254795  0.03127398       0.002
   0.00000000  0.04169864  0.04169864       0.002
   0.01042466  0.04169864  0.04169864       0.005
   0.02084932  0.04169864  0.04169864       0.005
   0.03127398  0.04169864  0.04169864       0.005
   0.04169864  0.04169864  0.04169864       0.005
   0.05212329  0.04169864  0.04169864       0.005
   0.06254795  0.04169864  0.04169864       0.002
   0.00000000  0.05212329  0.04169864       0.005
   0.01042466  0.05212329  0.04169864       0.009
   0.02084932  0.05212329  0.04169864       0.009
   0.03127398  0.05212329  0.04169864       0.009
   0.04169864  0.05212329  0.04169864       0.009
   0.05212329  0.05212329  0.04169864       0.009
   0.06254795  0.05212329  0.04169864       0.005
   0.00000000  0.06254795  0.04169864       0.002
   0.01042466  0.06254795  0.04169864       0.005
   0.02084932  0.06254795  0.04169864       0.005
   0.03127398  0.06254795  0.04169864       0.005
   0.04169864  0.06254795  0.04169864       0.005
   0.05212329  0.06254795  0.04169864       0.005
   0.06254795  0.06254795  0.04169864       0.002
   0.00000000  0.05212329  0.05212329       0.002
   0.01042466  0.05212329  0.05212329       0.005
   0.02084932  0.05212329  0.05212329       0.005
   0.03127398  0.05212329  0.05212329       0.005
   0.04169864  0.05212329  0.05212329       0.005
   0.05212329  0.05212329  0.05212329       0.005
   0.06254795  0.05212329  0.05212329       0.002
   0.00000000  0.06254795  0.05212329       0.002
   0.01042466  0.06254795  0.05212329       0.005
   0.02084932  0.06254795  0.05212329       0.005
   0.03127398  0.06254795  0.05212329       0.005
   0.04169864  0.06254795  0.05212329       0.005
   0.05212329  0.06254795  0.05212329       0.005
   0.06254795  0.06254795  0.05212329       0.002
   0.00000000  0.06254795  0.06254795       0.001
   0.01042466  0.06254795  0.06254795       0.001
   0.02084932  0.06254795  0.06254795       0.001
   0.03127398  0.06254795  0.06254795       0.001
   0.04169864  0.06254795  0.06254795       0.001
   0.05212329  0.06254795  0.06254795       0.001
   0.06254795  0.06254795  0.06254795       0.001
 
 k-points in reciprocal lattice and weights: Automatic mesh                          
   0.00000000  0.00000000  0.00000000       0.001
   0.08333333  0.00000000  0.00000000       0.001
   0.16666667  0.00000000  0.00000000       0.001
   0.25000000  0.00000000  0.00000000       0.001
   0.33333333  0.00000000  0.00000000       0.001
   0.41666667  0.00000000  0.00000000       0.001
   0.50000000  0.00000000  0.00000000       0.001
   0.00000000  0.08333333  0.00000000       0.002
   0.08333333  0.08333333  0.00000000       0.005
   0.16666667  0.08333333  0.00000000       0.005
   0.25000000  0.08333333  0.00000000       0.005
   0.33333333  0.08333333  0.00000000       0.005
   0.41666667  0.08333333  0.00000000       0.005
   0.50000000  0.08333333  0.00000000       0.002
   0.00000000  0.16666667  0.00000000       0.002
   0.08333333  0.16666667  0.00000000       0.005
   0.16666667  0.16666667  0.00000000       0.005
   0.25000000  0.16666667  0.00000000       0.005
   0.33333333  0.16666667  0.00000000       0.005
   0.41666667  0.16666667  0.00000000       0.005
   0.50000000  0.16666667  0.00000000       0.002
   0.00000000  0.25000000  0.00000000       0.002
   0.08333333  0.25000000  0.00000000       0.005
   0.16666667  0.25000000  0.00000000       0.005
   0.25000000  0.25000000  0.00000000       0.005
   0.33333333  0.25000000  0.00000000       0.005
   0.41666667  0.25000000  0.00000000       0.005
   0.50000000  0.25000000  0.00000000       0.002
   0.00000000  0.33333333  0.00000000       0.002
   0.08333333  0.33333333  0.00000000       0.005
   0.16666667  0.33333333  0.00000000       0.005
   0.25000000  0.33333333  0.00000000       0.005
   0.33333333  0.33333333  0.00000000       0.005
   0.41666667  0.33333333  0.00000000       0.005
   0.50000000  0.33333333  0.00000000       0.002
   0.00000000  0.41666667  0.00000000       0.002
   0.08333333  0.41666667  0.00000000       0.005
   0.16666667  0.41666667  0.00000000       0.005
   0.25000000  0.41666667  0.00000000       0.005
   0.33333333  0.41666667  0.00000000       0.005
   0.41666667  0.41666667  0.00000000       0.005
   0.50000000  0.41666667  0.00000000       0.002
   0.00000000  0.50000000  0.00000000       0.001
   0.08333333  0.50000000  0.00000000       0.002
   0.16666667  0.50000000  0.00000000       0.002
   0.25000000  0.50000000  0.00000000       0.002
   0.33333333  0.50000000  0.00000000       0.002
   0.41666667  0.50000000  0.00000000       0.002
   0.50000000  0.50000000  0.00000000       0.001
   0.00000000  0.08333333  0.08333333       0.002
   0.08333333  0.08333333  0.08333333       0.005
   0.16666667  0.08333333  0.08333333       0.005
   0.25000000  0.08333333  0.08333333       0.005
   0.33333333  0.08333333  0.08333333       0.005
   0.41666667  0.08333333  0.08333333       0.005
   0.50000000  0.08333333  0.08333333       0.002
   0.00000000  0.16666667  0.08333333       0.005
   0.08333333  0.16666667  0.08333333       0.009
   0.16666667  0.16666667  0.08333333       0.009
   0.25000000  0.16666667  0.08333333       0.009
   0.33333333  0.16666667  0.08333333       0.009
   0.41666667  0.16666667  0.08333333       0.009
   0.50000000  0.16666667  0.08333333       0.005
   0.00000000  0.25000000  0.08333333       0.005
   0.08333333  0.25000000  0.08333333       0.009
   0.16666667  0.25000000  0.08333333       0.009
   0.25000000  0.25000000  0.08333333       0.009
   0.33333333  0.25000000  0.08333333       0.009
   0.41666667  0.25000000  0.08333333       0.009
   0.50000000  0.25000000  0.08333333       0.005
   0.00000000  0.33333333  0.08333333       0.005
   0.08333333  0.33333333  0.08333333       0.009
   0.16666667  0.33333333  0.08333333       0.009
   0.25000000  0.33333333  0.08333333       0.009
   0.33333333  0.33333333  0.08333333       0.009
   0.41666667  0.33333333  0.08333333       0.009
   0.50000000  0.33333333  0.08333333       0.005
   0.00000000  0.41666667  0.08333333       0.005
   0.08333333  0.41666667  0.08333333       0.009
   0.16666667  0.41666667  0.08333333       0.009
   0.25000000  0.41666667  0.08333333       0.009
   0.33333333  0.41666667  0.08333333       0.009
   0.41666667  0.41666667  0.08333333       0.009
   0.50000000  0.41666667  0.08333333       0.005
   0.00000000  0.50000000  0.08333333       0.002
   0.08333333  0.50000000  0.08333333       0.005
   0.16666667  0.50000000  0.08333333       0.005
   0.25000000  0.50000000  0.08333333       0.005
   0.33333333  0.50000000  0.08333333       0.005
   0.41666667  0.50000000  0.08333333       0.005
   0.50000000  0.50000000  0.08333333       0.002
   0.00000000  0.16666667  0.16666667       0.002
   0.08333333  0.16666667  0.16666667       0.005
   0.16666667  0.16666667  0.16666667       0.005
   0.25000000  0.16666667  0.16666667       0.005
   0.33333333  0.16666667  0.16666667       0.005
   0.41666667  0.16666667  0.16666667       0.005
   0.50000000  0.16666667  0.16666667       0.002
   0.00000000  0.25000000  0.16666667       0.005
   0.08333333  0.25000000  0.16666667       0.009
   0.16666667  0.25000000  0.16666667       0.009
   0.25000000  0.25000000  0.16666667       0.009
   0.33333333  0.25000000  0.16666667       0.009
   0.41666667  0.25000000  0.16666667       0.009
   0.50000000  0.25000000  0.16666667       0.005
   0.00000000  0.33333333  0.16666667       0.005
   0.08333333  0.33333333  0.16666667       0.009
   0.16666667  0.33333333  0.16666667       0.009
   0.25000000  0.33333333  0.16666667       0.009
   0.33333333  0.33333333  0.16666667       0.009
   0.41666667  0.33333333  0.16666667       0.009
   0.50000000  0.33333333  0.16666667       0.005
   0.00000000  0.41666667  0.16666667       0.005
   0.08333333  0.41666667  0.16666667       0.009
   0.16666667  0.41666667  0.16666667       0.009
   0.25000000  0.41666667  0.16666667       0.009
   0.33333333  0.41666667  0.16666667       0.009
   0.41666667  0.41666667  0.16666667       0.009
   0.50000000  0.41666667  0.16666667       0.005
   0.00000000  0.50000000  0.16666667       0.002
   0.08333333  0.50000000  0.16666667       0.005
   0.16666667  0.50000000  0.16666667       0.005
   0.25000000  0.50000000  0.16666667       0.005
   0.33333333  0.50000000  0.16666667       0.005
   0.41666667  0.50000000  0.16666667       0.005
   0.50000000  0.50000000  0.16666667       0.002
   0.00000000  0.25000000  0.25000000       0.002
   0.08333333  0.25000000  0.25000000       0.005
   0.16666667  0.25000000  0.25000000       0.005
   0.25000000  0.25000000  0.25000000       0.005
   0.33333333  0.25000000  0.25000000       0.005
   0.41666667  0.25000000  0.25000000       0.005
   0.50000000  0.25000000  0.25000000       0.002
   0.00000000  0.33333333  0.25000000       0.005
   0.08333333  0.33333333  0.25000000       0.009
   0.16666667  0.33333333  0.25000000       0.009
   0.25000000  0.33333333  0.25000000       0.009
   0.33333333  0.33333333  0.25000000       0.009
   0.41666667  0.33333333  0.25000000       0.009
   0.50000000  0.33333333  0.25000000       0.005
   0.00000000  0.41666667  0.25000000       0.005
   0.08333333  0.41666667  0.25000000       0.009
   0.16666667  0.41666667  0.25000000       0.009
   0.25000000  0.41666667  0.25000000       0.009
   0.33333333  0.41666667  0.25000000       0.009
   0.41666667  0.41666667  0.25000000       0.009
   0.50000000  0.41666667  0.25000000       0.005
   0.00000000  0.50000000  0.25000000       0.002
   0.08333333  0.50000000  0.25000000       0.005
   0.16666667  0.50000000  0.25000000       0.005
   0.25000000  0.50000000  0.25000000       0.005
   0.33333333  0.50000000  0.25000000       0.005
   0.41666667  0.50000000  0.25000000       0.005
   0.50000000  0.50000000  0.25000000       0.002
   0.00000000  0.33333333  0.33333333       0.002
   0.08333333  0.33333333  0.33333333       0.005
   0.16666667  0.33333333  0.33333333       0.005
   0.25000000  0.33333333  0.33333333       0.005
   0.33333333  0.33333333  0.33333333       0.005
   0.41666667  0.33333333  0.33333333       0.005
   0.50000000  0.33333333  0.33333333       0.002
   0.00000000  0.41666667  0.33333333       0.005
   0.08333333  0.41666667  0.33333333       0.009
   0.16666667  0.41666667  0.33333333       0.009
   0.25000000  0.41666667  0.33333333       0.009
   0.33333333  0.41666667  0.33333333       0.009
   0.41666667  0.41666667  0.33333333       0.009
   0.50000000  0.41666667  0.33333333       0.005
   0.00000000  0.50000000  0.33333333       0.002
   0.08333333  0.50000000  0.33333333       0.005
   0.16666667  0.50000000  0.33333333       0.005
   0.25000000  0.50000000  0.33333333       0.005
   0.33333333  0.50000000  0.33333333       0.005
   0.41666667  0.50000000  0.33333333       0.005
   0.50000000  0.50000000  0.33333333       0.002
   0.00000000  0.41666667  0.41666667       0.002
   0.08333333  0.41666667  0.41666667       0.005
   0.16666667  0.41666667  0.41666667       0.005
   0.25000000  0.41666667  0.41666667       0.005
   0.33333333  0.41666667  0.41666667       0.005
   0.41666667  0.41666667  0.41666667       0.005
   0.50000000  0.41666667  0.41666667       0.002
   0.00000000  0.50000000  0.41666667       0.002
   0.08333333  0.50000000  0.41666667       0.005
   0.16666667  0.50000000  0.41666667       0.005
   0.25000000  0.50000000  0.41666667       0.005
   0.33333333  0.50000000  0.41666667       0.005
   0.41666667  0.50000000  0.41666667       0.005
   0.50000000  0.50000000  0.41666667       0.002
   0.00000000  0.50000000  0.50000000       0.001
   0.08333333  0.50000000  0.50000000       0.001
   0.16666667  0.50000000  0.50000000       0.001
   0.25000000  0.50000000  0.50000000       0.001
   0.33333333  0.50000000  0.50000000       0.001
   0.41666667  0.50000000  0.50000000       0.001
   0.50000000  0.50000000  0.50000000       0.001
 
 position of ions in fractional coordinates (direct lattice) 
   0.25125096  0.25000000  0.00000000
   0.75000000  0.25000000  0.00000000
   0.25000000  0.75000000  0.00000000
   0.75000000  0.75000000  0.00000000
   0.25000000  0.25000000  0.50000000
   0.75000000  0.25000000  0.50000000
   0.25000000  0.75000000  0.50000000
   0.75000000  0.75000000  0.50000000
   0.25000000  0.00000000  0.25000000
   0.75000000  0.00000000  0.25000000
   0.25000000  0.50000000  0.25000000
   0.75000000  0.50000000  0.25000000
   0.25000000  0.00000000  0.75000000
   0.75000000  0.00000000  0.75000000
   0.25000000  0.50000000  0.75000000
   0.75000000  0.50000000  0.75000000
   0.00000000  0.25000000  0.25000000
   0.50000000  0.25000000  0.25000000
   0.00000000  0.75000000  0.25000000
   0.50000000  0.75000000  0.25000000
   0.00000000  0.25000000  0.75000000
   0.50000000  0.25000000  0.75000000
   0.00000000  0.75000000  0.75000000
   0.50000000  0.75000000  0.75000000
   0.00000000  0.00000000  0.00000000
   0.50000000  0.00000000  0.00000000
   0.00000000  0.50000000  0.00000000
   0.50000000  0.50000000  0.00000000
   0.00000000  0.00000000  0.50000000
   0.50000000  0.00000000  0.50000000
   0.00000000  0.50000000  0.50000000
   0.50000000  0.50000000  0.50000000
 
 position of ions in cartesian coordinates  (Angst):
   2.00846665  1.99846665  0.00000000
   5.99539996  1.99846665  0.00000000
   1.99846665  5.99539996  0.00000000
   5.99539996  5.99539996  0.00000000
   1.99846665  1.99846665  3.99693331
   5.99539996  1.99846665  3.99693331
   1.99846665  5.99539996  3.99693331
   5.99539996  5.99539996  3.99693331
   1.99846665  0.00000000  1.99846665
   5.99539996  0.00000000  1.99846665
   1.99846665  3.99693331  1.99846665
   5.99539996  3.99693331  1.99846665
   1.99846665  0.00000000  5.99539996
   5.99539996  0.00000000  5.99539996
   1.99846665  3.99693331  5.99539996
   5.99539996  3.99693331  5.99539996
   0.00000000  1.99846665  1.99846665
   3.99693331  1.99846665  1.99846665
   0.00000000  5.99539996  1.99846665
   3.99693331  5.99539996  1.99846665
   0.00000000  1.99846665  5.99539996
   3.99693331  1.99846665  5.99539996
   0.00000000  5.99539996  5.99539996
   3.99693331  5.99539996  5.99539996
   0.00000000  0.00000000  0.00000000
   3.99693331  0.00000000  0.00000000
   0.00000000  3.99693331  0.00000000
   3.99693331  3.99693331  0.00000000
   0.00000000  0.00000000  3.99693331
   3.99693331  0.00000000  3.99693331
   0.00000000  3.99693331  3.99693331
   3.99693331  3.99693331  3.99693331
 


--------------------------------------------------------------------------------------------------------


 k-point  1 :  0.00000.00000.0000  plane waves:  23847
 k-point  2 :  0.08330.00000.0000  plane waves:  23783
 k-point  3 :  0.16670.00000.0000  plane waves:  23792
 k-point  4 :  0.25000.00000.0000  plane waves:  23808
 k-point  5 :  0.33330.00000.0000  plane waves:  23804
 k-point  6 :  0.41670.00000.0000  plane waves:  23828
 k-point  7 :  0.50000.00000.0000  plane waves:  23844
 k-point  8 :  0.00000.08330.0000  plane waves:  23783
 k-point  9 :  0.08330.08330.0000  plane waves:  23793
 k-point 10 :  0.16670.08330.0000  plane waves:  23796
 k-point 11 :  0.25000.08330.0000  plane waves:  23826
 k-point 12 :  0.33330.08330.0000  plane waves:  23841
 k-point 13 :  0.41670.08330.0000  plane waves:  23828
 k-point 14 :  0.50000.08330.0000  plane waves:  23834
 k-point 15 :  0.00000.16670.0000  plane waves:  23792
 k-point 16 :  0.08330.16670.0000  plane waves:  23796
 k-point 17 :  0.16670.16670.0000  plane waves:  23811
 k-point 18 :  0.25000.16670.0000  plane waves:  23817
 k-point 19 :  0.33330.16670.0000  plane waves:  23835
 k-point 20 :  0.41670.16670.0000  plane waves:  23821
 k-point 21 :  0.50000.16670.0000  plane waves:  23828
 k-point 22 :  0.00000.25000.0000  plane waves:  23808
 k-point 23 :  0.08330.25000.0000  plane waves:  23826
 k-point 24 :  0.16670.25000.0000  plane waves:  23817
 k-point 25 :  0.25000.25000.0000  plane waves:  23833
 k-point 26 :  0.33330.25000.0000  plane waves:  23835
 k-point 27 :  0.41670.25000.0000  plane waves:  23828
 k-point 28 :  0.50000.25000.0000  plane waves:  23806
 k-point 29 :  0.00000.33330.0000  plane waves:  23804
 k-point 30 :  0.08330.33330.0000  plane waves:  23841
 k-point 31 :  0.16670.33330.0000  plane waves:  23835
 k-point 32 :  0.25000.33330.0000  plane waves:  23835
 k-point 33 :  0.33330.33330.0000  plane waves:  23833
 k-point 34 :  0.41670.33330.0000  plane waves:  23833
 k-point 35 :  0.50000.33330.0000  plane waves:  23824
 k-point 36 :  0.00000.41670.0000  plane waves:  23828
 k-point 37 :  0.08330.41670.0000  plane waves:  23828
 k-point 38 :  0.16670.41670.0000  plane waves:  23821
 k-point 39 :  0.25000.41670.0000  plane waves:  23828
 k-point 40 :  0.33330.41670.0000  plane waves:  23833
 k-point 41 :  0.41670.41670.0000  plane waves:  23814
 k-point 42 :  0.50000.41670.0000  plane waves:  23814
 k-point 43 :  0.00000.50000.0000  plane waves:  23844
 k-point 44 :  0.08330.50000.0000  plane waves:  23834
 k-point 45 :  0.16670.50000.0000  plane waves:  23828
 k-point 46 :  0.25000.50000.0000  plane waves:  23806
 k-point 47 :  0.33330.50000.0000  plane waves:  23824
 k-point 48 :  0.41670.50000.0000  plane waves:  23814
 k-point 49 :  0.50000.50000.0000  plane waves:  23900
 k-point 50 :  0.00000.08330.0833  plane waves:  23793
 k-point 51 :  0.08330.08330.0833  plane waves:  23799
 k-point 52 :  0.16670.08330.0833  plane waves:  23784
 k-point 53 :  0.25000.08330.0833  plane waves:  23808
 k-point 54 :  0.33330.08330.0833  plane waves:  23839
 k-point 55 :  0.41670.08330.0833  plane waves:  23816
 k-point 56 :  0.50000.08330.0833  plane waves:  23828
 k-point 57 :  0.00000.16670.0833  plane waves:  23796
 k-point 58 :  0.08330.16670.0833  plane waves:  23784
 k-point 59 :  0.16670.16670.0833  plane waves:  23800
 k-point 60 :  0.25000.16670.0833  plane waves:  23811
 k-point 61 :  0.33330.16670.0833  plane waves:  23817
 k-point 62 :  0.41670.16670.0833  plane waves:  23819
 k-point 63 :  0.50000.16670.0833  plane waves:  23830
 k-point 64 :  0.00000.25000.0833  plane waves:  23826
 k-point 65 :  0.08330.25000.0833  plane waves:  23808
 k-point 66 :  0.16670.25000.0833  plane waves:  23811
 k-point 67 :  0.25000.25000.0833  plane waves:  23819
 k-point 68 :  0.33330.25000.0833  plane waves:  23823
 k-point 69 :  0.41670.25000.0833  plane waves:  23823
 k-point 70 :  0.50000.25000.0833  plane waves:  23832
 k-point 71 :  0.00000.33330.0833  plane waves:  23841
 k-point 72 :  0.08330.33330.0833  plane waves:  23839
 k-point 73 :  0.16670.33330.0833  plane waves:  23817
 k-point 74 :  0.25000.33330.0833  plane waves:  23823
 k-point 75 :  0.33330.33330.0833  plane waves:  23827
 k-point 76 :  0.41670.33330.0833  plane waves:  23833
 k-point 77 :  0.50000.33330.0833  plane waves:  23840
 k-point 78 :  0.00000.41670.0833  plane waves:  23828
 k-point 79 :  0.08330.41670.0833  plane waves:  23816
 k-point 80 :  0.16670.41670.0833  plane waves:  23819
 k-point 81 :  0.25000.41670.0833  plane waves:  23823
 k-point 82 :  0.33330.41670.0833  plane waves:  23833
 k-point 83 :  0.41670.41670.0833  plane waves:  23818
 k-point 84 :  0.50000.41670.0833  plane waves:  23824
 k-point 85 :  0.00000.50000.0833  plane waves:  23834
 k-point 86 :  0.08330.50000.0833  plane waves:  23828
 k-point 87 :  0.16670.50000.0833  plane waves:  23830
 k-point 88 :  0.25000.50000.0833  plane waves:  23832
 k-point 89 :  0.33330.50000.0833  plane waves:  23840
 k-point 90 :  0.41670.50000.0833  plane waves:  23824
 k-point 91 :  0.50000.50000.0833  plane waves:  23832
 k-point 92 :  0.00000.16670.1667  plane waves:  23811
 k-point 93 :  0.08330.16670.1667  plane waves:  23800
 k-point 94 :  0.16670.16670.1667  plane waves:  23787
 k-point 95 :  0.25000.16670.1667  plane waves:  23832
 k-point 96 :  0.33330.16670.1667  plane waves:  23835
 k-point 97 :  0.41670.16670.1667  plane waves:  23817
 k-point 98 :  0.50000.16670.1667  plane waves:  23826
 k-point 99 :  0.00000.25000.1667  plane waves:  23817
 k-point ** :  0.08330.25000.1667  plane waves:  23811
 k-point ** :  0.16670.25000.1667  plane waves:  23832
 k-point ** :  0.25000.25000.1667  plane waves:  23833
 k-point ** :  0.33330.25000.1667  plane waves:  23840
 k-point ** :  0.41670.25000.1667  plane waves:  23823
 k-point ** :  0.50000.25000.1667  plane waves:  23814
 k-point ** :  0.00000.33330.1667  plane waves:  23835
 k-point ** :  0.08330.33330.1667  plane waves:  23817
 k-point ** :  0.16670.33330.1667  plane waves:  23835
 k-point ** :  0.25000.33330.1667  plane waves:  23840
 k-point ** :  0.33330.33330.1667  plane waves:  23850
 k-point ** :  0.41670.33330.1667  plane waves:  23817
 k-point ** :  0.50000.33330.1667  plane waves:  23822
 k-point ** :  0.00000.41670.1667  plane waves:  23821
 k-point ** :  0.08330.41670.1667  plane waves:  23819
 k-point ** :  0.16670.41670.1667  plane waves:  23817
 k-point ** :  0.25000.41670.1667  plane waves:  23823
 k-point ** :  0.33330.41670.1667  plane waves:  23817
 k-point ** :  0.41670.41670.1667  plane waves:  23830
 k-point ** :  0.50000.41670.1667  plane waves:  23846
 k-point ** :  0.00000.50000.1667  plane waves:  23828
 k-point ** :  0.08330.50000.1667  plane waves:  23830
 k-point ** :  0.16670.50000.1667  plane waves:  23826
 k-point ** :  0.25000.50000.1667  plane waves:  23814
 k-point ** :  0.33330.50000.1667  plane waves:  23822
 k-point ** :  0.41670.50000.1667  plane waves:  23846
 k-point ** :  0.50000.50000.1667  plane waves:  23836
 k-point ** :  0.00000.25000.2500  plane waves:  23833
 k-point ** :  0.08330.25000.2500  plane waves:  23819
 k-point ** :  0.16670.25000.2500  plane waves:  23833
 k-point ** :  0.25000.25000.2500  plane waves:  23790
 k-point ** :  0.33330.25000.2500  plane waves:  23836
 k-point ** :  0.41670.25000.2500  plane waves:  23804
 k-point ** :  0.50000.25000.2500  plane waves:  23818
 k-point ** :  0.00000.33330.2500  plane waves:  23835
 k-point ** :  0.08330.33330.2500  plane waves:  23823
 k-point ** :  0.16670.33330.2500  plane waves:  23840
 k-point ** :  0.25000.33330.2500  plane waves:  23836
 k-point ** :  0.33330.33330.2500  plane waves:  23834
 k-point ** :  0.41670.33330.2500  plane waves:  23817
 k-point ** :  0.50000.33330.2500  plane waves:  23830
 k-point ** :  0.00000.41670.2500  plane waves:  23828
 k-point ** :  0.08330.41670.2500  plane waves:  23823
 k-point ** :  0.16670.41670.2500  plane waves:  23823
 k-point ** :  0.25000.41670.2500  plane waves:  23804
 k-point ** :  0.33330.41670.2500  plane waves:  23817
 k-point ** :  0.41670.41670.2500  plane waves:  23834
 k-point ** :  0.50000.41670.2500  plane waves:  23838
 k-point ** :  0.00000.50000.2500  plane waves:  23806
 k-point ** :  0.08330.50000.2500  plane waves:  23832
 k-point ** :  0.16670.50000.2500  plane waves:  23814
 k-point ** :  0.25000.50000.2500  plane waves:  23818
 k-point ** :  0.33330.50000.2500  plane waves:  23830
 k-point ** :  0.41670.50000.2500  plane waves:  23838
 k-point ** :  0.50000.50000.2500  plane waves:  23844
 k-point ** :  0.00000.33330.3333  plane waves:  23833
 k-point ** :  0.08330.33330.3333  plane waves:  23827
 k-point ** :  0.16670.33330.3333  plane waves:  23850
 k-point ** :  0.25000.33330.3333  plane waves:  23834
 k-point ** :  0.33330.33330.3333  plane waves:  23834
 k-point ** :  0.41670.33330.3333  plane waves:  23826
 k-point ** :  0.50000.33330.3333  plane waves:  23832
 k-point ** :  0.00000.41670.3333  plane waves:  23833
 k-point ** :  0.08330.41670.3333  plane waves:  23833
 k-point ** :  0.16670.41670.3333  plane waves:  23817
 k-point ** :  0.25000.41670.3333  plane waves:  23817
 k-point ** :  0.33330.41670.3333  plane waves:  23826
 k-point ** :  0.41670.41670.3333  plane waves:  23844
 k-point ** :  0.50000.41670.3333  plane waves:  23860
 k-point ** :  0.00000.50000.3333  plane waves:  23824
 k-point ** :  0.08330.50000.3333  plane waves:  23840
 k-point ** :  0.16670.50000.3333  plane waves:  23822
 k-point ** :  0.25000.50000.3333  plane waves:  23830
 k-point ** :  0.33330.50000.3333  plane waves:  23832
 k-point ** :  0.41670.50000.3333  plane waves:  23860
 k-point ** :  0.50000.50000.3333  plane waves:  23880
 k-point ** :  0.00000.41670.4167  plane waves:  23814
 k-point ** :  0.08330.41670.4167  plane waves:  23818
 k-point ** :  0.16670.41670.4167  plane waves:  23830
 k-point ** :  0.25000.41670.4167  plane waves:  23834
 k-point ** :  0.33330.41670.4167  plane waves:  23844
 k-point ** :  0.41670.41670.4167  plane waves:  23867
 k-point ** :  0.50000.41670.4167  plane waves:  23884
 k-point ** :  0.00000.50000.4167  plane waves:  23814
 k-point ** :  0.08330.50000.4167  plane waves:  23824
 k-point ** :  0.16670.50000.4167  plane waves:  23846
 k-point ** :  0.25000.50000.4167  plane waves:  23838
 k-point ** :  0.33330.50000.4167  plane waves:  23860
 k-point ** :  0.41670.50000.4167  plane waves:  23884
 k-point ** :  0.50000.50000.4167  plane waves:  23864
 k-point ** :  0.00000.50000.5000  plane waves:  23900
 k-point ** :  0.08330.50000.5000  plane waves:  23832
 k-point ** :  0.16670.50000.5000  plane waves:  23836
 k-point ** :  0.25000.50000.5000  plane waves:  23844
 k-point ** :  0.33330.50000.5000  plane waves:  23880
 k-point ** :  0.41670.50000.5000  plane waves:  23864
 k-point ** :  0.50000.50000.5000  plane waves:  23744

 maximum and minimum number of plane-waves per node :  23900 23744

 maximum number of plane-waves:  23900
 maximal index in each direction: 
   IXMAX= 17   IYMAX= 17   IZMAX= 17
   IXMIN=-18   IYMIN=-18   IZMIN=-18

 NGX is ok and might be reduce to  72
 NGY is ok and might be reduce to  72
 NGZ is ok and might be reduce to  72

 parallel 3dFFT wavefunction:
    minimum data exchange during FFTs selected (reduces bandwidth)
 parallel 3dFFT charge:
    minimum data exchange during FFTs selected (reduces bandwidth)

 For storing wavefunctions 5080.95 MBYTES are necessary
 For predicting wavefunctions   60.17 MBYTES are necessary
Broyden mixing: mesh for mixing (old mesh)
   NGX = 35   NGY = 35   NGZ = 35
  (NGX  =144   NGY  =144   NGZ  =144)
 gives a total of  42875 points
 initial charge density was supplied:
 charge density of overlapping atoms calculated
 number of electron   96.0000000 magnetization 
 keeping initial charge density in first step


--------------------------------------------------------------------------------------------------------


 Maximum index for augmentation-charges        55291 (set IRDMAX)


--------------------------------------------------------------------------------------------------------


 First call to EWALD:  gamma=   0.222
 Maximum number of real-space cells 3x 3x 3
 Maximum number of reciprocal cells 3x 3x 3

    FEWALD:  VPU time    0.01: CPU time    0.01


----------------------------------------- Iteration    1(   1)  ---------------------------------------


    POTLOK:  VPU time    2.36: CPU time    2.37
    SETDIJ:  VPU time    2.29: CPU time    2.29
    EDDAV :  VPU time 1841.61: CPU time 1867.69
    DOS   :  VPU time    0.00: CPU time   -0.00
    ------------------------------------------
      LOOP:  VPU time 1846.31: CPU time 1872.40

 eigenvalue-minimisations  : 26656
 total energy-change (2. order) : 0.1860357E+03  (-0.4267651E+04)
 number of electron   96.0000000 magnetization 
 augmentation part    96.0000000 magnetization 

 Free energy of the ion-electron system (eV)
  ---------------------------------------------------
  alpha Z        PSCENC =        -6.73309839
  Ewald energy   TEWEN  =     -2378.57959861
  -1/2 Hartree   DENC   =        -2.88597594
  -V(xc)+E(xc)   XCENC  =      -837.75439790
  PAW double counting   =      1137.73615723     -115.16745734
  entropy T*S    EENTRO =        -0.00036481
  eigenvalues    EBANDS =       676.18538410
  atomic energy  EATOM  =      1713.23509266
  ---------------------------------------------------
  free energy    TOTEN  =       186.03574099 eV

  energy without entropy =      186.03610580  energy(sigma->0) =      186.03592339


--------------------------------------------------------------------------------------------------------




----------------------------------------- Iteration    1(   2)  ---------------------------------------


    EDDAV :  VPU time 2058.16: CPU time 2059.92
    DOS   :  VPU time    0.00: CPU time   -0.00
    ------------------------------------------
      LOOP:  VPU time 2058.23: CPU time 2060.00

 eigenvalue-minimisations  : 31112
 total energy-change (2. order) :-0.2882009E+03  (-0.2696839E+03)
 number of electron   96.0000000 magnetization 
 augmentation part    96.0000000 magnetization 

 Free energy of the ion-electron system (eV)
  ---------------------------------------------------
  alpha Z        PSCENC =        -6.73309839
  Ewald energy   TEWEN  =     -2378.57959861
  -1/2 Hartree   DENC   =        -2.88597594
  -V(xc)+E(xc)   XCENC  =      -837.75439790
  PAW double counting   =      1137.73615723     -115.16745734
  entropy T*S    EENTRO =        -0.00050265
  eigenvalues    EBANDS =       387.98460301
  atomic energy  EATOM  =      1713.23509266
  ---------------------------------------------------
  free energy    TOTEN  =      -102.16517794 eV

  energy without entropy =     -102.16467528  energy(sigma->0) =     -102.16492661


--------------------------------------------------------------------------------------------------------




----------------------------------------- Iteration    1(   3)  ---------------------------------------


    EDDAV :  VPU time 2203.55: CPU time 2204.22
    DOS   :  VPU time   -0.00: CPU time   -0.00
    ------------------------------------------
      LOOP:  VPU time 2203.61: CPU time 2205.73

 eigenvalue-minimisations  : 33220
 total energy-change (2. order) :-0.1785969E+02  (-0.1683582E+02)
 number of electron   96.0000000 magnetization 
 augmentation part    96.0000000 magnetization 

 Free energy of the ion-electron system (eV)
  ---------------------------------------------------
  alpha Z        PSCENC =        -6.73309839
  Ewald energy   TEWEN  =     -2378.57959861
  -1/2 Hartree   DENC   =        -2.88597594
  -V(xc)+E(xc)   XCENC  =      -837.75439790
  PAW double counting   =      1137.73615723     -115.16745734
  entropy T*S    EENTRO =        -0.00065350
  eigenvalues    EBANDS =       370.12505918
  atomic energy  EATOM  =      1713.23509266
  ---------------------------------------------------
  free energy    TOTEN  =      -120.02487262 eV

  energy without entropy =     -120.02421911  energy(sigma->0) =     -120.02454586


--------------------------------------------------------------------------------------------------------




----------------------------------------- Iteration    1(   4)  ---------------------------------------


    EDDAV :  VPU time 2112.63: CPU time 2113.25
    DOS   :  VPU time    0.00: CPU time   -0.00
    ------------------------------------------
      LOOP:  VPU time 2112.68: CPU time 2113.31

 eigenvalue-minimisations  : 31408
 total energy-change (2. order) :-0.4308465E+00  (-0.4253189E+00)
 number of electron   96.0000000 magnetization 
 augmentation part    96.0000000 magnetization 

 Free energy of the ion-electron system (eV)
  ---------------------------------------------------
  alpha Z        PSCENC =        -6.73309839
  Ewald energy   TEWEN  =     -2378.57959861
  -1/2 Hartree   DENC   =        -2.88597594
  -V(xc)+E(xc)   XCENC  =      -837.75439790
  PAW double counting   =      1137.73615723     -115.16745734
  entropy T*S    EENTRO =        -0.00072747
  eigenvalues    EBANDS =       369.69428665
  atomic energy  EATOM  =      1713.23509266
  ---------------------------------------------------
  free energy    TOTEN  =      -120.45571912 eV

  energy without entropy =     -120.45499165  energy(sigma->0) =     -120.45535538


--------------------------------------------------------------------------------------------------------




----------------------------------------- Iteration    1(   5)  ---------------------------------------


    EDDAV :  VPU time 2135.17: CPU time 2135.77
    DOS   :  VPU time    0.00: CPU time   -0.00
    CHARGE:  VPU time  134.93: CPU time  134.97
    MIXING:  VPU time    0.06: CPU time    0.06
    ------------------------------------------
      LOOP:  VPU time 2270.22: CPU time 2270.86

 eigenvalue-minimisations  : 31816
 total energy-change (2. order) :-0.5375050E-02  (-0.5366616E-02)
 number of electron   96.0000000 magnetization 
 augmentation part    -1.1664754 magnetization 

 Broyden mixing:
  rms(total) = 0.53789E+00    rms(broyden)= 0.53789E+00
  rms(prec ) = 0.77627E+00
  weight for this iteration     100.00

 Free energy of the ion-electron system (eV)
  ---------------------------------------------------
  alpha Z        PSCENC =        -6.73309839
  Ewald energy   TEWEN  =     -2378.57959861
  -1/2 Hartree   DENC   =        -2.88597594
  -V(xc)+E(xc)   XCENC  =      -837.75439790
  PAW double counting   =      1137.73615723     -115.16745734
  entropy T*S    EENTRO =        -0.00072611
  eigenvalues    EBANDS =       369.68891024
  atomic energy  EATOM  =      1713.23509266
  ---------------------------------------------------
  free energy    TOTEN  =      -120.46109417 eV

  energy without entropy =     -120.46036806  energy(sigma->0) =     -120.46073111


--------------------------------------------------------------------------------------------------------




----------------------------------------- Iteration    1(   6)  ---------------------------------------


    POTLOK:  VPU time    2.41: CPU time    2.41
    SETDIJ:  VPU time    2.27: CPU time    2.27
    EDDAV :  VPU time 2073.21: CPU time 2074.33
    DOS   :  VPU time   -0.00: CPU time   -0.00
    CHARGE:  VPU time  135.11: CPU time  135.30
    MIXING:  VPU time    0.07: CPU time    0.07
    ------------------------------------------
      LOOP:  VPU time 2213.13: CPU time 2214.44

 eigenvalue-minimisations  : 30756
 total energy-change (2. order) : 0.4287810E+00  (-0.4675729E-02)
 number of electron   96.0000000 magnetization 
 augmentation part    -1.1827536 magnetization 

 Broyden mixing:
  rms(total) = 0.33408E+00    rms(broyden)= 0.33408E+00
  rms(prec ) = 0.48402E+00
  weight for this iteration     100.00

 eigenvalues of (default mixing * dielectric matrix)
  average eigenvalue GAMMA=   2.6303
  2.6303

 Free energy of the ion-electron system (eV)
  ---------------------------------------------------
  alpha Z        PSCENC =        -6.73309839
  Ewald energy   TEWEN  =     -2378.57959861
  -1/2 Hartree   DENC   =        -2.56391627
  -V(xc)+E(xc)   XCENC  =      -836.53588543
  PAW double counting   =      1140.27183815     -117.87725346
  entropy T*S    EENTRO =        -0.00077183
  eigenvalues    EBANDS =       368.75128004
  atomic energy  EATOM  =      1713.23509266
  ---------------------------------------------------
  free energy    TOTEN  =      -120.03231314 eV

  energy without entropy =     -120.03154131  energy(sigma->0) =     -120.03192722


--------------------------------------------------------------------------------------------------------




----------------------------------------- Iteration    1(   7)  ---------------------------------------


    POTLOK:  VPU time    2.41: CPU time    2.42
    SETDIJ:  VPU time    2.28: CPU time    2.28
    EDDAV :  VPU time 1963.41: CPU time 1964.61
    DOS   :  VPU time    0.00: CPU time   -0.00
    CHARGE:  VPU time  136.51: CPU time  136.62
    MIXING:  VPU time    0.08: CPU time    0.08
    ------------------------------------------
      LOOP:  VPU time 2104.75: CPU time 2106.07

 eigenvalue-minimisations  : 29440
 total energy-change (2. order) : 0.3125470E+00  (-0.1392524E-01)
 number of electron   96.0000000 magnetization 
 augmentation part    -1.2148934 magnetization 

 Broyden mixing:
  rms(total) = 0.13611E-01    rms(broyden)= 0.13611E-01
  rms(prec ) = 0.16243E-01
  weight for this iteration     100.00

 eigenvalues of (default mixing * dielectric matrix)
  average eigenvalue GAMMA=   2.5090
  2.5090  2.5090

 Free energy of the ion-electron system (eV)
  ---------------------------------------------------
  alpha Z        PSCENC =        -6.73309839
  Ewald energy   TEWEN  =     -2378.57959861
  -1/2 Hartree   DENC   =        -3.44803704
  -V(xc)+E(xc)   XCENC  =      -834.08838381
  PAW double counting   =      1143.90592550     -121.85332561
  entropy T*S    EENTRO =        -0.00075488
  eigenvalues    EBANDS =       367.84241407
  atomic energy  EATOM  =      1713.23509266
  ---------------------------------------------------
  free energy    TOTEN  =      -119.71976611 eV

  energy without entropy =     -119.71901123  energy(sigma->0) =     -119.71938867


[...]
     64      10.4032      0.00000
     65      11.6763      0.00000
     66      11.6769      0.00000
     67      11.6771      0.00000
     68      11.6776      0.00000

 k-point 194 :       0.3333    0.5000    0.5000
  band No.  band energies     occupation 
      1      -1.6072      2.00000
      2      -1.6072      2.00000
      3      -1.6072      2.00000
      4      -1.6072      2.00000
      5      -0.8450      2.00000
      6      -0.8450      2.00000
      7      -0.8450      2.00000
      8      -0.8450      2.00000
      9       2.1588      2.00000
     10       2.1589      2.00000
     11       2.1589      2.00000
     12       2.1589      2.00000
     13       2.8947      2.00000
     14       2.8947      2.00000
     15       2.8947      2.00000
     16       2.8947      2.00000
     17       2.8947      2.00000
     18       2.8947      2.00000
     19       2.8947      2.00000
     20       2.8947      2.00000
     21       3.6291      2.00000
     22       3.6291      2.00000
     23       3.6292      2.00000
     24       3.6292      2.00000
     25       3.6292      2.00000
     26       3.6292      2.00000
     27       3.6293      2.00000
     28       3.6293      2.00000
     29       4.3451      2.00000
     30       4.3451      2.00000
     31       4.3451      2.00000
     32       4.3452      2.00000
     33       6.5671      2.00000
     34       6.5671      2.00000
     35       6.5674      2.00000
     36       6.5674      2.00000
     37       6.5674      2.00000
     38       6.5675      2.00000
     39       6.5678      2.00000
     40       6.5678      2.00000
     41       7.2718      2.00000
     42       7.2718      2.00000
     43       7.2718      2.00000
     44       7.2718      2.00000
     45       8.0000      2.00000
     46       8.0000      2.00000
     47       8.0000      2.00000
     48       8.0000      2.00000
     49       8.6841      0.00000
     50       8.6841      0.00000
     51       8.6845      0.00000
     52       8.6845      0.00000
     53       8.6845      0.00000
     54       8.6845      0.00000
     55       8.6849      0.00000
     56       8.6849      0.00000
     57      10.4070      0.00000
     58      10.4070      0.00000
     59      10.4070      0.00000
     60      10.4070      0.00000
     61      10.8607      0.00000
     62      10.8607      0.00000
     63      10.8607      0.00000
     64      10.8607      0.00000
     65      11.7914      0.00000
     66      11.7917      0.00000
     67      11.7923      0.00000
     68      11.7924      0.00000

 k-point 195 :       0.4167    0.5000    0.5000
  band No.  band energies     occupation 
      1      -1.4641      2.00000
      2      -1.4640      2.00000
      3      -1.4640      2.00000
      4      -1.4640      2.00000
      5      -1.0828      2.00000
      6      -1.0828      2.00000
      7      -1.0828      2.00000
      8      -1.0827      2.00000
      9       2.6666      2.00000
     10       2.6667      2.00000
     11       2.6667      2.00000
     12       2.6667      2.00000
     13       3.0329      2.00000
     14       3.0329      2.00000
     15       3.0329      2.00000
     16       3.0329      2.00000
     17       3.0329      2.00000
     18       3.0329      2.00000
     19       3.0330      2.00000
     20       3.0330      2.00000
     21       3.4005      2.00000
     22       3.4005      2.00000
     23       3.4005      2.00000
     24       3.4005      2.00000
     25       3.4005      2.00000
     26       3.4005      2.00000
     27       3.4006      2.00000
     28       3.4006      2.00000
     29       3.7621      2.00000
     30       3.7621      2.00000
     31       3.7621      2.00000
     32       3.7622      2.00000
     33       7.0585      2.00000
     34       7.0585      2.00000
     35       7.0589      2.00000
     36       7.0589      2.00000
     37       7.0589      2.00000
     38       7.0589      2.00000
     39       7.0593      2.00000
     40       7.0593      2.00000
     41       7.4100      2.00000
     42       7.4100      2.00000
     43       7.4100      2.00000
     44       7.4101      2.00000
     45       7.7738      2.00000
     46       7.7738      2.00000
     47       7.7738      2.00000
     48       7.7738      2.00000
     49       8.1199      2.00000
     50       8.1199      2.00000
     51       8.1202      2.00000
     52       8.1202      2.00000
     53       8.1202      2.00000
     54       8.1203      2.00000
     55       8.1206      2.00000
     56       8.1206      2.00000
     57      11.2336      0.00000
     58      11.2337      0.00000
     59      11.2337      0.00000
     60      11.2337      0.00000
     61      11.3454      0.00000
     62      11.3454      0.00000
     63      11.3454      0.00000
     64      11.3454      0.00000
     65      11.9291      0.00000
     66      11.9294      0.00000
     67      11.9296      0.00000
     68      11.9300      0.00000

 k-point 196 :       0.5000    0.5000    0.5000
  band No.  band energies     occupation 
      1      -1.2940      2.00000
      2      -1.2896      2.00000
      3      -1.2896      2.00000
      4      -1.2891      2.00000
      5      -1.2891      2.00000
      6      -1.2887      2.00000
      7      -1.2887      2.00000
      8      -1.2843      2.00000
      9       3.1913      2.00000
     10       3.1974      2.00000
     11       3.1974      2.00000
     12       3.2008      2.00000
     13       3.2011      2.00000
     14       3.2011      2.00000
     15       3.2015      2.00000
     16       3.2015      2.00000
     17       3.2016      2.00000
     18       3.2016      2.00000
     19       3.2016      2.00000
     20       3.2016      2.00000
     21       3.2016      2.00000
     22       3.2016      2.00000
     23       3.2017      2.00000
     24       3.2017      2.00000
     25       3.2017      2.00000
     26       3.2017      2.00000
     27       3.2021      2.00000
     28       3.2022      2.00000
     29       3.2025      2.00000
     30       3.2058      2.00000
     31       3.2058      2.00000
     32       3.2120      2.00000
     33       7.5710      2.00000
     34       7.5710      2.00000
     35       7.5732      2.00000
     36       7.5749      2.00000
     37       7.5765      2.00000
     38       7.5768      2.00000
     39       7.5770      2.00000
     40       7.5770      2.00000
     41       7.5772      2.00000
     42       7.5772      2.00000
     43       7.5772      2.00000
     44       7.5772      2.00000
     45       7.5772      2.00000
     46       7.5773      2.00000
     47       7.5773      2.00000
     48       7.5773      2.00000
     49       7.5775      2.00000
     50       7.5775      2.00000
     51       7.5776      2.00000
     52       7.5780      2.00000
     53       7.5796      2.00000
     54       7.5813      2.00000
     55       7.5834      2.00000
     56       7.5834      2.00000
     57      11.8546      0.00000
     58      11.8549      0.00000
     59      11.8549      0.00000
     60      11.8553      0.00000
     61      11.8570      0.00000
     62      11.8574      0.00000
     63      11.8574      0.00000
     64      11.8578      0.00000
     65      12.0912      0.00000
     66      12.0916      0.00000
     67      12.0927      0.00000
     68      12.0931      0.00000


--------------------------------------------------------------------------------------------------------


 soft charge-density along one line, spin component           1
         0         1         2         3         4         5         6         7         8         9
 total charge-density along one line
 
 pseudopotential strength for first ion, spin component:           1
  8.433  -0.007  -0.000  -0.000  -0.000  -0.000  -0.000  -0.000
 -0.007   0.000  -0.000  -0.000  -0.000   0.000   0.000   0.000
 -0.000  -0.000   1.990  -0.000   0.000  -0.028   0.000  -0.000
 -0.000  -0.000  -0.000   1.990  -0.000   0.000  -0.028   0.000
 -0.000  -0.000   0.000  -0.000   1.990  -0.000   0.000  -0.028
 -0.000   0.000  -0.028   0.000  -0.000  -0.012   0.000  -0.000
 -0.000   0.000   0.000  -0.028   0.000   0.000  -0.012   0.000
 -0.000   0.000  -0.000   0.000  -0.028  -0.000   0.000  -0.012
 total augmentation occupancy for first ion, spin component:           1
  1.318  -0.514  -0.000   0.000   0.002   0.000  -0.000  -0.002
 -0.514   0.510   0.000   0.000  -0.003   0.000  -0.000   0.001
 -0.000   0.000   0.755   0.003   0.007  -0.157  -0.001  -0.001
  0.000   0.000   0.003   0.763  -0.002  -0.001  -0.154  -0.001
  0.002  -0.003   0.007  -0.002   0.759  -0.001  -0.001  -0.155
  0.000   0.000  -0.157  -0.001  -0.001   0.037   0.000   0.000
 -0.000  -0.000  -0.001  -0.154  -0.001   0.000   0.036   0.000
 -0.002   0.001  -0.001  -0.001  -0.155   0.000   0.000   0.037


------------------------ aborting loop because EDIFF is reached ----------------------------------------




--------------------------------------------------------------------------------------------------------


    CHARGE:  VPU time  130.85: CPU time  130.93
    FORLOC:  VPU time    0.43: CPU time    0.43
    FORNL :  VPU time  277.45: CPU time  277.61
    STRESS:  VPU time 1008.76: CPU time 1009.27
    FORCOR:  VPU time    2.56: CPU time    2.56
    FORHAR:  VPU time    0.96: CPU time    0.96
    MIXING:  VPU time    0.08: CPU time    0.08


--------------------------------------------------------------------------------------------------------



  FREE ENERGIE OF THE ION-ELECTRON SYSTEM (eV)
  ---------------------------------------------------
  free  energy   TOTEN  =      -119.719952 eV

  energy  without entropy=     -119.719195  energy(sigma->0) =     -119.719573
 

  FORCE on cell =-STRESS in cart. coord.  units (eV/reduce length):
  Direction    X        Y        Z        XY       YZ       ZX
  --------------------------------------------------------------------------------------
  Alpha Z     -6.73     -6.73     -6.73
  Ewald     -792.87   -792.86   -792.86     -0.00     -0.00     -0.00
  Hartree      1.17      1.18      1.18     -0.00     -0.00     -0.00
  E(xc)     -276.94   -276.94   -276.94      0.00      0.00      0.00
  Local       15.72     15.72     15.72     -0.00     -0.00     -0.00
  n-local    609.79    609.71    609.87     -1.06     -0.28      0.50
  augment    -32.47    -32.47    -32.47      0.00      0.00      0.00
  Kinetic    490.87    483.61    498.13      6.43      0.75     -4.92
  -------------------------------------------------------------------------------------
  Total        8.54      8.54      8.54      0.00      0.00      0.00
  in kB       26.79     26.79     26.79      0.00      0.00      0.00
  external pressure =       26.79 kB  Pullay stress =        0.00 kB


 VOLUME and BASIS-vectors are now :
 -----------------------------------------------------------------------------
  energy-cutoff  :      750.00
  volume of cell :      510.82
      direct lattice vectors                 reciprocal lattice vectors
     7.993866612  0.000000000  0.000000000     0.125095908  0.000000000  0.000000000
     0.000000000  7.993866612  0.000000000     0.000000000  0.125095908  0.000000000
     0.000000000  0.000000000  7.993866612     0.000000000  0.000000000  0.125095908

  length of vectors
     7.993866612  7.993866612  7.993866612     0.125095908  0.125095908  0.125095908


 FORCES acting on ions
    electron-ion (+dipol)            ewald-force                    non-local-force                 convergence-correction
 -----------------------------------------------------------------------------------------------
   0.402E+00 0.166E-12 -.262E-08   -.329E+00 0.833E-15 0.669E-16   -.125E+00 0.163E-18 0.203E-19   -.451E-06 0.164E-13 -.465E-14
   -.880E-01 0.758E-13 0.121E-08   0.869E-01 0.722E-14 -.626E-14   0.341E-02 0.271E-19 -.169E-20   0.245E-05 0.169E-13 -.350E-14
   0.284E-01 -.980E-13 0.336E-12   -.275E-01 0.123E-13 -.676E-14   -.100E-02 0.000E+00 -.271E-19   0.142E-05 -.163E-13 -.564E-14
   -.216E-01 0.457E-13 0.164E-12   0.216E-01 0.522E-14 -.676E-14   0.459E-03 -.271E-19 0.000E+00   -.295E-05 -.166E-13 -.408E-14
   0.284E-01 -.176E-13 -.834E-11   -.275E-01 0.355E-14 -.770E-14   -.100E-02 -.678E-19 -.635E-20   0.143E-05 0.148E-13 0.472E-14
   -.216E-01 0.797E-13 -.852E-11   0.216E-01 0.711E-14 -.770E-14   0.459E-03 -.271E-19 0.678E-20   -.296E-05 0.159E-13 0.350E-14
   0.124E-01 -.183E-13 -.253E-12   -.114E-01 0.888E-14 -.101E-13   -.433E-03 -.136E-19 0.339E-20   -.225E-05 -.147E-13 0.574E-14
   -.108E-01 0.216E-12 -.532E-12   0.106E-01 0.533E-14 -.298E-14   -.365E-03 -.102E-19 0.000E+00   0.168E-05 -.156E-13 0.415E-14
   0.497E-01 -.231E-03 0.231E-03   -.519E-01 0.204E-03 -.204E-03   0.758E-03 0.498E-04 -.498E-04   -.820E-06 -.795E-07 0.795E-07
   -.316E-01 0.796E-04 -.796E-04   0.292E-01 -.612E-04 0.612E-04   0.170E-02 -.198E-04 0.198E-04   -.137E-07 -.408E-07 0.408E-07
   0.497E-01 0.231E-03 0.231E-03   -.519E-01 -.204E-03 -.204E-03   0.758E-03 -.498E-04 -.498E-04   -.820E-06 0.795E-07 0.795E-07
   -.316E-01 -.796E-04 -.796E-04   0.292E-01 0.612E-04 0.612E-04   0.170E-02 0.198E-04 0.198E-04   -.137E-07 0.408E-07 0.408E-07
   0.497E-01 -.231E-03 -.231E-03   -.519E-01 0.204E-03 0.204E-03   0.758E-03 0.498E-04 0.498E-04   -.820E-06 -.795E-07 -.795E-07
   -.316E-01 0.796E-04 0.796E-04   0.292E-01 -.612E-04 -.612E-04   0.170E-02 -.198E-04 -.198E-04   -.137E-07 -.408E-07 -.408E-07
   0.497E-01 0.231E-03 -.231E-03   -.519E-01 -.204E-03 0.204E-03   0.758E-03 -.498E-04 0.498E-04   -.820E-06 0.795E-07 -.795E-07
   -.316E-01 -.796E-04 0.796E-04   0.292E-01 0.612E-04 -.612E-04   0.170E-02 0.198E-04 -.198E-04   -.137E-07 0.408E-07 -.408E-07
   -.494E-01 -.371E-14 0.872E-01   0.420E-01 -.633E-14 -.796E-01   0.146E-01 0.000E+00 -.151E-01   0.328E-07 0.165E-13 -.176E-05
   -.493E-01 0.203E-12 -.881E-01   0.418E-01 -.183E-14 0.803E-01   0.148E-01 -.102E-19 0.155E-01   -.343E-08 0.182E-13 0.186E-05
   -.963E-03 -.164E-13 0.683E-02   0.140E-02 -.255E-14 -.659E-02   -.458E-03 0.000E+00 -.124E-03   0.671E-06 -.163E-13 0.210E-05
   -.836E-03 -.393E-13 -.684E-02   0.127E-02 -.527E-14 0.660E-02   -.448E-03 0.169E-20 0.125E-03   0.555E-06 -.180E-13 -.204E-05
   -.494E-01 -.483E-14 -.872E-01   0.420E-01 -.633E-14 0.796E-01   0.146E-01 0.169E-19 0.151E-01   0.328E-07 0.144E-13 0.176E-05
   -.493E-01 -.128E-12 0.881E-01   0.418E-01 -.361E-14 -.803E-01   0.148E-01 0.000E+00 -.155E-01   -.343E-08 0.149E-13 -.186E-05
   -.963E-03 -.190E-13 -.683E-02   0.140E-02 -.255E-14 0.659E-02   -.458E-03 0.254E-20 0.124E-03   0.671E-06 -.142E-13 -.210E-05
   -.836E-03 -.278E-12 0.684E-02   0.127E-02 -.883E-14 -.660E-02   -.448E-03 0.000E+00 -.125E-03   0.555E-06 -.147E-13 0.204E-05
   -.494E-01 -.872E-01 0.533E-11   0.420E-01 0.796E-01 0.714E-14   0.146E-01 0.151E-01 0.339E-20   0.337E-07 0.176E-05 -.442E-14
   -.493E-01 0.881E-01 0.557E-11   0.418E-01 -.803E-01 0.330E-14   0.148E-01 -.155E-01 0.000E+00   -.255E-08 -.185E-05 -.730E-14
   -.494E-01 0.872E-01 0.532E-11   0.420E-01 -.796E-01 0.336E-14   0.146E-01 -.151E-01 0.136E-19   0.337E-07 -.176E-05 -.228E-14
   -.493E-01 -.881E-01 0.523E-11   0.418E-01 0.803E-01 0.330E-14   0.148E-01 0.155E-01 0.339E-20   -.255E-08 0.185E-05 -.392E-14
   -.963E-03 -.683E-02 -.589E-12   0.140E-02 0.659E-02 0.888E-14   -.458E-03 0.124E-03 0.136E-19   0.670E-06 -.210E-05 0.449E-14
   -.836E-03 0.684E-02 -.713E-12   0.127E-02 -.660E-02 0.915E-14   -.448E-03 -.125E-03 0.424E-21   0.554E-06 0.205E-05 0.732E-14
   -.963E-03 0.683E-02 -.586E-12   0.140E-02 -.659E-02 0.555E-14   -.458E-03 -.124E-03 0.000E+00   0.670E-06 0.210E-05 0.239E-14
   -.836E-03 -.684E-02 -.415E-12   0.127E-02 0.660E-02 0.560E-14   -.448E-03 0.125E-03 0.678E-20   0.554E-06 -.205E-05 0.399E-14
 -----------------------------------------------------------------------------------------------
   0.206E-05 -.237E-12 -.143E-08   -.960E-15 -.104E-14 -.212E-13   -.199E-05 0.173E-17 -.637E-18   0.590E-07 -.314E-16 0.974E-16
 
 
 POSITION                                       TOTAL-FORCE (eV/Angst)
 -----------------------------------------------------------------------------------
      2.00847      1.99847      0.00000        -0.052791      0.000000      0.000000
      5.99540      1.99847      0.00000         0.002362      0.000000     -0.000000
      1.99847      5.99540      0.00000        -0.000118      0.000000      0.000000
      5.99540      5.99540      0.00000         0.000515      0.000000     -0.000000
      1.99847      1.99847      3.99693        -0.000118      0.000000      0.000000
      5.99540      1.99847      3.99693         0.000515     -0.000000     -0.000000
      1.99847      5.99540      3.99693         0.000605      0.000000      0.000000
      5.99540      5.99540      3.99693        -0.000550      0.000000      0.000000
      1.99847      0.00000      1.99847        -0.001433      0.000023     -0.000023
      5.99540      0.00000      1.99847        -0.000685     -0.000001      0.000001
      1.99847      3.99693      1.99847        -0.001433     -0.000023     -0.000023
      5.99540      3.99693      1.99847        -0.000685      0.000001      0.000001
      1.99847      0.00000      5.99540        -0.001433      0.000023      0.000023
      5.99540      0.00000      5.99540        -0.000685     -0.000001     -0.000001
      1.99847      3.99693      5.99540        -0.001433     -0.000023      0.000023
      5.99540      3.99693      5.99540        -0.000685      0.000001     -0.000001
      0.00000      1.99847      1.99847         0.007190      0.000000     -0.007444
      3.99693      1.99847      1.99847         0.007354     -0.000000      0.007679
      0.00000      5.99540      1.99847        -0.000018     -0.000000      0.000119
      3.99693      5.99540      1.99847        -0.000012      0.000000     -0.000116
      0.00000      1.99847      5.99540         0.007190      0.000000      0.007444
      3.99693      1.99847      5.99540         0.007354     -0.000000     -0.007679
      0.00000      5.99540      5.99540        -0.000018     -0.000000     -0.000119
      3.99693      5.99540      5.99540        -0.000012      0.000000      0.000116
      0.00000      0.00000      0.00000         0.007190      0.007444      0.000000
      3.99693      0.00000      0.00000         0.007354     -0.007679      0.000000
      0.00000      3.99693      0.00000         0.007190     -0.007444      0.000000
      3.99693      3.99693      0.00000         0.007354      0.007679      0.000000
      0.00000      0.00000      3.99693        -0.000018     -0.000119     -0.000000
      3.99693      0.00000      3.99693        -0.000012      0.000116      0.000000
      0.00000      3.99693      3.99693        -0.000018      0.000119     -0.000000
      3.99693      3.99693      3.99693        -0.000012     -0.000116      0.000000
 -----------------------------------------------------------------------------------
    total drift:                                0.000000     -0.000000     -0.000000


--------------------------------------------------------------------------------------------------------



 mean value of Nose-termostat <S>:     1.000 mean value of <T> :     0.000
 mean temperature <T/S>/<1/S>  :     0.000

     LOOP+:  VPU time29824.48: CPU time29889.52
  
  
 General timing and accounting informations for this job:
 ========================================================
  
                  Total CPU time used (sec):    30028.819
                            User time (sec):    29137.244
                          System time (sec):      891.574
                         Elapsed time (sec):    30095.189
  
                   Maximum memory used (kb):     3477388.
                   Average memory used (kb):           0.
  
                          Minor page faults:       409880
                          Major page faults:            0
                 Voluntary context switches:          907
