<?xml version="1.0" encoding="ISO-8859-1"?>
<modeling>
 <generator>
  <i name="program" type="string">vasp</i>
  <i name="version" type="string">4.6.28 </i>
  <i name="subversion" type="string">25Jul05 complex  parallel</i>
  <i name="platform" type="string">LinuxIFC</i>
  <i name="date" type="string">2016 11 12</i>
  <i name="time" type="string">03:05:26</i>
 </generator>
 <incar>
  <i type="string" name="PREC">accurate</i>
  <i type="int" name="IALGO">    38</i>
  <i type="logical" name="ADDGRID"> T  </i>
  <i name="EDIFF">      0.00000001</i>
  <i type="int" name="IBRION">    -1</i>
  <i name="ENCUT">    750.00000000</i>
  <i type="logical" name="LREAL"> F  </i>
  <i type="int" name="ISMEAR">     0</i>
  <i name="SIGMA">      0.01000000</i>
  <i type="logical" name="LWAVE"> F  </i>
  <i type="logical" name="LCHARG"> F  </i>
 </incar>
 <kpoints>
  <generation param="Gamma">
   <v type="int" name="divisions">      12      12      12</v>
   <v name="usershift">      0.00000000      0.00000000      0.00000000</v>
   <v name="genvec1">      0.08333333      0.00000000      0.00000000</v>
   <v name="genvec2">      0.00000000      0.08333333      0.00000000</v>
   <v name="genvec3">      0.00000000      0.00000000      0.08333333</v>
   <v name="shift">      0.00000000      0.00000000      0.00000000</v>
  </generation>
  <varray name="kpointlist" >
   <v>       0.00000000      0.00000000      0.00000000</v>
   <v>       0.08333333      0.00000000      0.00000000</v>
   <v>       0.16666667      0.00000000      0.00000000</v>
   <v>       0.25000000      0.00000000      0.00000000</v>
   <v>       0.33333333      0.00000000      0.00000000</v>
   <v>       0.41666667      0.00000000      0.00000000</v>
   <v>       0.50000000      0.00000000      0.00000000</v>
   <v>       0.00000000      0.08333333      0.00000000</v>
   <v>       0.08333333      0.08333333      0.00000000</v>
   <v>       0.16666667      0.08333333      0.00000000</v>
   <v>       0.25000000      0.08333333      0.00000000</v>
   <v>       0.33333333      0.08333333      0.00000000</v>
   <v>       0.41666667      0.08333333      0.00000000</v>
   <v>       0.50000000      0.08333333      0.00000000</v>
   <v>       0.00000000      0.16666667      0.00000000</v>
   <v>       0.08333333      0.16666667      0.00000000</v>
   <v>       0.16666667      0.16666667      0.00000000</v>
   <v>       0.25000000      0.16666667      0.00000000</v>
   <v>       0.33333333      0.16666667      0.00000000</v>
   <v>       0.41666667      0.16666667      0.00000000</v>
   <v>       0.50000000      0.16666667      0.00000000</v>
   <v>       0.00000000      0.25000000      0.00000000</v>
   <v>       0.08333333      0.25000000      0.00000000</v>
   <v>       0.16666667      0.25000000      0.00000000</v>
   <v>       0.25000000      0.25000000      0.00000000</v>
   <v>       0.33333333      0.25000000      0.00000000</v>
   <v>       0.41666667      0.25000000      0.00000000</v>
   <v>       0.50000000      0.25000000      0.00000000</v>
   <v>       0.00000000      0.33333333      0.00000000</v>
   <v>       0.08333333      0.33333333      0.00000000</v>
   <v>       0.16666667      0.33333333      0.00000000</v>
   <v>       0.25000000      0.33333333      0.00000000</v>
   <v>       0.33333333      0.33333333      0.00000000</v>
   <v>       0.41666667      0.33333333      0.00000000</v>
   <v>       0.50000000      0.33333333      0.00000000</v>
   <v>       0.00000000      0.41666667      0.00000000</v>
   <v>       0.08333333      0.41666667      0.00000000</v>
   <v>       0.16666667      0.41666667      0.00000000</v>
   <v>       0.25000000      0.41666667      0.00000000</v>
   <v>       0.33333333      0.41666667      0.00000000</v>
   <v>       0.41666667      0.41666667      0.00000000</v>
   <v>       0.50000000      0.41666667      0.00000000</v>
   <v>       0.00000000      0.50000000      0.00000000</v>
   <v>       0.08333333      0.50000000      0.00000000</v>
   <v>       0.16666667      0.50000000      0.00000000</v>
   <v>       0.25000000      0.50000000      0.00000000</v>
   <v>       0.33333333      0.50000000      0.00000000</v>
   <v>       0.41666667      0.50000000      0.00000000</v>
   <v>       0.50000000      0.50000000      0.00000000</v>
   <v>       0.00000000      0.08333333      0.08333333</v>
   <v>       0.08333333      0.08333333      0.08333333</v>
   <v>       0.16666667      0.08333333      0.08333333</v>
   <v>       0.25000000      0.08333333      0.08333333</v>
   <v>       0.33333333      0.08333333      0.08333333</v>
   <v>       0.41666667      0.08333333      0.08333333</v>
   <v>       0.50000000      0.08333333      0.08333333</v>
   <v>       0.00000000      0.16666667      0.08333333</v>
   <v>       0.08333333      0.16666667      0.08333333</v>
   <v>       0.16666667      0.16666667      0.08333333</v>
   <v>       0.25000000      0.16666667      0.08333333</v>
   <v>       0.33333333      0.16666667      0.08333333</v>
   <v>       0.41666667      0.16666667      0.08333333</v>
   <v>       0.50000000      0.16666667      0.08333333</v>
   <v>       0.00000000      0.25000000      0.08333333</v>
   <v>       0.08333333      0.25000000      0.08333333</v>
   <v>       0.16666667      0.25000000      0.08333333</v>
   <v>       0.25000000      0.25000000      0.08333333</v>
   <v>       0.33333333      0.25000000      0.08333333</v>
   <v>       0.41666667      0.25000000      0.08333333</v>
   <v>       0.50000000      0.25000000      0.08333333</v>
   <v>       0.00000000      0.33333333      0.08333333</v>
   <v>       0.08333333      0.33333333      0.08333333</v>
   <v>       0.16666667      0.33333333      0.08333333</v>
   <v>       0.25000000      0.33333333      0.08333333</v>
   <v>       0.33333333      0.33333333      0.08333333</v>
   <v>       0.41666667      0.33333333      0.08333333</v>
   <v>       0.50000000      0.33333333      0.08333333</v>
   <v>       0.00000000      0.41666667      0.08333333</v>
   <v>       0.08333333      0.41666667      0.08333333</v>
   <v>       0.16666667      0.41666667      0.08333333</v>
   <v>       0.25000000      0.41666667      0.08333333</v>
   <v>       0.33333333      0.41666667      0.08333333</v>
   <v>       0.41666667      0.41666667      0.08333333</v>
   <v>       0.50000000      0.41666667      0.08333333</v>
   <v>       0.00000000      0.50000000      0.08333333</v>
   <v>       0.08333333      0.50000000      0.08333333</v>
   <v>       0.16666667      0.50000000      0.08333333</v>
   <v>       0.25000000      0.50000000      0.08333333</v>
   <v>       0.33333333      0.50000000      0.08333333</v>
   <v>       0.41666667      0.50000000      0.08333333</v>
   <v>       0.50000000      0.50000000      0.08333333</v>
   <v>       0.00000000      0.16666667      0.16666667</v>
   <v>       0.08333333      0.16666667      0.16666667</v>
   <v>       0.16666667      0.16666667      0.16666667</v>
   <v>       0.25000000      0.16666667      0.16666667</v>
   <v>       0.33333333      0.16666667      0.16666667</v>
   <v>       0.41666667      0.16666667      0.16666667</v>
   <v>       0.50000000      0.16666667      0.16666667</v>
   <v>       0.00000000      0.25000000      0.16666667</v>
   <v>       0.08333333      0.25000000      0.16666667</v>
   <v>       0.16666667      0.25000000      0.16666667</v>
   <v>       0.25000000      0.25000000      0.16666667</v>
   <v>       0.33333333      0.25000000      0.16666667</v>
   <v>       0.41666667      0.25000000      0.16666667</v>
   <v>       0.50000000      0.25000000      0.16666667</v>
   <v>       0.00000000      0.33333333      0.16666667</v>
   <v>       0.08333333      0.33333333      0.16666667</v>
   <v>       0.16666667      0.33333333      0.16666667</v>
   <v>       0.25000000      0.33333333      0.16666667</v>
   <v>       0.33333333      0.33333333      0.16666667</v>
   <v>       0.41666667      0.33333333      0.16666667</v>
   <v>       0.50000000      0.33333333      0.16666667</v>
   <v>       0.00000000      0.41666667      0.16666667</v>
   <v>       0.08333333      0.41666667      0.16666667</v>
   <v>       0.16666667      0.41666667      0.16666667</v>
   <v>       0.25000000      0.41666667      0.16666667</v>
   <v>       0.33333333      0.41666667      0.16666667</v>
   <v>       0.41666667      0.41666667      0.16666667</v>
   <v>       0.50000000      0.41666667      0.16666667</v>
   <v>       0.00000000      0.50000000      0.16666667</v>
   <v>       0.08333333      0.50000000      0.16666667</v>
   <v>       0.16666667      0.50000000      0.16666667</v>
   <v>       0.25000000      0.50000000      0.16666667</v>
   <v>       0.33333333      0.50000000      0.16666667</v>
   <v>       0.41666667      0.50000000      0.16666667</v>
   <v>       0.50000000      0.50000000      0.16666667</v>
   <v>       0.00000000      0.25000000      0.25000000</v>
   <v>       0.08333333      0.25000000      0.25000000</v>
   <v>       0.16666667      0.25000000      0.25000000</v>
   <v>       0.25000000      0.25000000      0.25000000</v>
   <v>       0.33333333      0.25000000      0.25000000</v>
   <v>       0.41666667      0.25000000      0.25000000</v>
   <v>       0.50000000      0.25000000      0.25000000</v>
   <v>       0.00000000      0.33333333      0.25000000</v>
   <v>       0.08333333      0.33333333      0.25000000</v>
   <v>       0.16666667      0.33333333      0.25000000</v>
   <v>       0.25000000      0.33333333      0.25000000</v>
   <v>       0.33333333      0.33333333      0.25000000</v>
   <v>       0.41666667      0.33333333      0.25000000</v>
   <v>       0.50000000      0.33333333      0.25000000</v>
   <v>       0.00000000      0.41666667      0.25000000</v>
   <v>       0.08333333      0.41666667      0.25000000</v>
   <v>       0.16666667      0.41666667      0.25000000</v>
   <v>       0.25000000      0.41666667      0.25000000</v>
   <v>       0.33333333      0.41666667      0.25000000</v>
   <v>       0.41666667      0.41666667      0.25000000</v>
   <v>       0.50000000      0.41666667      0.25000000</v>
   <v>       0.00000000      0.50000000      0.25000000</v>
   <v>       0.08333333      0.50000000      0.25000000</v>
   <v>       0.16666667      0.50000000      0.25000000</v>
   <v>       0.25000000      0.50000000      0.25000000</v>
   <v>       0.33333333      0.50000000      0.25000000</v>
   <v>       0.41666667      0.50000000      0.25000000</v>
   <v>       0.50000000      0.50000000      0.25000000</v>
   <v>       0.00000000      0.33333333      0.33333333</v>
   <v>       0.08333333      0.33333333      0.33333333</v>
   <v>       0.16666667      0.33333333      0.33333333</v>
   <v>       0.25000000      0.33333333      0.33333333</v>
   <v>       0.33333333      0.33333333      0.33333333</v>
   <v>       0.41666667      0.33333333      0.33333333</v>
   <v>       0.50000000      0.33333333      0.33333333</v>
   <v>       0.00000000      0.41666667      0.33333333</v>
   <v>       0.08333333      0.41666667      0.33333333</v>
   <v>       0.16666667      0.41666667      0.33333333</v>
   <v>       0.25000000      0.41666667      0.33333333</v>
   <v>       0.33333333      0.41666667      0.33333333</v>
   <v>       0.41666667      0.41666667      0.33333333</v>
   <v>       0.50000000      0.41666667      0.33333333</v>
   <v>       0.00000000      0.50000000      0.33333333</v>
   <v>       0.08333333      0.50000000      0.33333333</v>
   <v>       0.16666667      0.50000000      0.33333333</v>
   <v>       0.25000000      0.50000000      0.33333333</v>
   <v>       0.33333333      0.50000000      0.33333333</v>
   <v>       0.41666667      0.50000000      0.33333333</v>
   <v>       0.50000000      0.50000000      0.33333333</v>
   <v>       0.00000000      0.41666667      0.41666667</v>
   <v>       0.08333333      0.41666667      0.41666667</v>
   <v>       0.16666667      0.41666667      0.41666667</v>
   <v>       0.25000000      0.41666667      0.41666667</v>
   <v>       0.33333333      0.41666667      0.41666667</v>
   <v>       0.41666667      0.41666667      0.41666667</v>
   <v>       0.50000000      0.41666667      0.41666667</v>
   <v>       0.00000000      0.50000000      0.41666667</v>
   <v>       0.08333333      0.50000000      0.41666667</v>
   <v>       0.16666667      0.50000000      0.41666667</v>
   <v>       0.25000000      0.50000000      0.41666667</v>
   <v>       0.33333333      0.50000000      0.41666667</v>
   <v>       0.41666667      0.50000000      0.41666667</v>
   <v>       0.50000000      0.50000000      0.41666667</v>
   <v>       0.00000000      0.50000000      0.50000000</v>
   <v>       0.08333333      0.50000000      0.50000000</v>
   <v>       0.16666667      0.50000000      0.50000000</v>
   <v>       0.25000000      0.50000000      0.50000000</v>
   <v>       0.33333333      0.50000000      0.50000000</v>
   <v>       0.41666667      0.50000000      0.50000000</v>
   <v>       0.50000000      0.50000000      0.50000000</v>
  </varray>
  <varray name="weights" >
   <v>       0.00057870</v>
   <v>       0.00115741</v>
   <v>       0.00115741</v>
   <v>       0.00115741</v>
   <v>       0.00115741</v>
   <v>       0.00115741</v>
   <v>       0.00057870</v>
   <v>       0.00231481</v>
   <v>       0.00462963</v>
   <v>       0.00462963</v>
   <v>       0.00462963</v>
   <v>       0.00462963</v>
   <v>       0.00462963</v>
   <v>       0.00231481</v>
   <v>       0.00231481</v>
   <v>       0.00462963</v>
   <v>       0.00462963</v>
   <v>       0.00462963</v>
   <v>       0.00462963</v>
   <v>       0.00462963</v>
   <v>       0.00231481</v>
   <v>       0.00231481</v>
   <v>       0.00462963</v>
   <v>       0.00462963</v>
   <v>       0.00462963</v>
   <v>       0.00462963</v>
   <v>       0.00462963</v>
   <v>       0.00231481</v>
   <v>       0.00231481</v>
   <v>       0.00462963</v>
   <v>       0.00462963</v>
   <v>       0.00462963</v>
   <v>       0.00462963</v>
   <v>       0.00462963</v>
   <v>       0.00231481</v>
   <v>       0.00231481</v>
   <v>       0.00462963</v>
   <v>       0.00462963</v>
   <v>       0.00462963</v>
   <v>       0.00462963</v>
   <v>       0.00462963</v>
   <v>       0.00231481</v>
   <v>       0.00115741</v>
   <v>       0.00231481</v>
   <v>       0.00231481</v>
   <v>       0.00231481</v>
   <v>       0.00231481</v>
   <v>       0.00231481</v>
   <v>       0.00115741</v>
   <v>       0.00231481</v>
   <v>       0.00462963</v>
   <v>       0.00462963</v>
   <v>       0.00462963</v>
   <v>       0.00462963</v>
   <v>       0.00462963</v>
   <v>       0.00231481</v>
   <v>       0.00462963</v>
   <v>       0.00925926</v>
   <v>       0.00925926</v>
   <v>       0.00925926</v>
   <v>       0.00925926</v>
   <v>       0.00925926</v>
   <v>       0.00462963</v>
   <v>       0.00462963</v>
   <v>       0.00925926</v>
   <v>       0.00925926</v>
   <v>       0.00925926</v>
   <v>       0.00925926</v>
   <v>       0.00925926</v>
   <v>       0.00462963</v>
   <v>       0.00462963</v>
   <v>       0.00925926</v>
   <v>       0.00925926</v>
   <v>       0.00925926</v>
   <v>       0.00925926</v>
   <v>       0.00925926</v>
   <v>       0.00462963</v>
   <v>       0.00462963</v>
   <v>       0.00925926</v>
   <v>       0.00925926</v>
   <v>       0.00925926</v>
   <v>       0.00925926</v>
   <v>       0.00925926</v>
   <v>       0.00462963</v>
   <v>       0.00231481</v>
   <v>       0.00462963</v>
   <v>       0.00462963</v>
   <v>       0.00462963</v>
   <v>       0.00462963</v>
   <v>       0.00462963</v>
   <v>       0.00231481</v>
   <v>       0.00231481</v>
   <v>       0.00462963</v>
   <v>       0.00462963</v>
   <v>       0.00462963</v>
   <v>       0.00462963</v>
   <v>       0.00462963</v>
   <v>       0.00231481</v>
   <v>       0.00462963</v>
   <v>       0.00925926</v>
   <v>       0.00925926</v>
   <v>       0.00925926</v>
   <v>       0.00925926</v>
   <v>       0.00925926</v>
   <v>       0.00462963</v>
   <v>       0.00462963</v>
   <v>       0.00925926</v>
   <v>       0.00925926</v>
   <v>       0.00925926</v>
   <v>       0.00925926</v>
   <v>       0.00925926</v>
   <v>       0.00462963</v>
   <v>       0.00462963</v>
   <v>       0.00925926</v>
   <v>       0.00925926</v>
   <v>       0.00925926</v>
   <v>       0.00925926</v>
   <v>       0.00925926</v>
   <v>       0.00462963</v>
   <v>       0.00231481</v>
   <v>       0.00462963</v>
   <v>       0.00462963</v>
   <v>       0.00462963</v>
   <v>       0.00462963</v>
   <v>       0.00462963</v>
   <v>       0.00231481</v>
   <v>       0.00231481</v>
   <v>       0.00462963</v>
   <v>       0.00462963</v>
   <v>       0.00462963</v>
   <v>       0.00462963</v>
   <v>       0.00462963</v>
   <v>       0.00231481</v>
   <v>       0.00462963</v>
   <v>       0.00925926</v>
   <v>       0.00925926</v>
   <v>       0.00925926</v>
   <v>       0.00925926</v>
   <v>       0.00925926</v>
   <v>       0.00462963</v>
   <v>       0.00462963</v>
   <v>       0.00925926</v>
   <v>       0.00925926</v>
   <v>       0.00925926</v>
   <v>       0.00925926</v>
   <v>       0.00925926</v>
   <v>       0.00462963</v>
   <v>       0.00231481</v>
   <v>       0.00462963</v>
   <v>       0.00462963</v>
   <v>       0.00462963</v>
   <v>       0.00462963</v>
   <v>       0.00462963</v>
   <v>       0.00231481</v>
   <v>       0.00231481</v>
   <v>       0.00462963</v>
   <v>       0.00462963</v>
   <v>       0.00462963</v>
   <v>       0.00462963</v>
   <v>       0.00462963</v>
   <v>       0.00231481</v>
   <v>       0.00462963</v>
   <v>       0.00925926</v>
   <v>       0.00925926</v>
   <v>       0.00925926</v>
   <v>       0.00925926</v>
   <v>       0.00925926</v>
   <v>       0.00462963</v>
   <v>       0.00231481</v>
   <v>       0.00462963</v>
   <v>       0.00462963</v>
   <v>       0.00462963</v>
   <v>       0.00462963</v>
   <v>       0.00462963</v>
   <v>       0.00231481</v>
   <v>       0.00231481</v>
   <v>       0.00462963</v>
   <v>       0.00462963</v>
   <v>       0.00462963</v>
   <v>       0.00462963</v>
   <v>       0.00462963</v>
   <v>       0.00231481</v>
   <v>       0.00231481</v>
   <v>       0.00462963</v>
   <v>       0.00462963</v>
   <v>       0.00462963</v>
   <v>       0.00462963</v>
   <v>       0.00462963</v>
   <v>       0.00231481</v>
   <v>       0.00057870</v>
   <v>       0.00115741</v>
   <v>       0.00115741</v>
   <v>       0.00115741</v>
   <v>       0.00115741</v>
   <v>       0.00115741</v>
   <v>       0.00057870</v>
  </varray>
 </kpoints>
 <parameters>
  <separator name="general" >
   <i type="string" name="SYSTEM">unknown system</i>
   <i type="logical" name="LCOMPAT"> F  </i>
  </separator>
  <separator name="electronic" >
   <i type="string" name="PREC">accura</i>
   <i name="ENMAX">    750.00000000</i>
   <i name="ENAUG">    291.05200000</i>
   <i name="EDIFF">      0.00000001</i>
   <i type="int" name="IALGO">    38</i>
   <i type="int" name="IWAVPR">    10</i>
   <i type="int" name="NBANDS">    65</i>
   <i name="NELECT">     96.00000000</i>
   <separator name="electronic smearing" >
    <i type="int" name="ISMEAR">     0</i>
    <i name="SIGMA">      0.01000000</i>
   </separator>
   <separator name="electronic projectors" >
    <i type="logical" name="LREAL"> F  </i>
    <v name="ROPT">      0.00000000</v>
    <i type="int" name="LMAXPAW">  -100</i>
    <i type="int" name="LMAXMIX">     2</i>
   </separator>
   <separator name="electronic startup" >
    <i type="int" name="ISTART">     0</i>
    <i type="int" name="ICHARG">     2</i>
    <i type="int" name="INIWAV">     1</i>
   </separator>
   <separator name="electronic spin" >
    <i type="int" name="ISPIN">     1</i>
    <i type="logical" name="LNONCOLLINEAR"> F  </i>
    <v name="MAGMOM">      1.00000000      1.00000000      1.00000000      1.00000000      1.00000000      1.00000000      1.00000000      1.00000000      1.00000000      1.00000000      1.00000000      1.00000000      1.00000000      1.00000000      1.00000000      1.00000000      1.00000000      1.00000000      1.00000000      1.00000000
      1.00000000      1.00000000      1.00000000      1.00000000      1.00000000      1.00000000      1.00000000      1.00000000      1.00000000      1.00000000      1.00000000      1.00000000</v>
    <i name="NUPDOWN">     -1.00000000</i>
    <i type="logical" name="LSORBIT"> F  </i>
    <v name="SAXIS">      0.00000000      0.00000000      1.00000000</v>
    <i type="logical" name="LSPIRAL"> F  </i>
    <v name="QSPIRAL">      0.00000000      0.00000000      0.00000000</v>
    <i type="logical" name="LZEROZ"> F  </i>
   </separator>
   <separator name="electronic exchange-correlation" >
    <i type="string" name="GGA">--</i>
    <i type="int" name="VOSKOWN">     0</i>
    <i type="logical" name="LASPH"> F  </i>
    <i type="logical" name="LMETAGGA"> F  </i>
    <i type="string" name="GGA2">--</i>
   </separator>
   <separator name="electronic convergence" >
    <i type="int" name="NELM">    60</i>
    <i type="int" name="NELMDL">    -5</i>
    <i type="int" name="NELMIN">     2</i>
    <i name="ENINI">    750.00000000</i>
    <separator name="electronic convergence detail" >
     <i type="logical" name="LDIAG"> T  </i>
     <i name="WEIMIN">      0.00000000</i>
     <i name="EBREAK">      0.00000000</i>
     <i name="DEPER">      0.30000000</i>
     <i type="int" name="NRMM">     4</i>
     <i name="TIME">      0.10000000</i>
    </separator>
   </separator>
   <separator name="electronic mixer" >
    <i name="AMIX">      0.40000000</i>
    <i name="BMIX">      1.00000000</i>
    <i name="AMIN">      0.10000000</i>
    <i name="AMIX_MAG">      1.60000000</i>
    <i name="BMIX_MAG">      1.00000000</i>
    <separator name="electronic mixer details" >
     <i type="int" name="IMIX">     4</i>
     <i type="int" name="MAXMIX">   -45</i>
     <i name="WC">    100.00000000</i>
     <i type="int" name="INIMIX">     1</i>
     <i type="int" name="MIXPRE">     1</i>
     <i type="int" name="MREMOVE">     5</i>
    </separator>
   </separator>
   <separator name="electronic dipolcorrection" >
    <i type="int" name="IDIPOL">     0</i>
    <i type="logical" name="LDIPOL"> F  </i>
    <v name="DIPOL">   -100.00000000</v>
    <i name="EFIELD">      0.00000000</i>
   </separator>
  </separator>
  <separator name="grids" >
   <i type="int" name="NGX">    72</i>
   <i type="int" name="NGY">    72</i>
   <i type="int" name="NGZ">    72</i>
   <i type="int" name="NGXF">   144</i>
   <i type="int" name="NGYF">   144</i>
   <i type="int" name="NGZF">   144</i>
   <i type="logical" name="ADDGRID"> T  </i>
  </separator>
  <separator name="ionic" >
   <i type="int" name="NSW">     0</i>
   <i type="int" name="IBRION">    -1</i>
   <i type="int" name="ISIF">     2</i>
   <i name="PSTRESS">      0.00000000</i>
   <i name="EDIFFG">      0.00000010</i>
   <i type="int" name="NFREE">     0</i>
   <i name="POTIM">      0.50000000</i>
   <i name="SMASS">     -3.00000000</i>
  </separator>
  <separator name="ionic md" >
   <i name="TEBEG">      0.00010000</i>
   <i name="TEEND">      0.00010000</i>
   <i type="int" name="NBLOCK">     1</i>
   <i type="int" name="KBLOCK">     1</i>
   <i type="int" name="NPACO">   256</i>
   <i name="APACO">     16.00000000</i>
  </separator>
  <separator name="symmetry" >
   <i type="int" name="ISYM">     2</i>
   <i name="SYMPREC">      0.00001000</i>
  </separator>
  <separator name="dos" >
   <i type="logical" name="LORBIT"> F  </i>
   <v name="RWIGS">     -1.00000000</v>
   <i type="int" name="NEDOS">   301</i>
   <i name="EMIN">     10.00000000</i>
   <i name="EMAX">    -10.00000000</i>
  </separator>
  <separator name="writing" >
   <i type="int" name="NWRITE">     2</i>
   <i type="logical" name="LWAVE"> F  </i>
   <i type="logical" name="LCHARG"> F  </i>
   <i type="logical" name="LPARD"> F  </i>
   <i type="logical" name="LVTOT"> F  </i>
   <i type="logical" name="LELF"> F  </i>
   <i type="logical" name="LOPTICS"> F  </i>
   <i name="STM">      0.00000000</i>
  </separator>
  <separator name="performance" >
   <i type="int" name="NPAR">     4</i>
   <i type="int" name="NSIM">     4</i>
   <i type="int" name="NBLK">   256</i>
   <i type="logical" name="LPLANE"> T  </i>
   <i type="logical" name="LCRITICAL_MEM"> F  </i>
   <i type="logical" name="LSCALAPACK"> F  </i>
   <i type="logical" name="LSCALU"> F  </i>
   <i type="logical" name="LASYNC"> F  </i>
  </separator>
  <separator name="miscellaneous" >
   <i type="int" name="IDIOT">     3</i>
   <i type="logical" name="LMUSIC"> F  </i>
   <v name="POMASS">     26.98200000</v>
   <i type="logical" name="LCORR"> T  </i>
  </separator>
  <i type="logical" name="LREAL_COMPAT"> F  </i>
  <i type="logical" name="GGA_COMPAT"> T  </i>
  <i type="logical" name="LBERRY"> F  </i>
  <i type="int" name="ICORELEVEL">     0</i>
  <i type="logical" name="LDAU"> F  </i>
  <i type="int" name="I_CONSTRAINED_M">     0</i>
 </parameters>
 <atominfo>
  <atoms>      32</atoms>
  <types>       1</types>
  <array name="atoms" >
   <dimension dim="1">ion</dimension>
   <field type="string">element</field>
   <field type="int">atomtype</field>
   <set>
    <rc><c>Al</c><c>   1</c></rc>
    <rc><c>Al</c><c>   1</c></rc>
    <rc><c>Al</c><c>   1</c></rc>
    <rc><c>Al</c><c>   1</c></rc>
    <rc><c>Al</c><c>   1</c></rc>
    <rc><c>Al</c><c>   1</c></rc>
    <rc><c>Al</c><c>   1</c></rc>
    <rc><c>Al</c><c>   1</c></rc>
    <rc><c>Al</c><c>   1</c></rc>
    <rc><c>Al</c><c>   1</c></rc>
    <rc><c>Al</c><c>   1</c></rc>
    <rc><c>Al</c><c>   1</c></rc>
    <rc><c>Al</c><c>   1</c></rc>
    <rc><c>Al</c><c>   1</c></rc>
    <rc><c>Al</c><c>   1</c></rc>
    <rc><c>Al</c><c>   1</c></rc>
    <rc><c>Al</c><c>   1</c></rc>
    <rc><c>Al</c><c>   1</c></rc>
    <rc><c>Al</c><c>   1</c></rc>
    <rc><c>Al</c><c>   1</c></rc>
    <rc><c>Al</c><c>   1</c></rc>
    <rc><c>Al</c><c>   1</c></rc>
    <rc><c>Al</c><c>   1</c></rc>
    <rc><c>Al</c><c>   1</c></rc>
    <rc><c>Al</c><c>   1</c></rc>
    <rc><c>Al</c><c>   1</c></rc>
    <rc><c>Al</c><c>   1</c></rc>
    <rc><c>Al</c><c>   1</c></rc>
    <rc><c>Al</c><c>   1</c></rc>
    <rc><c>Al</c><c>   1</c></rc>
    <rc><c>Al</c><c>   1</c></rc>
    <rc><c>Al</c><c>   1</c></rc>
   </set>
  </array>
  <array name="atomtypes" >
   <dimension dim="1">type</dimension>
   <field type="int">atomspertype</field>
   <field type="string">element</field>
   <field>mass</field>
   <field>valence</field>
   <field type="string">pseudopotential</field>
   <set>
    <rc><c>  32</c><c>Al</c><c>     26.98200000</c><c>      3.00000000</c><c> PAW_PBE Al 04Jan2001                   </c></rc>
   </set>
  </array>
 </atominfo>
 <structure name="initialpos" >
  <crystal>
   <varray name="basis" >
    <v>       7.99386661      0.00000000      0.00000000</v>
    <v>       0.00000000      7.99386661      0.00000000</v>
    <v>       0.00000000      0.00000000      7.99386661</v>
   </varray>
   <i name="volume">    510.82329211</i>
   <varray name="rec_basis" >
    <v>       0.12509591      0.00000000      0.00000000</v>
    <v>       0.00000000      0.12509591      0.00000000</v>
    <v>       0.00000000      0.00000000      0.12509591</v>
   </varray>
  </crystal>
  <varray name="positions" >
   <v>       0.25125096      0.25000000      0.00000000</v>
   <v>       0.75000000      0.25000000      0.00000000</v>
   <v>       0.25000000      0.75000000      0.00000000</v>
   <v>       0.75000000      0.75000000      0.00000000</v>
   <v>       0.25000000      0.25000000      0.50000000</v>
   <v>       0.75000000      0.25000000      0.50000000</v>
   <v>       0.25000000      0.75000000      0.50000000</v>
   <v>       0.75000000      0.75000000      0.50000000</v>
   <v>       0.25000000      0.00000000      0.25000000</v>
   <v>       0.75000000      0.00000000      0.25000000</v>
   <v>       0.25000000      0.50000000      0.25000000</v>
   <v>       0.75000000      0.50000000      0.25000000</v>
   <v>       0.25000000      0.00000000      0.75000000</v>
   <v>       0.75000000      0.00000000      0.75000000</v>
   <v>       0.25000000      0.50000000      0.75000000</v>
   <v>       0.75000000      0.50000000      0.75000000</v>
   <v>       0.00000000      0.25000000      0.25000000</v>
   <v>       0.50000000      0.25000000      0.25000000</v>
   <v>       0.00000000      0.75000000      0.25000000</v>
   <v>       0.50000000      0.75000000      0.25000000</v>
   <v>       0.00000000      0.25000000      0.75000000</v>
   <v>       0.50000000      0.25000000      0.75000000</v>
   <v>       0.00000000      0.75000000      0.75000000</v>
   <v>       0.50000000      0.75000000      0.75000000</v>
   <v>       0.00000000      0.00000000      0.00000000</v>
   <v>       0.50000000      0.00000000      0.00000000</v>
   <v>       0.00000000      0.50000000      0.00000000</v>
   <v>       0.50000000      0.50000000      0.00000000</v>
   <v>       0.00000000      0.00000000      0.50000000</v>
   <v>       0.50000000      0.00000000      0.50000000</v>
   <v>       0.00000000      0.50000000      0.50000000</v>
   <v>       0.50000000      0.50000000      0.50000000</v>
  </varray>
 </structure>
 <calculation>
  <scstep>
   <time name="dav"> 1841.61 1867.69</time>
   <time name="total"> 1846.31 1872.40</time>
   <energy>
    <i name="alphaZ">     -6.73309839</i>
    <i name="ewald">  -2378.57959861</i>
    <i name="hartreedc">     -2.88597594</i>
    <i name="XCdc">   -837.75439790</i>
    <i name="pawpsdc">   1137.73615723</i>
    <i name="pawaedc">   -115.16745734</i>
    <i name="eentropy">     -0.00036481</i>
    <i name="bandstr">    676.18538410</i>
    <i name="atom">   1713.23509266</i>
    <i name="e_fr_energy">    186.03574099</i>
    <i name="e_wo_entrp">    186.03610580</i>
    <i name="e_0_energy">    186.03592339</i>
   </energy>
  </scstep>
  <scstep>
   <time name="dav"> 2058.16 2059.92</time>
   <time name="total"> 2058.23 2060.00</time>
   <energy>
    <i name="e_fr_energy">   -102.16517794</i>
    <i name="e_wo_entrp">   -102.16467528</i>
    <i name="e_0_energy">   -102.16492661</i>
   </energy>
  </scstep>
  <scstep>
   <time name="dav"> 2203.55 2204.22</time>
   <time name="total"> 2203.61 2205.73</time>
   <energy>
    <i name="e_fr_energy">   -120.02487262</i>
    <i name="e_wo_entrp">   -120.02421911</i>
    <i name="e_0_energy">   -120.02454586</i>
   </energy>
  </scstep>
  <scstep>
   <time name="dav"> 2112.63 2113.25</time>
   <time name="total"> 2112.68 2113.31</time>
   <energy>
    <i name="e_fr_energy">   -120.45571912</i>
    <i name="e_wo_entrp">   -120.45499165</i>
    <i name="e_0_energy">   -120.45535538</i>
   </energy>
  </scstep>
  <scstep>
   <time name="dav"> 2135.17 2135.77</time>
   <time name="total"> 2270.22 2270.86</time>
   <energy>
    <i name="e_fr_energy">   -120.46109417</i>
    <i name="e_wo_entrp">   -120.46036806</i>
    <i name="e_0_energy">   -120.46073111</i>
   </energy>
  </scstep>
  <scstep>
   <time name="dav"> 2073.21 2074.33</time>
   <time name="total"> 2213.13 2214.44</time>
   <energy>
    <i name="e_fr_energy">   -120.03231314</i>
    <i name="e_wo_entrp">   -120.03154131</i>
    <i name="e_0_energy">   -120.03192722</i>
   </energy>
  </scstep>
  <scstep>
   <time name="dav"> 1963.41 1964.61</time>
   <time name="total"> 2104.75 2106.07</time>
   <energy>
    <i name="e_fr_energy">   -119.71976611</i>
    <i name="e_wo_entrp">   -119.71901123</i>
    <i name="e_0_energy">   -119.71938867</i>
   </energy>
  </scstep>
  <scstep>
   <time name="dav"> 2063.98 2067.83</time>
   <time name="total"> 2198.12 2202.24</time>
   <energy>
    <i name="e_fr_energy">   -119.71992135</i>
    <i name="e_wo_entrp">   -119.71916512</i>
    <i name="e_0_energy">   -119.71954323</i>
   </energy>
  </scstep>
  <scstep>
   <time name="dav"> 2071.34 2073.81</time>
   <time name="total"> 2211.11 2213.70</time>
   <energy>
    <i name="e_fr_energy">   -119.71995462</i>
    <i name="e_wo_entrp">   -119.71919794</i>
    <i name="e_0_energy">   -119.71957628</i>
   </energy>
  </scstep>
  <scstep>
   <time name="dav"> 2116.39 2118.07</time>
   <time name="total"> 2256.12 2257.91</time>
   <energy>
    <i name="e_fr_energy">   -119.71995563</i>
    <i name="e_wo_entrp">   -119.71919889</i>
    <i name="e_0_energy">   -119.71957726</i>
   </energy>
  </scstep>
  <scstep>
   <time name="dav"> 2091.22 2092.88</time>
   <time name="total"> 2231.34 2233.11</time>
   <energy>
    <i name="e_fr_energy">   -119.71995303</i>
    <i name="e_wo_entrp">   -119.71919627</i>
    <i name="e_0_energy">   -119.71957465</i>
   </energy>
  </scstep>
  <scstep>
   <time name="dav"> 1618.75 1620.04</time>
   <time name="total"> 1758.48 1759.88</time>
   <energy>
    <i name="e_fr_energy">   -119.71995191</i>
    <i name="e_wo_entrp">   -119.71919514</i>
    <i name="e_0_energy">   -119.71957353</i>
   </energy>
  </scstep>
  <scstep>
   <time name="dav"> 1412.69 1430.44</time>
   <time name="total"> 1548.77 1566.67</time>
   <energy>
    <i name="e_fr_energy">   -119.71995176</i>
    <i name="e_wo_entrp">   -119.71919499</i>
    <i name="e_0_energy">   -119.71957337</i>
   </energy>
  </scstep>
  <scstep>
   <time name="dav"> 1385.42 1386.21</time>
   <time name="total"> 1390.14 1390.93</time>
   <energy>
    <i name="alphaZ">     -6.73309839</i>
    <i name="ewald">  -2378.57959861</i>
    <i name="hartreedc">     -3.52559382</i>
    <i name="XCdc">   -834.00283823</i>
    <i name="pawpsdc">   1144.71363576</i>
    <i name="pawaedc">   -122.72649121</i>
    <i name="eentropy">     -0.00075676</i>
    <i name="bandstr">    367.89969685</i>
    <i name="atom">   1713.23509266</i>
    <i name="e_fr_energy">   -119.71995175</i>
    <i name="e_wo_entrp">   -119.71919499</i>
    <i name="e_0_energy">   -119.71957337</i>
   </energy>
  </scstep>
  <structure>
   <crystal>
    <varray name="basis" >
     <v>       7.99386661      0.00000000      0.00000000</v>
     <v>       0.00000000      7.99386661      0.00000000</v>
     <v>       0.00000000      0.00000000      7.99386661</v>
    </varray>
    <i name="volume">    510.82329211</i>
    <varray name="rec_basis" >
     <v>       0.12509591      0.00000000      0.00000000</v>
     <v>       0.00000000      0.12509591      0.00000000</v>
     <v>       0.00000000      0.00000000      0.12509591</v>
    </varray>
   </crystal>
   <varray name="positions" >
    <v>       0.25125096      0.25000000      0.00000000</v>
    <v>       0.75000000      0.25000000      0.00000000</v>
    <v>       0.25000000      0.75000000      0.00000000</v>
    <v>       0.75000000      0.75000000      0.00000000</v>
    <v>       0.25000000      0.25000000      0.50000000</v>
    <v>       0.75000000      0.25000000      0.50000000</v>
    <v>       0.25000000      0.75000000      0.50000000</v>
    <v>       0.75000000      0.75000000      0.50000000</v>
    <v>       0.25000000      0.00000000      0.25000000</v>
    <v>       0.75000000      0.00000000      0.25000000</v>
    <v>       0.25000000      0.50000000      0.25000000</v>
    <v>       0.75000000      0.50000000      0.25000000</v>
    <v>       0.25000000      0.00000000      0.75000000</v>
    <v>       0.75000000      0.00000000      0.75000000</v>
    <v>       0.25000000      0.50000000      0.75000000</v>
    <v>       0.75000000      0.50000000      0.75000000</v>
    <v>       0.00000000      0.25000000      0.25000000</v>
    <v>       0.50000000      0.25000000      0.25000000</v>
    <v>       0.00000000      0.75000000      0.25000000</v>
    <v>       0.50000000      0.75000000      0.25000000</v>
    <v>       0.00000000      0.25000000      0.75000000</v>
    <v>       0.50000000      0.25000000      0.75000000</v>
    <v>       0.00000000      0.75000000      0.75000000</v>
    <v>       0.50000000      0.75000000      0.75000000</v>
    <v>       0.00000000      0.00000000      0.00000000</v>
    <v>       0.50000000      0.00000000      0.00000000</v>
    <v>       0.00000000      0.50000000      0.00000000</v>
    <v>       0.50000000      0.50000000      0.00000000</v>
    <v>       0.00000000      0.00000000      0.50000000</v>
    <v>       0.50000000      0.00000000      0.50000000</v>
    <v>       0.00000000      0.50000000      0.50000000</v>
    <v>       0.50000000      0.50000000      0.50000000</v>
   </varray>
  </structure>
  <varray name="forces" >
   <v>      -0.05279130      0.00000000      0.00000000</v>
   <v>       0.00236174      0.00000000     -0.00000000</v>
   <v>      -0.00011782      0.00000000      0.00000000</v>
   <v>       0.00051463      0.00000000     -0.00000000</v>
   <v>      -0.00011782      0.00000000      0.00000000</v>
   <v>       0.00051463     -0.00000000     -0.00000000</v>
   <v>       0.00060483      0.00000000      0.00000000</v>
   <v>      -0.00055035      0.00000000      0.00000000</v>
   <v>      -0.00143316      0.00002325     -0.00002325</v>
   <v>      -0.00068468     -0.00000143      0.00000143</v>
   <v>      -0.00143316     -0.00002325     -0.00002325</v>
   <v>      -0.00068468      0.00000143      0.00000143</v>
   <v>      -0.00143316      0.00002325      0.00002325</v>
   <v>      -0.00068468     -0.00000143     -0.00000143</v>
   <v>      -0.00143316     -0.00002325      0.00002325</v>
   <v>      -0.00068468      0.00000143     -0.00000143</v>
   <v>       0.00718983      0.00000000     -0.00744447</v>
   <v>       0.00735354     -0.00000000      0.00767914</v>
   <v>      -0.00001809     -0.00000000      0.00011899</v>
   <v>      -0.00001208      0.00000000     -0.00011634</v>
   <v>       0.00718983      0.00000000      0.00744447</v>
   <v>       0.00735354     -0.00000000     -0.00767914</v>
   <v>      -0.00001809     -0.00000000     -0.00011899</v>
   <v>      -0.00001208      0.00000000      0.00011634</v>
   <v>       0.00718983      0.00744447      0.00000000</v>
   <v>       0.00735354     -0.00767914      0.00000000</v>
   <v>       0.00718983     -0.00744447      0.00000000</v>
   <v>       0.00735354      0.00767914      0.00000000</v>
   <v>      -0.00001809     -0.00011899     -0.00000000</v>
   <v>      -0.00001208      0.00011634      0.00000000</v>
   <v>      -0.00001809      0.00011899     -0.00000000</v>
   <v>      -0.00001208     -0.00011634      0.00000000</v>
  </varray>
  <varray name="stress" >
   <v>      26.78985864      0.00000000      0.00000000</v>
   <v>       0.00000000     26.78933423      0.00000000</v>
   <v>       0.00000000      0.00000000     26.78933423</v>
  </varray>
  <energy>
   <i name="e_fr_energy">   -119.71995175</i>
   <i name="e_wo_entrp">   -119.71957337</i>
   <i name="e_0_energy">     -0.00075676</i>
  </energy>
  <eigenvalues>
   <array>
    <dimension dim="1">band</dimension>
    <dimension dim="2">kpoint</dimension>
    <dimension dim="3">spin</dimension>
    <field>eigene</field>
    <field>occ</field>
    <set>
     <set comment="spin 1">
      <set comment="kpoint 1">
       <r>  -3.0156  1.0000</r>
       <r>  -0.7224  1.0000</r>
       <r>  -0.7186  1.0000</r>
       <r>  -0.7186  1.0000</r>
       <r>  -0.7186  1.0000</r>
       <r>  -0.7186  1.0000</r>
       <r>  -0.7148  1.0000</r>
       <r>   1.5340  1.0000</r>
       <r>   1.5385  1.0000</r>
       <r>   1.5385  1.0000</r>
       <r>   1.5402  1.0000</r>
       <r>   1.5404  1.0000</r>
       <r>   1.5404  1.0000</r>
       <r>   1.5404  1.0000</r>
       <r>   1.5404  1.0000</r>
       <r>   1.5405  1.0000</r>
       <r>   1.5423  1.0000</r>
       <r>   1.5423  1.0000</r>
       <r>   1.5467  1.0000</r>
       <r>   3.6236  1.0000</r>
       <r>   3.6236  1.0000</r>
       <r>   3.6236  1.0000</r>
       <r>   3.6236  1.0000</r>
       <r>   3.9246  1.0000</r>
       <r>   3.9246  1.0000</r>
       <r>   3.9246  1.0000</r>
       <r>   3.9246  1.0000</r>
       <r>   5.3456  1.0000</r>
       <r>   5.3456  1.0000</r>
       <r>   5.3456  1.0000</r>
       <r>   6.7410  1.0000</r>
       <r>   6.7411  1.0000</r>
       <r>   6.7411  1.0000</r>
       <r>   7.4568  1.0000</r>
       <r>   7.4568  1.0000</r>
       <r>   7.4613  1.0000</r>
       <r>   7.4613  1.0000</r>
       <r>   7.4614  1.0000</r>
       <r>   7.4614  1.0000</r>
       <r>   7.4614  1.0000</r>
       <r>   7.4614  1.0000</r>
       <r>   7.4615  1.0000</r>
       <r>   7.4615  1.0000</r>
       <r>   7.4659  1.0000</r>
       <r>   7.4659  1.0000</r>
       <r>   8.4557  0.0000</r>
       <r>   8.4600  0.0000</r>
       <r>   8.4600  0.0000</r>
       <r>   8.4600  0.0000</r>
       <r>   8.4600  0.0000</r>
       <r>   8.4642  0.0000</r>
       <r>   9.5811  0.0000</r>
       <r>   9.5811  0.0000</r>
       <r>   9.5827  0.0000</r>
       <r>   9.5851  0.0000</r>
       <r>   9.5852  0.0000</r>
       <r>   9.5852  0.0000</r>
       <r>   9.5852  0.0000</r>
       <r>   9.5852  0.0000</r>
       <r>   9.5854  0.0000</r>
       <r>   9.5878  0.0000</r>
       <r>   9.5894  0.0000</r>
       <r>   9.5894  0.0000</r>
       <r>   9.6422  0.0000</r>
       <r>   9.6432  0.0000</r>
       <r>   9.6432  0.0000</r>
       <r>   9.6433  0.0000</r>
       <r>   9.6442  0.0000</r>
      </set>
      <set comment="kpoint 2">
       <r>  -2.9995  1.0000</r>
       <r>  -1.0828  1.0000</r>
       <r>  -0.7028  1.0000</r>
       <r>  -0.7028  1.0000</r>
       <r>  -0.7028  1.0000</r>
       <r>  -0.7028  1.0000</r>
       <r>  -0.3239  1.0000</r>
       <r>   1.1821  1.0000</r>
       <r>   1.1822  1.0000</r>
       <r>   1.1822  1.0000</r>
       <r>   1.1822  1.0000</r>
       <r>   1.5559  1.0000</r>
       <r>   1.5559  1.0000</r>
       <r>   1.5559  1.0000</r>
       <r>   1.5559  1.0000</r>
       <r>   1.9285  1.0000</r>
       <r>   1.9285  1.0000</r>
       <r>   1.9285  1.0000</r>
       <r>   1.9286  1.0000</r>
       <r>   3.3906  1.0000</r>
       <r>   3.3906  1.0000</r>
       <r>   3.3906  1.0000</r>
       <r>   3.3906  1.0000</r>
       <r>   4.1873  1.0000</r>
       <r>   4.1873  1.0000</r>
       <r>   4.1873  1.0000</r>
       <r>   4.1873  1.0000</r>
       <r>   5.0444  1.0000</r>
       <r>   5.3602  1.0000</r>
       <r>   5.3602  1.0000</r>
       <r>   6.7565  1.0000</r>
       <r>   6.7565  1.0000</r>
       <r>   7.0699  1.0000</r>
       <r>   7.1228  1.0000</r>
       <r>   7.1228  1.0000</r>
       <r>   7.1678  1.0000</r>
       <r>   7.1678  1.0000</r>
       <r>   7.1678  1.0000</r>
       <r>   7.1679  1.0000</r>
       <r>   7.4761  1.0000</r>
       <r>   7.4761  1.0000</r>
       <r>   7.4761  1.0000</r>
       <r>   7.4761  1.0000</r>
       <r>   7.8296  1.0000</r>
       <r>   7.8296  1.0000</r>
       <r>   8.3688  0.2438</r>
       <r>   8.3689  0.2416</r>
       <r>   8.6546  0.0000</r>
       <r>   8.6546  0.0000</r>
       <r>   8.6546  0.0000</r>
       <r>   8.6546  0.0000</r>
       <r>   9.2456  0.0000</r>
       <r>   9.2456  0.0000</r>
       <r>   9.2456  0.0000</r>
       <r>   9.2457  0.0000</r>
       <r>   9.3265  0.0000</r>
       <r>   9.3266  0.0000</r>
       <r>   9.3266  0.0000</r>
       <r>   9.3266  0.0000</r>
       <r>   9.7617  0.0000</r>
       <r>   9.7618  0.0000</r>
       <r>   9.7847  0.0000</r>
       <r>   9.7848  0.0000</r>
       <r>   9.7848  0.0000</r>
       <r>   9.7848  0.0000</r>
       <r>   9.9545  0.0000</r>
       <r>   9.9545  0.0000</r>
       <r>   9.9545  0.0000</r>
      </set>
      <set comment="kpoint 3">
       <r>  -2.9513  1.0000</r>
       <r>  -1.4163  1.0000</r>
       <r>  -0.6554  1.0000</r>
       <r>  -0.6553  1.0000</r>
       <r>  -0.6553  1.0000</r>
       <r>  -0.6553  1.0000</r>
       <r>   0.1010  1.0000</r>
       <r>   0.8542  1.0000</r>
       <r>   0.8542  1.0000</r>
       <r>   0.8542  1.0000</r>
       <r>   0.8542  1.0000</r>
       <r>   1.6026  1.0000</r>
       <r>   1.6026  1.0000</r>
       <r>   1.6026  1.0000</r>
       <r>   1.6026  1.0000</r>
       <r>   2.3463  1.0000</r>
       <r>   2.3463  1.0000</r>
       <r>   2.3463  1.0000</r>
       <r>   2.3463  1.0000</r>
       <r>   3.0809  1.0000</r>
       <r>   3.0809  1.0000</r>
       <r>   3.0809  1.0000</r>
       <r>   3.0810  1.0000</r>
       <r>   4.4734  1.0000</r>
       <r>   4.5861  1.0000</r>
       <r>   4.5861  1.0000</r>
       <r>   4.5861  1.0000</r>
       <r>   4.5861  1.0000</r>
       <r>   5.4042  1.0000</r>
       <r>   5.4042  1.0000</r>
       <r>   6.6185  1.0000</r>
       <r>   6.6185  1.0000</r>
       <r>   6.6185  1.0000</r>
       <r>   6.6185  1.0000</r>
       <r>   6.8026  1.0000</r>
       <r>   6.8026  1.0000</r>
       <r>   6.8139  1.0000</r>
       <r>   6.8139  1.0000</r>
       <r>   7.5203  1.0000</r>
       <r>   7.5203  1.0000</r>
       <r>   7.5203  1.0000</r>
       <r>   7.5203  1.0000</r>
       <r>   7.7238  1.0000</r>
       <r>   8.1636  1.0000</r>
       <r>   8.1636  1.0000</r>
       <r>   8.2274  1.0000</r>
       <r>   8.2274  1.0000</r>
       <r>   8.8013  0.0000</r>
       <r>   8.8013  0.0000</r>
       <r>   8.8013  0.0000</r>
       <r>   8.8013  0.0000</r>
       <r>   8.9022  0.0000</r>
       <r>   8.9022  0.0000</r>
       <r>   8.9022  0.0000</r>
       <r>   8.9023  0.0000</r>
       <r>   8.9357  0.0000</r>
       <r>   8.9357  0.0000</r>
       <r>   8.9358  0.0000</r>
       <r>   8.9358  0.0000</r>
       <r>  10.0491  0.0000</r>
       <r>  10.0491  0.0000</r>
       <r>  10.2140  0.0000</r>
       <r>  10.2140  0.0000</r>
       <r>  10.2140  0.0000</r>
       <r>  10.2144  0.0000</r>
       <r>  10.3534  0.0000</r>
       <r>  10.3534  0.0000</r>
       <r>  10.3534  0.0000</r>
      </set>
      <set comment="kpoint 4">
       <r>  -2.8709  1.0000</r>
       <r>  -1.7187  1.0000</r>
       <r>  -0.5763  1.0000</r>
       <r>  -0.5763  1.0000</r>
       <r>  -0.5763  1.0000</r>
       <r>  -0.5763  1.0000</r>
       <r>   0.5535  1.0000</r>
       <r>   0.5568  1.0000</r>
       <r>   0.5568  1.0000</r>
       <r>   0.5568  1.0000</r>
       <r>   0.5588  1.0000</r>
       <r>   1.6803  1.0000</r>
       <r>   1.6804  1.0000</r>
       <r>   1.6804  1.0000</r>
       <r>   1.6804  1.0000</r>
       <r>   2.7894  1.0000</r>
       <r>   2.7912  1.0000</r>
       <r>   2.7912  1.0000</r>
       <r>   2.7922  1.0000</r>
       <r>   2.7931  1.0000</r>
       <r>   2.7941  1.0000</r>
       <r>   2.7941  1.0000</r>
       <r>   2.7960  1.0000</r>
       <r>   3.8589  1.0000</r>
       <r>   5.0231  1.0000</r>
       <r>   5.0231  1.0000</r>
       <r>   5.0231  1.0000</r>
       <r>   5.0232  1.0000</r>
       <r>   5.4775  1.0000</r>
       <r>   5.4775  1.0000</r>
       <r>   6.0246  1.0000</r>
       <r>   6.0246  1.0000</r>
       <r>   6.0246  1.0000</r>
       <r>   6.0246  1.0000</r>
       <r>   6.5346  1.0000</r>
       <r>   6.5346  1.0000</r>
       <r>   6.8793  1.0000</r>
       <r>   6.8793  1.0000</r>
       <r>   7.5939  1.0000</r>
       <r>   7.5939  1.0000</r>
       <r>   7.5940  1.0000</r>
       <r>   7.5940  1.0000</r>
       <r>   7.9268  1.0000</r>
       <r>   7.9268  1.0000</r>
       <r>   8.2175  1.0000</r>
       <r>   8.2175  1.0000</r>
       <r>   8.2175  1.0000</r>
       <r>   8.2175  1.0000</r>
       <r>   8.4767  0.0000</r>
       <r>   8.6528  0.0000</r>
       <r>   8.6528  0.0000</r>
       <r>   8.6554  0.0000</r>
       <r>   8.6554  0.0000</r>
       <r>   8.6576  0.0000</r>
       <r>   8.6576  0.0000</r>
       <r>   9.0742  0.0000</r>
       <r>   9.0742  0.0000</r>
       <r>   9.0742  0.0000</r>
       <r>   9.0742  0.0000</r>
       <r>  10.2602  0.0000</r>
       <r>  10.2602  0.0000</r>
       <r>  10.2602  0.0000</r>
       <r>  10.2602  0.0000</r>
       <r>  10.4221  0.0000</r>
       <r>  10.4221  0.0000</r>
       <r>  10.7821  0.0000</r>
       <r>  10.7838  0.0000</r>
       <r>  10.7994  0.0000</r>
      </set>
      <set comment="kpoint 5">
       <r>  -2.7584  1.0000</r>
       <r>  -1.9898  1.0000</r>
       <r>  -0.4658  1.0000</r>
       <r>  -0.4657  1.0000</r>
       <r>  -0.4657  1.0000</r>
       <r>  -0.4657  1.0000</r>
       <r>   0.2901  1.0000</r>
       <r>   0.2901  1.0000</r>
       <r>   0.2901  1.0000</r>
       <r>   0.2901  1.0000</r>
       <r>   1.0395  1.0000</r>
       <r>   1.7891  1.0000</r>
       <r>   1.7891  1.0000</r>
       <r>   1.7891  1.0000</r>
       <r>   1.7891  1.0000</r>
       <r>   2.5314  1.0000</r>
       <r>   2.5314  1.0000</r>
       <r>   2.5314  1.0000</r>
       <r>   2.5314  1.0000</r>
       <r>   3.2495  1.0000</r>
       <r>   3.2685  1.0000</r>
       <r>   3.2685  1.0000</r>
       <r>   3.2685  1.0000</r>
       <r>   3.2686  1.0000</r>
       <r>   5.4323  1.0000</r>
       <r>   5.4323  1.0000</r>
       <r>   5.4324  1.0000</r>
       <r>   5.4324  1.0000</r>
       <r>   5.4911  1.0000</r>
       <r>   5.4911  1.0000</r>
       <r>   5.4912  1.0000</r>
       <r>   5.4912  1.0000</r>
       <r>   5.5802  1.0000</r>
       <r>   5.5802  1.0000</r>
       <r>   6.2848  1.0000</r>
       <r>   6.2848  1.0000</r>
       <r>   6.9861  1.0000</r>
       <r>   6.9861  1.0000</r>
       <r>   7.6315  1.0000</r>
       <r>   7.6315  1.0000</r>
       <r>   7.6315  1.0000</r>
       <r>   7.6316  1.0000</r>
       <r>   7.6939  1.0000</r>
       <r>   7.6939  1.0000</r>
       <r>   7.6971  1.0000</r>
       <r>   7.6971  1.0000</r>
       <r>   7.6972  1.0000</r>
       <r>   7.6972  1.0000</r>
       <r>   8.4046  0.0000</r>
       <r>   8.4046  0.0000</r>
       <r>   8.4046  0.0000</r>
       <r>   8.4046  0.0000</r>
       <r>   9.1124  0.0000</r>
       <r>   9.1124  0.0000</r>
       <r>   9.2241  0.0000</r>
       <r>   9.2241  0.0000</r>
       <r>   9.2241  0.0000</r>
       <r>   9.2241  0.0000</r>
       <r>   9.2795  0.0000</r>
       <r>  10.0004  0.0000</r>
       <r>  10.0004  0.0000</r>
       <r>  10.0004  0.0000</r>
       <r>  10.0004  0.0000</r>
       <r>  10.8438  0.0000</r>
       <r>  10.8438  0.0000</r>
       <r>  11.2389  0.0000</r>
       <r>  11.2403  0.0000</r>
       <r>  11.2406  0.0000</r>
      </set>
      <set comment="kpoint 6">
       <r>  -2.6140  1.0000</r>
       <r>  -2.2296  1.0000</r>
       <r>  -0.3238  1.0000</r>
       <r>  -0.3237  1.0000</r>
       <r>  -0.3237  1.0000</r>
       <r>  -0.3237  1.0000</r>
       <r>   0.0543  1.0000</r>
       <r>   0.0543  1.0000</r>
       <r>   0.0543  1.0000</r>
       <r>   0.0544  1.0000</r>
       <r>   1.5520  1.0000</r>
       <r>   1.9287  1.0000</r>
       <r>   1.9288  1.0000</r>
       <r>   1.9288  1.0000</r>
       <r>   1.9288  1.0000</r>
       <r>   2.3002  1.0000</r>
       <r>   2.3002  1.0000</r>
       <r>   2.3002  1.0000</r>
       <r>   2.3002  1.0000</r>
       <r>   2.6590  1.0000</r>
       <r>   3.7716  1.0000</r>
       <r>   3.7716  1.0000</r>
       <r>   3.7716  1.0000</r>
       <r>   3.7716  1.0000</r>
       <r>   4.8559  1.0000</r>
       <r>   4.8559  1.0000</r>
       <r>   4.8559  1.0000</r>
       <r>   4.8560  1.0000</r>
       <r>   5.7122  1.0000</r>
       <r>   5.7122  1.0000</r>
       <r>   5.9879  1.0000</r>
       <r>   5.9879  1.0000</r>
       <r>   5.9879  1.0000</r>
       <r>   5.9879  1.0000</r>
       <r>   6.0645  1.0000</r>
       <r>   6.0645  1.0000</r>
       <r>   7.0607  1.0000</r>
       <r>   7.0607  1.0000</r>
       <r>   7.0607  1.0000</r>
       <r>   7.0607  1.0000</r>
       <r>   7.1224  1.0000</r>
       <r>   7.1224  1.0000</r>
       <r>   7.4786  1.0000</r>
       <r>   7.4787  1.0000</r>
       <r>   7.8297  1.0000</r>
       <r>   7.8297  1.0000</r>
       <r>   7.8297  1.0000</r>
       <r>   7.8297  1.0000</r>
       <r>   8.1834  1.0000</r>
       <r>   8.1834  1.0000</r>
       <r>   8.1834  1.0000</r>
       <r>   8.1834  1.0000</r>
       <r>   9.3832  0.0000</r>
       <r>   9.3832  0.0000</r>
       <r>   9.3832  0.0000</r>
       <r>   9.3832  0.0000</r>
       <r>   9.5994  0.0000</r>
       <r>   9.5994  0.0000</r>
       <r>   9.7683  0.0000</r>
       <r>   9.7683  0.0000</r>
       <r>   9.7683  0.0000</r>
       <r>   9.7683  0.0000</r>
       <r>  10.1188  0.0000</r>
       <r>  10.6624  0.0000</r>
       <r>  10.6624  0.0000</r>
       <r>  11.2982  0.0000</r>
       <r>  11.2982  0.0000</r>
       <r>  11.7281  0.0000</r>
      </set>
      <set comment="kpoint 7">
       <r>  -2.4391  1.0000</r>
       <r>  -2.4362  1.0000</r>
       <r>  -0.1544  1.0000</r>
       <r>  -0.1512  1.0000</r>
       <r>  -0.1512  1.0000</r>
       <r>  -0.1504  1.0000</r>
       <r>  -0.1502  1.0000</r>
       <r>  -0.1495  1.0000</r>
       <r>  -0.1495  1.0000</r>
       <r>  -0.1463  1.0000</r>
       <r>   2.0902  1.0000</r>
       <r>   2.0925  1.0000</r>
       <r>   2.0975  1.0000</r>
       <r>   2.0979  1.0000</r>
       <r>   2.0979  1.0000</r>
       <r>   2.0988  1.0000</r>
       <r>   2.0996  1.0000</r>
       <r>   2.1005  1.0000</r>
       <r>   2.1005  1.0000</r>
       <r>   2.1030  1.0000</r>
       <r>   4.3005  1.0000</r>
       <r>   4.3005  1.0000</r>
       <r>   4.3007  1.0000</r>
       <r>   4.3012  1.0000</r>
       <r>   4.3015  1.0000</r>
       <r>   4.3020  1.0000</r>
       <r>   4.3022  1.0000</r>
       <r>   4.3022  1.0000</r>
       <r>   5.8721  1.0000</r>
       <r>   5.8721  1.0000</r>
       <r>   5.8752  1.0000</r>
       <r>   5.8752  1.0000</r>
       <r>   6.5107  1.0000</r>
       <r>   6.5107  1.0000</r>
       <r>   6.5112  1.0000</r>
       <r>   6.5116  1.0000</r>
       <r>   6.5119  1.0000</r>
       <r>   6.5123  1.0000</r>
       <r>   6.5128  1.0000</r>
       <r>   6.5128  1.0000</r>
       <r>   7.2852  1.0000</r>
       <r>   7.2862  1.0000</r>
       <r>   7.2880  1.0000</r>
       <r>   7.2891  1.0000</r>
       <r>   7.9894  1.0000</r>
       <r>   7.9894  1.0000</r>
       <r>   7.9903  1.0000</r>
       <r>   7.9917  1.0000</r>
       <r>   7.9919  1.0000</r>
       <r>   7.9933  1.0000</r>
       <r>   7.9942  1.0000</r>
       <r>   7.9942  1.0000</r>
       <r>   9.5609  0.0000</r>
       <r>   9.5618  0.0000</r>
       <r>   9.5618  0.0000</r>
       <r>   9.5620  0.0000</r>
       <r>   9.5643  0.0000</r>
       <r>   9.5644  0.0000</r>
       <r>   9.5644  0.0000</r>
       <r>   9.5653  0.0000</r>
       <r>  10.1150  0.0000</r>
       <r>  10.1150  0.0000</r>
       <r>  10.1173  0.0000</r>
       <r>  10.1173  0.0000</r>
       <r>  10.9885  0.0000</r>
       <r>  10.9898  0.0000</r>
       <r>  11.7754  0.0000</r>
       <r>  11.7769  0.0000</r>
      </set>
      <set comment="kpoint 8">
       <r>  -2.9995  1.0000</r>
       <r>  -1.0828  1.0000</r>
       <r>  -0.7057  1.0000</r>
       <r>  -0.7028  1.0000</r>
       <r>  -0.7028  1.0000</r>
       <r>  -0.6998  1.0000</r>
       <r>  -0.3239  1.0000</r>
       <r>   1.1792  1.0000</r>
       <r>   1.1822  1.0000</r>
       <r>   1.1822  1.0000</r>
       <r>   1.1851  1.0000</r>
       <r>   1.5538  1.0000</r>
       <r>   1.5548  1.0000</r>
       <r>   1.5571  1.0000</r>
       <r>   1.5581  1.0000</r>
       <r>   1.9256  1.0000</r>
       <r>   1.9285  1.0000</r>
       <r>   1.9285  1.0000</r>
       <r>   1.9315  1.0000</r>
       <r>   3.3886  1.0000</r>
       <r>   3.3895  1.0000</r>
       <r>   3.3917  1.0000</r>
       <r>   3.3926  1.0000</r>
       <r>   4.1853  1.0000</r>
       <r>   4.1862  1.0000</r>
       <r>   4.1884  1.0000</r>
       <r>   4.1893  1.0000</r>
       <r>   5.0444  1.0000</r>
       <r>   5.3602  1.0000</r>
       <r>   5.3602  1.0000</r>
       <r>   6.7564  1.0000</r>
       <r>   6.7565  1.0000</r>
       <r>   7.0699  1.0000</r>
       <r>   7.1227  1.0000</r>
       <r>   7.1228  1.0000</r>
       <r>   7.1646  1.0000</r>
       <r>   7.1678  1.0000</r>
       <r>   7.1678  1.0000</r>
       <r>   7.1712  1.0000</r>
       <r>   7.4733  1.0000</r>
       <r>   7.4761  1.0000</r>
       <r>   7.4761  1.0000</r>
       <r>   7.4789  1.0000</r>
       <r>   7.8296  1.0000</r>
       <r>   7.8296  1.0000</r>
       <r>   8.3688  0.2437</r>
       <r>   8.3689  0.2413</r>
       <r>   8.6517  0.0000</r>
       <r>   8.6546  0.0000</r>
       <r>   8.6546  0.0000</r>
       <r>   8.6575  0.0000</r>
       <r>   9.2428  0.0000</r>
       <r>   9.2456  0.0000</r>
       <r>   9.2456  0.0000</r>
       <r>   9.2485  0.0000</r>
       <r>   9.3238  0.0000</r>
       <r>   9.3254  0.0000</r>
       <r>   9.3277  0.0000</r>
       <r>   9.3293  0.0000</r>
       <r>   9.7617  0.0000</r>
       <r>   9.7618  0.0000</r>
       <r>   9.7838  0.0000</r>
       <r>   9.7847  0.0000</r>
       <r>   9.7848  0.0000</r>
       <r>   9.7858  0.0000</r>
       <r>   9.9538  0.0000</r>
       <r>   9.9545  0.0000</r>
       <r>   9.9573  0.0000</r>
      </set>
      <set comment="kpoint 9">
       <r>  -2.9834  1.0000</r>
       <r>  -1.0682  1.0000</r>
       <r>  -1.0658  1.0000</r>
       <r>  -0.6870  1.0000</r>
       <r>  -0.6870  1.0000</r>
       <r>  -0.3093  1.0000</r>
       <r>  -0.3069  1.0000</r>
       <r>   0.8230  1.0000</r>
       <r>   1.1961  1.0000</r>
       <r>   1.1970  1.0000</r>
       <r>   1.1985  1.0000</r>
       <r>   1.1995  1.0000</r>
       <r>   1.5709  1.0000</r>
       <r>   1.5719  1.0000</r>
       <r>   1.9424  1.0000</r>
       <r>   1.9433  1.0000</r>
       <r>   1.9448  1.0000</r>
       <r>   1.9458  1.0000</r>
       <r>   2.3155  1.0000</r>
       <r>   3.0504  1.0000</r>
       <r>   3.0504  1.0000</r>
       <r>   3.6533  1.0000</r>
       <r>   3.6533  1.0000</r>
       <r>   3.9560  1.0000</r>
       <r>   3.9560  1.0000</r>
       <r>   4.5556  1.0000</r>
       <r>   4.5557  1.0000</r>
       <r>   5.0589  1.0000</r>
       <r>   5.0596  1.0000</r>
       <r>   5.3749  1.0000</r>
       <r>   6.7718  1.0000</r>
       <r>   6.8319  1.0000</r>
       <r>   6.8342  1.0000</r>
       <r>   7.0847  1.0000</r>
       <r>   7.0854  1.0000</r>
       <r>   7.1139  1.0000</r>
       <r>   7.1140  1.0000</r>
       <r>   7.1362  1.0000</r>
       <r>   7.1390  1.0000</r>
       <r>   7.2639  1.0000</r>
       <r>   7.2639  1.0000</r>
       <r>   7.5221  1.0000</r>
       <r>   7.5239  1.0000</r>
       <r>   7.8429  1.0000</r>
       <r>   7.8457  1.0000</r>
       <r>   8.5052  0.0000</r>
       <r>   8.5075  0.0000</r>
       <r>   8.6320  0.0000</r>
       <r>   8.6348  0.0000</r>
       <r>   8.8675  0.0000</r>
       <r>   8.8675  0.0000</r>
       <r>   8.9062  0.0000</r>
       <r>   8.9841  0.0000</r>
       <r>   8.9850  0.0000</r>
       <r>   8.9865  0.0000</r>
       <r>   8.9874  0.0000</r>
       <r>   9.6138  0.0000</r>
       <r>   9.6157  0.0000</r>
       <r>   9.6955  0.0000</r>
       <r>   9.6965  0.0000</r>
       <r>   9.6970  0.0000</r>
       <r>   9.6980  0.0000</r>
       <r>   9.8294  0.0000</r>
       <r>   9.8300  0.0000</r>
       <r>   9.8952  0.0000</r>
       <r>   9.8952  0.0000</r>
       <r>   9.9726  0.0000</r>
       <r>   9.9742  0.0000</r>
      </set>
      <set comment="kpoint 10">
       <r>  -2.9352  1.0000</r>
       <r>  -1.4004  1.0000</r>
       <r>  -1.0194  1.0000</r>
       <r>  -0.6395  1.0000</r>
       <r>  -0.6395  1.0000</r>
       <r>  -0.2608  1.0000</r>
       <r>   0.1167  1.0000</r>
       <r>   0.4942  1.0000</r>
       <r>   0.8699  1.0000</r>
       <r>   0.8699  1.0000</r>
       <r>   1.2438  1.0000</r>
       <r>   1.2446  1.0000</r>
       <r>   1.2452  1.0000</r>
       <r>   1.9897  1.0000</r>
       <r>   1.9906  1.0000</r>
       <r>   1.9911  1.0000</r>
       <r>   2.3617  1.0000</r>
       <r>   2.3617  1.0000</r>
       <r>   2.7306  1.0000</r>
       <r>   2.7308  1.0000</r>
       <r>   2.7321  1.0000</r>
       <r>   3.4512  1.0000</r>
       <r>   3.4512  1.0000</r>
       <r>   4.2487  1.0000</r>
       <r>   4.2487  1.0000</r>
       <r>   4.4885  1.0000</r>
       <r>   4.9627  1.0000</r>
       <r>   4.9628  1.0000</r>
       <r>   5.1038  1.0000</r>
       <r>   5.4189  1.0000</r>
       <r>   6.2811  1.0000</r>
       <r>   6.5247  1.0000</r>
       <r>   6.6243  1.0000</r>
       <r>   6.6243  1.0000</r>
       <r>   6.8179  1.0000</r>
       <r>   6.8286  1.0000</r>
       <r>   6.9789  1.0000</r>
       <r>   7.1306  1.0000</r>
       <r>   7.1817  1.0000</r>
       <r>   7.2560  1.0000</r>
       <r>   7.2560  1.0000</r>
       <r>   7.7387  1.0000</r>
       <r>   7.8578  1.0000</r>
       <r>   7.8885  1.0000</r>
       <r>   8.2422  1.0000</r>
       <r>   8.3306  1.0000</r>
       <r>   8.4588  0.0000</r>
       <r>   8.4588  0.0000</r>
       <r>   8.4605  0.0000</r>
       <r>   8.5964  0.0000</r>
       <r>   8.6530  0.0000</r>
       <r>   8.6744  0.0000</r>
       <r>   8.6745  0.0000</r>
       <r>   9.0584  0.0000</r>
       <r>   9.1620  0.0000</r>
       <r>   9.1623  0.0000</r>
       <r>   9.1732  0.0000</r>
       <r>   9.1735  0.0000</r>
       <r>   9.3047  0.0000</r>
       <r>  10.0136  0.0000</r>
       <r>  10.0841  0.0000</r>
       <r>  10.0843  0.0000</r>
       <r>  10.0963  0.0000</r>
       <r>  10.0964  0.0000</r>
       <r>  10.2045  0.0000</r>
       <r>  10.2697  0.0000</r>
       <r>  10.2697  0.0000</r>
       <r>  10.2941  0.0000</r>
      </set>
      <set comment="kpoint 11">
       <r>  -2.8548  1.0000</r>
       <r>  -1.7027  1.0000</r>
       <r>  -0.9402  1.0000</r>
       <r>  -0.5605  1.0000</r>
       <r>  -0.5605  1.0000</r>
       <r>  -0.1820  1.0000</r>
       <r>   0.1959  1.0000</r>
       <r>   0.5699  1.0000</r>
       <r>   0.5725  1.0000</r>
       <r>   0.5738  1.0000</r>
       <r>   0.9478  1.0000</r>
       <r>   1.3225  1.0000</r>
       <r>   1.3225  1.0000</r>
       <r>   2.0680  1.0000</r>
       <r>   2.0681  1.0000</r>
       <r>   2.4368  1.0000</r>
       <r>   2.4390  1.0000</r>
       <r>   2.4405  1.0000</r>
       <r>   2.8085  1.0000</r>
       <r>   2.8085  1.0000</r>
       <r>   3.1720  1.0000</r>
       <r>   3.1726  1.0000</r>
       <r>   3.1780  1.0000</r>
       <r>   3.8741  1.0000</r>
       <r>   4.6773  1.0000</r>
       <r>   4.6773  1.0000</r>
       <r>   5.1780  1.0000</r>
       <r>   5.4013  1.0000</r>
       <r>   5.4013  1.0000</r>
       <r>   5.4922  1.0000</r>
       <r>   5.6831  1.0000</r>
       <r>   6.0366  1.0000</r>
       <r>   6.0366  1.0000</r>
       <r>   6.2446  1.0000</r>
       <r>   6.3919  1.0000</r>
       <r>   6.5493  1.0000</r>
       <r>   6.8944  1.0000</r>
       <r>   7.2062  1.0000</r>
       <r>   7.2553  1.0000</r>
       <r>   7.3261  1.0000</r>
       <r>   7.3262  1.0000</r>
       <r>   7.8736  1.0000</r>
       <r>   7.8736  1.0000</r>
       <r>   7.8933  1.0000</r>
       <r>   7.9622  1.0000</r>
       <r>   8.2357  1.0000</r>
       <r>   8.3161  1.0000</r>
       <r>   8.3926  0.0000</r>
       <r>   8.3927  0.0000</r>
       <r>   8.4717  0.0000</r>
       <r>   8.4913  0.0000</r>
       <r>   8.5907  0.0000</r>
       <r>   8.5907  0.0000</r>
       <r>   8.6698  0.0000</r>
       <r>   8.7734  0.0000</r>
       <r>   9.0243  0.0000</r>
       <r>   9.3574  0.0000</r>
       <r>   9.3579  0.0000</r>
       <r>   9.3580  0.0000</r>
       <r>   9.9169  0.0000</r>
       <r>  10.4421  0.0000</r>
       <r>  10.4458  0.0000</r>
       <r>  10.5249  0.0000</r>
       <r>  10.5250  0.0000</r>
       <r>  10.5497  0.0000</r>
       <r>  10.5526  0.0000</r>
       <r>  10.5992  0.0000</r>
       <r>  10.6340  0.0000</r>
      </set>
      <set comment="kpoint 12">
       <r>  -2.7424  1.0000</r>
       <r>  -1.9739  1.0000</r>
       <r>  -0.8293  1.0000</r>
       <r>  -0.4500  1.0000</r>
       <r>  -0.4500  1.0000</r>
       <r>  -0.0722  1.0000</r>
       <r>  -0.0710  1.0000</r>
       <r>   0.3058  1.0000</r>
       <r>   0.3058  1.0000</r>
       <r>   0.6819  1.0000</r>
       <r>   1.0551  1.0000</r>
       <r>   1.4316  1.0000</r>
       <r>   1.4316  1.0000</r>
       <r>   2.1757  1.0000</r>
       <r>   2.1761  1.0000</r>
       <r>   2.1769  1.0000</r>
       <r>   2.1773  1.0000</r>
       <r>   2.9146  1.0000</r>
       <r>   2.9149  1.0000</r>
       <r>   2.9155  1.0000</r>
       <r>   3.2649  1.0000</r>
       <r>   3.2838  1.0000</r>
       <r>   3.2838  1.0000</r>
       <r>   3.6512  1.0000</r>
       <r>   5.0874  1.0000</r>
       <r>   5.1437  1.0000</r>
       <r>   5.1437  1.0000</r>
       <r>   5.2820  1.0000</r>
       <r>   5.4461  1.0000</r>
       <r>   5.4462  1.0000</r>
       <r>   5.5949  1.0000</r>
       <r>   5.8046  1.0000</r>
       <r>   5.8693  1.0000</r>
       <r>   5.8693  1.0000</r>
       <r>   5.9934  1.0000</r>
       <r>   6.2995  1.0000</r>
       <r>   7.0008  1.0000</r>
       <r>   7.2865  1.0000</r>
       <r>   7.2865  1.0000</r>
       <r>   7.3115  1.0000</r>
       <r>   7.3584  1.0000</r>
       <r>   7.4290  1.0000</r>
       <r>   7.4290  1.0000</r>
       <r>   7.6962  1.0000</r>
       <r>   8.0055  1.0000</r>
       <r>   8.0060  1.0000</r>
       <r>   8.0092  1.0000</r>
       <r>   8.0647  1.0000</r>
       <r>   8.0663  1.0000</r>
       <r>   8.1405  1.0000</r>
       <r>   8.1405  1.0000</r>
       <r>   8.7734  0.0000</r>
       <r>   8.8861  0.0000</r>
       <r>   8.9011  0.0000</r>
       <r>   9.1271  0.0000</r>
       <r>   9.2938  0.0000</r>
       <r>   9.5150  0.0000</r>
       <r>   9.5150  0.0000</r>
       <r>   9.5580  0.0000</r>
       <r>   9.6576  0.0000</r>
       <r>  10.2913  0.0000</r>
       <r>  10.2913  0.0000</r>
       <r>  10.3693  0.0000</r>
       <r>  10.8631  0.0000</r>
       <r>  10.9003  0.0000</r>
       <r>  10.9802  0.0000</r>
       <r>  10.9827  0.0000</r>
       <r>  10.9836  0.0000</r>
      </set>
      <set comment="kpoint 13">
       <r>  -2.5980  1.0000</r>
       <r>  -2.2136  1.0000</r>
       <r>  -0.6869  1.0000</r>
       <r>  -0.3093  1.0000</r>
       <r>  -0.3079  1.0000</r>
       <r>  -0.3065  1.0000</r>
       <r>   0.0686  1.0000</r>
       <r>   0.0701  1.0000</r>
       <r>   0.0714  1.0000</r>
       <r>   0.4468  1.0000</r>
       <r>   1.5672  1.0000</r>
       <r>   1.5717  1.0000</r>
       <r>   1.5721  1.0000</r>
       <r>   1.9444  1.0000</r>
       <r>   1.9444  1.0000</r>
       <r>   2.3156  1.0000</r>
       <r>   2.3156  1.0000</r>
       <r>   2.6742  1.0000</r>
       <r>   2.6853  1.0000</r>
       <r>   2.6855  1.0000</r>
       <r>   3.4199  1.0000</r>
       <r>   3.7868  1.0000</r>
       <r>   3.7868  1.0000</r>
       <r>   4.1524  1.0000</r>
       <r>   4.5083  1.0000</r>
       <r>   4.8705  1.0000</r>
       <r>   4.8705  1.0000</r>
       <r>   5.2318  1.0000</r>
       <r>   5.4155  1.0000</r>
       <r>   5.6404  1.0000</r>
       <r>   5.6404  1.0000</r>
       <r>   5.7269  1.0000</r>
       <r>   5.7714  1.0000</r>
       <r>   6.0792  1.0000</r>
       <r>   6.3654  1.0000</r>
       <r>   6.3654  1.0000</r>
       <r>   6.7146  1.0000</r>
       <r>   6.7146  1.0000</r>
       <r>   7.1365  1.0000</r>
       <r>   7.4362  1.0000</r>
       <r>   7.4363  1.0000</r>
       <r>   7.4461  1.0000</r>
       <r>   7.4889  1.0000</r>
       <r>   7.4909  1.0000</r>
       <r>   7.5621  1.0000</r>
       <r>   7.5621  1.0000</r>
       <r>   7.7971  1.0000</r>
       <r>   7.8445  1.0000</r>
       <r>   7.9180  1.0000</r>
       <r>   7.9180  1.0000</r>
       <r>   8.1981  1.0000</r>
       <r>   8.5521  0.0000</r>
       <r>   9.0498  0.0000</r>
       <r>   9.3611  0.0000</r>
       <r>   9.4268  0.0000</r>
       <r>   9.6142  0.0000</r>
       <r>   9.6760  0.0000</r>
       <r>   9.6760  0.0000</r>
       <r>   9.7370  0.0000</r>
       <r>  10.0603  0.0000</r>
       <r>  10.0603  0.0000</r>
       <r>  10.1326  0.0000</r>
       <r>  10.1353  0.0000</r>
       <r>  10.4119  0.0000</r>
       <r>  10.6772  0.0000</r>
       <r>  11.3154  0.0000</r>
       <r>  11.3886  0.0000</r>
       <r>  11.4691  0.0000</r>
      </set>
      <set comment="kpoint 14">
       <r>  -2.4231  1.0000</r>
       <r>  -2.4202  1.0000</r>
       <r>  -0.5145  1.0000</r>
       <r>  -0.5116  1.0000</r>
       <r>  -0.1366  1.0000</r>
       <r>  -0.1354  1.0000</r>
       <r>  -0.1337  1.0000</r>
       <r>  -0.1325  1.0000</r>
       <r>   0.2413  1.0000</r>
       <r>   0.2442  1.0000</r>
       <r>   1.7406  1.0000</r>
       <r>   1.7418  1.0000</r>
       <r>   1.7435  1.0000</r>
       <r>   1.7447  1.0000</r>
       <r>   2.1072  1.0000</r>
       <r>   2.1085  1.0000</r>
       <r>   2.4832  1.0000</r>
       <r>   2.4845  1.0000</r>
       <r>   2.4862  1.0000</r>
       <r>   2.4874  1.0000</r>
       <r>   3.9509  1.0000</r>
       <r>   3.9522  1.0000</r>
       <r>   4.3154  1.0000</r>
       <r>   4.3159  1.0000</r>
       <r>   4.3167  1.0000</r>
       <r>   4.3172  1.0000</r>
       <r>   4.6793  1.0000</r>
       <r>   4.6806  1.0000</r>
       <r>   5.5771  1.0000</r>
       <r>   5.5802  1.0000</r>
       <r>   5.8867  1.0000</r>
       <r>   5.8899  1.0000</r>
       <r>   6.1640  1.0000</r>
       <r>   6.1642  1.0000</r>
       <r>   6.1654  1.0000</r>
       <r>   6.1656  1.0000</r>
       <r>   6.8876  1.0000</r>
       <r>   6.8878  1.0000</r>
       <r>   6.8890  1.0000</r>
       <r>   6.8892  1.0000</r>
       <r>   7.2986  1.0000</r>
       <r>   7.3015  1.0000</r>
       <r>   7.6069  1.0000</r>
       <r>   7.6098  1.0000</r>
       <r>   7.6513  1.0000</r>
       <r>   7.6545  1.0000</r>
       <r>   7.7229  1.0000</r>
       <r>   7.7243  1.0000</r>
       <r>   7.7260  1.0000</r>
       <r>   7.7274  1.0000</r>
       <r>   8.3587  0.7675</r>
       <r>   8.3619  0.6107</r>
       <r>   9.2230  0.0000</r>
       <r>   9.2259  0.0000</r>
       <r>   9.8541  0.0000</r>
       <r>   9.8547  0.0000</r>
       <r>   9.8571  0.0000</r>
       <r>   9.8577  0.0000</r>
       <r>   9.8703  0.0000</r>
       <r>   9.8724  0.0000</r>
       <r>   9.9243  0.0000</r>
       <r>   9.9274  0.0000</r>
       <r>  10.1298  0.0000</r>
       <r>  10.1321  0.0000</r>
       <r>  11.0019  0.0000</r>
       <r>  11.0031  0.0000</r>
       <r>  11.7921  0.0000</r>
       <r>  11.7963  0.0000</r>
      </set>
      <set comment="kpoint 15">
       <r>  -2.9513  1.0000</r>
       <r>  -1.4163  1.0000</r>
       <r>  -0.6583  1.0000</r>
       <r>  -0.6553  1.0000</r>
       <r>  -0.6553  1.0000</r>
       <r>  -0.6524  1.0000</r>
       <r>   0.1010  1.0000</r>
       <r>   0.8513  1.0000</r>
       <r>   0.8542  1.0000</r>
       <r>   0.8542  1.0000</r>
       <r>   0.8572  1.0000</r>
       <r>   1.6005  1.0000</r>
       <r>   1.6014  1.0000</r>
       <r>   1.6038  1.0000</r>
       <r>   1.6048  1.0000</r>
       <r>   2.3433  1.0000</r>
       <r>   2.3463  1.0000</r>
       <r>   2.3463  1.0000</r>
       <r>   2.3493  1.0000</r>
       <r>   3.0788  1.0000</r>
       <r>   3.0798  1.0000</r>
       <r>   3.0821  1.0000</r>
       <r>   3.0831  1.0000</r>
       <r>   4.4734  1.0000</r>
       <r>   4.5839  1.0000</r>
       <r>   4.5849  1.0000</r>
       <r>   4.5873  1.0000</r>
       <r>   4.5882  1.0000</r>
       <r>   5.4042  1.0000</r>
       <r>   5.4042  1.0000</r>
       <r>   6.6153  1.0000</r>
       <r>   6.6185  1.0000</r>
       <r>   6.6185  1.0000</r>
       <r>   6.6217  1.0000</r>
       <r>   6.8025  1.0000</r>
       <r>   6.8026  1.0000</r>
       <r>   6.8139  1.0000</r>
       <r>   6.8141  1.0000</r>
       <r>   7.5175  1.0000</r>
       <r>   7.5203  1.0000</r>
       <r>   7.5203  1.0000</r>
       <r>   7.5231  1.0000</r>
       <r>   7.7238  1.0000</r>
       <r>   8.1636  1.0000</r>
       <r>   8.1636  1.0000</r>
       <r>   8.2275  1.0000</r>
       <r>   8.2275  1.0000</r>
       <r>   8.7988  0.0000</r>
       <r>   8.8001  0.0000</r>
       <r>   8.8025  0.0000</r>
       <r>   8.8039  0.0000</r>
       <r>   8.8996  0.0000</r>
       <r>   8.9022  0.0000</r>
       <r>   8.9023  0.0000</r>
       <r>   8.9049  0.0000</r>
       <r>   8.9329  0.0000</r>
       <r>   8.9357  0.0000</r>
       <r>   8.9358  0.0000</r>
       <r>   8.9385  0.0000</r>
       <r>  10.0491  0.0000</r>
       <r>  10.0491  0.0000</r>
       <r>  10.2123  0.0000</r>
       <r>  10.2140  0.0000</r>
       <r>  10.2140  0.0000</r>
       <r>  10.2157  0.0000</r>
       <r>  10.3510  0.0000</r>
       <r>  10.3534  0.0000</r>
       <r>  10.3545  0.0000</r>
      </set>
      <set comment="kpoint 16">
       <r>  -2.9352  1.0000</r>
       <r>  -1.4004  1.0000</r>
       <r>  -1.0194  1.0000</r>
       <r>  -0.6395  1.0000</r>
       <r>  -0.6395  1.0000</r>
       <r>  -0.2608  1.0000</r>
       <r>   0.1167  1.0000</r>
       <r>   0.4942  1.0000</r>
       <r>   0.8698  1.0000</r>
       <r>   0.8699  1.0000</r>
       <r>   1.2431  1.0000</r>
       <r>   1.2446  1.0000</r>
       <r>   1.2459  1.0000</r>
       <r>   1.9890  1.0000</r>
       <r>   1.9906  1.0000</r>
       <r>   1.9918  1.0000</r>
       <r>   2.3617  1.0000</r>
       <r>   2.3617  1.0000</r>
       <r>   2.7306  1.0000</r>
       <r>   2.7308  1.0000</r>
       <r>   2.7321  1.0000</r>
       <r>   3.4512  1.0000</r>
       <r>   3.4512  1.0000</r>
       <r>   4.2487  1.0000</r>
       <r>   4.2487  1.0000</r>
       <r>   4.4885  1.0000</r>
       <r>   4.9627  1.0000</r>
       <r>   4.9628  1.0000</r>
       <r>   5.1038  1.0000</r>
       <r>   5.4189  1.0000</r>
       <r>   6.2811  1.0000</r>
       <r>   6.5247  1.0000</r>
       <r>   6.6243  1.0000</r>
       <r>   6.6244  1.0000</r>
       <r>   6.8179  1.0000</r>
       <r>   6.8286  1.0000</r>
       <r>   6.9789  1.0000</r>
       <r>   7.1306  1.0000</r>
       <r>   7.1817  1.0000</r>
       <r>   7.2560  1.0000</r>
       <r>   7.2560  1.0000</r>
       <r>   7.7387  1.0000</r>
       <r>   7.8579  1.0000</r>
       <r>   7.8885  1.0000</r>
       <r>   8.2422  1.0000</r>
       <r>   8.3306  1.0000</r>
       <r>   8.4588  0.0000</r>
       <r>   8.4588  0.0000</r>
       <r>   8.4604  0.0000</r>
       <r>   8.5963  0.0000</r>
       <r>   8.6530  0.0000</r>
       <r>   8.6745  0.0000</r>
       <r>   8.6745  0.0000</r>
       <r>   9.0584  0.0000</r>
       <r>   9.1624  0.0000</r>
       <r>   9.1624  0.0000</r>
       <r>   9.1731  0.0000</r>
       <r>   9.1731  0.0000</r>
       <r>   9.3047  0.0000</r>
       <r>  10.0136  0.0000</r>
       <r>  10.0840  0.0000</r>
       <r>  10.0845  0.0000</r>
       <r>  10.0963  0.0000</r>
       <r>  10.0964  0.0000</r>
       <r>  10.2045  0.0000</r>
       <r>  10.2697  0.0000</r>
       <r>  10.2698  0.0000</r>
       <r>  10.2942  0.0000</r>
      </set>
      <set comment="kpoint 17">
       <r>  -2.8869  1.0000</r>
       <r>  -1.3539  1.0000</r>
       <r>  -1.3515  1.0000</r>
       <r>  -0.5921  1.0000</r>
       <r>  -0.5921  1.0000</r>
       <r>   0.1621  1.0000</r>
       <r>   0.1641  1.0000</r>
       <r>   0.1660  1.0000</r>
       <r>   0.9151  1.0000</r>
       <r>   0.9160  1.0000</r>
       <r>   0.9175  1.0000</r>
       <r>   0.9185  1.0000</r>
       <r>   1.6638  1.0000</r>
       <r>   1.6648  1.0000</r>
       <r>   2.4056  1.0000</r>
       <r>   2.4068  1.0000</r>
       <r>   2.4081  1.0000</r>
       <r>   2.4081  1.0000</r>
       <r>   2.4094  1.0000</r>
       <r>   2.4106  1.0000</r>
       <r>   3.1470  1.0000</r>
       <r>   3.7424  1.0000</r>
       <r>   3.7424  1.0000</r>
       <r>   4.0499  1.0000</r>
       <r>   4.0499  1.0000</r>
       <r>   4.5332  1.0000</r>
       <r>   4.5341  1.0000</r>
       <r>   5.3713  1.0000</r>
       <r>   5.3713  1.0000</r>
       <r>   5.4629  1.0000</r>
       <r>   5.9691  1.0000</r>
       <r>   5.9715  1.0000</r>
       <r>   6.5555  1.0000</r>
       <r>   6.5555  1.0000</r>
       <r>   6.8313  1.0000</r>
       <r>   6.8313  1.0000</r>
       <r>   6.8637  1.0000</r>
       <r>   6.8714  1.0000</r>
       <r>   6.8742  1.0000</r>
       <r>   7.3487  1.0000</r>
       <r>   7.3507  1.0000</r>
       <r>   7.7829  1.0000</r>
       <r>   7.7839  1.0000</r>
       <r>   8.1441  1.0000</r>
       <r>   8.1450  1.0000</r>
       <r>   8.1465  1.0000</r>
       <r>   8.1476  1.0000</r>
       <r>   8.2842  1.0000</r>
       <r>   8.2865  1.0000</r>
       <r>   8.2889  1.0000</r>
       <r>   8.4035  0.0000</r>
       <r>   8.4051  0.0000</r>
       <r>   9.0161  0.0000</r>
       <r>   9.0187  0.0000</r>
       <r>   9.5726  0.0000</r>
       <r>   9.5736  0.0000</r>
       <r>   9.5740  0.0000</r>
       <r>   9.5749  0.0000</r>
       <r>   9.6062  0.0000</r>
       <r>   9.6064  0.0000</r>
       <r>   9.7025  0.0000</r>
       <r>   9.7044  0.0000</r>
       <r>   9.8887  0.0000</r>
       <r>  10.2091  0.0000</r>
       <r>  10.2098  0.0000</r>
       <r>  10.4910  0.0000</r>
       <r>  10.4910  0.0000</r>
       <r>  10.8558  0.0000</r>
      </set>
      <set comment="kpoint 18">
       <r>  -2.8066  1.0000</r>
       <r>  -1.6550  1.0000</r>
       <r>  -1.2733  1.0000</r>
       <r>  -0.5131  1.0000</r>
       <r>  -0.5131  1.0000</r>
       <r>  -0.1344  1.0000</r>
       <r>   0.2424  1.0000</r>
       <r>   0.6169  1.0000</r>
       <r>   0.6195  1.0000</r>
       <r>   0.6208  1.0000</r>
       <r>   0.9949  1.0000</r>
       <r>   0.9949  1.0000</r>
       <r>   1.3687  1.0000</r>
       <r>   2.1123  1.0000</r>
       <r>   2.1148  1.0000</r>
       <r>   2.1161  1.0000</r>
       <r>   2.4852  1.0000</r>
       <r>   2.4852  1.0000</r>
       <r>   2.8546  1.0000</r>
       <r>   2.8546  1.0000</r>
       <r>   3.5722  1.0000</r>
       <r>   3.5723  1.0000</r>
       <r>   3.5910  1.0000</r>
       <r>   3.9197  1.0000</r>
       <r>   4.3714  1.0000</r>
       <r>   4.3714  1.0000</r>
       <r>   4.6089  1.0000</r>
       <r>   5.3693  1.0000</r>
       <r>   5.5362  1.0000</r>
       <r>   5.6877  1.0000</r>
       <r>   5.8098  1.0000</r>
       <r>   5.8098  1.0000</r>
       <r>   6.0658  1.0000</r>
       <r>   6.0658  1.0000</r>
       <r>   6.5934  1.0000</r>
       <r>   6.7802  1.0000</r>
       <r>   6.8047  1.0000</r>
       <r>   6.8048  1.0000</r>
       <r>   6.9395  1.0000</r>
       <r>   6.9463  1.0000</r>
       <r>   7.5592  1.0000</r>
       <r>   7.5592  1.0000</r>
       <r>   7.6609  1.0000</r>
       <r>   7.8576  1.0000</r>
       <r>   7.8624  1.0000</r>
       <r>   7.8624  1.0000</r>
       <r>   8.0066  1.0000</r>
       <r>   8.2541  1.0000</r>
       <r>   8.3602  0.7005</r>
       <r>   8.4901  0.0000</r>
       <r>   8.5352  0.0000</r>
       <r>   8.7141  0.0000</r>
       <r>   8.8432  0.0000</r>
       <r>   8.9928  0.0000</r>
       <r>   8.9928  0.0000</r>
       <r>   9.4228  0.0000</r>
       <r>   9.5330  0.0000</r>
       <r>   9.6011  0.0000</r>
       <r>   9.9165  0.0000</r>
       <r>   9.9165  0.0000</r>
       <r>  10.0034  0.0000</r>
       <r>  10.0034  0.0000</r>
       <r>  10.1318  0.0000</r>
       <r>  10.5077  0.0000</r>
       <r>  10.5229  0.0000</r>
       <r>  10.9829  0.0000</r>
       <r>  10.9889  0.0000</r>
       <r>  11.0315  0.0000</r>
      </set>
      <set comment="kpoint 19">
       <r>  -2.6942  1.0000</r>
       <r>  -1.9260  1.0000</r>
       <r>  -1.1621  1.0000</r>
       <r>  -0.4039  1.0000</r>
       <r>  -0.4026  1.0000</r>
       <r>  -0.4011  1.0000</r>
       <r>   0.3512  1.0000</r>
       <r>   0.3529  1.0000</r>
       <r>   0.3540  1.0000</r>
       <r>   1.1007  1.0000</r>
       <r>   1.1037  1.0000</r>
       <r>   1.1043  1.0000</r>
       <r>   1.1054  1.0000</r>
       <r>   1.8514  1.0000</r>
       <r>   1.8514  1.0000</r>
       <r>   2.5914  1.0000</r>
       <r>   2.5931  1.0000</r>
       <r>   2.5934  1.0000</r>
       <r>   3.3107  1.0000</r>
       <r>   3.3248  1.0000</r>
       <r>   3.3250  1.0000</r>
       <r>   3.3298  1.0000</r>
       <r>   3.3302  1.0000</r>
       <r>   4.0627  1.0000</r>
       <r>   4.7142  1.0000</r>
       <r>   4.7710  1.0000</r>
[...]
       <r>   2.6694  1.0000</r>
       <r>   3.0290  1.0000</r>
       <r>   3.0308  1.0000</r>
       <r>   3.0326  1.0000</r>
       <r>   3.0329  1.0000</r>
       <r>   3.0330  1.0000</r>
       <r>   3.0333  1.0000</r>
       <r>   3.0351  1.0000</r>
       <r>   3.0370  1.0000</r>
       <r>   3.3965  1.0000</r>
       <r>   3.3984  1.0000</r>
       <r>   3.4001  1.0000</r>
       <r>   3.4005  1.0000</r>
       <r>   3.4006  1.0000</r>
       <r>   3.4009  1.0000</r>
       <r>   3.4027  1.0000</r>
       <r>   3.4045  1.0000</r>
       <r>   3.7594  1.0000</r>
       <r>   3.7619  1.0000</r>
       <r>   3.7623  1.0000</r>
       <r>   3.7649  1.0000</r>
       <r>   7.0547  1.0000</r>
       <r>   7.0566  1.0000</r>
       <r>   7.0586  1.0000</r>
       <r>   7.0589  1.0000</r>
       <r>   7.0590  1.0000</r>
       <r>   7.0592  1.0000</r>
       <r>   7.0612  1.0000</r>
       <r>   7.0631  1.0000</r>
       <r>   7.4087  1.0000</r>
       <r>   7.4100  1.0000</r>
       <r>   7.4101  1.0000</r>
       <r>   7.4114  1.0000</r>
       <r>   7.7725  1.0000</r>
       <r>   7.7738  1.0000</r>
       <r>   7.7739  1.0000</r>
       <r>   7.7752  1.0000</r>
       <r>   8.1159  1.0000</r>
       <r>   8.1180  1.0000</r>
       <r>   8.1199  1.0000</r>
       <r>   8.1202  1.0000</r>
       <r>   8.1203  1.0000</r>
       <r>   8.1205  1.0000</r>
       <r>   8.1225  1.0000</r>
       <r>   8.1246  1.0000</r>
       <r>  11.2310  0.0000</r>
       <r>  11.2333  0.0000</r>
       <r>  11.2341  0.0000</r>
       <r>  11.2363  0.0000</r>
       <r>  11.3440  0.0000</r>
       <r>  11.3452  0.0000</r>
       <r>  11.3456  0.0000</r>
       <r>  11.3468  0.0000</r>
       <r>  11.9284  0.0000</r>
       <r>  11.9290  0.0000</r>
       <r>  11.9300  0.0000</r>
       <r>  11.9308  0.0000</r>
      </set>
      <set comment="kpoint 190">
       <r>  -1.8622  1.0000</r>
       <r>  -1.8622  1.0000</r>
       <r>  -1.8622  1.0000</r>
       <r>  -1.8622  1.0000</r>
       <r>   0.4105  1.0000</r>
       <r>   0.4150  1.0000</r>
       <r>   0.4150  1.0000</r>
       <r>   0.4156  1.0000</r>
       <r>   0.4158  1.0000</r>
       <r>   0.4164  1.0000</r>
       <r>   0.4164  1.0000</r>
       <r>   0.4210  1.0000</r>
       <r>   2.6484  1.0000</r>
       <r>   2.6484  1.0000</r>
       <r>   2.6484  1.0000</r>
       <r>   2.6484  1.0000</r>
       <r>   2.6484  1.0000</r>
       <r>   2.6484  1.0000</r>
       <r>   2.6484  1.0000</r>
       <r>   2.6484  1.0000</r>
       <r>   4.6894  1.0000</r>
       <r>   4.6894  1.0000</r>
       <r>   4.6909  1.0000</r>
       <r>   4.6910  1.0000</r>
       <r>   4.6910  1.0000</r>
       <r>   4.6910  1.0000</r>
       <r>   4.6925  1.0000</r>
       <r>   4.6925  1.0000</r>
       <r>   5.0341  1.0000</r>
       <r>   5.0341  1.0000</r>
       <r>   5.0358  1.0000</r>
       <r>   5.0358  1.0000</r>
       <r>   5.0358  1.0000</r>
       <r>   5.0359  1.0000</r>
       <r>   5.0376  1.0000</r>
       <r>   5.0376  1.0000</r>
       <r>   6.4024  1.0000</r>
       <r>   6.4024  1.0000</r>
       <r>   6.4024  1.0000</r>
       <r>   6.4024  1.0000</r>
       <r>   6.9279  1.0000</r>
       <r>   6.9279  1.0000</r>
       <r>   6.9279  1.0000</r>
       <r>   6.9279  1.0000</r>
       <r>   8.0131  1.0000</r>
       <r>   8.0131  1.0000</r>
       <r>   8.0131  1.0000</r>
       <r>   8.0131  1.0000</r>
       <r>   9.1969  0.0000</r>
       <r>   9.1969  0.0000</r>
       <r>   9.1974  0.0000</r>
       <r>   9.1985  0.0000</r>
       <r>   9.2000  0.0000</r>
       <r>   9.2012  0.0000</r>
       <r>   9.2016  0.0000</r>
       <r>   9.2016  0.0000</r>
       <r>  10.6488  0.0000</r>
       <r>  10.6488  0.0000</r>
       <r>  10.6488  0.0000</r>
       <r>  10.6488  0.0000</r>
       <r>  10.6488  0.0000</r>
       <r>  10.6488  0.0000</r>
       <r>  10.6488  0.0000</r>
       <r>  10.6488  0.0000</r>
       <r>  11.3668  0.0000</r>
       <r>  11.3668  0.0000</r>
       <r>  11.3668  0.0000</r>
       <r>  11.3668  0.0000</r>
      </set>
      <set comment="kpoint 191">
       <r>  -1.8463  1.0000</r>
       <r>  -1.8462  1.0000</r>
       <r>  -1.8462  1.0000</r>
       <r>  -1.8462  1.0000</r>
       <r>   0.0545  1.0000</r>
       <r>   0.0545  1.0000</r>
       <r>   0.0545  1.0000</r>
       <r>   0.0545  1.0000</r>
       <r>   0.8072  1.0000</r>
       <r>   0.8072  1.0000</r>
       <r>   0.8072  1.0000</r>
       <r>   0.8072  1.0000</r>
       <r>   2.6638  1.0000</r>
       <r>   2.6638  1.0000</r>
       <r>   2.6638  1.0000</r>
       <r>   2.6638  1.0000</r>
       <r>   2.6638  1.0000</r>
       <r>   2.6638  1.0000</r>
       <r>   2.6638  1.0000</r>
       <r>   2.6638  1.0000</r>
       <r>   4.4733  1.0000</r>
       <r>   4.4733  1.0000</r>
       <r>   4.4739  1.0000</r>
       <r>   4.4740  1.0000</r>
       <r>   4.4740  1.0000</r>
       <r>   4.4740  1.0000</r>
       <r>   4.4745  1.0000</r>
       <r>   4.4745  1.0000</r>
       <r>   5.2815  1.0000</r>
       <r>   5.2815  1.0000</r>
       <r>   5.2823  1.0000</r>
       <r>   5.2823  1.0000</r>
       <r>   5.2823  1.0000</r>
       <r>   5.2823  1.0000</r>
       <r>   5.2831  1.0000</r>
       <r>   5.2831  1.0000</r>
       <r>   6.1024  1.0000</r>
       <r>   6.1024  1.0000</r>
       <r>   6.1024  1.0000</r>
       <r>   6.1025  1.0000</r>
       <r>   6.9949  1.0000</r>
       <r>   6.9949  1.0000</r>
       <r>   6.9949  1.0000</r>
       <r>   6.9949  1.0000</r>
       <r>   8.2886  1.0000</r>
       <r>   8.2887  1.0000</r>
       <r>   8.2887  1.0000</r>
       <r>   8.2887  1.0000</r>
       <r>   8.8555  0.0000</r>
       <r>   8.8555  0.0000</r>
       <r>   8.8555  0.0000</r>
       <r>   8.8555  0.0000</r>
       <r>   9.5720  0.0000</r>
       <r>   9.5720  0.0000</r>
       <r>   9.5720  0.0000</r>
       <r>   9.5720  0.0000</r>
       <r>  10.3697  0.0000</r>
       <r>  10.3697  0.0000</r>
       <r>  10.3704  0.0000</r>
       <r>  10.3704  0.0000</r>
       <r>  10.3704  0.0000</r>
       <r>  10.3704  0.0000</r>
       <r>  10.3710  0.0000</r>
       <r>  10.3710  0.0000</r>
       <r>  11.4621  0.0000</r>
       <r>  11.4627  0.0000</r>
       <r>  11.4628  0.0000</r>
       <r>  11.4631  0.0000</r>
      </set>
      <set comment="kpoint 192">
       <r>  -1.7984  1.0000</r>
       <r>  -1.7984  1.0000</r>
       <r>  -1.7984  1.0000</r>
       <r>  -1.7984  1.0000</r>
       <r>  -0.2762  1.0000</r>
       <r>  -0.2762  1.0000</r>
       <r>  -0.2762  1.0000</r>
       <r>  -0.2762  1.0000</r>
       <r>   1.2285  1.0000</r>
       <r>   1.2285  1.0000</r>
       <r>   1.2285  1.0000</r>
       <r>   1.2285  1.0000</r>
       <r>   2.7100  1.0000</r>
       <r>   2.7100  1.0000</r>
       <r>   2.7100  1.0000</r>
       <r>   2.7100  1.0000</r>
       <r>   2.7100  1.0000</r>
       <r>   2.7100  1.0000</r>
       <r>   2.7100  1.0000</r>
       <r>   2.7100  1.0000</r>
       <r>   4.1711  1.0000</r>
       <r>   4.1711  1.0000</r>
       <r>   4.1714  1.0000</r>
       <r>   4.1714  1.0000</r>
       <r>   4.1714  1.0000</r>
       <r>   4.1714  1.0000</r>
       <r>   4.1717  1.0000</r>
       <r>   4.1717  1.0000</r>
       <r>   5.5464  1.0000</r>
       <r>   5.5464  1.0000</r>
       <r>   5.5464  1.0000</r>
       <r>   5.5464  1.0000</r>
       <r>   5.6726  1.0000</r>
       <r>   5.6726  1.0000</r>
       <r>   5.6731  1.0000</r>
       <r>   5.6731  1.0000</r>
       <r>   5.6731  1.0000</r>
       <r>   5.6732  1.0000</r>
       <r>   5.6737  1.0000</r>
       <r>   5.6737  1.0000</r>
       <r>   7.0737  1.0000</r>
       <r>   7.0737  1.0000</r>
       <r>   7.0737  1.0000</r>
       <r>   7.0737  1.0000</r>
       <r>   8.5409  0.0000</r>
       <r>   8.5409  0.0000</r>
       <r>   8.5409  0.0000</r>
       <r>   8.5409  0.0000</r>
       <r>   8.8936  0.0000</r>
       <r>   8.8936  0.0000</r>
       <r>   8.8936  0.0000</r>
       <r>   8.8936  0.0000</r>
       <r>   9.8409  0.0000</r>
       <r>   9.8409  0.0000</r>
       <r>   9.8415  0.0000</r>
       <r>   9.8415  0.0000</r>
       <r>   9.8415  0.0000</r>
       <r>   9.8415  0.0000</r>
       <r>   9.8420  0.0000</r>
       <r>   9.8420  0.0000</r>
       <r>   9.9734  0.0000</r>
       <r>   9.9734  0.0000</r>
       <r>   9.9735  0.0000</r>
       <r>   9.9735  0.0000</r>
       <r>  11.5748  0.0000</r>
       <r>  11.5753  0.0000</r>
       <r>  11.5755  0.0000</r>
       <r>  11.5760  0.0000</r>
      </set>
      <set comment="kpoint 193">
       <r>  -1.7187  1.0000</r>
       <r>  -1.7187  1.0000</r>
       <r>  -1.7187  1.0000</r>
       <r>  -1.7187  1.0000</r>
       <r>  -0.5761  1.0000</r>
       <r>  -0.5761  1.0000</r>
       <r>  -0.5761  1.0000</r>
       <r>  -0.5761  1.0000</r>
       <r>   1.6792  1.0000</r>
       <r>   1.6792  1.0000</r>
       <r>   1.6792  1.0000</r>
       <r>   1.6792  1.0000</r>
       <r>   2.7870  1.0000</r>
       <r>   2.7870  1.0000</r>
       <r>   2.7870  1.0000</r>
       <r>   2.7870  1.0000</r>
       <r>   2.7870  1.0000</r>
       <r>   2.7870  1.0000</r>
       <r>   2.7870  1.0000</r>
       <r>   2.7870  1.0000</r>
       <r>   3.8867  1.0000</r>
       <r>   3.8867  1.0000</r>
       <r>   3.8869  1.0000</r>
       <r>   3.8869  1.0000</r>
       <r>   3.8869  1.0000</r>
       <r>   3.8869  1.0000</r>
       <r>   3.8870  1.0000</r>
       <r>   3.8870  1.0000</r>
       <r>   4.9448  1.0000</r>
       <r>   4.9448  1.0000</r>
       <r>   4.9448  1.0000</r>
       <r>   4.9448  1.0000</r>
       <r>   6.1042  1.0000</r>
       <r>   6.1042  1.0000</r>
       <r>   6.1046  1.0000</r>
       <r>   6.1046  1.0000</r>
       <r>   6.1046  1.0000</r>
       <r>   6.1046  1.0000</r>
       <r>   6.1050  1.0000</r>
       <r>   6.1050  1.0000</r>
       <r>   7.1611  1.0000</r>
       <r>   7.1611  1.0000</r>
       <r>   7.1611  1.0000</r>
       <r>   7.1611  1.0000</r>
       <r>   8.2557  1.0000</r>
       <r>   8.2557  1.0000</r>
       <r>   8.2557  1.0000</r>
       <r>   8.2557  1.0000</r>
       <r>   9.2630  0.0000</r>
       <r>   9.2630  0.0000</r>
       <r>   9.2634  0.0000</r>
       <r>   9.2635  0.0000</r>
       <r>   9.2635  0.0000</r>
       <r>   9.2635  0.0000</r>
       <r>   9.2639  0.0000</r>
       <r>   9.2639  0.0000</r>
       <r>   9.6205  0.0000</r>
       <r>   9.6205  0.0000</r>
       <r>   9.6205  0.0000</r>
       <r>   9.6206  0.0000</r>
       <r>  10.4032  0.0000</r>
       <r>  10.4032  0.0000</r>
       <r>  10.4032  0.0000</r>
       <r>  10.4032  0.0000</r>
       <r>  11.6763  0.0000</r>
       <r>  11.6769  0.0000</r>
       <r>  11.6771  0.0000</r>
       <r>  11.6776  0.0000</r>
      </set>
      <set comment="kpoint 194">
       <r>  -1.6072  1.0000</r>
       <r>  -1.6072  1.0000</r>
       <r>  -1.6072  1.0000</r>
       <r>  -1.6072  1.0000</r>
       <r>  -0.8450  1.0000</r>
       <r>  -0.8450  1.0000</r>
       <r>  -0.8450  1.0000</r>
       <r>  -0.8450  1.0000</r>
       <r>   2.1588  1.0000</r>
       <r>   2.1589  1.0000</r>
       <r>   2.1589  1.0000</r>
       <r>   2.1589  1.0000</r>
       <r>   2.8947  1.0000</r>
       <r>   2.8947  1.0000</r>
       <r>   2.8947  1.0000</r>
       <r>   2.8947  1.0000</r>
       <r>   2.8947  1.0000</r>
       <r>   2.8947  1.0000</r>
       <r>   2.8947  1.0000</r>
       <r>   2.8947  1.0000</r>
       <r>   3.6291  1.0000</r>
       <r>   3.6291  1.0000</r>
       <r>   3.6292  1.0000</r>
       <r>   3.6292  1.0000</r>
       <r>   3.6292  1.0000</r>
       <r>   3.6292  1.0000</r>
       <r>   3.6293  1.0000</r>
       <r>   3.6293  1.0000</r>
       <r>   4.3451  1.0000</r>
       <r>   4.3451  1.0000</r>
       <r>   4.3451  1.0000</r>
       <r>   4.3452  1.0000</r>
       <r>   6.5671  1.0000</r>
       <r>   6.5671  1.0000</r>
       <r>   6.5674  1.0000</r>
       <r>   6.5674  1.0000</r>
       <r>   6.5674  1.0000</r>
       <r>   6.5675  1.0000</r>
       <r>   6.5678  1.0000</r>
       <r>   6.5678  1.0000</r>
       <r>   7.2718  1.0000</r>
       <r>   7.2718  1.0000</r>
       <r>   7.2718  1.0000</r>
       <r>   7.2718  1.0000</r>
       <r>   8.0000  1.0000</r>
       <r>   8.0000  1.0000</r>
       <r>   8.0000  1.0000</r>
       <r>   8.0000  1.0000</r>
       <r>   8.6841  0.0000</r>
       <r>   8.6841  0.0000</r>
       <r>   8.6845  0.0000</r>
       <r>   8.6845  0.0000</r>
       <r>   8.6845  0.0000</r>
       <r>   8.6845  0.0000</r>
       <r>   8.6849  0.0000</r>
       <r>   8.6849  0.0000</r>
       <r>  10.4070  0.0000</r>
       <r>  10.4070  0.0000</r>
       <r>  10.4070  0.0000</r>
       <r>  10.4070  0.0000</r>
       <r>  10.8607  0.0000</r>
       <r>  10.8607  0.0000</r>
       <r>  10.8607  0.0000</r>
       <r>  10.8607  0.0000</r>
       <r>  11.7914  0.0000</r>
       <r>  11.7917  0.0000</r>
       <r>  11.7923  0.0000</r>
       <r>  11.7924  0.0000</r>
      </set>
      <set comment="kpoint 195">
       <r>  -1.4641  1.0000</r>
       <r>  -1.4640  1.0000</r>
       <r>  -1.4640  1.0000</r>
       <r>  -1.4640  1.0000</r>
       <r>  -1.0828  1.0000</r>
       <r>  -1.0828  1.0000</r>
       <r>  -1.0828  1.0000</r>
       <r>  -1.0827  1.0000</r>
       <r>   2.6666  1.0000</r>
       <r>   2.6667  1.0000</r>
       <r>   2.6667  1.0000</r>
       <r>   2.6667  1.0000</r>
       <r>   3.0329  1.0000</r>
       <r>   3.0329  1.0000</r>
       <r>   3.0329  1.0000</r>
       <r>   3.0329  1.0000</r>
       <r>   3.0329  1.0000</r>
       <r>   3.0329  1.0000</r>
       <r>   3.0330  1.0000</r>
       <r>   3.0330  1.0000</r>
       <r>   3.4005  1.0000</r>
       <r>   3.4005  1.0000</r>
       <r>   3.4005  1.0000</r>
       <r>   3.4005  1.0000</r>
       <r>   3.4005  1.0000</r>
       <r>   3.4005  1.0000</r>
       <r>   3.4006  1.0000</r>
       <r>   3.4006  1.0000</r>
       <r>   3.7621  1.0000</r>
       <r>   3.7621  1.0000</r>
       <r>   3.7621  1.0000</r>
       <r>   3.7622  1.0000</r>
       <r>   7.0585  1.0000</r>
       <r>   7.0585  1.0000</r>
       <r>   7.0589  1.0000</r>
       <r>   7.0589  1.0000</r>
       <r>   7.0589  1.0000</r>
       <r>   7.0589  1.0000</r>
       <r>   7.0593  1.0000</r>
       <r>   7.0593  1.0000</r>
       <r>   7.4100  1.0000</r>
       <r>   7.4100  1.0000</r>
       <r>   7.4100  1.0000</r>
       <r>   7.4101  1.0000</r>
       <r>   7.7738  1.0000</r>
       <r>   7.7738  1.0000</r>
       <r>   7.7738  1.0000</r>
       <r>   7.7738  1.0000</r>
       <r>   8.1199  1.0000</r>
       <r>   8.1199  1.0000</r>
       <r>   8.1202  1.0000</r>
       <r>   8.1202  1.0000</r>
       <r>   8.1202  1.0000</r>
       <r>   8.1203  1.0000</r>
       <r>   8.1206  1.0000</r>
       <r>   8.1206  1.0000</r>
       <r>  11.2336  0.0000</r>
       <r>  11.2337  0.0000</r>
       <r>  11.2337  0.0000</r>
       <r>  11.2337  0.0000</r>
       <r>  11.3454  0.0000</r>
       <r>  11.3454  0.0000</r>
       <r>  11.3454  0.0000</r>
       <r>  11.3454  0.0000</r>
       <r>  11.9291  0.0000</r>
       <r>  11.9294  0.0000</r>
       <r>  11.9296  0.0000</r>
       <r>  11.9300  0.0000</r>
      </set>
      <set comment="kpoint 196">
       <r>  -1.2940  1.0000</r>
       <r>  -1.2896  1.0000</r>
       <r>  -1.2896  1.0000</r>
       <r>  -1.2891  1.0000</r>
       <r>  -1.2891  1.0000</r>
       <r>  -1.2887  1.0000</r>
       <r>  -1.2887  1.0000</r>
       <r>  -1.2843  1.0000</r>
       <r>   3.1913  1.0000</r>
       <r>   3.1974  1.0000</r>
       <r>   3.1974  1.0000</r>
       <r>   3.2008  1.0000</r>
       <r>   3.2011  1.0000</r>
       <r>   3.2011  1.0000</r>
       <r>   3.2015  1.0000</r>
       <r>   3.2015  1.0000</r>
       <r>   3.2016  1.0000</r>
       <r>   3.2016  1.0000</r>
       <r>   3.2016  1.0000</r>
       <r>   3.2016  1.0000</r>
       <r>   3.2016  1.0000</r>
       <r>   3.2016  1.0000</r>
       <r>   3.2017  1.0000</r>
       <r>   3.2017  1.0000</r>
       <r>   3.2017  1.0000</r>
       <r>   3.2017  1.0000</r>
       <r>   3.2021  1.0000</r>
       <r>   3.2022  1.0000</r>
       <r>   3.2025  1.0000</r>
       <r>   3.2058  1.0000</r>
       <r>   3.2058  1.0000</r>
       <r>   3.2120  1.0000</r>
       <r>   7.5710  1.0000</r>
       <r>   7.5710  1.0000</r>
       <r>   7.5732  1.0000</r>
       <r>   7.5749  1.0000</r>
       <r>   7.5765  1.0000</r>
       <r>   7.5768  1.0000</r>
       <r>   7.5770  1.0000</r>
       <r>   7.5770  1.0000</r>
       <r>   7.5772  1.0000</r>
       <r>   7.5772  1.0000</r>
       <r>   7.5772  1.0000</r>
       <r>   7.5772  1.0000</r>
       <r>   7.5772  1.0000</r>
       <r>   7.5773  1.0000</r>
       <r>   7.5773  1.0000</r>
       <r>   7.5773  1.0000</r>
       <r>   7.5775  1.0000</r>
       <r>   7.5775  1.0000</r>
       <r>   7.5776  1.0000</r>
       <r>   7.5780  1.0000</r>
       <r>   7.5796  1.0000</r>
       <r>   7.5813  1.0000</r>
       <r>   7.5834  1.0000</r>
       <r>   7.5834  1.0000</r>
       <r>  11.8546  0.0000</r>
       <r>  11.8549  0.0000</r>
       <r>  11.8549  0.0000</r>
       <r>  11.8553  0.0000</r>
       <r>  11.8570  0.0000</r>
       <r>  11.8574  0.0000</r>
       <r>  11.8574  0.0000</r>
       <r>  11.8578  0.0000</r>
       <r>  12.0912  0.0000</r>
       <r>  12.0916  0.0000</r>
       <r>  12.0927  0.0000</r>
       <r>  12.0931  0.0000</r>
      </set>
     </set>
    </set>
   </array>
  </eigenvalues>
 </calculation>
 <structure name="finalpos" >
  <crystal>
   <varray name="basis" >
    <v>       7.99386661      0.00000000      0.00000000</v>
    <v>       0.00000000      7.99386661      0.00000000</v>
    <v>       0.00000000      0.00000000      7.99386661</v>
   </varray>
   <i name="volume">    510.82329211</i>
   <varray name="rec_basis" >
    <v>       0.12509591      0.00000000      0.00000000</v>
    <v>       0.00000000      0.12509591      0.00000000</v>
    <v>       0.00000000      0.00000000      0.12509591</v>
   </varray>
  </crystal>
  <varray name="positions" >
   <v>       0.25125096      0.25000000      0.00000000</v>
   <v>       0.75000000      0.25000000      0.00000000</v>
   <v>       0.25000000      0.75000000      0.00000000</v>
   <v>       0.75000000      0.75000000      0.00000000</v>
   <v>       0.25000000      0.25000000      0.50000000</v>
   <v>       0.75000000      0.25000000      0.50000000</v>
   <v>       0.25000000      0.75000000      0.50000000</v>
   <v>       0.75000000      0.75000000      0.50000000</v>
   <v>       0.25000000      0.00000000      0.25000000</v>
   <v>       0.75000000      0.00000000      0.25000000</v>
   <v>       0.25000000      0.50000000      0.25000000</v>
   <v>       0.75000000      0.50000000      0.25000000</v>
   <v>       0.25000000      0.00000000      0.75000000</v>
   <v>       0.75000000      0.00000000      0.75000000</v>
   <v>       0.25000000      0.50000000      0.75000000</v>
   <v>       0.75000000      0.50000000      0.75000000</v>
   <v>       0.00000000      0.25000000      0.25000000</v>
   <v>       0.50000000      0.25000000      0.25000000</v>
   <v>       0.00000000      0.75000000      0.25000000</v>
   <v>       0.50000000      0.75000000      0.25000000</v>
   <v>       0.00000000      0.25000000      0.75000000</v>
   <v>       0.50000000      0.25000000      0.75000000</v>
   <v>       0.00000000      0.75000000      0.75000000</v>
   <v>       0.50000000      0.75000000      0.75000000</v>
   <v>       0.00000000      0.00000000      0.00000000</v>
   <v>       0.50000000      0.00000000      0.00000000</v>
   <v>       0.00000000      0.50000000      0.00000000</v>
   <v>       0.50000000      0.50000000      0.00000000</v>
   <v>       0.00000000      0.00000000      0.50000000</v>
   <v>       0.50000000      0.00000000      0.50000000</v>
   <v>       0.00000000      0.50000000      0.50000000</v>
   <v>       0.50000000      0.50000000      0.50000000</v>
  </varray>
 </structure>
</modeling>
