   4   4   0   0
  0.1596323E+02  0.3996933E-09  0.3996933E-09  0.3996933E-09  0.5000000E-15
  1.000000000000000E-004
  CAR 
 unknown system                          
     21.00035718     -4.15898819  301      8.35281772      1.00000000
     -4.159  0.0000E+00  0.0000E+00
     -4.075  0.0000E+00  0.0000E+00
     -3.991  0.0000E+00  0.0000E+00
     -3.907  0.0000E+00  0.0000E+00
     -3.824  0.0000E+00  0.0000E+00
     -3.740  0.0000E+00  0.0000E+00
     -3.656  0.0000E+00  0.0000E+00
     -3.572  0.0000E+00  0.0000E+00
     -3.488  0.0000E+00  0.0000E+00
     -3.404  0.0000E+00  0.0000E+00
     -3.320  0.0000E+00  0.0000E+00
     -3.236  0.0000E+00  0.0000E+00
     -3.153  0.0000E+00  0.0000E+00
     -3.069  0.2410E-15  0.2021E-16
     -2.985  0.1087E-01  0.9119E-03
     -2.901  0.1627E+00  0.1455E-01
     -2.817  0.8694E-01  0.2459E-01
     -2.733  0.2935E+00  0.4920E-01
     -2.649  0.2605E+00  0.7374E-01
     -2.566  0.1242E+00  0.8415E-01
     -2.482  0.3329E+00  0.1126E+00
     -2.398  0.5104E+00  0.1554E+00
     -2.314  0.1099E+00  0.1649E+00
     -2.230  0.7571E+00  0.2284E+00
     -2.146  0.1460E-01  0.2297E+00
     -2.062  0.5714E+00  0.2776E+00
     -1.979  0.5070E+00  0.3202E+00
     -1.895  0.2606E+00  0.3541E+00
     -1.811  0.7022E+00  0.4130E+00
     -1.727  0.3580E-03  0.4197E+00
     -1.643  0.5474E+00  0.4656E+00
     -1.559  0.7853E+00  0.5347E+00
     -1.475  0.3436E+00  0.5635E+00
     -1.391  0.8114E+00  0.6315E+00
     -1.308  0.4912E+00  0.6727E+00
     -1.224  0.2362E+00  0.6925E+00
     -1.140  0.9360E+00  0.7710E+00
     -1.056  0.6769E+00  0.8278E+00
     -0.972  0.2607E+00  0.8639E+00
     -0.888  0.7813E+00  0.9294E+00
     -0.804  0.2647E+00  0.9516E+00
     -0.721  0.1529E+01  0.1080E+01
     -0.637  0.2699E+00  0.1105E+01
     -0.553  0.1027E+01  0.1191E+01
     -0.469  0.5210E+00  0.1235E+01
     -0.385  0.8680E-01  0.1243E+01
     -0.301  0.1035E+01  0.1329E+01
     -0.217  0.5211E+00  0.1412E+01
     -0.133  0.9027E+00  0.1488E+01
     -0.050  0.1042E+01  0.1587E+01
      0.034  0.5046E+00  0.1629E+01
      0.118  0.5423E+00  0.1676E+01
      0.202  0.1019E+01  0.1761E+01
      0.286  0.2565E+00  0.1783E+01
      0.370  0.1042E+01  0.1914E+01
      0.454  0.5028E-01  0.1919E+01
      0.537  0.1047E+01  0.2008E+01
      0.621  0.1286E+01  0.2115E+01
      0.705  0.5916E+00  0.2166E+01
      0.789  0.1491E+01  0.2291E+01
      0.873  0.1371E+00  0.2303E+01
      0.957  0.5212E+00  0.2368E+01
      1.041  0.1755E+01  0.2515E+01
      1.124  0.2674E+00  0.2550E+01
      1.208  0.1538E+01  0.2679E+01
      1.292  0.2891E-01  0.2683E+01
      1.376  0.1338E+01  0.2796E+01
      1.460  0.9068E+00  0.2872E+01
      1.544  0.5217E+00  0.2949E+01
      1.628  0.1675E+01  0.3089E+01
      1.712  0.4629E-02  0.3102E+01
      1.795  0.1807E+01  0.3253E+01
      1.879  0.1497E+01  0.3380E+01
      1.963  0.4712E-04  0.3407E+01
      2.047  0.1321E+01  0.3518E+01
      2.131  0.2025E-02  0.3539E+01
      2.215  0.7683E+00  0.3603E+01
      2.299  0.1296E+01  0.3713E+01
      2.382  0.9839E+00  0.3795E+01
      2.466  0.2217E+01  0.3981E+01
      2.550  0.1672E-01  0.3993E+01
      2.634  0.1786E+01  0.4143E+01
      2.718  0.8936E+00  0.4220E+01
      2.802  0.1017E+01  0.4305E+01
      2.886  0.1959E+01  0.4469E+01
      2.969  0.0000E+00  0.4502E+01
      3.053  0.1023E+01  0.4587E+01
      3.137  0.1145E+01  0.4685E+01
      3.221  0.1201E+01  0.4786E+01
      3.305  0.1916E+01  0.4946E+01
      3.389  0.3769E-01  0.4964E+01
      3.473  0.1328E+01  0.5075E+01
      3.557  0.1808E+01  0.5227E+01
      3.640  0.1860E+00  0.5244E+01
      3.724  0.2697E+01  0.5485E+01
      3.808  0.1701E-02  0.5490E+01
      3.892  0.1703E+01  0.5633E+01
      3.976  0.1498E+01  0.5759E+01
      4.060  0.8582E+00  0.5857E+01
      4.144  0.1548E+01  0.6002E+01
      4.227  0.3337E+00  0.6032E+01
      4.311  0.1585E+01  0.6165E+01
      4.395  0.1475E+01  0.6288E+01
      4.479  0.1479E+01  0.6434E+01
      4.563  0.1957E-01  0.6442E+01
      4.647  0.7823E+00  0.6512E+01
      4.731  0.1822E+01  0.6664E+01
      4.815  0.1722E+01  0.6831E+01
      4.898  0.1140E+01  0.6940E+01
      4.982  0.1777E+01  0.7105E+01
      5.066  0.7385E+00  0.7171E+01
      5.150  0.1749E+01  0.7324E+01
      5.234  0.1319E+01  0.7460E+01
      5.318  0.7804E+00  0.7546E+01
      5.402  0.9157E+00  0.7623E+01
      5.485  0.1847E+01  0.7780E+01
      5.569  0.1127E+01  0.7883E+01
      5.653  0.1824E+01  0.8052E+01
      5.737  0.1047E+01  0.8139E+01
      5.821  0.1640E+01  0.8277E+01
      5.905  0.1291E+01  0.8443E+01
      5.989  0.1199E+01  0.8545E+01
      6.072  0.1618E+01  0.8692E+01
      6.156  0.7715E+00  0.8771E+01
      6.240  0.1854E+01  0.8939E+01
      6.324  0.3454E+00  0.8969E+01
      6.408  0.1288E+01  0.9077E+01
      6.492  0.1478E+01  0.9202E+01
      6.576  0.7879E+00  0.9275E+01
      6.660  0.2640E+01  0.9497E+01
      6.743  0.8014E+00  0.9571E+01
      6.827  0.2460E+01  0.9778E+01
      6.911  0.9087E+00  0.9856E+01
      6.995  0.1201E+01  0.9957E+01
      7.079  0.1249E+01  0.1007E+02
      7.163  0.1122E+01  0.1017E+02
      7.247  0.1662E+01  0.1031E+02
      7.330  0.1889E+01  0.1048E+02
      7.414  0.1556E+01  0.1061E+02
      7.498  0.5210E+00  0.1065E+02
      7.582  0.1969E+01  0.1082E+02
      7.666  0.1012E+01  0.1092E+02
      7.750  0.1269E+01  0.1104E+02
      7.834  0.1097E+01  0.1113E+02
      7.917  0.2470E+01  0.1137E+02
      8.001  0.9845E+00  0.1145E+02
      8.085  0.2281E+01  0.1167E+02
      8.169  0.1380E+01  0.1179E+02
      8.253  0.7615E+00  0.1187E+02
      8.337  0.7884E+00  0.1196E+02
      8.421  0.2493E+01  0.1217E+02
      8.505  0.7290E+00  0.1225E+02
      8.588  0.2882E+00  0.1228E+02
      8.672  0.2389E+01  0.1248E+02
      8.756  0.1141E+01  0.1259E+02
      8.840  0.1302E+01  0.1271E+02
      8.924  0.2564E+01  0.1292E+02
      9.008  0.2094E+01  0.1310E+02
      9.092  0.1566E+01  0.1325E+02
      9.175  0.2055E+01  0.1342E+02
      9.259  0.6011E+00  0.1348E+02
      9.343  0.9100E+00  0.1358E+02
      9.427  0.2178E+01  0.1376E+02
      9.511  0.2041E+01  0.1395E+02
      9.595  0.5278E+00  0.1402E+02
      9.679  0.1228E+01  0.1412E+02
      9.763  0.1439E+01  0.1428E+02
      9.846  0.2051E+01  0.1446E+02
      9.930  0.1368E+01  0.1458E+02
     10.014  0.2331E+01  0.1479E+02
     10.098  0.1893E+01  0.1495E+02
     10.182  0.5339E+00  0.1501E+02
     10.266  0.1856E+01  0.1516E+02
     10.350  0.1280E+01  0.1528E+02
     10.433  0.1923E+01  0.1547E+02
     10.517  0.1582E+01  0.1561E+02
     10.601  0.1237E+01  0.1573E+02
     10.685  0.1037E+01  0.1584E+02
     10.769  0.1540E+01  0.1597E+02
     10.853  0.2134E+01  0.1616E+02
     10.937  0.1733E+01  0.1631E+02
     11.020  0.1499E+01  0.1647E+02
     11.104  0.1771E+01  0.1663E+02
     11.188  0.2516E+01  0.1684E+02
     11.272  0.2087E+01  0.1703E+02
     11.356  0.1275E+01  0.1714E+02
     11.440  0.1462E+01  0.1729E+02
     11.524  0.1829E+01  0.1746E+02
     11.608  0.4993E+00  0.1750E+02
     11.691  0.1290E+01  0.1763E+02
     11.775  0.2133E+01  0.1781E+02
     11.859  0.7819E+00  0.1788E+02
     11.943  0.3131E+01  0.1816E+02
     12.027  0.2669E+01  0.1839E+02
     12.111  0.1288E+01  0.1850E+02
     12.195  0.2121E+01  0.1868E+02
     12.278  0.1642E+01  0.1884E+02
     12.362  0.1304E+01  0.1897E+02
     12.446  0.2004E+01  0.1914E+02
     12.530  0.1291E+01  0.1925E+02
     12.614  0.1491E+01  0.1938E+02
     12.698  0.3291E+01  0.1966E+02
     12.782  0.1727E+01  0.1981E+02
     12.866  0.2540E+01  0.2004E+02
     12.949  0.1736E+01  0.2018E+02
     13.033  0.2046E+01  0.2035E+02
     13.117  0.4600E+00  0.2041E+02
     13.201  0.2548E+01  0.2063E+02
     13.285  0.2060E+01  0.2083E+02
     13.369  0.1549E+01  0.2096E+02
     13.453  0.1549E+01  0.2113E+02
     13.536  0.1156E+01  0.2123E+02
     13.620  0.1536E+01  0.2136E+02
     13.704  0.3862E+01  0.2169E+02
     13.788  0.1663E+01  0.2183E+02
     13.872  0.2119E+01  0.2201E+02
     13.956  0.2552E+01  0.2224E+02
     14.040  0.8770E+00  0.2231E+02
     14.123  0.3052E+01  0.2257E+02
     14.207  0.2816E+01  0.2280E+02
     14.291  0.1940E+01  0.2297E+02
     14.375  0.2248E+01  0.2316E+02
     14.459  0.2532E+01  0.2338E+02
     14.543  0.1112E+01  0.2347E+02
     14.627  0.1904E+01  0.2363E+02
     14.711  0.2035E+01  0.2384E+02
     14.794  0.3512E+01  0.2416E+02
     14.878  0.1119E+01  0.2426E+02
     14.962  0.4017E+01  0.2461E+02
     15.046  0.1490E+01  0.2474E+02
     15.130  0.1019E+01  0.2484E+02
     15.214  0.1441E+01  0.2498E+02
     15.298  0.2004E+01  0.2517E+02
     15.381  0.2323E+01  0.2540E+02
     15.465  0.1443E+01  0.2552E+02
     15.549  0.2477E+01  0.2573E+02
     15.633  0.1087E+01  0.2583E+02
     15.717  0.2132E+01  0.2602E+02
     15.801  0.2270E+01  0.2621E+02
     15.885  0.2634E+01  0.2648E+02
     15.968  0.1989E+01  0.2664E+02
     16.052  0.1550E+01  0.2679E+02
     16.136  0.1343E+01  0.2691E+02
     16.220  0.1553E+01  0.2704E+02
     16.304  0.1890E+01  0.2720E+02
     16.388  0.2748E+01  0.2743E+02
     16.472  0.1457E+01  0.2757E+02
     16.556  0.2358E+01  0.2777E+02
     16.639  0.2470E+01  0.2799E+02
     16.723  0.2317E+01  0.2819E+02
     16.807  0.2593E+01  0.2841E+02
     16.891  0.1587E+01  0.2855E+02
     16.975  0.1011E+01  0.2863E+02
     17.059  0.2750E+01  0.2886E+02
     17.143  0.2566E+01  0.2909E+02
     17.226  0.1001E+01  0.2920E+02
     17.310  0.7809E+00  0.2927E+02
     17.394  0.9928E+00  0.2935E+02
     17.478  0.1985E+01  0.2953E+02
     17.562  0.2408E+01  0.2978E+02
     17.646  0.1982E+01  0.2994E+02
     17.730  0.8087E+00  0.3004E+02
     17.814  0.2316E+01  0.3023E+02
     17.897  0.1617E+01  0.3037E+02
     17.981  0.1702E+01  0.3052E+02
     18.065  0.7347E-02  0.3055E+02
     18.149  0.7644E+00  0.3061E+02
     18.233  0.1877E+01  0.3078E+02
     18.317  0.1205E+01  0.3089E+02
     18.401  0.1042E+01  0.3098E+02
     18.484  0.2395E+00  0.3100E+02
     18.568  0.2018E+01  0.3117E+02
     18.652  0.1014E+01  0.3126E+02
     18.736  0.1795E+01  0.3141E+02
     18.820  0.2666E+00  0.3145E+02
     18.904  0.1817E+01  0.3160E+02
     18.988  0.5780E+00  0.3165E+02
     19.071  0.1234E+01  0.3175E+02
     19.155  0.3944E+00  0.3179E+02
     19.239  0.5263E+00  0.3184E+02
     19.323  0.2552E+00  0.3186E+02
     19.407  0.1210E+00  0.3187E+02
     19.491  0.4087E+00  0.3191E+02
     19.575  0.3728E+00  0.3194E+02
     19.659  0.0000E+00  0.3194E+02
     19.742  0.1638E-02  0.3194E+02
     19.826  0.4326E+00  0.3198E+02
     19.910  0.2605E+00  0.3200E+02
     19.994  0.0000E+00  0.3200E+02
     20.078  0.0000E+00  0.3200E+02
     20.162  0.0000E+00  0.3200E+02
     20.246  0.0000E+00  0.3200E+02
     20.329  0.0000E+00  0.3200E+02
     20.413  0.0000E+00  0.3200E+02
     20.497  0.0000E+00  0.3200E+02
     20.581  0.0000E+00  0.3200E+02
     20.665  0.0000E+00  0.3200E+02
     20.749  0.0000E+00  0.3200E+02
     20.833  0.0000E+00  0.3200E+02
     20.916  0.0000E+00  0.3200E+02
     21.000  0.0000E+00  0.3200E+02
