 vasp.4.6.28 25Jul05 complex 
 executed on             LinuxIFC date 2016.10.19  17:43:07
 running on    8 nodes
 distr:  one band on    1 nodes,    8 groups


--------------------------------------------------------------------------------------------------------


 INCAR:
 POTCAR:   PAW_PBE Al 04Jan2001                   
 POTCAR:   PAW_PBE Al 04Jan2001                   
   VRHFIN =Al: s2p1                                                             
   LEXCH  = PE                                                                  
   EATOM  =    53.5387 eV,    3.9350 Ry                                         
                                                                                
   TITEL  = PAW_PBE Al 04Jan2001                                                
   LULTRA =        F    use ultrasoft PP ?                                      
   IUNSCR =        1    unscreen: 0-lin 1-nonlin 2-no                           
   RPACOR =    1.500    partial core radius                                     
   POMASS =   26.982; ZVAL   =    3.000    mass and valenz                      
   RCORE  =    1.900    outmost cutoff radius                                   
   RWIGS  =    2.650; RWIGS  =    1.402    wigner-seitz radius (au A)           
   ENMAX  =  240.300; ENMIN  =  180.225 eV                                      
   ICORE  =        2    local potential                                         
   LCOR   =        T    correct aug charges                                     
   LPAW   =        T    paw PP                                                  
   EAUG   =  291.052                                                            
   DEXC   =    -.041                                                            
   RMAX   =    2.974    core radius for proj-oper                               
   RAUG   =    1.300    factor for augmentation sphere                          
   RDEP   =    1.966    radius for radial grids                                 
   QCUT   =   -4.203; QGAM   =    8.405    optimization parameters              
                                                                                
   Description                                                                  
     l     E      TYP  RCUT    TYP  RCUT                                        
     0   .000     23  1.900                                                     
     0   .000     23  1.900                                                     
     1   .000     23  1.900                                                     
     1  1.000     23  1.900                                                     
     2   .000      7  1.900                                                     
  local pseudopotential read in
  partial core-charges read in
  atomic valenz-charges read in
  non local Contribution for L=           0  read in
    real space projection operators read in
  non local Contribution for L=           0  read in
    real space projection operators read in
  non local Contribution for L=           1  read in
    real space projection operators read in
  non local Contribution for L=           1  read in
    real space projection operators read in
    PAW grid and wavefunctions read in
 
   number of l-projection  operators is LMAX  =           4
   number of lm-projection operators is LMMAX =           8
 
 PAW_PBE Al 04Jan2001                   :
 energy of atom  1       EATOM=  -53.5387
 kinetic energy error for atom=    0.0003 (will be added to EATOM!!)
 
 EXHCAR: internal setup
 exchange correlation table for  LEXCH =        8
   RHO(1)=    0.500       N(1)  =     2000
   RHO(2)=  100.500       N(2)  =     4000
 
 POSCAR: Al                                      
  positions in direct lattice
  No initial velocities read in
 


--------------------------------------------------------------------------------------------------------


 ion  position               nearest neighbor table
   1  0.500  0.500  0.000-   2 2.83   3 2.83   4 2.83   2 2.83   3 2.83   2 2.83   4 2.83   2 2.83
                             3 2.83   4 2.83   3 2.83   4 2.83
   2  0.500  0.000  0.500-   1 2.83   3 2.83   4 2.83   1 2.83   4 2.83   1 2.83   3 2.83   1 2.83
                             3 2.83   4 2.83   4 2.83   3 2.83
   3  0.000  0.500  0.500-   1 2.83   2 2.83   4 2.83   1 2.83   4 2.83   2 2.83   4 2.83   4 2.83
                             1 2.83   2 2.83   1 2.83   2 2.83
   4  0.000  0.000  0.000-   1 2.83   2 2.83   3 2.83   2 2.83   3 2.83   1 2.83   3 2.83   3 2.83
                             1 2.83   2 2.83   2 2.83   1 2.83
 
  LATTYP: Found a simple cubic cell.
 ALAT       =     3.9969333060
  
  Lattice vectors:
  
 A1 = (   3.9969333060,   0.0000000000,   0.0000000000)
 A2 = (   0.0000000000,   3.9969333060,   0.0000000000)
 A3 = (   0.0000000000,   0.0000000000,   3.9969333060)
 Subroutine PRICEL returns following result:
 
  LATTYP: Found a face centered cubic cell.
 ALAT       =     3.9969333060
  
  Lattice vectors:
  
 A1 = (   1.9984666530,   1.9984666530,   0.0000000000)
 A2 = (   1.9984666530,   0.0000000000,  -1.9984666530)
 A3 = (   0.0000000000,   1.9984666530,  -1.9984666530)
 
   4 primitive cells build up your supercell.
 

Analysis of symmetry for initial positions (statically):

 Routine SETGRP: Setting up the symmetry group for a 
 simple cubic supercell.


 Subroutine GETGRP returns: Found 48 space group operations
 (whereof 48 operations were pure point group operations)
 out of a pool of 48 trial point group operations.


The static configuration has the point symmetry O_h .

Analysis of symmetry for dynamics (positions and initial velocities):

 Subroutine DYNSYM returns: Found 48 space group operations
 (whereof 48 operations were pure point group operations)
 out of a pool of 48 trial space group operations
 (whereof 48 operations were pure point group operations)
 and found also     4 'primitive' translations


The dynamic configuration has the point symmetry O_h .
 
 
 KPOINTS: Automatic mesh                          

Automatic generation of k-mesh.
 generate k-points for:  13  13  13
 
 Subroutine IBZKPT returns following result:
 ===========================================
 
 Found     84 irreducible k-points:
 
 Following reciprocal coordinates:
            Coordinates               Weight
  0.000000  0.000000  0.000000      1.000000
  0.076923  0.000000  0.000000      6.000000
  0.153846  0.000000  0.000000      6.000000
  0.230769  0.000000  0.000000      6.000000
  0.307692  0.000000  0.000000      6.000000
  0.384615  0.000000  0.000000      6.000000
  0.461538  0.000000  0.000000      6.000000
  0.076923  0.076923  0.000000     12.000000
  0.153846  0.076923  0.000000     24.000000
  0.230769  0.076923  0.000000     24.000000
  0.307692  0.076923  0.000000     24.000000
  0.384615  0.076923  0.000000     24.000000
  0.461538  0.076923  0.000000     24.000000
  0.153846  0.153846  0.000000     12.000000
  0.230769  0.153846  0.000000     24.000000
  0.307692  0.153846  0.000000     24.000000
  0.384615  0.153846  0.000000     24.000000
  0.461538  0.153846  0.000000     24.000000
  0.230769  0.230769  0.000000     12.000000
  0.307692  0.230769  0.000000     24.000000
  0.384615  0.230769  0.000000     24.000000
  0.461538  0.230769  0.000000     24.000000
  0.307692  0.307692  0.000000     12.000000
  0.384615  0.307692  0.000000     24.000000
  0.461538  0.307692  0.000000     24.000000
  0.384615  0.384615  0.000000     12.000000
  0.461538  0.384615  0.000000     24.000000
  0.461538  0.461538  0.000000     12.000000
  0.076923  0.076923  0.076923      8.000000
  0.153846  0.076923  0.076923     24.000000
  0.230769  0.076923  0.076923     24.000000
  0.307692  0.076923  0.076923     24.000000
  0.384615  0.076923  0.076923     24.000000
  0.461538  0.076923  0.076923     24.000000
  0.153846  0.153846  0.076923     24.000000
  0.230769  0.153846  0.076923     48.000000
  0.307692  0.153846  0.076923     48.000000
  0.384615  0.153846  0.076923     48.000000
  0.461538  0.153846  0.076923     48.000000
  0.230769  0.230769  0.076923     24.000000
  0.307692  0.230769  0.076923     48.000000
  0.384615  0.230769  0.076923     48.000000
  0.461538  0.230769  0.076923     48.000000
  0.307692  0.307692  0.076923     24.000000
  0.384615  0.307692  0.076923     48.000000
  0.461538  0.307692  0.076923     48.000000
  0.384615  0.384615  0.076923     24.000000
  0.461538  0.384615  0.076923     48.000000
  0.461538  0.461538  0.076923     24.000000
  0.153846  0.153846  0.153846      8.000000
  0.230769  0.153846  0.153846     24.000000
  0.307692  0.153846  0.153846     24.000000
  0.384615  0.153846  0.153846     24.000000
  0.461538  0.153846  0.153846     24.000000
  0.230769  0.230769  0.153846     24.000000
  0.307692  0.230769  0.153846     48.000000
  0.384615  0.230769  0.153846     48.000000
  0.461538  0.230769  0.153846     48.000000
  0.307692  0.307692  0.153846     24.000000
  0.384615  0.307692  0.153846     48.000000
  0.461538  0.307692  0.153846     48.000000
  0.384615  0.384615  0.153846     24.000000
  0.461538  0.384615  0.153846     48.000000
  0.461538  0.461538  0.153846     24.000000
  0.230769  0.230769  0.230769      8.000000
  0.307692  0.230769  0.230769     24.000000
  0.384615  0.230769  0.230769     24.000000
  0.461538  0.230769  0.230769     24.000000
  0.307692  0.307692  0.230769     24.000000
  0.384615  0.307692  0.230769     48.000000
  0.461538  0.307692  0.230769     48.000000
  0.384615  0.384615  0.230769     24.000000
  0.461538  0.384615  0.230769     48.000000
  0.461538  0.461538  0.230769     24.000000
  0.307692  0.307692  0.307692      8.000000
  0.384615  0.307692  0.307692     24.000000
  0.461538  0.307692  0.307692     24.000000
  0.384615  0.384615  0.307692     24.000000
  0.461538  0.384615  0.307692     48.000000
  0.461538  0.461538  0.307692     24.000000
  0.384615  0.384615  0.384615      8.000000
  0.461538  0.384615  0.384615     24.000000
  0.461538  0.461538  0.384615     24.000000
  0.461538  0.461538  0.461538      8.000000
 
 Following cartesian coordinates:
            Coordinates               Weight
  0.000000  0.000000  0.000000      1.000000
  0.019053  0.000000  0.000000      6.000000
  0.038106  0.000000  0.000000      6.000000
  0.057159  0.000000  0.000000      6.000000
  0.076212  0.000000  0.000000      6.000000
  0.095265  0.000000  0.000000      6.000000
  0.114318  0.000000  0.000000      6.000000
  0.019053  0.019053  0.000000     12.000000
  0.038106  0.019053  0.000000     24.000000
  0.057159  0.019053  0.000000     24.000000
  0.076212  0.019053  0.000000     24.000000
  0.095265  0.019053  0.000000     24.000000
  0.114318  0.019053  0.000000     24.000000
  0.038106  0.038106  0.000000     12.000000
  0.057159  0.038106  0.000000     24.000000
  0.076212  0.038106  0.000000     24.000000
  0.095265  0.038106  0.000000     24.000000
  0.114318  0.038106  0.000000     24.000000
  0.057159  0.057159  0.000000     12.000000
  0.076212  0.057159  0.000000     24.000000
  0.095265  0.057159  0.000000     24.000000
  0.114318  0.057159  0.000000     24.000000
  0.076212  0.076212  0.000000     12.000000
  0.095265  0.076212  0.000000     24.000000
  0.114318  0.076212  0.000000     24.000000
  0.095265  0.095265  0.000000     12.000000
  0.114318  0.095265  0.000000     24.000000
  0.114318  0.114318  0.000000     12.000000
  0.019053  0.019053  0.019053      8.000000
  0.038106  0.019053  0.019053     24.000000
  0.057159  0.019053  0.019053     24.000000
  0.076212  0.019053  0.019053     24.000000
  0.095265  0.019053  0.019053     24.000000
  0.114318  0.019053  0.019053     24.000000
  0.038106  0.038106  0.019053     24.000000
  0.057159  0.038106  0.019053     48.000000
  0.076212  0.038106  0.019053     48.000000
  0.095265  0.038106  0.019053     48.000000
  0.114318  0.038106  0.019053     48.000000
  0.057159  0.057159  0.019053     24.000000
  0.076212  0.057159  0.019053     48.000000
  0.095265  0.057159  0.019053     48.000000
  0.114318  0.057159  0.019053     48.000000
  0.076212  0.076212  0.019053     24.000000
  0.095265  0.076212  0.019053     48.000000
  0.114318  0.076212  0.019053     48.000000
  0.095265  0.095265  0.019053     24.000000
  0.114318  0.095265  0.019053     48.000000
  0.114318  0.114318  0.019053     24.000000
  0.038106  0.038106  0.038106      8.000000
  0.057159  0.038106  0.038106     24.000000
  0.076212  0.038106  0.038106     24.000000
  0.095265  0.038106  0.038106     24.000000
  0.114318  0.038106  0.038106     24.000000
  0.057159  0.057159  0.038106     24.000000
  0.076212  0.057159  0.038106     48.000000
  0.095265  0.057159  0.038106     48.000000
  0.114318  0.057159  0.038106     48.000000
  0.076212  0.076212  0.038106     24.000000
  0.095265  0.076212  0.038106     48.000000
  0.114318  0.076212  0.038106     48.000000
  0.095265  0.095265  0.038106     24.000000
  0.114318  0.095265  0.038106     48.000000
  0.114318  0.114318  0.038106     24.000000
  0.057159  0.057159  0.057159      8.000000
  0.076212  0.057159  0.057159     24.000000
  0.095265  0.057159  0.057159     24.000000
  0.114318  0.057159  0.057159     24.000000
  0.076212  0.076212  0.057159     24.000000
  0.095265  0.076212  0.057159     48.000000
  0.114318  0.076212  0.057159     48.000000
  0.095265  0.095265  0.057159     24.000000
  0.114318  0.095265  0.057159     48.000000
  0.114318  0.114318  0.057159     24.000000
  0.076212  0.076212  0.076212      8.000000
  0.095265  0.076212  0.076212     24.000000
  0.114318  0.076212  0.076212     24.000000
  0.095265  0.095265  0.076212     24.000000
  0.114318  0.095265  0.076212     48.000000
  0.114318  0.114318  0.076212     24.000000
  0.095265  0.095265  0.095265      8.000000
  0.114318  0.095265  0.095265     24.000000
  0.114318  0.114318  0.095265     24.000000
  0.114318  0.114318  0.114318      8.000000
 


--------------------------------------------------------------------------------------------------------




 Dimension of arrays:
   k-Points           NKPTS =     84   number of bands    NBANDS=     16
   number of dos      NEDOS =    301   number of ions     NIONS =      4
   non local maximal  LDIM  =      4   non local SUM 2l+1 LMDIM =      8
   total plane-waves  NPLWV =  27000
   max r-space proj   IRMAX =      1   max aug-charges    IRDMAX=  16655
   dimension x,y,z NGX =    30 NGY =   30 NGZ =   30
   dimension x,y,z NGXF=    60 NGYF=   60 NGZF=   60
   support grid    NGXF=    60 NGYF=   60 NGZF=   60
   ions per type =               4
 NGX,Y,Z   is equivalent  to a cutoff of  12.48, 12.48, 12.48 a.u.
 NGXF,Y,Z  is equivalent  to a cutoff of  24.96, 24.96, 24.96 a.u.


 I would recommend the setting:
   dimension x,y,z NGX =    29 NGY =   29 NGZ =   29
 SYSTEM =  unknown system                          
 POSCAR =  Al                                      

 Startparameter for this run:
   NWRITE =      2    write-flag & timer
   PREC   = accura    medium, high low
   ISTART =      0    job   : 0-new  1-cont  2-samecut
   ICHARG =      2    charge: 1-file 2-atom 10-const
   ISPIN  =      1    spin polarized calculation?
   LNONCOLLINEAR =      F non collinear calculations
   LSORBIT =      F    spin-orbit coupling
   INIWAV =      1    electr: 0-lowe 1-rand  2-diag
   LASPH  =      F    aspherical Exc in radial PAW
   METAGGA=      F    non-selfconsistent MetaGGA calc.

 Electronic Relaxation 1
   ENCUT  =  500.0 eV  36.75 Ry    6.06 a.u.   7.29  7.29  7.29*2*pi/ulx,y,z
   ENINI  =  500.0     initial cutoff
   ENAUG  =  291.1 eV  augmentation charge cutoff
   NELM   =     60;   NELMIN=  2; NELMDL=  0     # of ELM steps 
   EDIFF  = 0.1E-07   stopping-criterion for ELM
   LREAL  =      F    real-space projection
   LCOMPAT=      F    compatible to vasp.4.4
   LREAL_COMPAT= F    compatible to vasp.4.5.1-3
   GGA_COMPAT  = T    GGA compatible to vasp.4.4-vasp.4.6
   LMAXPAW     = -100 max onsite density
   LMAXMIX     =    2 max onsite mixed and CHGCAR
   VOSKOWN=      0    Vosko Wilk Nusair interpolation
   ROPT   =    0.00000
 Ionic relaxation
   EDIFFG = 0.1E-06   stopping-criterion for IOM
   NSW    =      0    number of steps for IOM
   NBLOCK =      1;   KBLOCK =      1    inner block; outer block 
   IBRION =     -1    ionic relax: 0-MD 1-quasi-New 2-CG
   NFREE  =      0    steps in history (QN), initial steepest desc. (CG)
   ISIF   =      2    stress and relaxation
   IWAVPR =     10    prediction:  0-non 1-charg 2-wave 3-comb
   ISYM   =      2    0-nonsym 1-usesym 2-fastsym
   LCORR  =      T    Harris-Foulkes like correction to forces

   POTIM  =   0.50    time-step for ionic-motion
   TEIN   =    0.0    initial temperature
   TEBEG  =    0.0;   TEEND  =   0.0 temperature during run
   SMASS  =  -3.00    Nose mass-parameter (am)
   estimated Nose-frequenzy (Omega)   =  0.10E-29 period in steps =****** mass=  -0.365E-27a.u.
   NPACO  =    256;   APACO  = 16.0  distance and # of slots for P.C.
   PSTRESS=    0.0 pullay stress

  Mass of Ions in am
   POMASS =  26.98
  Ionic Valenz
   ZVAL   =   3.00
  Atomic Wigner-Seitz radii
   RWIGS  =  -1.00
   NELECT =      12.0000    total number of electrons
   NUPDOWN=      -1.0000    fix difference up-down

 DOS related values:
   EMIN   =  10.00;   EMAX   =-10.00  energy-range for DOS
   ISMEAR =     0;   SIGMA  =   0.01  broadening in eV -4-tet -1-fermi 0-gaus

 Electronic relaxation 2 (details)
   IALGO  =     38    algorithm
   LDIAG  =      T    sub-space diagonalisation
   IMIX   =      4    mixing-type and parameters
     AMIX     =   0.40;   BMIX     =  1.00
     AMIX_MAG =   1.60;   BMIX_MAG =  1.00
     AMIN     =   0.10
     WC   =   100.;   INIMIX=   1;  MIXPRE=   1

 Intra band minimization:
   WEIMIN = 0.0000     energy-eigenvalue tresh-hold
   EBREAK =  0.25E-09  absolut break condition
   DEPER  =   0.30     relativ break condition  

   TIME   =   0.10     timestep for ELM

  volume/ion in A,a.u.               =      15.96       107.73
  Fermi-wavevector in a.u.,eV,Ry     =   0.937724 11.963960  0.879326

 Second variation
   LSECVAR=     F    do a second variation
 
 Write flags
   LWAVE  =      F    write WAVECAR
   LCHARG =      F    write CHGCAR
   LVTOT  =      F    write LOCPOT, local potential
   LELF   =      F    write electronic localiz. function (ELF)
   LORBIT =      0    0 simple, 1 ext, 2 COOP (PROOUT)


 Dipole corrections
   IDIPOL =      0    1-x, 2-y, 3-z
   LDIPOL =      F    correct potential



--------------------------------------------------------------------------------------------------------


 Static calculation
 charge density will be updated during run
 non-spin polarized calculation
 Variant of blocked Davidson
 Davidson routine will perform the subspace rotation
 performe sub-space diagonalisation
    after iterative eigenvector-optimisation
 modified Broyden-mixing scheme, WC =      100.0
 initial mixing is a Kerker type mixing with AMIX =  0.4000 and BMIX =      1.0000
 Hartree-type preconditioning will be used
 using additional bands           10
 reciprocal scheme for non local part
 use partial core corrections
 calculate Harris-corrections to forces 
   (improved forces if not selfconsistent)
 use gradient corrections 
 use of overlap-Matrix (Vanderbilt PP)
 Gauss-broadening in eV      SIGMA  =   0.01


--------------------------------------------------------------------------------------------------------


  energy-cutoff  :      500.00
  volume of cell :       63.85
      direct lattice vectors                 reciprocal lattice vectors
     3.996933306  0.000000000  0.000000000     0.250191815  0.000000000  0.000000000
     0.000000000  3.996933306  0.000000000     0.000000000  0.250191815  0.000000000
     0.000000000  0.000000000  3.996933306     0.000000000  0.000000000  0.250191815

  length of vectors
     3.996933306  3.996933306  3.996933306     0.250191815  0.250191815  0.250191815


 
 k-points in units of 2pi/SCALE and weight: Automatic mesh                          
   0.00000000  0.00000000  0.00000000       0.000
   0.01905307  0.00000000  0.00000000       0.003
   0.03810614  0.00000000  0.00000000       0.003
   0.05715921  0.00000000  0.00000000       0.003
   0.07621228  0.00000000  0.00000000       0.003
   0.09526535  0.00000000  0.00000000       0.003
   0.11431841  0.00000000  0.00000000       0.003
   0.01905307  0.01905307  0.00000000       0.005
   0.03810614  0.01905307  0.00000000       0.011
   0.05715921  0.01905307  0.00000000       0.011
   0.07621228  0.01905307  0.00000000       0.011
   0.09526535  0.01905307  0.00000000       0.011
   0.11431841  0.01905307  0.00000000       0.011
   0.03810614  0.03810614  0.00000000       0.005
   0.05715921  0.03810614  0.00000000       0.011
   0.07621228  0.03810614  0.00000000       0.011
   0.09526535  0.03810614  0.00000000       0.011
   0.11431841  0.03810614  0.00000000       0.011
   0.05715921  0.05715921  0.00000000       0.005
   0.07621228  0.05715921  0.00000000       0.011
   0.09526535  0.05715921  0.00000000       0.011
   0.11431841  0.05715921  0.00000000       0.011
   0.07621228  0.07621228  0.00000000       0.005
   0.09526535  0.07621228  0.00000000       0.011
   0.11431841  0.07621228  0.00000000       0.011
   0.09526535  0.09526535  0.00000000       0.005
   0.11431841  0.09526535  0.00000000       0.011
   0.11431841  0.11431841  0.00000000       0.005
   0.01905307  0.01905307  0.01905307       0.004
   0.03810614  0.01905307  0.01905307       0.011
   0.05715921  0.01905307  0.01905307       0.011
   0.07621228  0.01905307  0.01905307       0.011
   0.09526535  0.01905307  0.01905307       0.011
   0.11431841  0.01905307  0.01905307       0.011
   0.03810614  0.03810614  0.01905307       0.011
   0.05715921  0.03810614  0.01905307       0.022
   0.07621228  0.03810614  0.01905307       0.022
   0.09526535  0.03810614  0.01905307       0.022
   0.11431841  0.03810614  0.01905307       0.022
   0.05715921  0.05715921  0.01905307       0.011
   0.07621228  0.05715921  0.01905307       0.022
   0.09526535  0.05715921  0.01905307       0.022
   0.11431841  0.05715921  0.01905307       0.022
   0.07621228  0.07621228  0.01905307       0.011
   0.09526535  0.07621228  0.01905307       0.022
   0.11431841  0.07621228  0.01905307       0.022
   0.09526535  0.09526535  0.01905307       0.011
   0.11431841  0.09526535  0.01905307       0.022
   0.11431841  0.11431841  0.01905307       0.011
   0.03810614  0.03810614  0.03810614       0.004
   0.05715921  0.03810614  0.03810614       0.011
   0.07621228  0.03810614  0.03810614       0.011
   0.09526535  0.03810614  0.03810614       0.011
   0.11431841  0.03810614  0.03810614       0.011
   0.05715921  0.05715921  0.03810614       0.011
   0.07621228  0.05715921  0.03810614       0.022
   0.09526535  0.05715921  0.03810614       0.022
   0.11431841  0.05715921  0.03810614       0.022
   0.07621228  0.07621228  0.03810614       0.011
   0.09526535  0.07621228  0.03810614       0.022
   0.11431841  0.07621228  0.03810614       0.022
   0.09526535  0.09526535  0.03810614       0.011
   0.11431841  0.09526535  0.03810614       0.022
   0.11431841  0.11431841  0.03810614       0.011
   0.05715921  0.05715921  0.05715921       0.004
   0.07621228  0.05715921  0.05715921       0.011
   0.09526535  0.05715921  0.05715921       0.011
   0.11431841  0.05715921  0.05715921       0.011
   0.07621228  0.07621228  0.05715921       0.011
   0.09526535  0.07621228  0.05715921       0.022
   0.11431841  0.07621228  0.05715921       0.022
   0.09526535  0.09526535  0.05715921       0.011
   0.11431841  0.09526535  0.05715921       0.022
   0.11431841  0.11431841  0.05715921       0.011
   0.07621228  0.07621228  0.07621228       0.004
   0.09526535  0.07621228  0.07621228       0.011
   0.11431841  0.07621228  0.07621228       0.011
   0.09526535  0.09526535  0.07621228       0.011
   0.11431841  0.09526535  0.07621228       0.022
   0.11431841  0.11431841  0.07621228       0.011
   0.09526535  0.09526535  0.09526535       0.004
   0.11431841  0.09526535  0.09526535       0.011
   0.11431841  0.11431841  0.09526535       0.011
   0.11431841  0.11431841  0.11431841       0.004
 
 k-points in reciprocal lattice and weights: Automatic mesh                          
   0.00000000  0.00000000  0.00000000       0.000
   0.07692308  0.00000000  0.00000000       0.003
   0.15384615  0.00000000  0.00000000       0.003
   0.23076923  0.00000000  0.00000000       0.003
   0.30769231  0.00000000  0.00000000       0.003
   0.38461538  0.00000000  0.00000000       0.003
   0.46153846  0.00000000  0.00000000       0.003
   0.07692308  0.07692308  0.00000000       0.005
   0.15384615  0.07692308  0.00000000       0.011
   0.23076923  0.07692308  0.00000000       0.011
   0.30769231  0.07692308  0.00000000       0.011
   0.38461538  0.07692308  0.00000000       0.011
   0.46153846  0.07692308  0.00000000       0.011
   0.15384615  0.15384615  0.00000000       0.005
   0.23076923  0.15384615  0.00000000       0.011
   0.30769231  0.15384615  0.00000000       0.011
   0.38461538  0.15384615  0.00000000       0.011
   0.46153846  0.15384615  0.00000000       0.011
   0.23076923  0.23076923  0.00000000       0.005
   0.30769231  0.23076923  0.00000000       0.011
   0.38461538  0.23076923  0.00000000       0.011
   0.46153846  0.23076923  0.00000000       0.011
   0.30769231  0.30769231  0.00000000       0.005
   0.38461538  0.30769231  0.00000000       0.011
   0.46153846  0.30769231  0.00000000       0.011
   0.38461538  0.38461538  0.00000000       0.005
   0.46153846  0.38461538  0.00000000       0.011
   0.46153846  0.46153846  0.00000000       0.005
   0.07692308  0.07692308  0.07692308       0.004
   0.15384615  0.07692308  0.07692308       0.011
   0.23076923  0.07692308  0.07692308       0.011
   0.30769231  0.07692308  0.07692308       0.011
   0.38461538  0.07692308  0.07692308       0.011
   0.46153846  0.07692308  0.07692308       0.011
   0.15384615  0.15384615  0.07692308       0.011
   0.23076923  0.15384615  0.07692308       0.022
   0.30769231  0.15384615  0.07692308       0.022
   0.38461538  0.15384615  0.07692308       0.022
   0.46153846  0.15384615  0.07692308       0.022
   0.23076923  0.23076923  0.07692308       0.011
   0.30769231  0.23076923  0.07692308       0.022
   0.38461538  0.23076923  0.07692308       0.022
   0.46153846  0.23076923  0.07692308       0.022
   0.30769231  0.30769231  0.07692308       0.011
   0.38461538  0.30769231  0.07692308       0.022
   0.46153846  0.30769231  0.07692308       0.022
   0.38461538  0.38461538  0.07692308       0.011
   0.46153846  0.38461538  0.07692308       0.022
   0.46153846  0.46153846  0.07692308       0.011
   0.15384615  0.15384615  0.15384615       0.004
   0.23076923  0.15384615  0.15384615       0.011
   0.30769231  0.15384615  0.15384615       0.011
   0.38461538  0.15384615  0.15384615       0.011
   0.46153846  0.15384615  0.15384615       0.011
   0.23076923  0.23076923  0.15384615       0.011
   0.30769231  0.23076923  0.15384615       0.022
   0.38461538  0.23076923  0.15384615       0.022
   0.46153846  0.23076923  0.15384615       0.022
   0.30769231  0.30769231  0.15384615       0.011
   0.38461538  0.30769231  0.15384615       0.022
   0.46153846  0.30769231  0.15384615       0.022
   0.38461538  0.38461538  0.15384615       0.011
   0.46153846  0.38461538  0.15384615       0.022
   0.46153846  0.46153846  0.15384615       0.011
   0.23076923  0.23076923  0.23076923       0.004
   0.30769231  0.23076923  0.23076923       0.011
   0.38461538  0.23076923  0.23076923       0.011
   0.46153846  0.23076923  0.23076923       0.011
   0.30769231  0.30769231  0.23076923       0.011
   0.38461538  0.30769231  0.23076923       0.022
   0.46153846  0.30769231  0.23076923       0.022
   0.38461538  0.38461538  0.23076923       0.011
   0.46153846  0.38461538  0.23076923       0.022
   0.46153846  0.46153846  0.23076923       0.011
   0.30769231  0.30769231  0.30769231       0.004
   0.38461538  0.30769231  0.30769231       0.011
   0.46153846  0.30769231  0.30769231       0.011
   0.38461538  0.38461538  0.30769231       0.011
   0.46153846  0.38461538  0.30769231       0.022
   0.46153846  0.46153846  0.30769231       0.011
   0.38461538  0.38461538  0.38461538       0.004
   0.46153846  0.38461538  0.38461538       0.011
   0.46153846  0.46153846  0.38461538       0.011
   0.46153846  0.46153846  0.46153846       0.004
 
 position of ions in fractional coordinates (direct lattice) 
   0.50000000  0.50000000  0.00000000
   0.50000000  0.00000000  0.50000000
   0.00000000  0.50000000  0.50000000
   0.00000000  0.00000000  0.00000000
 
 position of ions in cartesian coordinates  (Angst):
   1.99846665  1.99846665  0.00000000
   1.99846665  0.00000000  1.99846665
   0.00000000  1.99846665  1.99846665
   0.00000000  0.00000000  0.00000000
 


--------------------------------------------------------------------------------------------------------


 k-point  1 :  0.00000.00000.0000  plane waves:   1647
 k-point  2 :  0.07690.00000.0000  plane waves:   1627
 k-point  3 :  0.15380.00000.0000  plane waves:   1631
 k-point  4 :  0.23080.00000.0000  plane waves:   1619
 k-point  5 :  0.30770.00000.0000  plane waves:   1630
 k-point  6 :  0.38460.00000.0000  plane waves:   1618
 k-point  7 :  0.46150.00000.0000  plane waves:   1630
 k-point  8 :  0.07690.07690.0000  plane waves:   1633
 k-point  9 :  0.15380.07690.0000  plane waves:   1628
 k-point 10 :  0.23080.07690.0000  plane waves:   1625
 k-point 11 :  0.30770.07690.0000  plane waves:   1627
 k-point 12 :  0.38460.07690.0000  plane waves:   1621
 k-point 13 :  0.46150.07690.0000  plane waves:   1622
 k-point 14 :  0.15380.15380.0000  plane waves:   1626
 k-point 15 :  0.23080.15380.0000  plane waves:   1624
 k-point 16 :  0.30770.15380.0000  plane waves:   1615
 k-point 17 :  0.38460.15380.0000  plane waves:   1624
 k-point 18 :  0.46150.15380.0000  plane waves:   1621
 k-point 19 :  0.23080.23080.0000  plane waves:   1620
 k-point 20 :  0.30770.23080.0000  plane waves:   1615
 k-point 21 :  0.38460.23080.0000  plane waves:   1623
 k-point 22 :  0.46150.23080.0000  plane waves:   1620
 k-point 23 :  0.30770.30770.0000  plane waves:   1614
 k-point 24 :  0.38460.30770.0000  plane waves:   1621
 k-point 25 :  0.46150.30770.0000  plane waves:   1621
 k-point 26 :  0.38460.38460.0000  plane waves:   1612
 k-point 27 :  0.46150.38460.0000  plane waves:   1627
 k-point 28 :  0.46150.46150.0000  plane waves:   1624
 k-point 29 :  0.07690.07690.0769  plane waves:   1638
 k-point 30 :  0.15380.07690.0769  plane waves:   1630
 k-point 31 :  0.23080.07690.0769  plane waves:   1624
 k-point 32 :  0.30770.07690.0769  plane waves:   1622
 k-point 33 :  0.38460.07690.0769  plane waves:   1619
 k-point 34 :  0.46150.07690.0769  plane waves:   1620
 k-point 35 :  0.15380.15380.0769  plane waves:   1631
 k-point 36 :  0.23080.15380.0769  plane waves:   1628
 k-point 37 :  0.30770.15380.0769  plane waves:   1623
 k-point 38 :  0.38460.15380.0769  plane waves:   1620
 k-point 39 :  0.46150.15380.0769  plane waves:   1618
 k-point 40 :  0.23080.23080.0769  plane waves:   1614
 k-point 41 :  0.30770.23080.0769  plane waves:   1617
 k-point 42 :  0.38460.23080.0769  plane waves:   1617
 k-point 43 :  0.46150.23080.0769  plane waves:   1613
 k-point 44 :  0.30770.30770.0769  plane waves:   1609
 k-point 45 :  0.38460.30770.0769  plane waves:   1618
 k-point 46 :  0.46150.30770.0769  plane waves:   1623
 k-point 47 :  0.38460.38460.0769  plane waves:   1621
 k-point 48 :  0.46150.38460.0769  plane waves:   1624
 k-point 49 :  0.46150.46150.0769  plane waves:   1628
 k-point 50 :  0.15380.15380.1538  plane waves:   1629
 k-point 51 :  0.23080.15380.1538  plane waves:   1629
 k-point 52 :  0.30770.15380.1538  plane waves:   1619
 k-point 53 :  0.38460.15380.1538  plane waves:   1617
 k-point 54 :  0.46150.15380.1538  plane waves:   1615
 k-point 55 :  0.23080.23080.1538  plane waves:   1619
 k-point 56 :  0.30770.23080.1538  plane waves:   1619
 k-point 57 :  0.38460.23080.1538  plane waves:   1619
 k-point 58 :  0.46150.23080.1538  plane waves:   1617
 k-point 59 :  0.30770.30770.1538  plane waves:   1617
 k-point 60 :  0.38460.30770.1538  plane waves:   1620
 k-point 61 :  0.46150.30770.1538  plane waves:   1620
 k-point 62 :  0.38460.38460.1538  plane waves:   1624
 k-point 63 :  0.46150.38460.1538  plane waves:   1622
 k-point 64 :  0.46150.46150.1538  plane waves:   1618
 k-point 65 :  0.23080.23080.2308  plane waves:   1622
 k-point 66 :  0.30770.23080.2308  plane waves:   1622
 k-point 67 :  0.38460.23080.2308  plane waves:   1619
 k-point 68 :  0.46150.23080.2308  plane waves:   1618
 k-point 69 :  0.30770.30770.2308  plane waves:   1617
 k-point 70 :  0.38460.30770.2308  plane waves:   1624
 k-point 71 :  0.46150.30770.2308  plane waves:   1626
 k-point 72 :  0.38460.38460.2308  plane waves:   1622
 k-point 73 :  0.46150.38460.2308  plane waves:   1624
 k-point 74 :  0.46150.46150.2308  plane waves:   1620
 k-point 75 :  0.30770.30770.3077  plane waves:   1622
 k-point 76 :  0.38460.30770.3077  plane waves:   1620
 k-point 77 :  0.46150.30770.3077  plane waves:   1627
 k-point 78 :  0.38460.38460.3077  plane waves:   1620
 k-point 79 :  0.46150.38460.3077  plane waves:   1618
 k-point 80 :  0.46150.46150.3077  plane waves:   1617
 k-point 81 :  0.38460.38460.3846  plane waves:   1616
 k-point 82 :  0.46150.38460.3846  plane waves:   1625
 k-point 83 :  0.46150.46150.3846  plane waves:   1613
 k-point 84 :  0.46150.46150.4615  plane waves:   1622

 maximum and minimum number of plane-waves per node :   1647  1609

 maximum number of plane-waves:   1647
 maximal index in each direction: 
   IXMAX=  7   IYMAX=  7   IZMAX=  7
   IXMIN= -7   IYMIN= -7   IZMIN= -7

 NGX is ok and might be reduce to  30
 NGY is ok and might be reduce to  30
 NGZ is ok and might be reduce to  30

 parallel 3dFFT wavefunction:
    minimum data exchange during FFTs selected (reduces bandwidth)
 parallel 3dFFT charge:
    minimum data exchange during FFTs selected (reduces bandwidth)

 For storing wavefunctions   34.88 MBYTES are necessary
 For predicting wavefunctions    1.21 MBYTES are necessary
Broyden mixing: mesh for mixing (old mesh)
   NGX = 15   NGY = 15   NGZ = 15
  (NGX  = 60   NGY  = 60   NGZ  = 60)
 gives a total of   3375 points
 initial charge density was supplied:
 charge density of overlapping atoms calculated
 number of electron   12.0000000 magnetization 
 keeping initial charge density in first step


--------------------------------------------------------------------------------------------------------


 Maximum index for augmentation-charges         2372 (set IRDMAX)


--------------------------------------------------------------------------------------------------------


 First call to EWALD:  gamma=   0.443
 Maximum number of real-space cells 3x 3x 3
 Maximum number of reciprocal cells 3x 3x 3

    FEWALD:  VPU time    0.00: CPU time    0.00


----------------------------------------- Iteration    1(   1)  ---------------------------------------


    POTLOK:  VPU time    0.02: CPU time    0.02
    SETDIJ:  VPU time    0.00: CPU time    0.00
    EDDAV :  VPU time    0.81: CPU time    0.84
    DOS   :  VPU time    0.00: CPU time   -0.00
    ------------------------------------------
      LOOP:  VPU time    0.83: CPU time    0.86

 eigenvalue-minimisations  :  2688
 total energy-change (2. order) : 0.5711880E+01  (-0.3943731E+03)
 number of electron   12.0000000 magnetization 
 augmentation part    12.0000000 magnetization 

 Free energy of the ion-electron system (eV)
  ---------------------------------------------------
  alpha Z        PSCENC =        -0.84163730
  Ewald energy   TEWEN  =      -297.32262379
  -1/2 Hartree   DENC   =        -0.36065863
  -V(xc)+E(xc)   XCENC  =      -104.71930600
  PAW double counting   =       142.21701965      -14.39593217
  entropy T*S    EENTRO =        -0.00003672
  eigenvalues    EBANDS =        66.98141358
  atomic energy  EATOM  =       214.15364153
  ---------------------------------------------------
  free energy    TOTEN  =         5.71188017 eV

  energy without entropy =        5.71191688  energy(sigma->0) =        5.71189852


--------------------------------------------------------------------------------------------------------




----------------------------------------- Iteration    1(   2)  ---------------------------------------


    EDDAV :  VPU time    1.00: CPU time    1.01
    DOS   :  VPU time    0.00: CPU time   -0.00
    ------------------------------------------
      LOOP:  VPU time    1.01: CPU time    1.01

 eigenvalue-minimisations  :  3592
 total energy-change (2. order) :-0.2015313E+02  (-0.1901159E+02)
 number of electron   12.0000000 magnetization 
 augmentation part    12.0000000 magnetization 

 Free energy of the ion-electron system (eV)
  ---------------------------------------------------
  alpha Z        PSCENC =        -0.84163730
  Ewald energy   TEWEN  =      -297.32262379
  -1/2 Hartree   DENC   =        -0.36065863
  -V(xc)+E(xc)   XCENC  =      -104.71930600
  PAW double counting   =       142.21701965      -14.39593217
  entropy T*S    EENTRO =        -0.00006397
  eigenvalues    EBANDS =        46.82830764
  atomic energy  EATOM  =       214.15364153
  ---------------------------------------------------
  free energy    TOTEN  =       -14.44125303 eV

  energy without entropy =      -14.44118906  energy(sigma->0) =      -14.44122105


--------------------------------------------------------------------------------------------------------




----------------------------------------- Iteration    1(   3)  ---------------------------------------


    EDDAV :  VPU time    0.97: CPU time    0.98
    DOS   :  VPU time    0.00: CPU time   -0.00
    ------------------------------------------
      LOOP:  VPU time    0.98: CPU time    0.98

 eigenvalue-minimisations  :  3464
 total energy-change (2. order) :-0.6179337E+00  (-0.6163082E+00)
 number of electron   12.0000000 magnetization 
 augmentation part    12.0000000 magnetization 

 Free energy of the ion-electron system (eV)
  ---------------------------------------------------
  alpha Z        PSCENC =        -0.84163730
  Ewald energy   TEWEN  =      -297.32262379
  -1/2 Hartree   DENC   =        -0.36065863
  -V(xc)+E(xc)   XCENC  =      -104.71930600
  PAW double counting   =       142.21701965      -14.39593217
  entropy T*S    EENTRO =        -0.00017074
  eigenvalues    EBANDS =        46.21048069
  atomic energy  EATOM  =       214.15364153
  ---------------------------------------------------
  free energy    TOTEN  =       -15.05918675 eV

  energy without entropy =      -15.05901601  energy(sigma->0) =      -15.05910138


--------------------------------------------------------------------------------------------------------




----------------------------------------- Iteration    1(   4)  ---------------------------------------


    EDDAV :  VPU time    0.96: CPU time    0.96
    DOS   :  VPU time    0.00: CPU time   -0.00
    ------------------------------------------
      LOOP:  VPU time    0.96: CPU time    0.96

 eigenvalue-minimisations  :  3392
 total energy-change (2. order) :-0.3795507E-02  (-0.3793225E-02)
 number of electron   12.0000000 magnetization 
 augmentation part    12.0000000 magnetization 

 Free energy of the ion-electron system (eV)
  ---------------------------------------------------
  alpha Z        PSCENC =        -0.84163730
  Ewald energy   TEWEN  =      -297.32262379
  -1/2 Hartree   DENC   =        -0.36065863
  -V(xc)+E(xc)   XCENC  =      -104.71930600
  PAW double counting   =       142.21701965      -14.39593217
  entropy T*S    EENTRO =        -0.00015731
  eigenvalues    EBANDS =        46.20667176
  atomic energy  EATOM  =       214.15364153
  ---------------------------------------------------
  free energy    TOTEN  =       -15.06298226 eV

  energy without entropy =      -15.06282494  energy(sigma->0) =      -15.06290360


--------------------------------------------------------------------------------------------------------




----------------------------------------- Iteration    1(   5)  ---------------------------------------


    EDDAV :  VPU time    1.00: CPU time    1.00
    DOS   :  VPU time    0.00: CPU time   -0.00
    CHARGE:  VPU time    0.03: CPU time    0.03
    MIXING:  VPU time    0.00: CPU time    0.00
    ------------------------------------------
      LOOP:  VPU time    1.03: CPU time    1.03

 eigenvalue-minimisations  :  3552
 total energy-change (2. order) :-0.4700836E-04  (-0.4700791E-04)
 number of electron   12.0000000 magnetization 
 augmentation part    -0.1459653 magnetization 

 Broyden mixing:
  rms(total) = 0.18976E+00    rms(broyden)= 0.18976E+00
  rms(prec ) = 0.43851E+00
  weight for this iteration     100.00

 Free energy of the ion-electron system (eV)
  ---------------------------------------------------
  alpha Z        PSCENC =        -0.84163730
  Ewald energy   TEWEN  =      -297.32262379
  -1/2 Hartree   DENC   =        -0.36065863
  -V(xc)+E(xc)   XCENC  =      -104.71930600
  PAW double counting   =       142.21701965      -14.39593217
  entropy T*S    EENTRO =        -0.00015720
  eigenvalues    EBANDS =        46.20662463
  atomic energy  EATOM  =       214.15364153
  ---------------------------------------------------
  free energy    TOTEN  =       -15.06302927 eV

  energy without entropy =      -15.06287207  energy(sigma->0) =      -15.06295067


--------------------------------------------------------------------------------------------------------




----------------------------------------- Iteration    1(   6)  ---------------------------------------


    POTLOK:  VPU time    0.02: CPU time    0.02
    SETDIJ:  VPU time    0.00: CPU time    0.00
    EDDAV :  VPU time    0.91: CPU time    0.92
    DOS   :  VPU time    0.00: CPU time   -0.00
    CHARGE:  VPU time    0.03: CPU time    0.03
    MIXING:  VPU time    0.00: CPU time    0.00
    ------------------------------------------
      LOOP:  VPU time    0.97: CPU time    0.97

 eigenvalue-minimisations  :  3208
 total energy-change (2. order) : 0.5383818E-01  (-0.5473832E-03)
 number of electron   12.0000000 magnetization 
 augmentation part    -0.1480372 magnetization 

 Broyden mixing:
  rms(total) = 0.11794E+00    rms(broyden)= 0.11794E+00
  rms(prec ) = 0.27410E+00
  weight for this iteration     100.00

 eigenvalues of (default mixing * dielectric matrix)
  average eigenvalue GAMMA=   2.6325
  2.6325

 Free energy of the ion-electron system (eV)
  ---------------------------------------------------
  alpha Z        PSCENC =        -0.84163730
  Ewald energy   TEWEN  =      -297.32262379
  -1/2 Hartree   DENC   =        -0.31927933
  -V(xc)+E(xc)   XCENC  =      -104.56786321
  PAW double counting   =       142.53580350      -14.73644187
  entropy T*S    EENTRO =        -0.00023868
  eigenvalues    EBANDS =        46.08944807
  atomic energy  EATOM  =       214.15364153
  ---------------------------------------------------
  free energy    TOTEN  =       -15.00919109 eV

  energy without entropy =      -15.00895241  energy(sigma->0) =      -15.00907175


--------------------------------------------------------------------------------------------------------




----------------------------------------- Iteration    1(   7)  ---------------------------------------


    POTLOK:  VPU time    0.02: CPU time    0.02
    SETDIJ:  VPU time    0.00: CPU time    0.00
    EDDAV :  VPU time    0.86: CPU time    0.87
    DOS   :  VPU time    0.00: CPU time   -0.00
    CHARGE:  VPU time    0.03: CPU time    0.03
    MIXING:  VPU time    0.00: CPU time    0.00
    ------------------------------------------
      LOOP:  VPU time    0.92: CPU time    0.92

 eigenvalue-minimisations  :  2992
 total energy-change (2. order) : 0.3908495E-01  (-0.1700038E-02)
 number of electron   12.0000000 magnetization 
 augmentation part    -0.1521618 magnetization 

 Broyden mixing:
  rms(total) = 0.52190E-02    rms(broyden)= 0.52189E-02
  rms(prec ) = 0.88803E-02
  weight for this iteration     100.00

 eigenvalues of (default mixing * dielectric matrix)
  average eigenvalue GAMMA=   2.4898
  2.4898  2.4898

 Free energy of the ion-electron system (eV)
  ---------------------------------------------------
  alpha Z        PSCENC =        -0.84163730
  Ewald energy   TEWEN  =      -297.32262379
  -1/2 Hartree   DENC   =        -0.42946131
  -V(xc)+E(xc)   XCENC  =      -104.26189214
  PAW double counting   =       142.99544383      -15.23910064
  entropy T*S    EENTRO =        -0.00032517
  eigenvalues    EBANDS =        45.97584886
  atomic energy  EATOM  =       214.15364153
  ---------------------------------------------------
  free energy    TOTEN  =       -14.97010614 eV

  energy without entropy =      -14.96978097  energy(sigma->0) =      -14.96994356


--------------------------------------------------------------------------------------------------------




----------------------------------------- Iteration    1(   8)  ---------------------------------------


    POTLOK:  VPU time    0.02: CPU time    0.02
    SETDIJ:  VPU time    0.00: CPU time    0.00
    EDDAV :  VPU time    1.01: CPU time    1.01
    DOS   :  VPU time    0.00: CPU time   -0.00
    CHARGE:  VPU time    0.03: CPU time    0.03
    MIXING:  VPU time    0.00: CPU time    0.00
    ------------------------------------------
      LOOP:  VPU time    1.06: CPU time    1.06

 eigenvalue-minimisations  :  3608
 total energy-change (2. order) :-0.2590109E-04  (-0.1406861E-04)
 number of electron   12.0000000 magnetization 
 augmentation part    -0.1523740 magnetization 

 Broyden mixing:
  rms(total) = 0.13085E-02    rms(broyden)= 0.13085E-02
  rms(prec ) = 0.27871E-02
  weight for this iteration     100.00

 eigenvalues of (default mixing * dielectric matrix)
  average eigenvalue GAMMA=   2.0830
  1.0053  2.6867  2.5570

 Free energy of the ion-electron system (eV)
  ---------------------------------------------------
  alpha Z        PSCENC =        -0.84163730
  Ewald energy   TEWEN  =      -297.32262379
  -1/2 Hartree   DENC   =        -0.43524211
  -V(xc)+E(xc)   XCENC  =      -104.25725928
  PAW double counting   =       143.08911275      -15.33915893
  entropy T*S    EENTRO =        -0.00032624
  eigenvalues    EBANDS =        45.98336134
  atomic energy  EATOM  =       214.15364153
  ---------------------------------------------------
  free energy    TOTEN  =       -14.97013204 eV

  energy without entropy =      -14.96980580  energy(sigma->0) =      -14.96996892


--------------------------------------------------------------------------------------------------------




----------------------------------------- Iteration    1(   9)  ---------------------------------------


    POTLOK:  VPU time    0.02: CPU time    0.02
    SETDIJ:  VPU time    0.00: CPU time    0.00
    EDDAV :  VPU time    0.97: CPU time    0.97
    DOS   :  VPU time   -0.00: CPU time   -0.00
    CHARGE:  VPU time    0.03: CPU time    0.03
    MIXING:  VPU time    0.00: CPU time    0.00
    ------------------------------------------
      LOOP:  VPU time    1.03: CPU time    1.03

 eigenvalue-minimisations  :  3448
 total energy-change (2. order) :-0.2580064E-05  (-0.3967708E-06)
 number of electron   12.0000000 magnetization 
 augmentation part    -0.1524751 magnetization 

 Broyden mixing:
  rms(total) = 0.12794E-03    rms(broyden)= 0.12794E-03
  rms(prec ) = 0.17712E-03
  weight for this iteration     100.00

 eigenvalues of (default mixing * dielectric matrix)
  average eigenvalue GAMMA=   2.0842
  0.9967  2.6134  2.6134  2.1135

 Free energy of the ion-electron system (eV)
  ---------------------------------------------------
  alpha Z        PSCENC =        -0.84163730
  Ewald energy   TEWEN  =      -297.32262379
  -1/2 Hartree   DENC   =        -0.43936339
  -V(xc)+E(xc)   XCENC  =      -104.25241543
  PAW double counting   =       143.11435425      -15.36671494
  entropy T*S    EENTRO =        -0.00032676
  eigenvalues    EBANDS =        45.98495122
  atomic energy  EATOM  =       214.15364153
  ---------------------------------------------------
  free energy    TOTEN  =       -14.97013462 eV

  energy without entropy =      -14.96980786  energy(sigma->0) =      -14.96997124


--------------------------------------------------------------------------------------------------------




----------------------------------------- Iteration    1(  10)  ---------------------------------------


    POTLOK:  VPU time    0.02: CPU time    0.02
    SETDIJ:  VPU time    0.00: CPU time    0.00
    EDDAV :  VPU time    1.05: CPU time    1.05
    DOS   :  VPU time    0.00: CPU time   -0.00
    CHARGE:  VPU time    0.03: CPU time    0.03
    MIXING:  VPU time    0.00: CPU time    0.00
    ------------------------------------------
      LOOP:  VPU time    1.10: CPU time    1.10

 eigenvalue-minimisations  :  3728
 total energy-change (2. order) : 0.1019154E-05  (-0.4357373E-08)
 number of electron   12.0000000 magnetization 
 augmentation part    -0.1524761 magnetization 

 Broyden mixing:
  rms(total) = 0.32895E-04    rms(broyden)= 0.32894E-04
  rms(prec ) = 0.60808E-04
  weight for this iteration     100.00

 eigenvalues of (default mixing * dielectric matrix)
  average eigenvalue GAMMA=   1.9776
  1.0230  0.9690  2.6982  2.6982  2.4994

 Free energy of the ion-electron system (eV)
  ---------------------------------------------------
  alpha Z        PSCENC =        -0.84163730
  Ewald energy   TEWEN  =      -297.32262379
  -1/2 Hartree   DENC   =        -0.43930744
  -V(xc)+E(xc)   XCENC  =      -104.25249708
  PAW double counting   =       143.10260836      -15.35459150
  entropy T*S    EENTRO =        -0.00032677
  eigenvalues    EBANDS =        45.98460037
  atomic energy  EATOM  =       214.15364153
  ---------------------------------------------------
  free energy    TOTEN  =       -14.97013360 eV

  energy without entropy =      -14.96980684  energy(sigma->0) =      -14.96997022


--------------------------------------------------------------------------------------------------------




----------------------------------------- Iteration    1(  11)  ---------------------------------------


    POTLOK:  VPU time    0.02: CPU time    0.02
    SETDIJ:  VPU time    0.00: CPU time    0.00
    EDDAV :  VPU time    0.77: CPU time    0.77
    DOS   :  VPU time   -0.00: CPU time   -0.00
    CHARGE:  VPU time    0.03: CPU time    0.03
    MIXING:  VPU time    0.00: CPU time    0.00
    ------------------------------------------
      LOOP:  VPU time    0.83: CPU time    0.83

 eigenvalue-minimisations  :  2480
 total energy-change (2. order) : 0.1629810E-06  (-0.1481120E-09)
 number of electron   12.0000000 magnetization 
 augmentation part    -0.1524772 magnetization 

 Broyden mixing:
  rms(total) = 0.23805E-05    rms(broyden)= 0.23800E-05
  rms(prec ) = 0.27521E-05
  weight for this iteration     100.00

 eigenvalues of (default mixing * dielectric matrix)
  average eigenvalue GAMMA=   1.9389
  2.6916  2.6916  2.4826  0.9955  0.9955  1.7766

 Free energy of the ion-electron system (eV)
  ---------------------------------------------------
  alpha Z        PSCENC =        -0.84163730
  Ewald energy   TEWEN  =      -297.32262379
  -1/2 Hartree   DENC   =        -0.43937636
  -V(xc)+E(xc)   XCENC  =      -104.25242068
  PAW double counting   =       143.09961628      -15.35153373
  entropy T*S    EENTRO =        -0.00032678
  eigenvalues    EBANDS =        45.98452739
  atomic energy  EATOM  =       214.15364153
  ---------------------------------------------------
  free energy    TOTEN  =       -14.97013344 eV

  energy without entropy =      -14.96980666  energy(sigma->0) =      -14.96997005


--------------------------------------------------------------------------------------------------------




----------------------------------------- Iteration    1(  12)  ---------------------------------------


    POTLOK:  VPU time    0.02: CPU time    0.02
    SETDIJ:  VPU time    0.00: CPU time    0.00
    EDDAV :  VPU time    0.70: CPU time    0.70
    DOS   :  VPU time    0.00: CPU time   -0.00
    CHARGE:  VPU time    0.03: CPU time    0.03
    MIXING:  VPU time    0.00: CPU time    0.00
    ------------------------------------------
      LOOP:  VPU time    0.76: CPU time    0.76

 eigenvalue-minimisations  :  2152
 total energy-change (2. order) :-0.2275229E-07  (-0.1351586E-10)
 number of electron   12.0000000 magnetization 
 augmentation part    -0.1524772 magnetization 

 Broyden mixing:
  rms(total) = 0.86718E-06    rms(broyden)= 0.86713E-06
  rms(prec ) = 0.15627E-05
  weight for this iteration     100.00

 eigenvalues of (default mixing * dielectric matrix)
  average eigenvalue GAMMA=   1.9040
  2.7106  2.6398  2.6398  2.4639  0.9943  0.9943  0.8856

 Free energy of the ion-electron system (eV)
  ---------------------------------------------------
  alpha Z        PSCENC =        -0.84163730
  Ewald energy   TEWEN  =      -297.32262379
  -1/2 Hartree   DENC   =        -0.43937619
  -V(xc)+E(xc)   XCENC  =      -104.25242299
  PAW double counting   =       143.10002183      -15.35195139
  entropy T*S    EENTRO =        -0.00032677
  eigenvalues    EBANDS =        45.98454161
  atomic energy  EATOM  =       214.15364153
  ---------------------------------------------------
  free energy    TOTEN  =       -14.97013346 eV

  energy without entropy =      -14.96980669  energy(sigma->0) =      -14.96997007


--------------------------------------------------------------------------------------------------------




----------------------------------------- Iteration    1(  13)  ---------------------------------------


    POTLOK:  VPU time    0.02: CPU time    0.02
    SETDIJ:  VPU time    0.00: CPU time    0.00
    EDDAV :  VPU time    0.65: CPU time    0.65
    DOS   :  VPU time    0.00: CPU time   -0.00
    ------------------------------------------
      LOOP:  VPU time    0.67: CPU time    0.67

 eigenvalue-minimisations  :  1904
 total energy-change (2. order) :-0.4530676E-08  (-0.3055320E-11)
 number of electron   12.0000000 magnetization 
 augmentation part    -0.1524772 magnetization 

 Free energy of the ion-electron system (eV)
  ---------------------------------------------------
  alpha Z        PSCENC =        -0.84163730
  Ewald energy   TEWEN  =      -297.32262379
  -1/2 Hartree   DENC   =        -0.43937706
  -V(xc)+E(xc)   XCENC  =      -104.25242221
  PAW double counting   =       143.10013215      -15.35206492
  entropy T*S    EENTRO =        -0.00032677
  eigenvalues    EBANDS =        45.98454491
  atomic energy  EATOM  =       214.15364153
  ---------------------------------------------------
  free energy    TOTEN  =       -14.97013347 eV

  energy without entropy =      -14.96980669  energy(sigma->0) =      -14.96997008


--------------------------------------------------------------------------------------------------------




 average (electrostatic) potential at core
  the test charge radii are     1.0406
  (the norm of the test charge is              1.0000)
       1 -72.2301       2 -72.2301       3 -72.2301       4 -72.2301
 
 
 
 E-fermi :   8.3528     XC(G=0): -10.3169     alpha+bet :-15.3766
   add alpha+bet to get absolut eigen values

 k-point   1 :       0.0000    0.0000    0.0000
  band No.  band energies     occupation 
      1      -3.0154      2.00000
      2       5.3458      2.00000
      3       5.3458      2.00000
      4       5.3458      2.00000
      5       6.7413      2.00000
      6       6.7413      2.00000
      7       6.7413      2.00000
      8      13.6149      0.00000
      9      13.6149      0.00000
     10      13.6149      0.00000
     11      14.1013      0.00000
     12      14.1013      0.00000
     13      14.1013      0.00000
     14      14.1013      0.00000
     15      14.1013      0.00000
     16      14.1013      0.00000

 k-point   2 :       0.0769    0.0000    0.0000
  band No.  band energies     occupation 
      1      -2.9606      2.00000
      2       4.5666      2.00000
      3       5.3958      2.00000
      4       5.3958      2.00000
      5       6.7938      2.00000
      6       6.7938      2.00000
      7       7.6148      2.00000
      8      12.5719      0.00000
      9      12.5719      0.00000
     10      13.6691      0.00000
     11      13.7242      0.00000
     12      13.7242      0.00000
     13      14.1475      0.00000
     14      14.1475      0.00000
     15      15.2458      0.00000
     16      15.2458      0.00000

 k-point   3 :       0.1538    0.0000    0.0000
  band No.  band energies     occupation 
      1      -2.7962      2.00000
      2       3.4357      2.00000
      3       5.5457      2.00000
      4       5.5457      2.00000
      5       6.9503      2.00000
      6       6.9503      2.00000
      7       9.0285      0.00000
      8      11.4210      0.00000
      9      11.4210      0.00000
     10      12.9124      0.00000
     11      12.9124      0.00000
     12      13.8313      0.00000
     13      14.2861      0.00000
     14      14.2861      0.00000
     15      16.7006      0.00000
     16      16.7006      0.00000

 k-point   4 :       0.2308    0.0000    0.0000
  band No.  band energies     occupation 
      1      -2.5228      2.00000
      2       2.3510      2.00000
      3       5.7957      2.00000
      4       5.7957      2.00000
      5       7.2079      2.00000
      6       7.2079      2.00000
      7      10.3648      0.00000
      8      10.3648      0.00000
      9      10.5840      0.00000
     10      12.0020      0.00000
     11      12.0020      0.00000
     12      14.1015      0.00000
     13      14.5172      0.00000
     14      14.5172      0.00000
     15      18.1876      0.00000
     16      18.2621      0.00000

 k-point   5 :       0.3077    0.0000    0.0000
  band No.  band energies     occupation 
      1      -2.1409      2.00000
      2       1.3518      2.00000
      3       6.1460      2.00000
      4       6.1460      2.00000
      5       7.5591      2.00000
      6       7.5591      2.00000
      7       9.4088      0.00000
      8       9.4088      0.00000
      9      11.1205      0.00000
     10      11.1205      0.00000
     11      12.2413      0.00000
     12      14.4790      0.00000
     13      14.8408      0.00000
     14      14.8408      0.00000
     15      17.8408      0.00000
     16      17.8415      0.00000

 k-point   6 :       0.3846    0.0000    0.0000
  band No.  band energies     occupation 
      1      -1.6514      2.00000
      2       0.4483      2.00000
      3       6.5967      2.00000
      4       6.5967      2.00000
      5       7.9821      2.00000
      6       7.9821      2.00000
      7       8.5540      0.00000
      8       8.5540      0.00000
      9      10.3311      0.00000
     10      10.3311      0.00000
     11      13.9888      0.00000
     12      14.9630      0.00000
     13      15.2571      0.00000
     14      15.2571      0.00000
     15      17.0337      0.00000
     16      17.0594      0.00000

 k-point   7 :       0.4615    0.0000    0.0000
  band No.  band energies     occupation 
      1      -1.0557      2.00000
      2      -0.3551      2.00000
      3       7.1481      2.00000
      4       7.1481      2.00000
      5       7.8004      2.00000
      6       7.8004      2.00000
      7       8.3816      0.00005
      8       8.3816      0.00005
      9       9.7455      0.00000
     10       9.7455      0.00000
     11      15.5520      0.00000
     12      15.7660      0.00000
     13      15.7660      0.00000
     14      15.8196      0.00000
     15      16.2436      0.00000
     16      16.3671      0.00000

 k-point   8 :       0.0769    0.0769    0.0000
  band No.  band energies     occupation 
      1      -2.9058      2.00000
      2       4.6179      2.00000
      3       4.6179      2.00000
      4       5.4457      2.00000
      5       6.8458      2.00000
      6       7.6657      2.00000
      7       7.6657      2.00000
      8      11.8092      0.00000
      9      12.6228      0.00000
     10      12.6228      0.00000
     11      13.7717      0.00000
     12      13.7717      0.00000
     13      14.1945      0.00000
     14      15.2173      0.00000
     15      15.2951      0.00000
     16      15.2951      0.00000

 k-point   9 :       0.1538    0.0769    0.0000
  band No.  band energies     occupation 
      1      -2.7415      2.00000
      2       3.4877      2.00000
      3       4.7715      2.00000
      4       5.5957      2.00000
      5       7.0008      2.00000
      6       7.8175      2.00000
      7       9.0776      0.00000
      8      10.7250      0.00000
      9      11.4716      0.00000
     10      12.7755      0.00000
     11      12.9623      0.00000
     12      13.6475      0.00000
     13      13.9141      0.00000
     14      15.4431      0.00000
     15      16.2876      0.00000
     16      16.7501      0.00000

 k-point  10 :       0.2308    0.0769    0.0000
  band No.  band energies     occupation 
      1      -2.4682      2.00000
      2       2.4036      2.00000
      3       5.0271      2.00000
      4       5.8457      2.00000
      5       7.2536      2.00000
      6       8.0670      2.00000
      7       9.6956      0.00000
      8      10.4152      0.00000
      9      10.6304      0.00000
     10      12.0556      0.00000
     11      12.7548      0.00000
     12      13.0297      0.00000
     13      14.1521      0.00000
     14      15.6898      0.00000
     15      17.5691      0.00000
     16      17.7737      0.00000

 k-point  11 :       0.3077    0.0769    0.0000
  band No.  band energies     occupation 
      1      -2.0864      2.00000
      2       1.4049      2.00000
      3       5.3842      2.00000
      4       6.1960      2.00000
      5       7.5812      2.00000
      6       8.4042      0.00000
      7       8.7758      0.00000
      8       9.4592      0.00000
      9      11.1820      0.00000
     10      11.8709      0.00000
     11      12.2815      0.00000
     12      13.3849      0.00000
     13      14.4872      0.00000
     14      16.0352      0.00000
     15      16.6394      0.00000
     16      17.4802      0.00000

 k-point  12 :       0.3846    0.0769    0.0000
  band No.  band energies     occupation 
      1      -1.5972      2.00000
      2       0.5017      2.00000
      3       5.8416      2.00000
      4       6.6468      2.00000
      5       7.6739      2.00000
      6       8.2745      2.00000
      7       8.6042      0.00000
      8       8.7906      0.00000
      9      10.4230      0.00000
     10      11.0620      0.00000
     11      13.8405      0.00000
     12      14.0049      0.00000
     13      14.9337      0.00000
     14      15.7974      0.00000
     15      16.4791      0.00000
     16      16.6971      0.00000

 k-point  13 :       0.4615    0.0769    0.0000
  band No.  band energies     occupation 
      1      -1.0016      2.00000
      2      -0.3014      2.00000
      3       6.3964      2.00000
      4       7.0392      2.00000
      5       7.1982      2.00000
      6       7.8507      2.00000
      7       8.6530      0.00000
      8       8.9959      0.00000
      9      10.0281      0.00000
     10      10.3800      0.00000
     11      14.3955      0.00000
     12      15.0484      0.00000
     13      15.3402      0.00000
     14      15.9441      0.00000
     15      15.9936      0.00000
     16      17.0207      0.00000

 k-point  14 :       0.1538    0.1538    0.0000
  band No.  band energies     occupation 
      1      -2.5774      2.00000
      2       3.6438      2.00000
      3       3.6438      2.00000
      4       5.7457      2.00000
      5       7.1491      2.00000
      6       9.2234      0.00000
      7       9.2234      0.00000
      8       9.6692      0.00000
      9      11.6233      0.00000
     10      11.6233      0.00000
     11      13.1127      0.00000
     12      13.1127      0.00000
     13      14.4743      0.00000
     14      15.9098      0.00000
     15      16.8986      0.00000
     16      16.8986      0.00000

 k-point  15 :       0.2308    0.1538    0.0000
  band No.  band energies     occupation 
      1      -2.3044      2.00000
      2       2.5613      2.00000
      3       3.9035      2.00000
      4       5.9958      2.00000
      5       7.3718      2.00000
      6       8.6750      0.00000
      7       9.4585      0.00000
      8      10.5666      0.00000
      9      10.7650      0.00000
     10      11.8761      0.00000
     11      12.2194      0.00000
     12      13.3668      0.00000
     13      14.0055      0.00000
     14      16.4355      0.00000
     15      16.9395      0.00000
     16      17.1457      0.00000

 k-point  16 :       0.3077    0.1538    0.0000
  band No.  band energies     occupation 
      1      -1.9231      2.00000
      2       1.5639      2.00000
      3       4.2662      2.00000
      4       6.3462      2.00000
      5       7.3888      2.00000
      6       8.0681      2.00000
      7       9.6103      0.00000
      8       9.7528      0.00000
      9      11.3852      0.00000
     10      12.2297      0.00000
     11      12.3824      0.00000
     12      13.1802      0.00000
     13      13.7429      0.00000
     14      15.4927      0.00000
     15      16.7027      0.00000
     16      17.4911      0.00000

 k-point  17 :       0.3846    0.1538    0.0000
  band No.  band energies     occupation 
      1      -1.4345      2.00000
      2       0.6619      2.00000
      3       4.7307      2.00000
      4       6.6960      2.00000
      5       6.7971      2.00000
      6       8.3602      0.29651
      7       8.7552      0.00000
      8       9.9049      0.00000
      9      10.8543      0.00000
     10      12.3804      0.00000
     11      12.6839      0.00000
     12      13.8305      0.00000
     13      14.4728      0.00000
     14      14.6439      0.00000
     15      15.9148      0.00000
     16      17.9336      0.00000

 k-point  18 :       0.4615    0.1538    0.0000
  band No.  band energies     occupation 
      1      -0.8397      2.00000
      2      -0.1402      2.00000
      3       5.2951      2.00000
      4       5.9550      2.00000
      5       7.3488      2.00000
      6       8.0014      2.00000
      7       8.8840      0.00000
      8       9.4770      0.00000
      9      11.0829      0.00000
     10      11.6655      0.00000
     11      13.2381      0.00000
     12      13.8918      0.00000
     13      14.5542      0.00000
     14      15.2010      0.00000
     15      16.1018      0.00000
     16      17.9705      0.00000

 k-point  19 :       0.2308    0.2308    0.0000
  band No.  band energies     occupation 
      1      -2.0320      2.00000
      2       2.8238      2.00000
      3       2.8238      2.00000
      4       6.2461      2.00000
      5       7.2899      2.00000
      6       7.9836      2.00000
      7      10.8189      0.00000
      8      10.8189      0.00000
      9      10.9612      0.00000
     10      10.9612      0.00000
     11      12.5145      0.00000
     12      12.5145      0.00000
     13      14.9411      0.00000
     14      15.3910      0.00000
     15      16.5559      0.00000
     16      16.6799      0.00000

 k-point  20 :       0.3077    0.2308    0.0000
  band No.  band energies     occupation 
      1      -1.6514      2.00000
      2       1.8287      2.00000
      3       3.1905      2.00000
      4       6.5078      2.00000
      5       6.5967      2.00000
      6       8.1726      2.00000
      7       9.8622      0.00000
      8      11.0251      0.00000
      9      11.1719      0.00000
     10      11.9097      0.00000
     11      12.3426      0.00000
     12      13.1302      0.00000
     13      14.4411      0.00000
     14      14.5792      0.00000
     15      15.8266      0.00000
     16      17.6350      0.00000

 k-point  21 :       0.3846    0.2308    0.0000
  band No.  band energies     occupation 
      1      -1.1638      2.00000
      2       0.9285      2.00000
      3       3.6602      2.00000
      4       5.6663      2.00000
      5       7.0478      2.00000
      6       8.6121      0.00000
      7       9.0067      0.00000
      8      10.5017      0.00000
      9      11.6257      0.00000
     10      12.0501      0.00000
     11      13.0793      0.00000
     12      13.5883      0.00000
     13      13.8515      0.00000
     14      14.5751      0.00000
     15      15.0320      0.00000
     16      19.2537      0.00000

 k-point  22 :       0.4615    0.2308    0.0000
  band No.  band energies     occupation 
      1      -0.5701      2.00000
      2       0.1280      2.00000
      3       4.2316      2.00000
      4       4.9020      2.00000
      5       7.5997      2.00000
      6       8.2526      2.00000
      7       9.1657      0.00000
      8       9.8085      0.00000
      9      12.1799      0.00000
     10      12.5351      0.00000
     11      12.8343      0.00000
     12      13.1501      0.00000
     13      13.6665      0.00000
     14      14.3110      0.00000
     15      16.3415      0.00000
     16      18.2050      0.00000

 k-point  23 :       0.3077    0.3077    0.0000
  band No.  band energies     occupation 
      1      -1.2720      2.00000
      2       2.1984      2.00000
      3       2.1984      2.00000
      4       5.5681      2.00000
      5       6.9476      2.00000
      6       8.5148      0.00000
      7      10.2148      0.00000
      8      10.2148      0.00000
      9      11.7105      0.00000
     10      11.7105      0.00000
     11      13.2212      0.00000
     12      13.2212      0.00000
     13      13.4871      0.00000
     14      14.9671      0.00000
     15      15.5957      0.00000
     16      17.3401      0.00000

 k-point  24 :       0.3846    0.3077    0.0000
  band No.  band energies     occupation 
      1      -0.7856      2.00000
      2       1.3008      2.00000
      3       2.6722      2.00000
      4       4.7014      2.00000
      5       7.3990      2.00000
      6       8.9752      0.00000
      7       9.3590      0.00000
      8      10.6682      0.00000
      9      10.9288      0.00000
     10      12.2242      0.00000
     11      12.6321      0.00000
     12      13.6149      0.00000
     13      14.1651      0.00000
     14      14.8872      0.00000
     15      15.3493      0.00000
     16      18.4823      0.00000

 k-point  25 :       0.4615    0.3077    0.0000
  band No.  band energies     occupation 
      1      -0.1936      2.00000
      2       0.5026      2.00000
      3       3.2488      2.00000
      4       3.9263      2.00000
      5       7.9513      2.00000
      6       8.6045      0.00000
      7       9.5378      0.00000
      8      10.1933      0.00000
      9      11.2223      0.00000
     10      11.8771      0.00000
     11      12.7910      0.00000
     12      13.4374      0.00000
     13      14.1301      0.00000
     14      14.7288      0.00000
     15      16.6659      0.00000
     16      18.4994      0.00000

 k-point  26 :       0.3846    0.3846    0.0000
  band No.  band energies     occupation 
      1      -0.3010      2.00000
      2       1.7781      2.00000
      3       1.7781      2.00000
      4       3.8239      2.00000
      5       7.8508      2.00000
      6       9.4416      0.00000
      7       9.8120      0.00000
      8       9.8120      0.00000
      9      11.4086      0.00000
     10      11.4086      0.00000
     11      11.7761      0.00000
     12      13.3557      0.00000
     13      15.3049      0.00000
     14      15.3049      0.00000
     15      16.4386      0.00000
     16      18.2970      0.00000

 k-point  27 :       0.4615    0.3846    0.0000
  band No.  band energies     occupation 
      1       0.2889      2.00000
      2       0.9826      2.00000
      3       2.3589      2.00000
      4       3.0417      2.00000
      5       8.4035      0.00000
      6       9.0571      0.00000
      7      10.0065      0.00000
      8      10.3659      0.00000
      9      10.6647      0.00000
     10      11.0206      0.00000
     11      11.9716      0.00000
     12      12.6217      0.00000
     13      15.8005      0.00000
     14      16.3105      0.00000
     15      17.0597      0.00000
     16      18.7902      0.00000

 k-point  28 :       0.4615    0.4615    0.0000
  band No.  band energies     occupation 
      1       0.8763      2.00000
      2       1.5670      2.00000
      3       1.5670      2.00000
      4       2.2541      2.00000
      5       8.9565      0.00000
      6       9.6106      0.00000
      7       9.6106      0.00000
      8      10.2651      0.00000
      9      10.5711      0.00000
     10      11.2281      0.00000
     11      11.2281      0.00000
     12      11.8821      0.00000
     13      17.4590      0.00000
     14      17.4590      0.00000
     15      17.4698      0.00000
     16      18.6877      0.00000

 k-point  29 :       0.0769    0.0769    0.0769
  band No.  band energies     occupation 
      1      -2.8510      2.00000
      2       4.6691      2.00000
      3       4.6691      2.00000
      4       4.6691      2.00000
      5       7.7161      2.00000
      6       7.7161      2.00000
      7       7.7161      2.00000
      8      11.8603      0.00000
      9      11.8603      0.00000
     10      11.8603      0.00000
     11      14.2407      0.00000
     12      14.2407      0.00000
     13      14.2407      0.00000
     14      15.2689      0.00000
     15      15.2689      0.00000
     16      15.2689      0.00000

 k-point  30 :       0.1538    0.0769    0.0769
  band No.  band energies     occupation 
      1      -2.6868      2.00000
      2       3.5398      2.00000
      3       4.8226      2.00000
      4       4.8226      2.00000
      5       7.8658      2.00000
      6       7.8658      2.00000
      7       9.1255      0.00000
      8      10.7775      0.00000
      9      10.7775      0.00000
     10      12.0139      0.00000
     11      13.6960      0.00000
     12      13.6960      0.00000
     13      14.3794      0.00000
     14      15.4234      0.00000
     15      16.3380      0.00000
     16      16.3380      0.00000

 k-point  31 :       0.2308    0.0769    0.0769
  band No.  band energies     occupation 
      1      -2.4136      2.00000
      2       2.4562      2.00000
      3       5.0780      2.00000
      4       5.0780      2.00000
      5       8.1064      2.00000
      6       8.1064      2.00000
      7       9.7537      0.00000
      8       9.7537      0.00000
      9      10.6721      0.00000
     10      12.2731      0.00000
     11      12.8058      0.00000
     12      12.8058      0.00000
     13      14.6106      0.00000
     14      15.6807      0.00000
     15      16.7598      0.00000
     16      17.8232      0.00000

 k-point  32 :       0.3077    0.0769    0.0769
  band No.  band energies     occupation 
      1      -2.0320      2.00000
      2       1.4579      2.00000
      3       5.4346      2.00000
      4       5.4346      2.00000
      5       8.3556      0.69122
      6       8.3556      0.69122
      7       8.9031      0.00000
      8       8.9031      0.00000
      9      11.9256      0.00000
     10      11.9256      0.00000
     11      12.2670      0.00000
     12      12.6850      0.00000
     13      14.9344      0.00000
     14      15.8360      0.00000
     15      16.0401      0.00000
     16      17.9365      0.00000

 k-point  33 :       0.3846    0.0769    0.0769
  band No.  band energies     occupation 
      1      -1.5429      2.00000
      2       0.5552      2.00000
      3       5.8902      2.00000
      4       5.8902      2.00000
      5       7.8559      2.00000
      6       7.8559      2.00000
      7       8.9790      0.00000
      8       8.9790      0.00000
      9      11.1275      0.00000
     10      11.1275      0.00000
     11      13.0361      0.00000
     12      14.1101      0.00000
     13      14.9986      0.00000
     14      15.3509      0.00000
     15      16.5015      0.00000
     16      17.1545      0.00000

 k-point  34 :       0.4615    0.0769    0.0769
  band No.  band energies     occupation 
      1      -0.9476      2.00000
      2      -0.2476      2.00000
      3       6.4324      2.00000
      4       6.4324      2.00000
      5       7.1378      2.00000
      6       7.1378      2.00000
      7       9.3900      0.00000
      8       9.3900      0.00000
      9      10.5057      0.00000
     10      10.5057      0.00000
     11      13.6005      0.00000
     12      14.2528      0.00000
     13      15.8601      0.00000
     14      15.9105      0.00000
     15      16.4616      0.00000
     16      17.0707      0.00000

 k-point  35 :       0.1538    0.1538    0.0769
  band No.  band energies     occupation 
      1      -2.5228      2.00000
      2       3.6958      2.00000
      3       3.6958      2.00000
      4       4.9758      2.00000
      5       8.0039      2.00000
      6       9.2644      0.00000
      7       9.2644      0.00000
      8       9.7291      0.00000
      9      10.9384      0.00000
     10      10.9384      0.00000
     11      13.8418      0.00000
     12      13.8418      0.00000
     13      14.5206      0.00000
     14      15.9625      0.00000
     15      16.4891      0.00000
     16      16.4891      0.00000

 k-point  36 :       0.2308    0.1538    0.0769
  band No.  band energies     occupation 
      1      -2.2499      2.00000
      2       2.6139      2.00000
      3       3.9553      2.00000
      4       5.2304      2.00000
      5       8.1505      2.00000
      6       8.8064      0.00000
      7       9.4310      0.00000
      8       9.9803      0.00000
      9      10.7439      0.00000
     10      11.2600      0.00000
     11      12.9597      0.00000
     12      14.0541      0.00000
     13      14.0854      0.00000
     14      15.6882      0.00000
     15      16.7404      0.00000
     16      16.9900      0.00000

 k-point  37 :       0.3077    0.1538    0.0769
  band No.  band energies     occupation 
      1      -1.8688      2.00000
      2       1.6169      2.00000
      3       4.3177      2.00000
      4       5.5845      2.00000
      5       7.6157      2.00000
      6       8.7466      0.00000
      7       8.8687      0.00000
      8       9.9217      0.00000
      9      11.4791      0.00000
     10      12.0953      0.00000
     11      12.5220      0.00000
     12      13.2310      0.00000
     13      14.4302      0.00000
     14      14.7570      0.00000
     15      17.0908      0.00000
     16      17.4495      0.00000

 k-point  38 :       0.3846    0.1538    0.0769
  band No.  band energies     occupation 
      1      -1.3803      2.00000
      2       0.7153      2.00000
      3       4.7815      2.00000
      4       6.0253      2.00000
      5       6.8090      2.00000
      6       8.0372      2.00000
      7       9.1599      0.00000
      8      10.2535      0.00000
      9      11.3659      0.00000
     10      11.9538      0.00000
     11      12.4345      0.00000
     12      13.9147      0.00000
     13      14.1952      0.00000
     14      14.9076      0.00000
     15      16.6602      0.00000
     16      17.5388      0.00000

 k-point  39 :       0.4615    0.1538    0.0769
  band No.  band energies     occupation 
      1      -0.7857      2.00000
      2      -0.0865      2.00000
      3       5.3435      2.00000
      4       5.9844      2.00000
[...]
     16      18.9734      0.00000

 k-point  64 :       0.4615    0.4615    0.1538
  band No.  band energies     occupation 
      1       1.0894      2.00000
      2       1.7789      2.00000
      3       1.7789      2.00000
      4       2.4647      2.00000
      5       7.1722      2.00000
      6       7.8362      2.00000
      7       7.8362      2.00000
      8       8.4992      0.00000
      9      12.7198      0.00000
     10      13.3606      0.00000
     11      13.3606      0.00000
     12      14.0006      0.00000
     13      17.6467      0.00000
     14      17.6467      0.00000
     15      17.6568      0.00000
     16      18.8753      0.00000

 k-point  65 :       0.2308    0.2308    0.2308
  band No.  band energies     occupation 
      1      -1.5429      2.00000
      2       3.2946      2.00000
      3       3.2946      2.00000
      4       3.2946      2.00000
      5       7.9912      2.00000
      6       7.9912      2.00000
      7       7.9912      2.00000
      8      11.5364      0.00000
      9      11.5364      0.00000
     10      11.5364      0.00000
     11      12.5881      0.00000
     12      15.3587      0.00000
     13      15.3587      0.00000
     14      15.3587      0.00000
     15      17.0215      0.00000
     16      17.0215      0.00000

 k-point  66 :       0.3077    0.2308    0.2308
  band No.  band energies     occupation 
      1      -1.1638      2.00000
      2       2.3038      2.00000
      3       3.6590      2.00000
      4       3.6590      2.00000
      5       7.0352      2.00000
      6       7.0352      2.00000
      7       8.3531      0.96647
      8      11.6456      0.00000
      9      11.8823      0.00000
     10      11.8823      0.00000
     11      13.1734      0.00000
     12      15.0155      0.00000
     13      15.0155      0.00000
     14      15.6837      0.00000
     15      17.3779      0.00000
     16      18.0786      0.00000

 k-point  67 :       0.3846    0.2308    0.2308
  band No.  band energies     occupation 
      1      -0.6778      2.00000
      2       1.4071      2.00000
      3       4.1234      2.00000
      4       4.1234      2.00000
      5       6.1725      2.00000
      6       6.1725      2.00000
      7       8.8144      0.00000
      8      10.7932      0.00000
      9      12.3133      0.00000
     10      12.3133      0.00000
     11      14.3115      0.00000
     12      14.3115      0.00000
     13      14.8961      0.00000
     14      16.1019      0.00000
     15      17.8276      0.00000
     16      17.9143      0.00000

 k-point  68 :       0.4615    0.2308    0.2308
  band No.  band energies     occupation 
      1      -0.0862      2.00000
      2       0.6094      2.00000
      3       4.6687      2.00000
      4       4.6687      2.00000
      5       5.4271      2.00000
      6       5.4271      2.00000
      7       9.3755      0.00000
      8      10.0356      0.00000
      9      12.7760      0.00000
     10      12.7760      0.00000
     11      13.6877      0.00000
     12      13.6877      0.00000
     13      16.6133      0.00000
     14      16.6857      0.00000
     15      17.2177      0.00000
     16      18.3635      0.00000

 k-point  69 :       0.3077    0.3077    0.2308
  band No.  band energies     occupation 
      1      -0.7856      2.00000
      2       2.6720      2.00000
      3       2.6720      2.00000
      4       4.0196      2.00000
      5       6.0750      2.00000
      6       7.3952      2.00000
      7       7.3952      2.00000
      8      10.6992      0.00000
      9      12.2387      0.00000
     10      13.5099      0.00000
     11      13.5099      0.00000
     12      15.3580      0.00000
     13      15.3580      0.00000
     14      16.0144      0.00000
     15      17.7909      0.00000
     16      18.3054      0.00000

 k-point  70 :       0.3846    0.3077    0.2308
  band No.  band energies     occupation 
      1      -0.3010      2.00000
      2       1.7781      2.00000
      3       3.1433      2.00000
      4       4.4629      2.00000
      5       5.2263      2.00000
      6       6.5293      2.00000
      7       7.8570      2.00000
      8       9.8431      0.00000
      9      12.6845      0.00000
     10      13.8812      0.00000
     11      14.7129      0.00000
     12      15.1865      0.00000
     13      15.7824      0.00000
     14      15.8291      0.00000
     15      17.5727      0.00000
     16      18.8410      0.00000

 k-point  71 :       0.4615    0.3077    0.2308
  band No.  band energies     occupation 
      1       0.2890      2.00000
      2       0.9827      2.00000
      3       3.7144      2.00000
      4       4.3660      2.00000
      5       5.1168      2.00000
      6       5.7629      2.00000
      7       8.4198      0.00000
      8       9.0824      0.00000
      9      13.2130      0.00000
     10      13.7765      0.00000
     11      14.6456      0.00000
     12      15.1809      0.00000
     13      16.2410      0.00000
     14      16.8776      0.00000
     15      17.0810      0.00000
     16      18.8754      0.00000

 k-point  72 :       0.3846    0.3846    0.2308
  band No.  band energies     occupation 
      1       0.1820      2.00000
      2       2.2534      2.00000
      3       2.2534      2.00000
      4       4.2646      2.00000
      5       5.0129      2.00000
      6       6.9912      2.00000
      7       6.9912      2.00000
      8       8.9838      0.00000
      9      13.1377      0.00000
     10      14.9523      0.00000
     11      14.9523      0.00000
     12      15.7837      0.00000
     13      15.7837      0.00000
     14      16.8584      0.00000
     15      16.8616      0.00000
     16      18.7218      0.00000

 k-point  73 :       0.4615    0.3846    0.2308
  band No.  band energies     occupation 
      1       0.7699      2.00000
      2       1.4611      2.00000
      3       2.8314      2.00000
      4       3.5084      2.00000
      5       5.5569      2.00000
      6       6.2229      2.00000
      7       7.5555      2.00000
      8       8.2203      2.00000
      9      13.6775      0.00000
     10      14.2961      0.00000
     11      15.5399      0.00000
     12      16.1683      0.00000
     13      16.2405      0.00000
     14      16.7388      0.00000
     15      17.4801      0.00000
     16      19.1980      0.00000

 k-point  74 :       0.4615    0.4615    0.2308
  band No.  band energies     occupation 
      1       1.3552      2.00000
      2       2.0433      2.00000
      3       2.0433      2.00000
      4       2.7271      2.00000
      5       6.1204      2.00000
      6       6.7879      2.00000
      7       6.7879      2.00000
      8       7.4545      2.00000
      9      14.2218      0.00000
     10      14.8474      0.00000
     11      14.8474      0.00000
     12      15.4740      0.00000
     13      17.8799      0.00000
     14      17.8799      0.00000
     15      17.8907      0.00000
     16      19.1100      0.00000

 k-point  75 :       0.3077    0.3077    0.3077
  band No.  band energies     occupation 
      1      -0.4085      2.00000
      2       3.0385      2.00000
      3       3.0385      2.00000
      4       3.0385      2.00000
      5       6.4321      2.00000
      6       6.4321      2.00000
      7       6.4321      2.00000
      8       9.7487      0.00000
      9      13.8686      0.00000
     10      13.8686      0.00000
     11      13.8686      0.00000
     12      16.3403      0.00000
     13      16.3403      0.00000
     14      16.3403      0.00000
     15      18.1318      0.00000
     16      18.1318      0.00000

 k-point  76 :       0.3846    0.3077    0.3077
  band No.  band energies     occupation 
      1       0.0748      2.00000
      2       2.1480      2.00000
      3       3.5061      2.00000
      4       3.5061      2.00000
      5       5.5635      2.00000
      6       5.5635      2.00000
      7       6.8945      2.00000
      8       8.8888      0.00000
      9      14.3014      0.00000
     10      14.3014      0.00000
     11      15.5780      0.00000
     12      16.1213      0.00000
     13      16.1213      0.00000
     14      16.7597      0.00000
     15      18.5539      0.00000
     16      18.5787      0.00000

 k-point  77 :       0.4615    0.3077    0.3077
  band No.  band energies     occupation 
      1       0.6632      2.00000
      2       1.3550      2.00000
      3       4.0571      2.00000
      4       4.0571      2.00000
      5       4.8112      2.00000
      6       4.8112      2.00000
      7       7.4593      2.00000
      8       8.1247      2.00000
      9      14.7728      0.00000
     10      14.7728      0.00000
     11      15.5670      0.00000
     12      15.5670      0.00000
     13      17.2727      0.00000
     14      17.3449      0.00000
     15      17.8792      0.00000
     16      19.0354      0.00000

 k-point  78 :       0.3846    0.3846    0.3077
  band No.  band energies     occupation 
      1       0.5565      2.00000
      2       2.6214      2.00000
      3       2.6214      2.00000
      4       3.9539      2.00000
      5       4.7084      2.00000
      6       6.0245      2.00000
      7       6.0245      2.00000
      8       8.0255      2.00000
      9      14.7520      0.00000
     10      15.9654      0.00000
     11      15.9654      0.00000
     12      16.5806      0.00000
     13      16.5806      0.00000
     14      17.1852      0.00000
     15      18.2714      0.00000
     16      19.0344      0.00000

 k-point  79 :       0.4615    0.3846    0.3077
  band No.  band energies     occupation 
      1       1.1428      2.00000
      2       1.8320      2.00000
      3       3.1956      2.00000
      4       3.8529      2.00000
      5       4.6023      2.00000
      6       5.2541      2.00000
      7       6.5906      2.00000
      8       7.2584      2.00000
      9      15.2741      0.00000
     10      15.8363      0.00000
     11      16.6010      0.00000
     12      17.0083      0.00000
     13      17.0718      0.00000
     14      17.6266      0.00000
     15      17.7970      0.00000
     16      19.4948      0.00000

 k-point  80 :       0.4615    0.4615    0.3077
  band No.  band energies     occupation 
      1       1.7264      2.00000
      2       2.4120      2.00000
      3       2.4120      2.00000
      4       3.0917      2.00000
      5       5.1506      2.00000
      6       5.8195      2.00000
      7       5.8195      2.00000
      8       6.4889      2.00000
      9      15.8085      0.00000
     10      16.4044      0.00000
     11      16.4044      0.00000
     12      17.0074      0.00000
     13      18.2026      0.00000
     14      18.2026      0.00000
     15      18.2184      0.00000
     16      19.4382      0.00000

 k-point  81 :       0.3846    0.3846    0.3846
  band No.  band energies     occupation 
      1       1.0365      2.00000
      2       3.0911      2.00000
      3       3.0911      2.00000
      4       3.0911      2.00000
      5       5.1523      2.00000
      6       5.1523      2.00000
      7       5.1523      2.00000
      8       7.1585      2.00000
      9      16.4356      0.00000
     10      16.4356      0.00000
     11      16.4356      0.00000
     12      17.6059      0.00000
     13      17.6059      0.00000
     14      17.6059      0.00000
     15      19.4022      0.00000
     16      19.4043      0.00000

 k-point  82 :       0.4615    0.3846    0.3846
  band No.  band energies     occupation 
      1       1.6206      2.00000
      2       2.3068      2.00000
      3       3.6465      2.00000
      4       3.6465      2.00000
      5       4.3949      2.00000
      6       4.3949      2.00000
      7       5.7183      2.00000
      8       6.3883      2.00000
      9      16.9094      0.00000
     10      16.9094      0.00000
     11      17.5110      0.00000
     12      17.5110      0.00000
     13      18.1205      0.00000
     14      18.1527      0.00000
     15      18.7291      0.00000
     16      19.7618      0.00000

 k-point  83 :       0.4615    0.4615    0.3846
  band No.  band energies     occupation 
      1       2.2017      2.00000
      2       2.8828      2.00000
      3       2.8828      2.00000
      4       3.5438      2.00000
      5       4.2900      2.00000
      6       4.9456      2.00000
      7       4.9456      2.00000
      8       5.6158      2.00000
      9      17.4396      0.00000
     10      17.9541      0.00000
     11      17.9541      0.00000
     12      18.5146      0.00000
     13      18.6069      0.00000
     14      18.6069      0.00000
     15      18.6399      0.00000
     16      19.8568      0.00000

 k-point  84 :       0.4615    0.4615    0.4615
  band No.  band energies     occupation 
      1       2.7783      2.00000
      2       3.4405      2.00000
      3       3.4405      2.00000
      4       3.4405      2.00000
      5       4.1855      2.00000
      6       4.1855      2.00000
      7       4.1855      2.00000
      8       4.8423      2.00000
      9      19.0341      0.00000
     10      19.0341      0.00000
     11      19.0341      0.00000
     12      19.1551      0.00000
     13      19.1551      0.00000
     14      19.1551      0.00000
     15      19.7607      0.00000
     16      19.7607      0.00000


--------------------------------------------------------------------------------------------------------


 soft charge-density along one line, spin component           1
         0         1         2         3         4         5         6         7         8         9
 total charge-density along one line
 
 pseudopotential strength for first ion, spin component:           1
  8.433  -0.007  -0.000   0.000  -0.000  -0.000   0.000  -0.000
 -0.007   0.000  -0.000   0.000  -0.000   0.000  -0.000   0.000
 -0.000  -0.000   1.990  -0.000   0.000  -0.028   0.000  -0.000
  0.000   0.000  -0.000   1.990  -0.000   0.000  -0.028   0.000
 -0.000  -0.000   0.000  -0.000   1.990  -0.000   0.000  -0.028
 -0.000   0.000  -0.028   0.000  -0.000  -0.012   0.000  -0.000
  0.000  -0.000   0.000  -0.028   0.000   0.000  -0.012   0.000
 -0.000   0.000  -0.000   0.000  -0.028  -0.000   0.000  -0.012
 total augmentation occupancy for first ion, spin component:           1
  1.319  -0.515  -0.000   0.000  -0.000  -0.000   0.000  -0.000
 -0.515   0.512  -0.000   0.000  -0.000   0.000  -0.000   0.000
 -0.000  -0.000   0.749  -0.067   0.029  -0.162   0.015   0.003
  0.000   0.000  -0.067   0.848  -0.001   0.015  -0.135   0.007
 -0.000  -0.000   0.029  -0.001   0.677   0.003   0.007  -0.169
 -0.000   0.000  -0.162   0.015   0.003   0.039  -0.002  -0.002
  0.000  -0.000   0.015  -0.135   0.007  -0.002   0.024  -0.002
 -0.000   0.000   0.003   0.007  -0.169  -0.002  -0.002   0.048


------------------------ aborting loop because EDIFF is reached ----------------------------------------




--------------------------------------------------------------------------------------------------------


    CHARGE:  VPU time    0.03: CPU time    0.03
    FORLOC:  VPU time    0.00: CPU time    0.00
    FORNL :  VPU time    0.07: CPU time    0.07
    STRESS:  VPU time    0.49: CPU time    0.49
    FORCOR:  VPU time    0.02: CPU time    0.02
    FORHAR:  VPU time    0.00: CPU time    0.00
    MIXING:  VPU time    0.00: CPU time    0.00


--------------------------------------------------------------------------------------------------------



  FREE ENERGIE OF THE ION-ELECTRON SYSTEM (eV)
  ---------------------------------------------------
  free  energy   TOTEN  =       -14.970133 eV

  energy  without entropy=      -14.969807  energy(sigma->0) =      -14.969970
 

  FORCE on cell =-STRESS in cart. coord.  units (eV/reduce length):
  Direction    X        Y        Z        XY       YZ       ZX
  --------------------------------------------------------------------------------------
  Alpha Z     -0.84     -0.84     -0.84
  Ewald      -99.11    -99.11    -99.11      0.00      0.00     -0.00
  Hartree      0.15      0.15      0.15     -0.00     -0.00     -0.00
  E(xc)      -34.62    -34.62    -34.62      0.00      0.00      0.00
  Local        1.95      1.95      1.95      0.00     -0.00      0.00
  n-local     74.96     75.87     77.97      0.31      1.13      0.44
  augment     -4.06     -4.06     -4.06      0.00      0.00      0.00
  Kinetic     58.49     60.77     64.78      1.82     -8.36     -1.25
  -------------------------------------------------------------------------------------
  Total        1.08      1.08      1.08      0.00     -0.00      0.00
  in kB       27.02     27.02     27.02      0.00     -0.00      0.00
  external pressure =       27.02 kB  Pullay stress =        0.00 kB


 VOLUME and BASIS-vectors are now :
 -----------------------------------------------------------------------------
  energy-cutoff  :      500.00
  volume of cell :       63.85
      direct lattice vectors                 reciprocal lattice vectors
     3.996933306  0.000000000  0.000000000     0.250191815  0.000000000  0.000000000
     0.000000000  3.996933306  0.000000000     0.000000000  0.250191815  0.000000000
     0.000000000  0.000000000  3.996933306     0.000000000  0.000000000  0.250191815

  length of vectors
     3.996933306  3.996933306  3.996933306     0.250191815  0.250191815  0.250191815


 FORCES acting on ions
    electron-ion (+dipol)            ewald-force                    non-local-force                 convergence-correction
 -----------------------------------------------------------------------------------------------
   -.399E-14 -.988E-14 -.172E-13   -.638E-15 0.309E-15 -.567E-15   0.323E-26 0.194E-25 -.323E-26   0.197E-15 0.451E-16 0.941E-16
   -.404E-14 0.284E-15 0.260E-13   -.584E-15 -.951E-15 0.385E-15   0.323E-26 -.323E-26 0.646E-26   0.197E-15 -.511E-16 -.969E-16
   0.380E-14 -.254E-14 -.119E-14   0.587E-15 0.861E-15 0.393E-15   0.646E-26 0.323E-26 -.323E-26   -.190E-15 0.445E-16 -.931E-16
   0.398E-14 -.105E-15 0.438E-15   0.641E-15 -.399E-15 -.254E-16   0.000E+00 -.444E-26 0.242E-26   -.192E-15 -.446E-16 0.957E-16
 -----------------------------------------------------------------------------------------------
   -.245E-15 -.122E-13 0.810E-14   0.532E-17 -.180E-15 0.185E-15   0.129E-25 0.149E-25 0.242E-26   0.119E-16 -.615E-17 -.251E-18
 
 
 POSITION                                       TOTAL-FORCE (eV/Angst)
 -----------------------------------------------------------------------------------
      1.99847      1.99847      0.00000         0.000000      0.000000     -0.000000
      1.99847      0.00000      1.99847        -0.000000      0.000000      0.000000
      0.00000      1.99847      1.99847        -0.000000      0.000000      0.000000
      0.00000      0.00000      0.00000         0.000000      0.000000     -0.000000
 -----------------------------------------------------------------------------------
    total drift:                               -0.000000     -0.000000      0.000000


--------------------------------------------------------------------------------------------------------



 mean value of Nose-termostat <S>:     1.000 mean value of <T> :     0.000
 mean temperature <T/S>/<1/S>  :     0.000

     LOOP+:  VPU time   12.77: CPU time   12.82
  
  
 General timing and accounting informations for this job:
 ========================================================
  
                  Total CPU time used (sec):       13.361
                            User time (sec):        9.357
                          System time (sec):        4.004
                         Elapsed time (sec):       13.420
  
                   Maximum memory used (kb):      163264.
                   Average memory used (kb):           0.
  
                          Minor page faults:        38066
                          Major page faults:            0
                 Voluntary context switches:          849
