 running on    4 nodes
 distr:  one band on    1 nodes,    4 groups
 vasp.4.6.28 25Jul05 complex 
 POSCAR found :  1 types and   32 ions

 ----------------------------------------------------------------------------- 
|                                                                             |
|  ADVICE TO THIS USER RUNNING 'VASP/VAMP'   (HEAR YOUR MASTER'S VOICE ...):  |
|                                                                             |
|      You have a (more or less) 'large supercell' and for larger cells       |
|      it might be more efficient to use real space projection operators      |
|      So try LREAL= Auto  in the INCAR   file.                               |
|      Mind: If you want to do an extremely accurate calculations keep the    |
|      reciprocal projection scheme          (i.e. LREAL=.FALSE.)             |
|                                                                             |
 ----------------------------------------------------------------------------- 

 LDA part: xc-table for Pade appr. of Perdew
 POSCAR, INCAR and KPOINTS ok, starting setup
 FFT: planning ...           1
 reading WAVECAR
 WARNING: random wavefunctions but no delay for mixing, default for NELMDL
 entering main loop
       N       E                     dE             d eps       ncg     rms          rms(c)
DAV:   1     0.113677956083E+03    0.11368E+03   -0.31822E+04 26656   0.108E+03
DAV:   2    -0.104480758107E+03   -0.21816E+03   -0.20376E+03 31328   0.134E+02
DAV:   3    -0.117863726162E+03   -0.13383E+02   -0.12641E+02 33304   0.265E+01
DAV:   4    -0.118169494268E+03   -0.30577E+00   -0.30234E+00 31608   0.420E+00
DAV:   5    -0.118173827414E+03   -0.43331E-02   -0.43263E-02 31780   0.587E-01    0.494E+00
DAV:   6    -0.117786809036E+03    0.38702E+00   -0.71576E-02 30824   0.865E-01    0.306E+00
DAV:   7    -0.117508261434E+03    0.27855E+00   -0.20712E-01 29704   0.138E+00    0.136E-01
DAV:   8    -0.117508120363E+03    0.14107E-03   -0.15955E-03 31860   0.146E-01    0.399E-02
DAV:   9    -0.117508134689E+03   -0.14325E-04   -0.51809E-05 31228   0.208E-02    0.312E-03
DAV:  10    -0.117508132323E+03    0.23654E-05   -0.16683E-06 32084   0.433E-03    0.177E-03
DAV:  11    -0.117508128850E+03    0.34733E-05   -0.13174E-07 31308   0.107E-03    0.616E-04
DAV:  12    -0.117508127835E+03    0.10145E-05   -0.18810E-08 20080   0.410E-04    0.884E-05
DAV:  13    -0.117508127767E+03    0.67963E-07   -0.30730E-09 17548   0.186E-04    0.306E-05
DAV:  14    -0.117508127780E+03   -0.12869E-07   -0.45289E-10 16908   0.752E-05    0.100E-05
DAV:  15    -0.117508127802E+03   -0.21887E-07   -0.12971E-10 16784   0.400E-05    0.470E-06
DAV:  16    -0.117508127806E+03   -0.40186E-08   -0.30985E-11 16440   0.184E-05
   1 F= -.11750813E+03 E0= -.11750793E+03  d E =-.404903E-03
