  32  32   0   0
  0.1904509E+02  0.8478343E-09  0.8478343E-09  0.8478343E-09  0.5000000E-15
  1.000000000000000E-004
  CAR 
 unknown system                          
     10.53696198     -4.27130442  301      6.58578824      1.00000000
     -4.271  0.0000E+00  0.0000E+00
     -4.222  0.0000E+00  0.0000E+00
     -4.173  0.0000E+00  0.0000E+00
     -4.123  0.0000E+00  0.0000E+00
     -4.074  0.0000E+00  0.0000E+00
     -4.024  0.0000E+00  0.0000E+00
     -3.975  0.0000E+00  0.0000E+00
     -3.926  0.0000E+00  0.0000E+00
     -3.876  0.0000E+00  0.0000E+00
     -3.827  0.0000E+00  0.0000E+00
     -3.778  0.0000E+00  0.0000E+00
     -3.728  0.0000E+00  0.0000E+00
     -3.679  0.0000E+00  0.0000E+00
     -3.630  0.1044E-06  0.5152E-08
     -3.580  0.1401E+00  0.6917E-02
     -3.531  0.7815E+00  0.4549E-01
     -3.482  0.1186E+01  0.1040E+00
     -3.432  0.1884E+01  0.1970E+00
     -3.383  0.1881E+01  0.2899E+00
     -3.333  0.2099E+01  0.3935E+00
     -3.284  0.2525E+01  0.5181E+00
     -3.235  0.1672E+01  0.6007E+00
     -3.185  0.3079E+01  0.7527E+00
     -3.136  0.2412E+01  0.8717E+00
     -3.087  0.3536E+01  0.1046E+01
     -3.037  0.2781E+01  0.1184E+01
     -2.988  0.4011E+01  0.1381E+01
     -2.939  0.3451E+01  0.1552E+01
     -2.889  0.2258E+01  0.1663E+01
     -2.840  0.4383E+01  0.1880E+01
     -2.790  0.4054E+01  0.2080E+01
     -2.741  0.3275E+01  0.2241E+01
     -2.692  0.3931E+01  0.2435E+01
     -2.642  0.4902E+01  0.2677E+01
     -2.593  0.4604E+01  0.2905E+01
     -2.544  0.3518E+01  0.3078E+01
     -2.494  0.5325E+01  0.3341E+01
     -2.445  0.3007E+01  0.3490E+01
     -2.396  0.5154E+01  0.3744E+01
     -2.346  0.4319E+01  0.3957E+01
     -2.297  0.7327E+01  0.4319E+01
     -2.248  0.3552E+01  0.4494E+01
     -2.198  0.3833E+01  0.4683E+01
     -2.149  0.7010E+01  0.5029E+01
     -2.099  0.4377E+01  0.5245E+01
     -2.050  0.5162E+01  0.5500E+01
     -2.001  0.4683E+01  0.5731E+01
     -1.951  0.5946E+01  0.6025E+01
     -1.902  0.5771E+01  0.6310E+01
     -1.853  0.5841E+01  0.6598E+01
     -1.803  0.6606E+01  0.6924E+01
     -1.754  0.4869E+01  0.7165E+01
     -1.705  0.5959E+01  0.7459E+01
     -1.655  0.5764E+01  0.7743E+01
     -1.606  0.6487E+01  0.8063E+01
     -1.556  0.3867E+01  0.8254E+01
     -1.507  0.8089E+01  0.8654E+01
     -1.458  0.7554E+01  0.9027E+01
     -1.408  0.6838E+01  0.9364E+01
     -1.359  0.5107E+01  0.9616E+01
     -1.310  0.5400E+01  0.9883E+01
     -1.260  0.7234E+01  0.1024E+02
     -1.211  0.5472E+01  0.1051E+02
     -1.162  0.8252E+01  0.1092E+02
     -1.112  0.7943E+01  0.1131E+02
     -1.063  0.4559E+01  0.1153E+02
     -1.013  0.8917E+01  0.1197E+02
     -0.964  0.7441E+01  0.1234E+02
     -0.915  0.6975E+01  0.1269E+02
     -0.865  0.3059E+01  0.1284E+02
     -0.816  0.9690E+01  0.1332E+02
     -0.767  0.6508E+01  0.1364E+02
     -0.717  0.8044E+01  0.1403E+02
     -0.668  0.9252E+01  0.1449E+02
     -0.619  0.8294E+01  0.1490E+02
     -0.569  0.6607E+01  0.1523E+02
     -0.520  0.5420E+01  0.1549E+02
     -0.471  0.7174E+01  0.1585E+02
     -0.421  0.7315E+01  0.1621E+02
     -0.372  0.8865E+01  0.1665E+02
     -0.322  0.9182E+01  0.1710E+02
     -0.273  0.9358E+01  0.1756E+02
     -0.224  0.7647E+01  0.1794E+02
     -0.174  0.5325E+01  0.1820E+02
     -0.125  0.9647E+01  0.1868E+02
     -0.076  0.7532E+01  0.1905E+02
     -0.026  0.8977E+01  0.1949E+02
      0.023  0.5673E+01  0.1977E+02
      0.072  0.9237E+01  0.2023E+02
      0.122  0.8742E+01  0.2066E+02
      0.171  0.9927E+01  0.2115E+02
      0.221  0.1107E+02  0.2170E+02
      0.270  0.5857E+01  0.2199E+02
      0.319  0.8979E+01  0.2243E+02
      0.369  0.7435E+01  0.2280E+02
      0.418  0.7850E+01  0.2318E+02
      0.467  0.7739E+01  0.2357E+02
      0.517  0.1048E+02  0.2408E+02
      0.566  0.1032E+02  0.2459E+02
      0.615  0.9795E+01  0.2508E+02
      0.665  0.9361E+01  0.2554E+02
      0.714  0.7548E+01  0.2591E+02
      0.764  0.1085E+02  0.2645E+02
      0.813  0.5001E+01  0.2669E+02
      0.862  0.1245E+02  0.2731E+02
      0.912  0.6265E+01  0.2762E+02
      0.961  0.1033E+02  0.2813E+02
      1.010  0.1244E+02  0.2874E+02
      1.060  0.1028E+02  0.2925E+02
      1.109  0.8243E+01  0.2966E+02
      1.158  0.5584E+01  0.2993E+02
      1.208  0.1355E+02  0.3060E+02
      1.257  0.1065E+02  0.3113E+02
      1.306  0.7715E+01  0.3151E+02
      1.356  0.9440E+01  0.3197E+02
      1.405  0.1159E+02  0.3254E+02
      1.455  0.7282E+01  0.3290E+02
      1.504  0.1090E+02  0.3344E+02
      1.553  0.1127E+02  0.3400E+02
      1.603  0.8645E+01  0.3442E+02
      1.652  0.1127E+02  0.3498E+02
      1.701  0.1212E+02  0.3558E+02
      1.751  0.9495E+01  0.3605E+02
      1.800  0.7286E+01  0.3641E+02
      1.849  0.1101E+02  0.3695E+02
      1.899  0.1180E+02  0.3753E+02
      1.948  0.1006E+02  0.3803E+02
      1.998  0.1084E+02  0.3857E+02
      2.047  0.9871E+01  0.3905E+02
      2.096  0.1272E+02  0.3968E+02
      2.146  0.8707E+01  0.4011E+02
      2.195  0.1159E+02  0.4068E+02
      2.244  0.1063E+02  0.4121E+02
      2.294  0.1158E+02  0.4178E+02
      2.343  0.6943E+01  0.4212E+02
      2.392  0.1684E+02  0.4295E+02
      2.442  0.1005E+02  0.4345E+02
      2.491  0.9368E+01  0.4391E+02
      2.540  0.1150E+02  0.4448E+02
      2.590  0.1125E+02  0.4503E+02
      2.639  0.8906E+01  0.4547E+02
      2.689  0.9339E+01  0.4593E+02
      2.738  0.1527E+02  0.4669E+02
      2.787  0.9384E+01  0.4715E+02
      2.837  0.1221E+02  0.4775E+02
      2.886  0.1348E+02  0.4842E+02
      2.935  0.1086E+02  0.4895E+02
      2.985  0.1371E+02  0.4963E+02
      3.034  0.8364E+01  0.5004E+02
      3.083  0.1018E+02  0.5055E+02
      3.133  0.8970E+01  0.5099E+02
      3.182  0.1387E+02  0.5167E+02
      3.232  0.1189E+02  0.5226E+02
      3.281  0.1688E+02  0.5309E+02
      3.330  0.9852E+01  0.5358E+02
      3.380  0.1233E+02  0.5419E+02
      3.429  0.1216E+02  0.5479E+02
      3.478  0.1081E+02  0.5532E+02
      3.528  0.1287E+02  0.5596E+02
      3.577  0.8652E+01  0.5639E+02
      3.626  0.1452E+02  0.5710E+02
      3.676  0.8628E+01  0.5753E+02
      3.725  0.1785E+02  0.5841E+02
      3.775  0.1165E+02  0.5898E+02
      3.824  0.1406E+02  0.5968E+02
      3.873  0.1366E+02  0.6035E+02
      3.923  0.8368E+01  0.6077E+02
      3.972  0.1302E+02  0.6141E+02
      4.021  0.1590E+02  0.6219E+02
      4.071  0.1605E+02  0.6299E+02
      4.120  0.1024E+02  0.6349E+02
      4.169  0.1418E+02  0.6419E+02
      4.219  0.8713E+01  0.6462E+02
      4.268  0.1775E+02  0.6550E+02
      4.317  0.1097E+02  0.6604E+02
      4.367  0.1849E+02  0.6695E+02
      4.416  0.9852E+01  0.6744E+02
      4.466  0.7186E+01  0.6779E+02
      4.515  0.1648E+02  0.6861E+02
      4.564  0.1773E+02  0.6948E+02
      4.614  0.1030E+02  0.6999E+02
      4.663  0.8326E+01  0.7040E+02
      4.712  0.1874E+02  0.7132E+02
      4.762  0.6616E+01  0.7165E+02
      4.811  0.1376E+02  0.7233E+02
      4.860  0.1257E+02  0.7295E+02
      4.910  0.1380E+02  0.7363E+02
      4.959  0.9121E+01  0.7408E+02
      5.009  0.1278E+02  0.7471E+02
      5.058  0.1489E+02  0.7545E+02
      5.107  0.1374E+02  0.7613E+02
      5.157  0.1405E+02  0.7682E+02
      5.206  0.1161E+02  0.7739E+02
      5.255  0.1039E+02  0.7791E+02
      5.305  0.9103E+01  0.7835E+02
      5.354  0.1459E+02  0.7908E+02
      5.403  0.1208E+02  0.7967E+02
      5.453  0.2142E+02  0.8073E+02
      5.502  0.9229E+01  0.8118E+02
      5.552  0.1285E+02  0.8182E+02
      5.601  0.1470E+02  0.8254E+02
      5.650  0.1591E+02  0.8333E+02
      5.700  0.1355E+02  0.8400E+02
      5.749  0.1063E+02  0.8452E+02
      5.798  0.1100E+02  0.8507E+02
      5.848  0.1320E+02  0.8572E+02
      5.897  0.1330E+02  0.8637E+02
      5.946  0.1208E+02  0.8697E+02
      5.996  0.1924E+02  0.8792E+02
      6.045  0.1296E+02  0.8856E+02
      6.094  0.1274E+02  0.8919E+02
      6.144  0.1623E+02  0.8999E+02
      6.193  0.1512E+02  0.9074E+02
      6.243  0.1117E+02  0.9129E+02
      6.292  0.1582E+02  0.9207E+02
      6.341  0.1517E+02  0.9282E+02
      6.391  0.1022E+02  0.9332E+02
      6.440  0.1589E+02  0.9411E+02
      6.489  0.1446E+02  0.9482E+02
      6.539  0.1473E+02  0.9555E+02
      6.588  0.9557E+01  0.9602E+02
      6.637  0.1480E+02  0.9675E+02
      6.687  0.1578E+02  0.9753E+02
      6.736  0.1825E+02  0.9843E+02
      6.786  0.1551E+02  0.9919E+02
      6.835  0.1448E+02  0.9991E+02
      6.884  0.1221E+02  0.1005E+03
      6.934  0.1261E+02  0.1011E+03
      6.983  0.1563E+02  0.1019E+03
      7.032  0.1348E+02  0.1026E+03
      7.082  0.1892E+02  0.1035E+03
      7.131  0.1488E+02  0.1042E+03
      7.180  0.1627E+02  0.1050E+03
      7.230  0.8572E+01  0.1055E+03
      7.279  0.1545E+02  0.1062E+03
      7.329  0.1580E+02  0.1070E+03
      7.378  0.1580E+02  0.1078E+03
      7.427  0.1151E+02  0.1084E+03
      7.477  0.1476E+02  0.1091E+03
      7.526  0.1876E+02  0.1100E+03
      7.575  0.1801E+02  0.1109E+03
      7.625  0.1485E+02  0.1116E+03
      7.674  0.1568E+02  0.1124E+03
      7.723  0.1626E+02  0.1132E+03
      7.773  0.1230E+02  0.1138E+03
      7.822  0.1508E+02  0.1146E+03
      7.871  0.1309E+02  0.1152E+03
      7.921  0.1417E+02  0.1159E+03
      7.970  0.1491E+02  0.1166E+03
      8.020  0.1670E+02  0.1175E+03
      8.069  0.2056E+02  0.1185E+03
      8.118  0.1654E+02  0.1193E+03
      8.168  0.1249E+02  0.1199E+03
      8.217  0.1462E+02  0.1206E+03
      8.266  0.1560E+02  0.1214E+03
      8.316  0.1345E+02  0.1221E+03
      8.365  0.1790E+02  0.1230E+03
      8.414  0.1428E+02  0.1237E+03
      8.464  0.1526E+02  0.1244E+03
      8.513  0.1621E+02  0.1252E+03
      8.563  0.1585E+02  0.1260E+03
      8.612  0.1497E+02  0.1267E+03
      8.661  0.1466E+02  0.1275E+03
      8.711  0.1470E+02  0.1282E+03
      8.760  0.1203E+02  0.1288E+03
      8.809  0.1212E+02  0.1294E+03
      8.859  0.1768E+02  0.1302E+03
      8.908  0.1153E+02  0.1308E+03
      8.957  0.1279E+02  0.1314E+03
      9.007  0.1193E+02  0.1320E+03
      9.056  0.1372E+02  0.1327E+03
      9.105  0.1071E+02  0.1332E+03
      9.155  0.1102E+02  0.1338E+03
      9.204  0.8582E+01  0.1342E+03
      9.254  0.9366E+01  0.1347E+03
      9.303  0.7529E+01  0.1350E+03
      9.352  0.7570E+01  0.1354E+03
      9.402  0.3936E+01  0.1356E+03
      9.451  0.3062E+01  0.1358E+03
      9.500  0.1659E+01  0.1358E+03
      9.550  0.4643E+00  0.1359E+03
      9.599  0.8151E+00  0.1359E+03
      9.648  0.7969E+00  0.1359E+03
      9.698  0.7697E-01  0.1360E+03
      9.747  0.8832E+00  0.1360E+03
      9.797  0.6866E-02  0.1360E+03
      9.846  0.7424E-03  0.1360E+03
      9.895  0.9305E-01  0.1360E+03
      9.945  0.0000E+00  0.1360E+03
      9.994  0.0000E+00  0.1360E+03
     10.043  0.0000E+00  0.1360E+03
     10.093  0.0000E+00  0.1360E+03
     10.142  0.0000E+00  0.1360E+03
     10.191  0.0000E+00  0.1360E+03
     10.241  0.0000E+00  0.1360E+03
     10.290  0.0000E+00  0.1360E+03
     10.340  0.0000E+00  0.1360E+03
     10.389  0.0000E+00  0.1360E+03
     10.438  0.0000E+00  0.1360E+03
     10.488  0.0000E+00  0.1360E+03
     10.537  0.0000E+00  0.1360E+03
