   32   32    1    1
  0.1904509E+02  0.8478343E-09  0.8478343E-09  0.8478343E-09  0.5000000E-15
  1.000000000000000E-004
  CAR 
 unknown system                          
   96  196   68
 
  0.0000000E+00  0.0000000E+00  0.0000000E+00  0.5787037E-03
   1       -3.5982
   2       -1.5554
   3       -1.5519
   4       -1.5519
   5       -1.5519
   6       -1.5519
   7       -1.5485
   8        0.4623
   9        0.4667
  10        0.4667
  11        0.4682
  12        0.4683
  13        0.4683
  14        0.4683
  15        0.4683
  16        0.4684
  17        0.4699
  18        0.4699
  19        0.4742
  20        2.3832
  21        2.3832
  22        2.3832
  23        2.3832
  24        2.5472
  25        2.5473
  26        2.5473
  27        2.5473
  28        4.0043
  29        4.0043
  30        4.0043
  31        4.9684
  32        4.9684
  33        4.9684
  34        5.9142
  35        5.9142
  36        5.9181
  37        5.9181
  38        5.9182
  39        5.9182
  40        5.9182
  41        5.9183
  42        5.9183
  43        5.9183
  44        5.9223
  45        5.9223
  46        6.9392
  47        6.9400
  48        6.9400
  49        6.9400
  50        6.9400
  51        6.9408
  52        6.9845
  53        6.9882
  54        6.9882
  55        6.9882
  56        6.9883
  57        6.9920
  58        7.8291
  59        7.8297
  60        7.8310
  61        7.8329
  62        7.8330
  63        7.8330
  64        7.8330
  65        7.8331
  66        7.8341
  67        7.8356
  68        7.8368
 
  0.8333333E-01  0.0000000E+00  0.0000000E+00  0.1157407E-02
   1       -3.5839
   2       -1.8770
   3       -1.5378
   4       -1.5378
   5       -1.5378
   6       -1.5378
   7       -1.1993
   8        0.1472
   9        0.1473
  10        0.1473
  11        0.1473
  12        0.4822
  13        0.4822
  14        0.4822
  15        0.4822
  16        0.8165
  17        0.8165
  18        0.8165
  19        0.8165
  20        2.1380
  21        2.1380
  22        2.1380
  23        2.1380
  24        2.8193
  25        2.8193
  26        2.8193
  27        2.8193
  28        3.6826
  29        4.0175
  30        4.0175
  31        4.9824
  32        4.9825
  33        5.3152
  34        5.6120
  35        5.6120
  36        5.6185
  37        5.6185
  38        5.6187
  39        5.6187
  40        5.9315
  41        5.9315
  42        5.9315
  43        5.9315
  44        6.2509
  45        6.2509
  46        6.6490
  47        6.6490
  48        6.9767
  49        6.9767
  50        6.9767
  51        6.9767
  52        7.2891
  53        7.2895
  54        7.2895
  55        7.2895
  56        7.3043
  57        7.3047
  58        7.5269
  59        7.5269
  60        7.5271
  61        7.5271
  62        7.5448
  63        7.5448
  64        7.5449
  65        7.5449
  66        8.1654
  67        8.1654
  68        8.1655
 
  0.1666667E+00  0.0000000E+00  0.0000000E+00  0.1157407E-02
   1       -3.5410
   2       -2.1744
   3       -1.4955
   4       -1.4955
   5       -1.4955
   6       -1.4955
   7       -0.8195
   8       -0.1464
   9       -0.1464
  10       -0.1464
  11       -0.1464
  12        0.5240
  13        0.5240
  14        0.5240
  15        0.5240
  16        1.1916
  17        1.1916
  18        1.1916
  19        1.1916
  20        1.8528
  21        1.8528
  22        1.8528
  23        1.8528
  24        3.1340
  25        3.1850
  26        3.1850
  27        3.1850
  28        3.1851
  29        4.0574
  30        4.0574
  31        5.0246
  32        5.0247
  33        5.0877
  34        5.0877
  35        5.0877
  36        5.0878
  37        5.3330
  38        5.3330
  39        5.9393
  40        5.9714
  41        5.9714
  42        5.9714
  43        5.9714
  44        6.3610
  45        6.3610
  46        6.6102
  47        6.6102
  48        7.0183
  49        7.0186
  50        7.0186
  51        7.0188
  52        7.0260
  53        7.0262
  54        7.0262
  55        7.0265
  56        7.2479
  57        7.2479
  58        7.2479
  59        7.2479
  60        7.6674
  61        7.6674
  62        7.8925
  63        7.8925
  64        7.8925
  65        7.8925
  66        8.3196
  67        8.3196
  68        8.3197
 
  0.2500000E+00  0.0000000E+00  0.0000000E+00  0.1157407E-02
   1       -3.4695
   2       -2.4440
   3       -1.4250
   4       -1.4250
   5       -1.4250
   6       -1.4250
   7       -0.4151
   8       -0.4125
   9       -0.4125
  10       -0.4125
  11       -0.4101
  12        0.5936
  13        0.5936
  14        0.5936
  15        0.5936
  16        1.5891
  17        1.5910
  18        1.5910
  19        1.5915
  20        1.5935
  21        1.5940
  22        1.5940
  23        1.5959
  24        2.5664
  25        3.5804
  26        3.5804
  27        3.5804
  28        3.5804
  29        4.1238
  30        4.1238
  31        4.5317
  32        4.5317
  33        4.5317
  34        4.5317
  35        5.0804
  36        5.0804
  37        5.0949
  38        5.0949
  39        6.0378
  40        6.0378
  41        6.0379
  42        6.0379
  43        6.0988
  44        6.0988
  45        6.4791
  46        6.4791
  47        6.4791
  48        6.4791
  49        6.6326
  50        6.9935
  51        6.9935
  52        6.9952
  53        6.9952
  54        6.9980
  55        6.9980
  56        7.0874
  57        7.0874
  58        7.0874
  59        7.0874
  60        8.0539
  61        8.0539
  62        8.0644
  63        8.0644
  64        8.0646
  65        8.0646
  66        8.5703
  67        8.5703
  68        8.5703
 
  0.3333333E+00  0.0000000E+00  0.0000000E+00  0.1157407E-02
   1       -3.3696
   2       -2.6855
   3       -1.3263
   4       -1.3263
   5       -1.3263
   6       -1.3263
   7       -0.6511
   8       -0.6510
   9       -0.6510
  10       -0.6510
  11        0.0210
  12        0.6909
  13        0.6910
  14        0.6910
  15        0.6910
  16        1.3567
  17        1.3568
  18        1.3568
  19        1.3568
  20        2.0114
  21        2.0216
  22        2.0216
  23        2.0216
  24        2.0218
  25        3.9857
  26        3.9857
  27        3.9857
  28        3.9857
  29        4.0026
  30        4.0027
  31        4.0027
  32        4.0027
  33        4.2167
  34        4.2167
  35        4.8544
  36        4.8544
  37        5.1932
  38        5.1932
  39        5.8632
  40        5.8632
  41        5.9410
  42        5.9410
  43        5.9410
  44        5.9410
  45        6.1309
  46        6.1309
  47        6.1309
  48        6.1309
  49        6.7691
  50        6.7691
  51        6.7691
  52        6.7691
  53        7.1831
  54        7.1831
  55        7.1831
  56        7.1831
  57        7.3633
  58        7.4091
  59        7.4091
  60        7.8352
  61        7.8352
  62        7.8352
  63        7.8352
  64        8.4626
  65        8.4626
  66        9.2870
  67        9.2895
  68        9.3027
 
  0.4166667E+00  0.0000000E+00  0.0000000E+00  0.1157407E-02
   1       -3.2411
   2       -2.8990
   3       -1.1995
   4       -1.1995
   5       -1.1995
   6       -1.1994
   7       -0.8618
   8       -0.8618
   9       -0.8618
  10       -0.8617
  11        0.4808
  12        0.8160
  13        0.8160
  14        0.8160
  15        0.8161
  16        1.1491
  17        1.1491
  18        1.1491
  19        1.1491
  20        1.4773
  21        2.4758
  22        2.4758
  23        2.4758
  24        2.4758
  25        3.4591
  26        3.4591
  27        3.4591
  28        3.4591
  29        4.3362
  30        4.3362
  31        4.4508
  32        4.4508
  33        4.4508
  34        4.4508
  35        4.6551
  36        4.6551
  37        5.3193
  38        5.3193
  39        5.4214
  40        5.4214
  41        5.4214
  42        5.4214
  43        5.6546
  44        5.6546
  45        6.2506
  46        6.2506
  47        6.2506
  48        6.2506
  49        6.5697
  50        6.5697
  51        6.5697
  52        6.5697
  53        7.3059
  54        7.3059
  55        7.3059
  56        7.3059
  57        7.6321
  58        7.6321
  59        7.6321
  60        7.6321
  61        7.8486
  62        7.8486
  63        8.1232
  64        8.8076
  65        8.8076
  66        8.8911
  67        8.8911
  68        9.7231
 
  0.5000000E+00  0.0000000E+00  0.0000000E+00  0.5787037E-03
   1       -3.0855
   2       -3.0829
   3       -1.0482
   4       -1.0453
   5       -1.0453
   6       -1.0447
   7       -1.0445
   8       -1.0439
   9       -1.0439
  10       -1.0410
  11        0.9631
  12        0.9666
  13        0.9676
  14        0.9676
  15        0.9682
  16        0.9685
  17        0.9691
  18        0.9700
  19        0.9700
  20        0.9728
  21        2.9538
  22        2.9545
  23        2.9545
  24        2.9551
  25        2.9553
  26        2.9559
  27        2.9559
  28        2.9567
  29        4.4810
  30        4.4810
  31        4.4837
  32        4.4837
  33        4.9230
  34        4.9230
  35        4.9237
  36        4.9237
  37        4.9244
  38        4.9245
  39        4.9252
  40        4.9252
  41        5.4716
  42        5.4723
  43        5.4741
  44        5.4748
  45        6.3947
  46        6.3947
  47        6.3957
  48        6.3967
  49        6.3969
  50        6.3980
  51        6.3990
  52        6.3990
  53        7.4534
  54        7.4547
  55        7.4547
  56        7.4548
  57        7.4565
  58        7.4565
  59        7.4565
  60        7.4579
  61        8.3137
  62        8.3137
  63        8.3159
  64        8.3159
  65        8.9084
  66        8.9100
  67        9.3356
  68        9.3366
 
  0.0000000E+00  0.8333333E-01  0.0000000E+00  0.2314815E-02
   1       -3.5839
   2       -1.8770
   3       -1.5405
   4       -1.5378
   5       -1.5378
   6       -1.5352
   7       -1.1994
   8        0.1446
   9        0.1473
  10        0.1473
  11        0.1499
  12        0.4801
  13        0.4812
  14        0.4832
  15        0.4843
  16        0.8138
  17        0.8165
  18        0.8165
  19        0.8192
  20        2.1360
  21        2.1370
  22        2.1390
  23        2.1401
  24        2.8172
  25        2.8183
  26        2.8203
  27        2.8214
  28        3.6826
  29        4.0175
  30        4.0176
  31        4.9824
  32        4.9825
  33        5.3152
  34        5.6114
  35        5.6123
  36        5.6162
  37        5.6185
  38        5.6185
  39        5.6216
  40        5.9290
  41        5.9315
  42        5.9315
  43        5.9340
  44        6.2509
  45        6.2509
  46        6.6490
  47        6.6490
  48        6.9749
  49        6.9767
  50        6.9767
  51        6.9785
  52        7.2869
  53        7.2895
  54        7.2895
  55        7.2920
  56        7.3043
  57        7.3044
  58        7.5245
  59        7.5269
  60        7.5271
  61        7.5296
  62        7.5424
  63        7.5439
  64        7.5458
  65        7.5474
  66        8.1632
  67        8.1654
  68        8.1676
 
  0.8333333E-01  0.8333333E-01  0.0000000E+00  0.4629630E-02
   1       -3.5696
   2       -1.8640
   3       -1.8618
   4       -1.5237
   5       -1.5237
   6       -1.1864
   7       -1.1842
   8       -0.1744
   9        0.1597
  10        0.1606
  11        0.1619
  12        0.1628
  13        0.4956
  14        0.4967
  15        0.8289
  16        0.8297
  17        0.8310
  18        0.8319
  19        1.1639
  20        1.8251
  21        1.8251
  22        2.4115
  23        2.4115
  24        2.5739
  25        2.5739
  26        3.1578
  27        3.1578
  28        3.6956
  29        3.6965
  30        4.0308
  31        4.9965
  32        5.3089
  33        5.3110
  34        5.3287
  35        5.3295
  36        5.6221
  37        5.6227
  38        5.6247
  39        5.6270
  40        5.6411
  41        5.6412
  42        5.9528
  43        5.9539
  44        6.2630
  45        6.2654
  46        6.6626
  47        6.6645
  48        6.9752
  49        6.9760
  50        7.2211
  51        7.2363
  52        7.2372
  53        7.2385
  54        7.2393
  55        7.2853
  56        7.2853
  57        7.3167
  58        7.3184
  59        7.3185
  60        7.3200
  61        7.6244
  62        7.6263
  63        7.8587
  64        7.8606
  65        7.8769
  66        7.8780
  67        7.8782
  68        7.8792
 
  0.1666667E+00  0.8333333E-01  0.0000000E+00  0.4629630E-02
   1       -3.5267
   2       -2.1602
   3       -1.8205
   4       -1.4814
   5       -1.4814
   6       -1.1430
   7       -0.8055
   8       -0.4686
   9       -0.1324
  10       -0.1324
  11        0.2025
  12        0.2031
  13        0.2037
  14        0.8714
  15        0.8720
  16        0.8727
  17        1.2055
  18        1.2055
  19        1.5359
  20        1.5361
  21        1.5384
  22        2.1935
  23        2.1935
  24        2.8737
  25        2.8737
  26        3.1476
  27        3.5261
  28        3.5261
  29        3.7365
  30        4.0706
  31        4.7769
  32        5.0280
  33        5.0387
  34        5.1010
  35        5.1011
  36        5.3463
  37        5.3706
  38        5.4250
  39        5.6654
  40        5.6725
  41        5.6725
  42        5.9530
  43        6.3041
  44        6.3119
  45        6.3782
  46        6.6235
  47        6.6906
  48        6.7050
  49        6.7176
  50        6.7178
  51        6.9419
  52        6.9573
  53        6.9573
  54        7.3422
  55        7.3423
  56        7.3566
  57        7.3606
  58        7.3611
  59        7.5804
  60        7.5847
  61        7.6810
  62        7.9061
  63        7.9061
  64        7.9863
  65        8.0114
  66        8.2207
  67        8.2322
  68        8.2375
 
  0.2500000E+00  0.8333333E-01  0.0000000E+00  0.4629630E-02
   1       -3.4552
   2       -2.4298
   3       -1.7498
   4       -1.4109
   5       -1.4109
   6       -1.0727
   7       -0.7353
   8       -0.4003
   9       -0.3985
  10       -0.3968
  11       -0.0625
  12        0.2728
  13        0.2728
  14        0.9415
  15        0.9415
  16        1.2722
  17        1.2734
  18        1.2759
  19        1.6073
  20        1.6073
  21        1.9352
  22        1.9360
  23        1.9400
  24        2.5801
  25        3.2667
  26        3.2667
  27        3.8039
  28        3.9215
  29        3.9215
  30        4.1370
  31        4.2192
  32        4.5451
  33        4.5451
  34        4.7728
  35        4.8707
  36        5.0937
  37        5.1090
  38        5.4400
  39        5.7319
  40        5.7395
  41        5.7395
  42        6.1124
  43        6.1695
  44        6.1696
  45        6.3705
  46        6.4313
  47        6.6462
  48        6.6892
  49        6.7013
  50        6.7034
  51        6.7053
  52        6.7739
  53        6.8149
  54        6.8149
  55        7.0096
  56        7.3278
  57        7.4104
  58        7.4104
  59        7.4260
  60        7.7551
  61        8.0675
  62        8.2644
  63        8.3707
  64        8.3804
  65        8.3806
  66        8.3984
  67        8.5850
  68        8.5908
 
  0.3333333E+00  0.8333333E-01  0.0000000E+00  0.4629630E-02
   1       -3.3553
   2       -2.6713
   3       -1.6509
   4       -1.3122
   5       -1.3122
   6       -0.9748
   7       -0.9737
   8       -0.6370
   9       -0.6370
  10       -0.3005
  11        0.0349
  12        0.3704
  13        0.3704
  14        1.0374
  15        1.0377
  16        1.0388
  17        1.0390
  18        1.7022
  19        1.7024
  20        1.7039
  21        2.0252
  22        2.0354
  23        2.0355
  24        2.3665
  25        3.6718
  26        3.6889
  27        3.6889
  28        3.8982
  29        3.9993
  30        3.9993
  31        4.2300
  32        4.3261
  33        4.3433
  34        4.3433
  35        4.5443
  36        4.8677
  37        5.2072
  38        5.5368
  39        5.6303
  40        5.6303
  41        5.8249
  42        5.8333
  43        5.8333
  44        5.8771
  45        6.1983
  46        6.2780
  47        6.2780
  48        6.4625
  49        6.4642
  50        6.4760
  51        6.4760
  52        6.8700
  53        7.1018
  54        7.1170
  55        7.3768
  56        7.4224
  57        7.5053
  58        7.5053
  59        7.5212
  60        7.5249
  61        8.1525
  62        8.1525
  63        8.1702
  64        8.4760
  65        8.7778
  66        8.9852
  67        9.0210
  68        9.0277
 
  0.4166667E+00  0.8333333E-01  0.0000000E+00  0.4629630E-02
   1       -3.2268
   2       -2.8847
   3       -1.5238
   4       -1.1867
   5       -1.1854
   6       -1.1842
   7       -0.8489
   8       -0.8477
   9       -0.8464
  10       -0.5107
  11        0.4939
  12        0.4958
  13        0.4966
  14        0.8296
  15        0.8296
  16        1.1634
  17        1.1634
  18        1.4908
  19        1.4955
  20        1.4959
  21        2.1587
  22        2.4895
  23        2.4895
  24        2.8197
  25        3.1441
  26        3.4727
  27        3.4727
  28        3.8008
  29        4.0194
  30        4.1376
  31        4.1376
  32        4.3425
  33        4.3495
  34        4.6684
  35        4.7907
  36        4.7907
  37        5.1098
  38        5.1098
  39        5.3334
  40        5.6612
  41        5.6685
  42        5.7595
  43        5.7595
  44        5.9446
  45        5.9538
  46        5.9539
  47        5.9922
  48        6.2637
  49        6.2752
  50        6.2753
  51        6.5832
  52        6.9023
  53        6.9933
  54        7.3209
  55        7.5567
  56        7.6270
  57        7.6270
  58        7.6435
  59        7.8619
  60        7.9508
  61        7.9508
  62        7.9681
  63        8.1367
  64        8.5120
  65        8.8208
  66        8.9044
  67        9.2051
  68        9.4635
 
  0.5000000E+00  0.8333333E-01  0.0000000E+00  0.2314815E-02
   1       -3.0712
   2       -3.0686
   3       -1.3699
   4       -1.3673
   5       -1.0324
   6       -1.0313
   7       -1.0298
   8       -1.0287
   9       -0.6944
  10       -0.6918
  11        0.6470
  12        0.6481
  13        0.6496
  14        0.6507
  15        0.9797
  16        0.9812
  17        1.3139
  18        1.3150
  19        1.3165
  20        1.3176
  21        2.6384
  22        2.6399
  23        2.9681
  24        2.9682
  25        2.9696
  26        2.9697
  27        3.2973
  28        3.2988
  29        4.1662
  30        4.1689
  31        4.4943
  32        4.4970
  33        4.6108
  34        4.6109
  35        4.6123
  36        4.6124
  37        5.2624
  38        5.2624
  39        5.2639
  40        5.2639
  41        5.4860
  42        5.4884
  43        5.8119
  44        5.8144
  45        6.0894
  46        6.0922
  47        6.0991
  48        6.1006
  49        6.1019
  50        6.1032
  51        6.7281
  52        6.7309
  53        7.1424
  54        7.1449
  55        7.7739
  56        7.7748
  57        7.7765
  58        7.7772
  59        7.7913
  60        7.7937
  61        8.0209
  62        8.0228
  63        8.3269
  64        8.3292
  65        8.9217
  66        8.9233
  67        9.3493
  68        9.3500
 
  0.0000000E+00  0.1666667E+00  0.0000000E+00  0.2314815E-02
   1       -3.5410
   2       -2.1744
   3       -1.4982
   4       -1.4955
   5       -1.4955
   6       -1.4928
   7       -0.8195
   8       -0.1491
   9       -0.1464
  10       -0.1464
  11       -0.1437
  12        0.5219
  13        0.5230
  14        0.5250
  15        0.5261
  16        1.1890
  17        1.1916
  18        1.1916
  19        1.1943
  20        1.8507
  21        1.8518
  22        1.8538
  23        1.8549
  24        3.1340
  25        3.1829
  26        3.1840
  27        3.1860
  28        3.1872
  29        4.0574
  30        4.0574
  31        5.0246
  32        5.0247
  33        5.0849
  34        5.0877
  35        5.0877
  36        5.0905
  37        5.3330
  38        5.3330
  39        5.9393
  40        5.9689
  41        5.9714
  42        5.9714
  43        5.9739
  44        6.3610
  45        6.3610
  46        6.6103
  47        6.6103
  48        7.0169
  49        7.0188
  50        7.0189
  51        7.0206
  52        7.0238
  53        7.0250
  54        7.0269
  55        7.0284
  56        7.2453
  57        7.2478
  58        7.2479
  59        7.2504
  60        7.6674
  61        7.6674
  62        7.8900
  63        7.8925
  64        7.8925
  65        7.8951
  66        8.3183
  67        8.3197
  68        8.3213
 
  0.8333333E-01  0.1666667E+00  0.0000000E+00  0.4629630E-02
   1       -3.5267
   2       -2.1602
   3       -1.8205
   4       -1.4814
   5       -1.4814
   6       -1.1430
   7       -0.8055
   8       -0.4686
   9       -0.1324
  10       -0.1324
  11        0.2017
  12        0.2031
  13        0.2045
  14        0.8706
  15        0.8720
  16        0.8734
  17        1.2055
  18        1.2055
  19        1.5359
  20        1.5361
  21        1.5384
  22        2.1935
  23        2.1935
  24        2.8737
  25        2.8737
  26        3.1476
  27        3.5261
  28        3.5261
  29        3.7365
  30        4.0706
  31        4.7768
  32        5.0280
  33        5.0388
  34        5.1010
  35        5.1010
  36        5.3463
  37        5.3707
  38        5.4250
  39        5.6653
  40        5.6725
  41        5.6727
  42        5.9530
  43        6.3041
  44        6.3119
  45        6.3782
  46        6.6235
  47        6.6906
  48        6.7051
  49        6.7176
  50        6.7176
  51        6.9418
  52        6.9574
  53        6.9574
  54        7.3422
  55        7.3423
  56        7.3571
  57        7.3606
  58        7.3606
  59        7.5804
  60        7.5847
  61        7.6810
  62        7.9060
  63        7.9061
  64        7.9863
  65        8.0114
  66        8.2229
  67        8.2262
  68        8.2376
 
  0.1666667E+00  0.1666667E+00  0.0000000E+00  0.4629630E-02
   1       -3.4838
   2       -2.1188
   3       -2.1167
   4       -1.4391
   5       -1.4391
   6       -0.7651
   7       -0.7634
   8       -0.7616
   9       -0.0920
  10       -0.0911
  11       -0.0898
  12       -0.0889
  13        0.5791
  14        0.5802
  15        1.2441
  16        1.2451
  17        1.2465
  18        1.2467
  19        1.2479
  20        1.2491
  21        1.9118
  22        2.4964
  23        2.4964
  24        2.6539
  25        2.6539
  26        3.1880
  27        3.1890
  28        3.8945
  29        3.8945
  30        4.1105
  31        4.4915
  32        4.4937
  33        5.0808
  34        5.1222
  35        5.1223
  36        5.1616
  37        5.1616
  38        5.3850
  39        5.3874
  40        5.7879
  41        5.7888
  42        5.9937
  43        5.9947
  44        6.4161
  45        6.4181
  46        6.4343
  47        6.4351
  48        6.4364
  49        6.4374
  50        6.6610
  51        6.6631
  52        6.6653
  53        7.2997
  54        7.3004
  55        7.7194
  56        7.7209
  57        7.7212
  58        7.7212
  59        7.7220
  60        7.7236
  61        7.7287
  62        7.9347
  63        7.9349
  64        7.9388
  65        7.9406
  66        7.9574
  67        7.9574
  68        8.5842
 
  0.2500000E+00  0.1666667E+00  0.0000000E+00  0.4629630E-02
   1       -3.4124
   2       -2.3872
   3       -2.0469
   4       -1.3686
   5       -1.3686
   6       -1.0306
   7       -0.6931
   8       -0.3583
   9       -0.3565
  10       -0.3548
  11       -0.0206
  12       -0.0206
  13        0.3147
  14        0.9808
  15        0.9822
  16        0.9844
  17        1.3163
  18        1.3163
  19        1.6487
  20        1.6487
  21        2.3040
  22        2.3044
  23        2.3122
  24        2.6213
  25        2.9825
  26        2.9825
  27        3.2566
  28        3.9333
  29        4.1769
  30        4.2351
  31        4.2894
  32        4.2894
  33        4.5853
  34        4.5853
  35        5.1335
  36        5.1511
  37        5.2104
  38        5.2104
  39        5.2360
  40        5.4526
  41        5.8864
  42        5.8864
  43        6.0627
  44        6.1427
  45        6.1801
  46        6.1803
  47        6.1909
  48        6.4098
  49        6.4861
  50        6.6870
  51        6.7299
  52        7.0434
  53        7.0495
  54        7.1769
  55        7.1769
  56        7.4711
  57        7.6871
  58        7.7882
  59        7.9843
  60        8.0132
  61        8.0132
  62        8.1077
  63        8.1077
  64        8.1080
  65        8.3254
  66        8.6238
  67        8.6238
  68        8.7562
 
  0.3333333E+00  0.1666667E+00  0.0000000E+00  0.4629630E-02
   1       -3.3124
   2       -2.6287
   3       -1.9479
   4       -1.2712
   5       -1.2699
   6       -1.2687
   7       -0.5962
   8       -0.5949
   9       -0.5937
  10        0.0752
  11        0.0772
  12        0.0772
  13        0.0790
  14        0.7460
  15        0.7460
  16        1.4123
  17        1.4132
  18        1.4137
  19        2.0664
  20        2.0737
  21        2.0741
  22        2.0770
  23        2.0777
  24        2.7381
  25        3.3518
  26        3.3848
  27        3.4025
  28        3.4026
  29        4.0045
  30        4.0399
  31        4.0399
  32        4.2698
  33        4.6930
  34        4.7104
  35        4.7105
  36        4.9076
  37        5.2493
  38        5.3046
  39        5.3046
  40        5.3462
  41        5.3463
  42        5.5457
  43        5.9184
  44        5.9516
  45        5.9516
  46        6.1585
  47        6.1838
  48        6.5824
  49        6.5952
  50        6.6411
  51        6.6411
  52        6.8129
  53        6.8230
  54        7.2399
  55        7.4173
  56        7.4600
  57        7.4633
  58        7.8835
  59        8.1073
  60        8.1073
  61        8.5042
  62        8.5162
  63        8.5196
  64        8.5197
  65        8.5293
  66        8.7049
  67        8.7385
  68        8.7494
 
  0.4166667E+00  0.1666667E+00  0.0000000E+00  0.4629630E-02
   1       -3.1840
   2       -2.8421
   3       -1.8206
   4       -1.4815
   5       -1.1432
   6       -1.1431
   7       -0.8056
   8       -0.8056
   9       -0.4687
  10       -0.1325
  11        0.2028
  12        0.2028
  13        0.5355
  14        0.5373
  15        0.5384
  16        1.5322
  17        1.5376
  18        1.5380
  19        1.8681
  20        1.8686
  21        1.8692
  22        2.5307
  23        2.5307
  24        2.8559
  25        3.1902
  26        3.4744
  27        3.5136
  28        3.5136
  29        3.8007
  30        3.8513
  31        3.8513
  32        4.1690
  33        4.3894
  34        4.7082
  35        4.8248
  36        4.8248
  37        5.1570
  38        5.1570
  39        5.3753
  40        5.4260
  41        5.4260
  42        5.6653
  43        5.7102
  44        5.7496
  45        5.7496
  46        5.9843
  47        6.1238
  48        6.1238
  49        6.2815
  50        6.6089
  51        6.7062
  52        6.9426
  53        7.0348
  54        7.0363
  55        7.2617
  56        7.9018
  57        7.9917
  58        8.0052
  59        8.1769
  60        8.2281
  61        8.2281
  62        8.3282
  63        8.5493
  64        8.5493
  65        8.8607
  66        8.9443
  67        8.9567
  68        8.9567
 
  0.5000000E+00  0.1666667E+00  0.0000000E+00  0.2314815E-02
   1       -3.0285
   2       -3.0259
   3       -1.6664
   4       -1.6638
   5       -0.9902
   6       -0.9891
   7       -0.9876
   8       -0.9865
   9       -0.3158
  10       -0.3132
  11        0.3544
  12        0.3555
  13        0.3570
  14        0.3581
  15        1.0214
  16        1.0228
  17        1.6877
  18        1.6887
  19        1.6903
  20        1.6913
  21        2.3493
  22        2.3508
  23        3.0092
  24        3.0092
  25        3.0106
  26        3.0107
  27        3.6227
  28        3.6254
  29        3.6667
  30        3.6682
  31        4.3251
  32        4.3251
  33        4.3265
  34        4.3266
  35        4.5341
  36        4.5369
  37        5.5278
  38        5.5302
  39        5.5724
  40        5.5737
  41        5.5751
  42        5.5763
  43        5.6277
  44        5.6277
  45        5.6292
  46        5.6293
  47        5.8101
  48        5.8129
  49        6.4304
  50        6.4330
  51        6.8559
  52        6.8584
  53        7.0874
  54        7.0902
  55        7.5009
  56        7.5027
  57        8.1522
  58        8.1546
  59        8.3666
  60        8.3688
  61        8.3737
  62        8.3748
  63        8.3765
  64        8.3772
  65        8.9617
  66        8.9633
  67        9.3907
  68        9.4120
 
  0.0000000E+00  0.2500000E+00  0.0000000E+00  0.2314815E-02
   1       -3.4695
   2       -2.4440
   3       -1.4276
   4       -1.4250
   5       -1.4250
   6       -1.4223
   7       -0.4153
   8       -0.4126
   9       -0.4125
  10       -0.4125
  11       -0.4098
  12        0.5915
  13        0.5926
  14        0.5946
  15        0.5957
  16        1.5890
  17        1.5905
  18        1.5912
  19        1.5924
  20        1.5933
  21        1.5935
  22        1.5937
  23        1.5964
  24        2.5664
  25        3.5783
  26        3.5794
  27        3.5814
  28        3.5825
  29        4.1238
  30        4.1238
  31        4.5289
  32        4.5317
  33        4.5317
  34        4.5344
  35        5.0803
  36        5.0804
  37        5.0949
  38        5.0950
  39        6.0354
  40        6.0379
  41        6.0379
  42        6.0403
  43        6.0988
  44        6.0988
  45        6.4768
  46        6.4781
  47        6.4801
  48        6.4813
  49        6.6326
  50        6.9924
  51        6.9952
  52        6.9952
  53        6.9960
  54        6.9963
  55        6.9983
  56        7.0856
  57        7.0874
  58        7.0874
  59        7.0893
  60        8.0539
  61        8.0541
  62        8.0626
  63        8.0644
  64        8.0645
  65        8.0664
  66        8.5682
  67        8.5703
  68        8.5729
 