  32  32   0   0
  0.2029222E+02  0.8659508E-09  0.8659508E-09  0.8659508E-09  0.5000000E-15
  1.000000000000000E-004
  CAR 
 unknown system                          
     10.16606849     -5.16297233  301      2.15644606      1.00000000
     -5.163  0.0000E+00  0.0000E+00
     -5.112  0.0000E+00  0.0000E+00
     -5.061  0.0000E+00  0.0000E+00
     -5.010  0.0000E+00  0.0000E+00
     -4.959  0.0000E+00  0.0000E+00
     -4.907  0.0000E+00  0.0000E+00
     -4.856  0.0000E+00  0.0000E+00
     -4.805  0.0000E+00  0.0000E+00
     -4.754  0.0000E+00  0.0000E+00
     -4.703  0.0000E+00  0.0000E+00
     -4.652  0.0000E+00  0.0000E+00
     -4.601  0.0000E+00  0.0000E+00
     -4.550  0.0000E+00  0.0000E+00
     -4.499  0.4820E-07  0.2463E-08
     -4.448  0.1194E+00  0.6100E-02
     -4.397  0.6529E+00  0.3946E-01
     -4.345  0.1127E+01  0.9704E-01
     -4.294  0.1670E+01  0.1824E+00
     -4.243  0.1830E+01  0.2759E+00
     -4.192  0.1575E+01  0.3564E+00
     -4.141  0.2405E+01  0.4793E+00
     -4.090  0.1610E+01  0.5615E+00
     -4.039  0.3040E+01  0.7169E+00
     -3.988  0.2744E+01  0.8571E+00
     -3.937  0.2995E+01  0.1010E+01
     -3.886  0.3147E+01  0.1171E+01
     -3.834  0.3983E+01  0.1374E+01
     -3.783  0.3194E+01  0.1538E+01
     -3.732  0.3166E+01  0.1699E+01
     -3.681  0.4698E+01  0.1940E+01
     -3.630  0.4068E+01  0.2147E+01
     -3.579  0.4293E+01  0.2367E+01
     -3.528  0.4814E+01  0.2613E+01
     -3.477  0.5708E+01  0.2904E+01
     -3.426  0.5595E+01  0.3190E+01
     -3.375  0.7095E+01  0.3553E+01
     -3.323  0.9162E+01  0.4021E+01
     -3.272  0.3087E+02  0.5599E+01
     -3.221  0.5241E+02  0.8277E+01
     -3.170  0.7200E+02  0.1196E+02
     -3.119  0.8582E+02  0.1634E+02
     -3.068  0.9832E+02  0.2136E+02
     -3.017  0.1140E+03  0.2719E+02
     -2.966  0.1348E+03  0.3407E+02
     -2.915  0.1699E+03  0.4275E+02
     -2.864  0.1549E+03  0.5067E+02
     -2.813  0.1315E+03  0.5739E+02
     -2.761  0.1245E+03  0.6375E+02
     -2.710  0.1112E+03  0.6943E+02
     -2.659  0.1046E+03  0.7478E+02
     -2.608  0.8233E+02  0.7899E+02
     -2.557  0.8963E+02  0.8357E+02
     -2.506  0.9693E+02  0.8852E+02
     -2.455  0.1086E+03  0.9407E+02
     -2.404  0.1099E+03  0.9968E+02
     -2.353  0.1339E+03  0.1065E+03
     -2.302  0.1193E+03  0.1126E+03
     -2.250  0.1120E+03  0.1183E+03
     -2.199  0.1047E+03  0.1237E+03
     -2.148  0.1226E+03  0.1300E+03
     -2.097  0.1111E+03  0.1356E+03
     -2.046  0.1414E+03  0.1429E+03
     -1.995  0.1753E+03  0.1518E+03
     -1.944  0.2183E+03  0.1630E+03
     -1.893  0.1744E+03  0.1719E+03
     -1.842  0.1360E+03  0.1788E+03
     -1.791  0.1176E+03  0.1848E+03
     -1.739  0.1010E+03  0.1900E+03
     -1.688  0.1150E+03  0.1959E+03
     -1.637  0.1185E+03  0.2019E+03
     -1.586  0.1186E+03  0.2080E+03
     -1.535  0.1307E+03  0.2147E+03
     -1.484  0.1426E+03  0.2219E+03
     -1.433  0.1349E+03  0.2288E+03
     -1.382  0.1519E+03  0.2366E+03
     -1.331  0.1442E+03  0.2440E+03
     -1.280  0.1303E+03  0.2506E+03
     -1.229  0.1162E+03  0.2566E+03
     -1.177  0.1264E+03  0.2630E+03
     -1.126  0.1061E+03  0.2684E+03
     -1.075  0.1163E+03  0.2744E+03
     -1.024  0.1173E+03  0.2804E+03
     -0.973  0.1262E+03  0.2868E+03
     -0.922  0.1408E+03  0.2940E+03
     -0.871  0.1742E+03  0.3029E+03
     -0.820  0.2160E+03  0.3140E+03
     -0.769  0.1484E+03  0.3215E+03
     -0.718  0.9065E+02  0.3262E+03
     -0.666  0.6679E+02  0.3296E+03
     -0.615  0.5806E+01  0.3299E+03
     -0.564  0.5524E+01  0.3302E+03
     -0.513  0.1219E+02  0.3308E+03
     -0.462  0.8484E+01  0.3312E+03
     -0.411  0.4147E+01  0.3314E+03
     -0.360  0.5650E+01  0.3317E+03
     -0.309  0.1080E+02  0.3323E+03
     -0.258  0.8571E+01  0.3327E+03
     -0.207  0.7703E+01  0.3331E+03
     -0.155  0.3496E+01  0.3333E+03
     -0.104  0.5854E+01  0.3336E+03
     -0.053  0.1021E+02  0.3341E+03
     -0.002  0.1013E+02  0.3346E+03
      0.049  0.6957E+01  0.3350E+03
      0.100  0.5554E+01  0.3353E+03
      0.151  0.4530E+01  0.3355E+03
      0.202  0.9209E+01  0.3360E+03
      0.253  0.1063E+02  0.3365E+03
      0.304  0.4804E+01  0.3368E+03
      0.355  0.8604E+01  0.3372E+03
      0.407  0.5421E+01  0.3375E+03
      0.458  0.7924E+01  0.3379E+03
      0.509  0.7337E+01  0.3383E+03
      0.560  0.9330E+01  0.3387E+03
      0.611  0.8908E+01  0.3392E+03
      0.662  0.7187E+01  0.3396E+03
      0.713  0.6959E+01  0.3399E+03
      0.764  0.4911E+01  0.3402E+03
      0.815  0.7900E+01  0.3406E+03
      0.866  0.1131E+02  0.3411E+03
      0.918  0.8097E+01  0.3416E+03
      0.969  0.8138E+01  0.3420E+03
      1.020  0.6381E+01  0.3423E+03
      1.071  0.6511E+01  0.3426E+03
      1.122  0.8818E+01  0.3431E+03
      1.173  0.7743E+01  0.3435E+03
      1.224  0.9782E+01  0.3440E+03
      1.275  0.7814E+01  0.3444E+03
      1.326  0.8092E+01  0.3448E+03
      1.377  0.7215E+01  0.3452E+03
      1.429  0.9159E+01  0.3456E+03
      1.480  0.5898E+01  0.3459E+03
      1.531  0.9563E+01  0.3464E+03
      1.582  0.1071E+02  0.3470E+03
      1.633  0.8303E+01  0.3474E+03
      1.684  0.8062E+01  0.3478E+03
      1.735  0.8266E+01  0.3482E+03
      1.786  0.6325E+01  0.3485E+03
      1.837  0.9000E+01  0.3490E+03
      1.888  0.1100E+02  0.3496E+03
      1.939  0.8412E+01  0.3500E+03
      1.991  0.8932E+01  0.3505E+03
      2.042  0.1059E+02  0.3510E+03
      2.093  0.9513E+01  0.3515E+03
      2.144  0.7389E+01  0.3519E+03
      2.195  0.9278E+01  0.3523E+03
      2.246  0.9665E+01  0.3528E+03
      2.297  0.9799E+01  0.3533E+03
      2.348  0.1194E+02  0.3539E+03
      2.399  0.8740E+01  0.3544E+03
      2.450  0.9399E+01  0.3549E+03
      2.502  0.9189E+01  0.3553E+03
      2.553  0.7433E+01  0.3557E+03
      2.604  0.1207E+02  0.3563E+03
      2.655  0.9863E+01  0.3568E+03
      2.706  0.9229E+01  0.3573E+03
      2.757  0.8489E+01  0.3577E+03
      2.808  0.9187E+01  0.3582E+03
      2.859  0.1228E+02  0.3588E+03
      2.910  0.9346E+01  0.3593E+03
      2.961  0.6496E+01  0.3596E+03
      3.013  0.1167E+02  0.3602E+03
      3.064  0.6559E+01  0.3606E+03
      3.115  0.1047E+02  0.3611E+03
      3.166  0.9050E+01  0.3616E+03
      3.217  0.1215E+02  0.3622E+03
      3.268  0.9405E+01  0.3627E+03
      3.319  0.7964E+01  0.3631E+03
      3.370  0.4694E+01  0.3633E+03
      3.421  0.1334E+02  0.3640E+03
      3.472  0.7281E+01  0.3644E+03
      3.523  0.9973E+01  0.3649E+03
      3.575  0.9931E+01  0.3654E+03
      3.626  0.6885E+01  0.3657E+03
      3.677  0.1153E+02  0.3663E+03
      3.728  0.1132E+02  0.3669E+03
      3.779  0.7284E+01  0.3673E+03
      3.830  0.5795E+01  0.3676E+03
      3.881  0.8857E+01  0.3680E+03
      3.932  0.9784E+01  0.3685E+03
      3.983  0.1007E+02  0.3690E+03
      4.034  0.9747E+01  0.3695E+03
      4.086  0.1065E+02  0.3701E+03
      4.137  0.6907E+01  0.3704E+03
      4.188  0.9758E+01  0.3709E+03
      4.239  0.6747E+01  0.3713E+03
      4.290  0.7761E+01  0.3717E+03
      4.341  0.7917E+01  0.3721E+03
      4.392  0.7889E+01  0.3725E+03
      4.443  0.1074E+02  0.3730E+03
      4.494  0.9230E+01  0.3735E+03
      4.545  0.5023E+01  0.3738E+03
      4.597  0.1206E+02  0.3744E+03
      4.648  0.5986E+01  0.3747E+03
      4.699  0.5407E+01  0.3750E+03
      4.750  0.6209E+01  0.3753E+03
      4.801  0.7236E+01  0.3757E+03
      4.852  0.7231E+01  0.3760E+03
      4.903  0.1143E+02  0.3766E+03
      4.954  0.9578E+01  0.3771E+03
      5.005  0.1319E+02  0.3778E+03
      5.056  0.1034E+02  0.3783E+03
      5.107  0.8466E+01  0.3787E+03
      5.159  0.1135E+02  0.3793E+03
      5.210  0.1257E+02  0.3800E+03
      5.261  0.1156E+02  0.3805E+03
      5.312  0.1139E+02  0.3811E+03
      5.363  0.1351E+02  0.3818E+03
      5.414  0.1195E+02  0.3824E+03
      5.465  0.1250E+02  0.3831E+03
      5.516  0.1236E+02  0.3837E+03
      5.567  0.1069E+02  0.3842E+03
      5.618  0.9603E+01  0.3847E+03
      5.670  0.1157E+02  0.3853E+03
      5.721  0.1088E+02  0.3859E+03
      5.772  0.1147E+02  0.3865E+03
      5.823  0.1166E+02  0.3871E+03
      5.874  0.1470E+02  0.3878E+03
      5.925  0.8274E+01  0.3882E+03
      5.976  0.1238E+02  0.3889E+03
      6.027  0.1025E+02  0.3894E+03
      6.078  0.9930E+01  0.3899E+03
      6.129  0.1197E+02  0.3905E+03
      6.181  0.1225E+02  0.3911E+03
      6.232  0.8679E+01  0.3916E+03
      6.283  0.9855E+01  0.3921E+03
      6.334  0.1079E+02  0.3926E+03
      6.385  0.1006E+02  0.3931E+03
      6.436  0.1321E+02  0.3938E+03
      6.487  0.8946E+01  0.3943E+03
      6.538  0.1273E+02  0.3949E+03
      6.589  0.8271E+01  0.3954E+03
      6.640  0.8096E+01  0.3958E+03
      6.691  0.9843E+01  0.3963E+03
      6.743  0.1028E+02  0.3968E+03
      6.794  0.1371E+02  0.3975E+03
      6.845  0.7559E+01  0.3979E+03
      6.896  0.1186E+02  0.3985E+03
      6.947  0.5358E+01  0.3988E+03
      6.998  0.1361E+02  0.3995E+03
      7.049  0.1123E+02  0.4000E+03
      7.100  0.1066E+02  0.4006E+03
      7.151  0.7928E+01  0.4010E+03
      7.202  0.5517E+01  0.4013E+03
      7.254  0.1252E+02  0.4019E+03
      7.305  0.1064E+02  0.4024E+03
      7.356  0.9030E+01  0.4029E+03
      7.407  0.1255E+02  0.4035E+03
      7.458  0.7110E+01  0.4039E+03
      7.509  0.1102E+02  0.4045E+03
      7.560  0.8543E+01  0.4049E+03
      7.611  0.8983E+01  0.4054E+03
      7.662  0.1482E+02  0.4061E+03
      7.713  0.1174E+02  0.4067E+03
      7.765  0.1404E+02  0.4074E+03
      7.816  0.1293E+02  0.4081E+03
      7.867  0.2290E+02  0.4093E+03
      7.918  0.1043E+02  0.4098E+03
      7.969  0.9542E+01  0.4103E+03
      8.020  0.1592E+02  0.4111E+03
      8.071  0.1020E+02  0.4116E+03
      8.122  0.7978E+01  0.4120E+03
      8.173  0.7440E+01  0.4124E+03
      8.224  0.8920E+01  0.4129E+03
      8.275  0.1520E+02  0.4137E+03
      8.327  0.2150E+02  0.4147E+03
      8.378  0.1169E+02  0.4153E+03
      8.429  0.1571E+02  0.4161E+03
      8.480  0.1532E+02  0.4169E+03
      8.531  0.1373E+02  0.4176E+03
      8.582  0.1047E+02  0.4182E+03
      8.633  0.1508E+02  0.4189E+03
      8.684  0.1354E+02  0.4196E+03
      8.735  0.1045E+02  0.4202E+03
      8.786  0.1070E+02  0.4207E+03
      8.838  0.1188E+02  0.4213E+03
      8.889  0.8781E+01  0.4218E+03
      8.940  0.1231E+02  0.4224E+03
      8.991  0.6219E+01  0.4227E+03
      9.042  0.7935E+01  0.4231E+03
      9.093  0.5838E+01  0.4234E+03
      9.144  0.3370E+01  0.4236E+03
      9.195  0.1882E+01  0.4237E+03
      9.246  0.2175E+01  0.4238E+03
      9.297  0.2596E-01  0.4238E+03
      9.349  0.1007E+01  0.4238E+03
      9.400  0.1713E+01  0.4239E+03
      9.451  0.3390E+00  0.4240E+03
      9.502  0.9012E+00  0.4240E+03
      9.553  0.0000E+00  0.4240E+03
      9.604  0.0000E+00  0.4240E+03
      9.655  0.0000E+00  0.4240E+03
      9.706  0.0000E+00  0.4240E+03
      9.757  0.0000E+00  0.4240E+03
      9.808  0.0000E+00  0.4240E+03
      9.859  0.0000E+00  0.4240E+03
      9.911  0.0000E+00  0.4240E+03
      9.962  0.0000E+00  0.4240E+03
     10.013  0.0000E+00  0.4240E+03
     10.064  0.0000E+00  0.4240E+03
     10.115  0.0000E+00  0.4240E+03
     10.166  0.0000E+00  0.4240E+03
