   32   32    1    1
  0.2029222E+02  0.8659508E-09  0.8659508E-09  0.8659508E-09  0.5000000E-15
  1.000000000000000E-004
  CAR 
 unknown system                          
  352  196  212
 
  0.0000000E+00  0.0000000E+00  0.0000000E+00  0.5787037E-03
   1       -4.4662
   2       -3.3495
   3       -3.3494
   4       -3.3494
   5       -3.3350
   6       -3.3350
   7       -3.3350
   8       -3.3350
   9       -3.2680
  10       -3.2680
  11       -3.2680
  12       -2.9547
  13       -2.9532
  14       -2.9532
  15       -2.9532
  16       -2.9532
  17       -2.9518
  18       -2.7764
  19       -2.7751
  20       -2.7751
  21       -2.7751
  22       -2.7751
  23       -2.7738
  24       -2.7427
  25       -2.7414
  26       -2.7414
  27       -2.7414
  28       -2.7414
  29       -2.7402
  30       -2.5408
  31       -2.5408
  32       -2.5405
  33       -2.5400
  34       -2.5397
  35       -2.5397
  36       -2.5397
  37       -2.5397
  38       -2.5394
  39       -2.5388
  40       -2.5386
  41       -2.5386
  42       -2.3827
  43       -2.3811
  44       -2.3811
  45       -2.3804
  46       -2.3804
  47       -2.3804
  48       -2.3804
  49       -2.3804
  50       -2.3803
  51       -2.3797
  52       -2.3797
  53       -2.3782
  54       -2.3347
  55       -2.3347
  56       -2.3333
  57       -2.3333
  58       -2.3333
  59       -2.3333
  60       -2.3333
  61       -2.3332
  62       -2.3332
  63       -2.3332
  64       -2.3318
  65       -2.3318
  66       -2.1773
  67       -2.1773
  68       -2.1773
  69       -2.1773
  70       -2.1773
  71       -2.1773
  72       -2.1773
  73       -2.1773
  74       -2.1666
  75       -2.1666
  76       -2.1666
  77       -2.0269
  78       -2.0253
  79       -2.0251
  80       -2.0251
  81       -2.0249
  82       -2.0249
  83       -2.0249
  84       -2.0249
  85       -2.0248
  86       -2.0248
  87       -2.0245
  88       -2.0230
  89       -1.6725
  90       -1.6721
  91       -1.6714
  92       -1.6714
  93       -1.6711
  94       -1.6711
  95       -1.6711
  96       -1.6710
  97       -1.6707
  98       -1.6707
  99       -1.6700
 100       -1.6696
 101       -1.5159
 102       -1.5159
 103       -1.5144
 104       -1.5144
 105       -1.5143
 106       -1.5143
 107       -1.5143
 108       -1.5143
 109       -1.5142
 110       -1.5142
 111       -1.5128
 112       -1.5128
 113       -1.4096
 114       -1.4096
 115       -1.3926
 116       -1.3926
 117       -1.3911
 118       -1.3909
 119       -1.3908
 120       -1.3908
 121       -1.3908
 122       -1.3908
 123       -1.3908
 124       -1.3905
 125       -1.3892
 126       -1.3892
 127       -1.3823
 128       -1.3815
 129       -1.3815
 130       -1.3814
 131       -1.3814
 132       -1.3805
 133       -1.2494
 134       -1.2479
 135       -1.2479
 136       -1.2479
 137       -1.2479
 138       -1.2464
 139       -1.1360
 140       -1.1353
 141       -1.1353
 142       -1.1353
 143       -1.1353
 144       -1.1346
 145       -0.8496
 146       -0.8496
 147       -0.8496
 148       -0.8241
 149       -0.8241
 150       -0.8241
 151       -0.8241
 152       -0.8241
 153       -0.8241
 154       -0.8241
 155       -0.8241
 156       -0.6728
 157       -0.6725
 158       -0.6725
 159       -0.6725
 160       -0.6725
 161       -0.6725
 162       -0.6719
 163       -0.6719
 164       -0.6719
 165       -0.6719
 166       -0.6718
 167       -0.6716
 168        1.4657
 169        1.4668
 170        1.4668
 171        1.4677
 172        1.4680
 173        1.4680
 174        1.4680
 175        1.4680
 176        1.4682
 177        1.4691
 178        1.4691
 179        1.4702
 180        2.1550
 181        2.1551
 182        2.1551
 183        2.1551
 184        3.8809
 185        3.8809
 186        3.8809
 187        4.8589
 188        4.8589
 189        4.8589
 190        4.8589
 191        7.4619
 192        7.4619
 193        7.4644
 194        7.4644
 195        7.4646
 196        7.4646
 197        7.4646
 198        7.4646
 199        7.4649
 200        7.4649
 201        7.4673
 202        7.4673
 203        7.6217
 204        7.6217
 205        7.6217
 206        8.0213
 207        8.0213
 208        8.0214
 209        8.0214
 210        8.0214
 211        8.0214
 212        9.4020
 
  0.8333333E-01  0.0000000E+00  0.0000000E+00  0.1157407E-02
   1       -4.4503
   2       -3.3436
   3       -3.3419
   4       -3.3419
   5       -3.3279
   6       -3.3279
   7       -3.3279
   8       -3.3279
   9       -3.2637
  10       -3.2613
  11       -3.2613
  12       -3.0303
  13       -2.9435
  14       -2.9434
  15       -2.9434
  16       -2.9434
  17       -2.9307
  18       -2.8127
  19       -2.7889
  20       -2.7888
  21       -2.7697
  22       -2.7697
  23       -2.7697
  24       -2.7697
  25       -2.7376
  26       -2.7376
  27       -2.7376
  28       -2.7376
  29       -2.6693
  30       -2.5913
  31       -2.5913
  32       -2.5913
  33       -2.5913
  34       -2.5575
  35       -2.5575
  36       -2.5575
  37       -2.5575
  38       -2.5182
  39       -2.5182
  40       -2.5182
  41       -2.5182
  42       -2.4780
  43       -2.4780
  44       -2.4118
  45       -2.4117
  46       -2.4117
  47       -2.4117
  48       -2.3567
  49       -2.3557
  50       -2.3557
  51       -2.3557
  52       -2.3550
  53       -2.3550
  54       -2.3550
  55       -2.3540
  56       -2.3353
  57       -2.3353
  58       -2.3353
  59       -2.3353
  60       -2.3326
  61       -2.3326
  62       -2.3326
  63       -2.3325
  64       -2.1795
  65       -2.1795
  66       -2.1794
  67       -2.1794
  68       -2.1787
  69       -2.1787
  70       -2.1723
  71       -2.1723
  72       -2.1723
  73       -2.1723
  74       -2.1717
  75       -2.1616
  76       -2.1616
  77       -2.0608
  78       -2.0608
  79       -2.0608
  80       -2.0608
  81       -2.0365
  82       -2.0365
  83       -2.0365
  84       -2.0365
  85       -1.9890
  86       -1.9890
  87       -1.9890
  88       -1.9890
  89       -1.6950
  90       -1.6949
  91       -1.6949
  92       -1.6949
  93       -1.6623
  94       -1.6623
  95       -1.6622
  96       -1.6622
  97       -1.6378
  98       -1.6378
  99       -1.6378
 100       -1.6377
 101       -1.6081
 102       -1.6081
 103       -1.5762
 104       -1.5762
 105       -1.5762
 106       -1.5762
 107       -1.5147
 108       -1.5147
 109       -1.5147
 110       -1.5147
 111       -1.4539
 112       -1.4345
 113       -1.4345
 114       -1.4344
 115       -1.4344
 116       -1.4174
 117       -1.4174
 118       -1.4147
 119       -1.4073
 120       -1.3817
 121       -1.3816
 122       -1.3816
 123       -1.3815
 124       -1.3684
 125       -1.3684
 126       -1.3660
 127       -1.3659
 128       -1.3659
 129       -1.3658
 130       -1.3361
 131       -1.3361
 132       -1.3360
 133       -1.3360
 134       -1.1968
 135       -1.1968
 136       -1.1968
 137       -1.1968
 138       -1.1717
 139       -1.1193
 140       -1.1193
 141       -1.1193
 142       -1.1193
 143       -1.0987
 144       -0.9570
 145       -0.8564
 146       -0.8564
 147       -0.8521
 148       -0.8400
 149       -0.8400
 150       -0.8400
 151       -0.8400
 152       -0.8302
 153       -0.8302
 154       -0.8302
 155       -0.8302
 156       -0.6955
 157       -0.6955
 158       -0.6811
 159       -0.6811
 160       -0.6811
 161       -0.6811
 162       -0.6809
 163       -0.6809
 164       -0.6728
 165       -0.6725
 166       -0.6719
 167       -0.6716
 168        1.1213
 169        1.1213
 170        1.1213
 171        1.1213
 172        1.4738
 173        1.4738
 174        1.4738
 175        1.4738
 176        1.8443
 177        1.8443
 178        1.8443
 179        1.8443
 180        2.1298
 181        2.1298
 182        2.1298
 183        2.1298
 184        3.7428
 185        3.9178
 186        3.9178
 187        4.9241
 188        4.9241
 189        4.9241
 190        4.9241
 191        7.0148
 192        7.0148
 193        7.1037
 194        7.1037
 195        7.1038
 196        7.1038
 197        7.4884
 198        7.4884
 199        7.4884
 200        7.4884
 201        7.6253
 202        7.6253
 203        7.7864
 204        7.9247
 205        7.9247
 206        8.0069
 207        8.0069
 208        8.2572
 209        8.2572
 210        8.2572
 211        8.2572
 212        9.4430
 
  0.1666667E+00  0.0000000E+00  0.0000000E+00  0.1157407E-02
   1       -4.4028
   2       -3.3263
   3       -3.3195
   4       -3.3195
   5       -3.3066
   6       -3.3066
   7       -3.3066
   8       -3.3066
   9       -3.2507
  10       -3.2413
  11       -3.2413
  12       -3.1650
  13       -2.9479
  14       -2.9144
  15       -2.9143
  16       -2.9143
  17       -2.9143
  18       -2.8819
  19       -2.8277
  20       -2.8277
  21       -2.7541
  22       -2.7541
  23       -2.7541
  24       -2.7541
  25       -2.7264
  26       -2.7264
  27       -2.7264
  28       -2.7263
  29       -2.6907
  30       -2.6907
  31       -2.6907
  32       -2.6907
  33       -2.6120
  34       -2.6120
  35       -2.5977
  36       -2.5711
  37       -2.5711
  38       -2.5711
  39       -2.5711
  40       -2.4968
  41       -2.4968
  42       -2.4968
  43       -2.4968
  44       -2.4487
  45       -2.4487
  46       -2.4487
  47       -2.4486
  48       -2.3409
  49       -2.3409
  50       -2.3409
  51       -2.3409
  52       -2.3382
  53       -2.3378
  54       -2.3378
  55       -2.3378
  56       -2.3308
  57       -2.3308
  58       -2.3308
  59       -2.3306
  60       -2.3221
  61       -2.3221
  62       -2.3221
  63       -2.3220
  64       -2.1871
  65       -2.1856
  66       -2.1856
  67       -2.1856
  68       -2.1856
  69       -2.1572
  70       -2.1572
  71       -2.1572
  72       -2.1572
  73       -2.1466
  74       -2.1466
  75       -2.1225
  76       -2.1225
  77       -2.1225
  78       -2.1225
  79       -2.0874
  80       -2.0874
  81       -2.0874
  82       -2.0874
  83       -2.0158
  84       -2.0158
  85       -1.8940
  86       -1.8940
  87       -1.8940
  88       -1.8940
  89       -1.7499
  90       -1.7498
  91       -1.7498
  92       -1.7498
  93       -1.6974
  94       -1.6974
  95       -1.6889
  96       -1.6888
  97       -1.6888
  98       -1.6888
  99       -1.6142
 100       -1.6141
 101       -1.6141
 102       -1.6141
 103       -1.5853
 104       -1.5853
 105       -1.5853
 106       -1.5853
 107       -1.5730
 108       -1.5158
 109       -1.5158
 110       -1.5158
 111       -1.5158
 112       -1.4672
 113       -1.4672
 114       -1.4672
 115       -1.4672
 116       -1.4299
 117       -1.4004
 118       -1.3821
 119       -1.3820
 120       -1.3820
 121       -1.3820
 122       -1.3315
 123       -1.3315
 124       -1.3189
 125       -1.3189
 126       -1.3080
 127       -1.3080
 128       -1.3080
 129       -1.3080
 130       -1.2711
 131       -1.2711
 132       -1.2711
 133       -1.2711
 134       -1.2074
 135       -1.1829
 136       -1.1829
 137       -1.1829
 138       -1.1829
 139       -1.0625
 140       -1.0051
 141       -1.0051
 142       -1.0051
 143       -1.0051
 144       -0.8870
 145       -0.8870
 146       -0.8870
 147       -0.8870
 148       -0.8765
 149       -0.8765
 150       -0.8596
 151       -0.8484
 152       -0.8483
 153       -0.8483
 154       -0.8483
 155       -0.7622
 156       -0.7622
 157       -0.7082
 158       -0.7082
 159       -0.7082
 160       -0.7082
 161       -0.7058
 162       -0.7058
 163       -0.6727
 164       -0.6725
 165       -0.6719
 166       -0.6717
 167       -0.5956
 168        0.8026
 169        0.8026
 170        0.8026
 171        0.8026
 172        1.4914
 173        1.4914
 174        1.4914
 175        1.4914
 176        2.0620
 177        2.0620
 178        2.0620
 179        2.0621
 180        2.2513
 181        2.2513
 182        2.2513
 183        2.2513
 184        3.3855
 185        4.0262
 186        4.0262
 187        5.1108
 188        5.1108
 189        5.1108
 190        5.1108
 191        6.5236
 192        6.5236
 193        6.5236
 194        6.5236
 195        6.5780
 196        6.5780
 197        7.5594
 198        7.5594
 199        7.5594
 200        7.5594
 201        7.6361
 202        7.6361
 203        7.9683
 204        7.9683
 205        8.2240
 206        8.3922
 207        8.3922
 208        8.4906
 209        8.4906
 210        8.4906
 211        8.4906
 212        9.0110
 
  0.2500000E+00  0.0000000E+00  0.0000000E+00  0.1157407E-02
   1       -4.3243
   2       -3.3421
   3       -3.2981
   4       -3.2830
   5       -3.2830
   6       -3.2714
   7       -3.2714
   8       -3.2714
   9       -3.2714
  10       -3.2294
  11       -3.2081
  12       -3.2081
  13       -2.9891
  14       -2.9481
  15       -2.8857
  16       -2.8856
  17       -2.8672
  18       -2.8672
  19       -2.8672
  20       -2.8671
  21       -2.7984
  22       -2.7984
  23       -2.7984
  24       -2.7984
  25       -2.7346
  26       -2.7346
  27       -2.7294
  28       -2.7294
  29       -2.7293
  30       -2.7293
  31       -2.7078
  32       -2.7078
  33       -2.7078
  34       -2.7078
  35       -2.5820
  36       -2.5820
  37       -2.5820
  38       -2.5820
  39       -2.5277
  40       -2.4896
  41       -2.4896
  42       -2.4895
  43       -2.4895
  44       -2.4865
  45       -2.4865
  46       -2.4864
  47       -2.4864
  48       -2.3479
  49       -2.3479
  50       -2.3479
  51       -2.3479
  52       -2.3289
  53       -2.3281
  54       -2.3281
  55       -2.3280
  56       -2.3263
  57       -2.3262
  58       -2.3262
  59       -2.3255
  60       -2.2980
  61       -2.2980
  62       -2.2980
  63       -2.2979
  64       -2.2122
  65       -2.1956
  66       -2.1956
  67       -2.1956
  68       -2.1955
  69       -2.1906
  70       -2.1906
  71       -2.1906
  72       -2.1906
  73       -2.1437
  74       -2.1436
  75       -2.1436
  76       -2.1436
  77       -2.1323
  78       -2.1323
  79       -2.1323
  80       -2.1322
  81       -2.1217
  82       -2.1217
  83       -1.8460
  84       -1.8460
  85       -1.8154
  86       -1.8154
  87       -1.8154
  88       -1.8154
  89       -1.8044
  90       -1.8044
  91       -1.8044
  92       -1.8044
  93       -1.7812
  94       -1.7812
  95       -1.7647
  96       -1.7647
  97       -1.7647
  98       -1.7647
  99       -1.6215
 100       -1.5478
 101       -1.5478
 102       -1.5478
 103       -1.5478
 104       -1.5317
 105       -1.5317
 106       -1.5317
 107       -1.5317
 108       -1.5173
 109       -1.5173
 110       -1.5173
 111       -1.5173
 112       -1.4903
 113       -1.4903
 114       -1.4903
 115       -1.4903
 116       -1.4543
 117       -1.3891
 118       -1.3842
 119       -1.3842
 120       -1.3842
 121       -1.3842
 122       -1.2768
 123       -1.2767
 124       -1.2418
 125       -1.2377
 126       -1.2377
 127       -1.2377
 128       -1.2375
 129       -1.2206
 130       -1.2206
 131       -1.2058
 132       -1.2058
 133       -1.2058
 134       -1.2058
 135       -1.1977
 136       -1.1977
 137       -1.1977
 138       -1.1977
 139       -1.0274
 140       -0.9630
 141       -0.9629
 142       -0.9629
 143       -0.9629
 144       -0.9094
 145       -0.9094
 146       -0.8781
 147       -0.8781
 148       -0.8781
 149       -0.8781
 150       -0.8718
 151       -0.8663
 152       -0.8663
 153       -0.8396
 154       -0.8395
 155       -0.8395
 156       -0.8395
 157       -0.7518
 158       -0.7518
 159       -0.7518
 160       -0.7518
 161       -0.7462
 162       -0.7462
 163       -0.6727
 164       -0.6725
 165       -0.6720
 166       -0.6717
 167       -0.1791
 168        0.5096
 169        0.5096
 170        0.5096
 171        0.5096
 172        1.5213
 173        1.5213
 174        1.5213
 175        1.5213
 176        1.9697
 177        1.9697
 178        1.9697
 179        1.9697
 180        2.6895
 181        2.6895
 182        2.6895
 183        2.6895
 184        2.9078
 185        4.1997
 186        4.1997
 187        5.3990
 188        5.3990
 189        5.3990
 190        5.3990
 191        5.9190
 192        5.9190
 193        5.9190
 194        5.9190
 195        6.1572
 196        6.1572
 197        7.6544
 198        7.6544
 199        7.6759
 200        7.6759
 201        7.6759
 202        7.6759
 203        7.9159
 204        7.9159
 205        8.3807
 206        8.3808
 207        8.3808
 208        8.3808
 209        8.6375
 210        8.6375
 211        8.6375
 212        8.6387
 
  0.3333333E+00  0.0000000E+00  0.0000000E+00  0.1157407E-02
   1       -4.2158
   2       -3.5382
   3       -3.2598
   4       -3.2336
   5       -3.2335
   6       -3.2225
   7       -3.2225
   8       -3.2225
   9       -3.2225
  10       -3.1999
  11       -3.1615
  12       -3.1615
  13       -3.0428
  14       -3.0101
  15       -2.9553
  16       -2.9553
  17       -2.9028
  18       -2.9028
  19       -2.9028
  20       -2.9028
  21       -2.8452
  22       -2.8452
  23       -2.8041
  24       -2.8041
  25       -2.8041
  26       -2.8041
  27       -2.6981
  28       -2.6980
  29       -2.6980
  30       -2.6980
  31       -2.6825
  32       -2.6825
  33       -2.6825
  34       -2.6825
  35       -2.5932
  36       -2.5932
  37       -2.5932
  38       -2.5932
  39       -2.5322
  40       -2.5322
  41       -2.5322
  42       -2.5321
  43       -2.5070
  44       -2.5070
  45       -2.5070
  46       -2.5070
  47       -2.4607
  48       -2.3530
  49       -2.3530
  50       -2.3530
  51       -2.3530
  52       -2.3251
  53       -2.3247
  54       -2.3247
  55       -2.3247
  56       -2.3202
  57       -2.3201
  58       -2.3201
  59       -2.3197
  60       -2.2780
  61       -2.2779
  62       -2.2779
  63       -2.2779
  64       -2.2538
  65       -2.2538
  66       -2.2538
  67       -2.2538
  68       -2.2468
  69       -2.2086
  70       -2.2086
  71       -2.2086
  72       -2.2086
  73       -2.1692
  74       -2.1691
  75       -2.1691
  76       -2.1691
  77       -2.0980
  78       -2.0980
  79       -2.0980
  80       -2.0980
  81       -2.0871
  82       -2.0871
  83       -1.9123
  84       -1.9123
  85       -1.9123
  86       -1.9123
  87       -1.8820
  88       -1.8820
  89       -1.8820
  90       -1.8820
  91       -1.8584
  92       -1.8584
  93       -1.6715
  94       -1.6715
  95       -1.6236
  96       -1.6198
  97       -1.6198
  98       -1.6198
  99       -1.6198
 100       -1.5187
 101       -1.5187
 102       -1.5187
 103       -1.5187
 104       -1.5052
 105       -1.5052
 106       -1.5052
 107       -1.5052
 108       -1.4865
 109       -1.4849
 110       -1.4848
 111       -1.4848
 112       -1.4848
 113       -1.4768
 114       -1.4768
 115       -1.4768
 116       -1.4767
 117       -1.3899
 118       -1.3899
 119       -1.3899
 120       -1.3899
 121       -1.3735
 122       -1.2738
 123       -1.2420
 124       -1.2420
 125       -1.2420
 126       -1.2420
 127       -1.2112
 128       -1.2111
 129       -1.1648
 130       -1.1648
 131       -1.1648
 132       -1.1648
 133       -1.1243
 134       -1.1243
 135       -1.1184
 136       -1.1184
 137       -1.1184
 138       -1.1184
 139       -1.0643
 140       -1.0642
 141       -1.0642
 142       -1.0642
 143       -0.9997
 144       -0.9997
 145       -0.9940
 146       -0.9542
 147       -0.9542
 148       -0.9187
 149       -0.9187
 150       -0.9187
 151       -0.9187
 152       -0.8886
 153       -0.8096
 154       -0.8096
 155       -0.8096
 156       -0.8096
 157       -0.8009
 158       -0.8009
 159       -0.6727
 160       -0.6724
 161       -0.6720
 162       -0.6717
 163       -0.6550
 164       -0.6550
 165       -0.6550
 166       -0.6550
 167        0.2397
 168        0.2397
 169        0.2397
 170        0.2397
 171        0.2807
 172        1.5641
 173        1.5641
 174        1.5641
 175        1.5641
 176        1.8702
 177        1.8702
 178        1.8702
 179        1.8702
 180        2.3782
 181        3.1588
 182        3.1588
 183        3.1588
 184        3.1588
 185        4.4299
 186        4.4299
 187        5.3216
 188        5.3216
 189        5.3216
 190        5.3216
 191        5.7554
 192        5.7554
 193        5.7677
 194        5.7677
 195        5.7678
 196        5.7678
 197        7.6803
 198        7.6803
 199        7.7805
 200        7.7805
 201        7.7805
 202        7.7805
 203        7.8359
 204        7.8360
 205        7.8360
 206        7.8360
 207        7.8592
 208        7.8592
 209        8.7593
 210        8.7597
 211        8.7617
 212        8.7657
 
  0.4166667E+00  0.0000000E+00  0.0000000E+00  0.1157407E-02
   1       -4.0790
   2       -3.7341
   3       -3.2129
   4       -3.1731
   5       -3.1731
   6       -3.1627
   7       -3.1604
   8       -3.1604
   9       -3.1604
  10       -3.1604
  11       -3.1019
  12       -3.1019
  13       -3.1012
  14       -3.0671
  15       -3.0301
  16       -3.0301
  17       -2.9994
  18       -2.9994
  19       -2.9994
  20       -2.9994
  21       -2.9435
  22       -2.9435
  23       -2.7284
  24       -2.7284
  25       -2.7283
  26       -2.7283
  27       -2.6641
  28       -2.6640
  29       -2.6640
  30       -2.6640
  31       -2.6512
  32       -2.6512
  33       -2.6512
  34       -2.6511
  35       -2.6090
  36       -2.6090
  37       -2.6090
  38       -2.6089
  39       -2.5745
  40       -2.5745
  41       -2.5745
  42       -2.5745
  43       -2.5659
  44       -2.5659
  45       -2.5659
  46       -2.5659
  47       -2.3979
  48       -2.3513
  49       -2.3513
  50       -2.3513
  51       -2.3512
  52       -2.3220
  53       -2.3214
  54       -2.3214
  55       -2.3214
  56       -2.3181
  57       -2.3181
  58       -2.3181
  59       -2.3175
  60       -2.3041
  61       -2.3041
  62       -2.3041
  63       -2.3041
  64       -2.2898
  65       -2.2592
  66       -2.2592
  67       -2.2592
  68       -2.2592
  69       -2.2241
  70       -2.2241
  71       -2.2241
  72       -2.2241
  73       -2.1471
  74       -2.1471
  75       -2.1471
  76       -2.1471
  77       -2.0549
  78       -2.0549
  79       -2.0549
  80       -2.0548
  81       -2.0431
  82       -2.0431
  83       -2.0085
  84       -2.0085
  85       -2.0085
  86       -2.0085
  87       -1.9456
  88       -1.9456
  89       -1.9456
  90       -1.9456
  91       -1.9282
  92       -1.9282
  93       -1.5996
  94       -1.5240
  95       -1.5193
  96       -1.5193
  97       -1.5193
  98       -1.5193
  99       -1.5140
 100       -1.5140
 101       -1.5140
 102       -1.5140
 103       -1.4953
 104       -1.4953
 105       -1.4703
 106       -1.4702
 107       -1.4702
 108       -1.4702
 109       -1.4474
 110       -1.4474
 111       -1.4473
 112       -1.4473
 113       -1.4079
 114       -1.4079
 115       -1.4079
 116       -1.4079
 117       -1.4011
 118       -1.4011
 119       -1.4011
 120       -1.4011
 121       -1.3538
 122       -1.3036
 123       -1.2887
 124       -1.2887
 125       -1.2887
 126       -1.2887
 127       -1.1863
 128       -1.1863
 129       -1.1863
 130       -1.1863
 131       -1.1538
 132       -1.1538
 133       -1.1414
 134       -1.1414
 135       -1.0940
 136       -1.0940
 137       -1.0940
 138       -1.0940
 139       -1.0365
 140       -1.0365
 141       -1.0365
 142       -1.0365
 143       -1.0320
 144       -1.0320
 145       -1.0094
 146       -1.0093
 147       -0.9691
 148       -0.9691
 149       -0.9691
 150       -0.9691
 151       -0.9628
 152       -0.9097
 153       -0.8785
 154       -0.8785
 155       -0.8785
 156       -0.8785
 157       -0.8681
 158       -0.8681
 159       -0.6727
 160       -0.6723
 161       -0.6721
 162       -0.6717
 163       -0.4553
 164       -0.4553
 165       -0.4553
 166       -0.4553
 167       -0.0095
 168       -0.0095
 169       -0.0095
 170       -0.0095
 171        0.7749
 172        1.6205
 173        1.6205
 174        1.6205
 175        1.6205
 176        1.7752
 177        1.7752
 178        1.7752
 179        1.7752
 180        1.8341
 181        3.6584
 182        3.6584
 183        3.6584
 184        3.6584
 185        4.7079
 186        4.7079
 187        4.7424
 188        4.7424
 189        4.7424
 190        4.7424
 191        5.3769
 192        5.3769
 193        6.2003
 194        6.2003
 195        6.2003
 196        6.2003
 197        7.2138
 198        7.2138
 199        7.2138
 200        7.2138
 201        7.7141
 202        7.7141
 203        7.8046
 204        7.8046
 205        8.0366
 206        8.0366
 207        8.0366
 208        8.0366
 209        8.5470
 210        8.5470
 211        8.5470
 212        8.5470
 
  0.5000000E+00  0.0000000E+00  0.0000000E+00  0.5787037E-03
   1       -3.9180
   2       -3.9159
   3       -3.1599
   4       -3.1584
   5       -3.1190
   6       -3.1175
   7       -3.1052
   8       -3.1046
   9       -3.1036
  10       -3.1031
  11       -3.0866
  12       -3.0866
  13       -3.0865
  14       -3.0864
  15       -3.0850
  16       -3.0849
  17       -3.0848
  18       -3.0848
  19       -3.0300
  20       -3.0300
  21       -3.0283
  22       -3.0283
  23       -2.6473
  24       -2.6468
  25       -2.6459
  26       -2.6459
  27       -2.6454
  28       -2.6454
  29       -2.6446
  30       -2.6441
  31       -2.6346
  32       -2.6329
  33       -2.6329
  34       -2.6328
  35       -2.6327
  36       -2.6327
  37       -2.6327
  38       -2.6309
  39       -2.6158
  40       -2.6156
  41       -2.6156
  42       -2.6149
  43       -2.6145
  44       -2.6139
  45       -2.6139
  46       -2.6137
  47       -2.3409
  48       -2.3403
  49       -2.3375
  50       -2.3370
  51       -2.3370
  52       -2.3366
  53       -2.3366
  54       -2.3362
  55       -2.3362
  56       -2.3358
  57       -2.3203
  58       -2.3192
  59       -2.3192
  60       -2.3190
  61       -2.3187
  62       -2.3185
  63       -2.3185
  64       -2.3173
  65       -2.2416
  66       -2.2414
  67       -2.2414
  68       -2.2414
  69       -2.2410
  70       -2.2410
  71       -2.2410
  72       -2.2408
  73       -2.0900
  74       -2.0898
  75       -2.0898
  76       -2.0891
  77       -2.0890
  78       -2.0884
  79       -2.0884
  80       -2.0883
  81       -2.0050
  82       -2.0046
  83       -2.0046
  84       -2.0039
  85       -2.0035
  86       -2.0028
  87       -2.0028
  88       -2.0024
  89       -1.9906
  90       -1.9906
  91       -1.9892
  92       -1.9892
  93       -1.5640
  94       -1.5632
  95       -1.5185
  96       -1.5185
  97       -1.5183
  98       -1.5182
  99       -1.5181
 100       -1.5180
 101       -1.5178
 102       -1.5178
 103       -1.4204
 104       -1.4202
 105       -1.4198
 106       -1.4198
 107       -1.4197
 108       -1.4197
 109       -1.4192
 110       -1.4191
 111       -1.3454
 112       -1.3448
 113       -1.3448
 114       -1.3447
 115       -1.3444
 116       -1.3443
 117       -1.3443
 118       -1.3437
 119       -1.3310
 120       -1.3298
 121       -1.3243
 122       -1.3239
 123       -1.3239
 124       -1.3236
 125       -1.3235
 126       -1.3233
 127       -1.3233
 128       -1.3229
 129       -1.3215
 130       -1.3215
 131       -1.3205
 132       -1.3205
 133       -1.0729
 134       -1.0728
 135       -1.0727
 136       -1.0726
 137       -1.0288
 138       -1.0285
 139       -1.0285
 140       -1.0283
 141       -1.0278
 142       -1.0277
 143       -1.0277
 144       -1.0273
 145       -0.9562
 146       -0.9562
 147       -0.9555
 148       -0.9555
 149       -0.9551
 150       -0.9551
 151       -0.9544
 152       -0.9544
 153       -0.9460
 154       -0.9460
 155       -0.9455
 156       -0.9455
 157       -0.9346
 158       -0.9345
 159       -0.6727
 160       -0.6722
 161       -0.6722
 162       -0.6717
 163       -0.2414
 164       -0.2410
 165       -0.2406
 166       -0.2406
 167       -0.2405
 168       -0.2405
 169       -0.2400
 170       -0.2396
 171        1.2955
 172        1.2957
 173        1.6892
 174        1.6905
 175        1.6907
 176        1.6907
 177        1.6915
 178        1.6915
 179        1.6916
 180        1.6929
 181        4.1855
 182        4.1855
 183        4.1860
 184        4.1867
 185        4.1872
 186        4.1879
 187        4.1884
 188        4.1884
 189        5.0248
 190        5.0248
 191        5.0269
 192        5.0269
 193        6.6834
 194        6.6834
 195        6.6841
 196        6.6847
 197        6.6855
 198        6.6861
 199        6.6868
 200        6.6868
 201        7.7556
 202        7.7556
 203        7.7558
 204        7.7559
 205        8.2732
 206        8.2732
 207        8.2743
 208        8.2745
 209        8.2749
 210        8.2750
 211        8.2761
 212        8.2761
 
  0.0000000E+00  0.8333333E-01  0.0000000E+00  0.2314815E-02
   1       -4.4503
   2       -3.3436
   3       -3.3419
   4       -3.3419
   5       -3.3279
   6       -3.3279
   7       -3.3279
   8       -3.3278
   9       -3.2637
  10       -3.2613
  11       -3.2613
  12       -3.0303
  13       -2.9445
  14       -2.9434
  15       -2.9434
  16       -2.9424
  17       -2.9307
  18       -2.8127
  19       -2.7889
  20       -2.7888
  21       -2.7706
  22       -2.7697
  23       -2.7697
  24       -2.7688
  25       -2.7387
  26       -2.7376
  27       -2.7376
  28       -2.7366
  29       -2.6694
  30       -2.5913
  31       -2.5913
  32       -2.5912
  33       -2.5912
  34       -2.5583
  35       -2.5575
  36       -2.5575
  37       -2.5567
  38       -2.5191
  39       -2.5182
  40       -2.5182
  41       -2.5173
  42       -2.4780
  43       -2.4780
  44       -2.4127
  45       -2.4117
  46       -2.4117
  47       -2.4107
  48       -2.3571
  49       -2.3558
  50       -2.3557
  51       -2.3555
  52       -2.3554
  53       -2.3551
  54       -2.3545
  55       -2.3539
  56       -2.3362
  57       -2.3353
  58       -2.3352