 vasp.4.6.28 25Jul05 complex 
 executed on             LinuxIFC date 2017.01.10  17:17:05
 running on    4 nodes
 distr:  one band on    1 nodes,    4 groups


--------------------------------------------------------------------------------------------------------


 INCAR:
 POTCAR:   PAW_PBE Ag 06Sep2000                   
 POTCAR:   PAW_PBE Ag 06Sep2000                   
   VRHFIN =Ag : s1 d10                                                          
   LEXCH  = PE                                                                  
   EATOM  =  1037.4134 eV,   76.2477 Ry                                         
                                                                                
   TITEL  = PAW_PBE Ag 06Sep2000                                                
   LULTRA =        F    use ultrasoft PP ?                                      
   IUNSCR =        1    unscreen: 0-lin 1-nonlin 2-no                           
   RPACOR =    2.000    partial core radius                                     
   POMASS =  107.868; ZVAL   =   11.000    mass and valenz                      
   RCORE  =    2.400    outmost cutoff radius                                   
   RWIGS  =    2.840; RWIGS  =    1.503    wigner-seitz radius (au A)           
   ENMAX  =  249.846; ENMIN  =  187.385 eV                                      
   RCLOC  =    1.962    cutoff for local pot                                    
   LCOR   =        T    correct aug charges                                     
   LPAW   =        T    paw PP                                                  
   EAUG   =  412.496                                                            
   DEXC   =    -.047                                                            
   RMAX   =    2.917    core radius for proj-oper                               
   RAUG   =    1.300    factor for augmentation sphere                          
   RDEP   =    2.416    radius for radial grids                                 
   QCUT   =   -4.285; QGAM   =    8.570    optimization parameters              
                                                                                
   Description                                                                  
     l     E      TYP  RCUT    TYP  RCUT                                        
     2   .000     23  2.400                                                     
     2   .000     23  2.400                                                     
     0   .000     23  2.400                                                     
     0   .000     23  2.400                                                     
     1  -.200     23  2.400                                                     
     1  1.500     23  2.400                                                     
     3   .000      7   .000                                                     
  local pseudopotential read in
  partial core-charges read in
  atomic valenz-charges read in
  non local Contribution for L=           2  read in
    real space projection operators read in
  non local Contribution for L=           2  read in
    real space projection operators read in
  non local Contribution for L=           0  read in
    real space projection operators read in
  non local Contribution for L=           0  read in
    real space projection operators read in
  non local Contribution for L=           1  read in
    real space projection operators read in
  non local Contribution for L=           1  read in
    real space projection operators read in
    PAW grid and wavefunctions read in
 
   number of l-projection  operators is LMAX  =           6
   number of lm-projection operators is LMMAX =          18
 

 ----------------------------------------------------------------------------- 
|                                                                             |
|  ADVICE TO THIS USER RUNNING 'VASP/VAMP'   (HEAR YOUR MASTER'S VOICE ...):  |
|                                                                             |
|      You have a (more or less) 'large supercell' and for larger cells       |
|      it might be more efficient to use real space projection operators      |
|      So try LREAL= Auto  in the INCAR   file.                               |
|      Mind: If you want to do an extremely accurate calculations keep the    |
|      reciprocal projection scheme          (i.e. LREAL=.FALSE.)             |
|                                                                             |
 ----------------------------------------------------------------------------- 

 PAW_PBE Ag 06Sep2000                   :
 energy of atom  1       EATOM=-1037.4134
 kinetic energy error for atom=    0.0010 (will be added to EATOM!!)
 
 EXHCAR: internal setup
 exchange correlation table for  LEXCH =        8
   RHO(1)=    0.500       N(1)  =     2000
   RHO(2)=  100.500       N(2)  =     4000
 
 POSCAR: Ag                                      
  positions in direct lattice
  No initial velocities read in
 


--------------------------------------------------------------------------------------------------------


 ion  position               nearest neighbor table
   1  0.001  0.000  0.000-   9 3.05  11 3.05  17 3.05  21 3.05  25 3.06  27 3.06  29 3.06  31 3.06
                            10 3.07  18 3.07  12 3.07  22 3.07
   2  0.500  0.000  0.000-   9 3.06  10 3.06  11 3.06  12 3.06  17 3.06  18 3.06  21 3.06  22 3.06
                            26 3.06  28 3.06  30 3.06  32 3.06
   3  0.000  0.500  0.000-   9 3.06  10 3.06  11 3.06  12 3.06  19 3.06  20 3.06  23 3.06  24 3.06
                            25 3.06  27 3.06  29 3.06  31 3.06
   4  0.500  0.500  0.000-   9 3.06  10 3.06  11 3.06  12 3.06  19 3.06  20 3.06  23 3.06  24 3.06
                            26 3.06  28 3.06  30 3.06  32 3.06
   5  0.000  0.000  0.500-  13 3.06  14 3.06  15 3.06  16 3.06  17 3.06  18 3.06  21 3.06  22 3.06
                            25 3.06  27 3.06  29 3.06  31 3.06
   6  0.500  0.000  0.500-  13 3.06  14 3.06  15 3.06  16 3.06  17 3.06  18 3.06  21 3.06  22 3.06
                            26 3.06  28 3.06  30 3.06  32 3.06
   7  0.000  0.500  0.500-  13 3.06  14 3.06  15 3.06  16 3.06  19 3.06  20 3.06  23 3.06  24 3.06
                            25 3.06  27 3.06  29 3.06  31 3.06
   8  0.500  0.500  0.500-  13 3.06  14 3.06  15 3.06  16 3.06  19 3.06  20 3.06  23 3.06  24 3.06
                            26 3.06  28 3.06  30 3.06  32 3.06
   9  0.250  0.250  0.000-   1 3.05   2 3.06   3 3.06   4 3.06  17 3.06  19 3.06  21 3.06  23 3.06
                            25 3.06  26 3.06  29 3.06  30 3.06
  10  0.750  0.250  0.000-   2 3.06   3 3.06   4 3.06  18 3.06  20 3.06  22 3.06  24 3.06  25 3.06
                            26 3.06  29 3.06  30 3.06   1 3.07
  11  0.250  0.750  0.000-   1 3.05   2 3.06   3 3.06   4 3.06  17 3.06  19 3.06  21 3.06  23 3.06
                            27 3.06  28 3.06  31 3.06  32 3.06
  12  0.750  0.750  0.000-   2 3.06   3 3.06   4 3.06  18 3.06  20 3.06  22 3.06  24 3.06  27 3.06
                            28 3.06  31 3.06  32 3.06   1 3.07
  13  0.250  0.250  0.500-   5 3.06   6 3.06   7 3.06   8 3.06  17 3.06  19 3.06  21 3.06  23 3.06
                            25 3.06  26 3.06  29 3.06  30 3.06
  14  0.750  0.250  0.500-   5 3.06   6 3.06   7 3.06   8 3.06  18 3.06  20 3.06  22 3.06  24 3.06
                            25 3.06  26 3.06  29 3.06  30 3.06
  15  0.250  0.750  0.500-   5 3.06   6 3.06   7 3.06   8 3.06  17 3.06  19 3.06  21 3.06  23 3.06
                            27 3.06  28 3.06  31 3.06  32 3.06
  16  0.750  0.750  0.500-   5 3.06   6 3.06   7 3.06   8 3.06  18 3.06  20 3.06  22 3.06  24 3.06
                            27 3.06  28 3.06  31 3.06  32 3.06
  17  0.250  0.000  0.250-   1 3.05   2 3.06   5 3.06   6 3.06   9 3.06  11 3.06  13 3.06  15 3.06
                            25 3.06  26 3.06  27 3.06  28 3.06
  18  0.750  0.000  0.250-   2 3.06   5 3.06   6 3.06  10 3.06  12 3.06  14 3.06  16 3.06  25 3.06
                            26 3.06  27 3.06  28 3.06   1 3.07
  19  0.250  0.500  0.250-   3 3.06   4 3.06   7 3.06   8 3.06   9 3.06  11 3.06  13 3.06  15 3.06
                            25 3.06  26 3.06  27 3.06  28 3.06
  20  0.750  0.500  0.250-   3 3.06   4 3.06   7 3.06   8 3.06  10 3.06  12 3.06  14 3.06  16 3.06
                            25 3.06  26 3.06  27 3.06  28 3.06
  21  0.250  0.000  0.750-   1 3.05   2 3.06   5 3.06   6 3.06   9 3.06  11 3.06  13 3.06  15 3.06
                            29 3.06  30 3.06  31 3.06  32 3.06
  22  0.750  0.000  0.750-   2 3.06   5 3.06   6 3.06  10 3.06  12 3.06  14 3.06  16 3.06  29 3.06
                            30 3.06  31 3.06  32 3.06   1 3.07
  23  0.250  0.500  0.750-   3 3.06   4 3.06   7 3.06   8 3.06   9 3.06  11 3.06  13 3.06  15 3.06
                            29 3.06  30 3.06  31 3.06  32 3.06
  24  0.750  0.500  0.750-   3 3.06   4 3.06   7 3.06   8 3.06  10 3.06  12 3.06  14 3.06  16 3.06
                            29 3.06  30 3.06  31 3.06  32 3.06
  25  0.000  0.250  0.250-   3 3.06   5 3.06   7 3.06   9 3.06  10 3.06  13 3.06  14 3.06  17 3.06
                            18 3.06  19 3.06  20 3.06   1 3.06
  26  0.500  0.250  0.250-   2 3.06   4 3.06   6 3.06   8 3.06   9 3.06  10 3.06  13 3.06  14 3.06
                            17 3.06  18 3.06  19 3.06  20 3.06
  27  0.000  0.750  0.250-   3 3.06   5 3.06   7 3.06  11 3.06  12 3.06  15 3.06  16 3.06  17 3.06
                            18 3.06  19 3.06  20 3.06   1 3.06
  28  0.500  0.750  0.250-   2 3.06   4 3.06   6 3.06   8 3.06  11 3.06  12 3.06  15 3.06  16 3.06
                            17 3.06  18 3.06  19 3.06  20 3.06
  29  0.000  0.250  0.750-   3 3.06   5 3.06   7 3.06   9 3.06  10 3.06  13 3.06  14 3.06  21 3.06
                            22 3.06  23 3.06  24 3.06   1 3.06
  30  0.500  0.250  0.750-   2 3.06   4 3.06   6 3.06   8 3.06   9 3.06  10 3.06  13 3.06  14 3.06
                            21 3.06  22 3.06  23 3.06  24 3.06
  31  0.000  0.750  0.750-   3 3.06   5 3.06   7 3.06  11 3.06  12 3.06  15 3.06  16 3.06  21 3.06
                            22 3.06  23 3.06  24 3.06   1 3.06
  32  0.500  0.750  0.750-   2 3.06   4 3.06   6 3.06   8 3.06  11 3.06  12 3.06  15 3.06  16 3.06
                            21 3.06  22 3.06  23 3.06  24 3.06
 
  LATTYP: Found a simple cubic cell.
 ALAT       =     8.6595075458
  
  Lattice vectors:
  
 A1 = (   8.6595075458,   0.0000000000,   0.0000000000)
 A2 = (   0.0000000000,   8.6595075458,   0.0000000000)
 A3 = (   0.0000000000,   0.0000000000,   8.6595075458)
 Subroutine PRICEL returns:
 Original cell was already a primitive cell.
 

Analysis of symmetry for initial positions (statically):

 Routine SETGRP: Setting up the symmetry group for a 
 simple cubic supercell.


 Subroutine GETGRP returns: Found  8 space group operations
 (whereof  8 operations were pure point group operations)
 out of a pool of 48 trial point group operations.


The static configuration has the point symmetry C_4v.

Analysis of symmetry for dynamics (positions and initial velocities):

 Subroutine DYNSYM returns: Found  8 space group operations
 (whereof  8 operations were pure point group operations)
 out of a pool of  8 trial space group operations
 (whereof  8 operations were pure point group operations)
 and found also     1 'primitive' translations


The dynamic configuration has the point symmetry C_4v.
 
 
 KPOINTS: Automatic mesh                          

Automatic generation of k-mesh.
 
 Subroutine IBZKPT returns following result:
 ===========================================
 
 Found    196 irreducible k-points:
 
 Following reciprocal coordinates:
            Coordinates               Weight
  0.000000  0.000000  0.000000      1.000000
  0.083333  0.000000  0.000000      2.000000
  0.166667  0.000000  0.000000      2.000000
  0.250000  0.000000  0.000000      2.000000
  0.333333  0.000000  0.000000      2.000000
  0.416667  0.000000  0.000000      2.000000
  0.500000  0.000000  0.000000      1.000000
  0.000000  0.083333  0.000000      4.000000
  0.083333  0.083333  0.000000      8.000000
  0.166667  0.083333  0.000000      8.000000
  0.250000  0.083333  0.000000      8.000000
  0.333333  0.083333  0.000000      8.000000
  0.416667  0.083333  0.000000      8.000000
  0.500000  0.083333  0.000000      4.000000
  0.000000  0.166667  0.000000      4.000000
  0.083333  0.166667  0.000000      8.000000
  0.166667  0.166667  0.000000      8.000000
  0.250000  0.166667  0.000000      8.000000
  0.333333  0.166667  0.000000      8.000000
  0.416667  0.166667  0.000000      8.000000
  0.500000  0.166667  0.000000      4.000000
  0.000000  0.250000  0.000000      4.000000
  0.083333  0.250000  0.000000      8.000000
  0.166667  0.250000  0.000000      8.000000
  0.250000  0.250000  0.000000      8.000000
  0.333333  0.250000  0.000000      8.000000
  0.416667  0.250000  0.000000      8.000000
  0.500000  0.250000  0.000000      4.000000
  0.000000  0.333333  0.000000      4.000000
  0.083333  0.333333  0.000000      8.000000
  0.166667  0.333333  0.000000      8.000000
  0.250000  0.333333  0.000000      8.000000
  0.333333  0.333333  0.000000      8.000000
  0.416667  0.333333  0.000000      8.000000
  0.500000  0.333333  0.000000      4.000000
  0.000000  0.416667  0.000000      4.000000
  0.083333  0.416667  0.000000      8.000000
  0.166667  0.416667  0.000000      8.000000
  0.250000  0.416667  0.000000      8.000000
  0.333333  0.416667  0.000000      8.000000
  0.416667  0.416667  0.000000      8.000000
  0.500000  0.416667  0.000000      4.000000
  0.000000  0.500000  0.000000      2.000000
  0.083333  0.500000  0.000000      4.000000
  0.166667  0.500000  0.000000      4.000000
  0.250000  0.500000  0.000000      4.000000
  0.333333  0.500000  0.000000      4.000000
  0.416667  0.500000  0.000000      4.000000
  0.500000  0.500000  0.000000      2.000000
  0.000000  0.083333  0.083333      4.000000
  0.083333  0.083333  0.083333      8.000000
  0.166667  0.083333  0.083333      8.000000
  0.250000  0.083333  0.083333      8.000000
  0.333333  0.083333  0.083333      8.000000
  0.416667  0.083333  0.083333      8.000000
  0.500000  0.083333  0.083333      4.000000
  0.000000  0.166667  0.083333      8.000000
  0.083333  0.166667  0.083333     16.000000
  0.166667  0.166667  0.083333     16.000000
  0.250000  0.166667  0.083333     16.000000
  0.333333  0.166667  0.083333     16.000000
  0.416667  0.166667  0.083333     16.000000
  0.500000  0.166667  0.083333      8.000000
  0.000000  0.250000  0.083333      8.000000
  0.083333  0.250000  0.083333     16.000000
  0.166667  0.250000  0.083333     16.000000
  0.250000  0.250000  0.083333     16.000000
  0.333333  0.250000  0.083333     16.000000
  0.416667  0.250000  0.083333     16.000000
  0.500000  0.250000  0.083333      8.000000
  0.000000  0.333333  0.083333      8.000000
  0.083333  0.333333  0.083333     16.000000
  0.166667  0.333333  0.083333     16.000000
  0.250000  0.333333  0.083333     16.000000
  0.333333  0.333333  0.083333     16.000000
  0.416667  0.333333  0.083333     16.000000
  0.500000  0.333333  0.083333      8.000000
  0.000000  0.416667  0.083333      8.000000
  0.083333  0.416667  0.083333     16.000000
  0.166667  0.416667  0.083333     16.000000
  0.250000  0.416667  0.083333     16.000000
  0.333333  0.416667  0.083333     16.000000
  0.416667  0.416667  0.083333     16.000000
  0.500000  0.416667  0.083333      8.000000
  0.000000  0.500000  0.083333      4.000000
  0.083333  0.500000  0.083333      8.000000
  0.166667  0.500000  0.083333      8.000000
  0.250000  0.500000  0.083333      8.000000
  0.333333  0.500000  0.083333      8.000000
  0.416667  0.500000  0.083333      8.000000
  0.500000  0.500000  0.083333      4.000000
  0.000000  0.166667  0.166667      4.000000
  0.083333  0.166667  0.166667      8.000000
  0.166667  0.166667  0.166667      8.000000
  0.250000  0.166667  0.166667      8.000000
  0.333333  0.166667  0.166667      8.000000
  0.416667  0.166667  0.166667      8.000000
  0.500000  0.166667  0.166667      4.000000
  0.000000  0.250000  0.166667      8.000000
  0.083333  0.250000  0.166667     16.000000
  0.166667  0.250000  0.166667     16.000000
  0.250000  0.250000  0.166667     16.000000
  0.333333  0.250000  0.166667     16.000000
  0.416667  0.250000  0.166667     16.000000
  0.500000  0.250000  0.166667      8.000000
  0.000000  0.333333  0.166667      8.000000
  0.083333  0.333333  0.166667     16.000000
  0.166667  0.333333  0.166667     16.000000
  0.250000  0.333333  0.166667     16.000000
  0.333333  0.333333  0.166667     16.000000
  0.416667  0.333333  0.166667     16.000000
  0.500000  0.333333  0.166667      8.000000
  0.000000  0.416667  0.166667      8.000000
  0.083333  0.416667  0.166667     16.000000
  0.166667  0.416667  0.166667     16.000000
  0.250000  0.416667  0.166667     16.000000
  0.333333  0.416667  0.166667     16.000000
  0.416667  0.416667  0.166667     16.000000
  0.500000  0.416667  0.166667      8.000000
  0.000000  0.500000  0.166667      4.000000
  0.083333  0.500000  0.166667      8.000000
  0.166667  0.500000  0.166667      8.000000
  0.250000  0.500000  0.166667      8.000000
  0.333333  0.500000  0.166667      8.000000
  0.416667  0.500000  0.166667      8.000000
  0.500000  0.500000  0.166667      4.000000
  0.000000  0.250000  0.250000      4.000000
  0.083333  0.250000  0.250000      8.000000
  0.166667  0.250000  0.250000      8.000000
  0.250000  0.250000  0.250000      8.000000
  0.333333  0.250000  0.250000      8.000000
  0.416667  0.250000  0.250000      8.000000
  0.500000  0.250000  0.250000      4.000000
  0.000000  0.333333  0.250000      8.000000
  0.083333  0.333333  0.250000     16.000000
  0.166667  0.333333  0.250000     16.000000
  0.250000  0.333333  0.250000     16.000000
  0.333333  0.333333  0.250000     16.000000
  0.416667  0.333333  0.250000     16.000000
  0.500000  0.333333  0.250000      8.000000
  0.000000  0.416667  0.250000      8.000000
  0.083333  0.416667  0.250000     16.000000
  0.166667  0.416667  0.250000     16.000000
  0.250000  0.416667  0.250000     16.000000
  0.333333  0.416667  0.250000     16.000000
  0.416667  0.416667  0.250000     16.000000
  0.500000  0.416667  0.250000      8.000000
  0.000000  0.500000  0.250000      4.000000
  0.083333  0.500000  0.250000      8.000000
  0.166667  0.500000  0.250000      8.000000
  0.250000  0.500000  0.250000      8.000000
  0.333333  0.500000  0.250000      8.000000
  0.416667  0.500000  0.250000      8.000000
  0.500000  0.500000  0.250000      4.000000
  0.000000  0.333333  0.333333      4.000000
  0.083333  0.333333  0.333333      8.000000
  0.166667  0.333333  0.333333      8.000000
  0.250000  0.333333  0.333333      8.000000
  0.333333  0.333333  0.333333      8.000000
  0.416667  0.333333  0.333333      8.000000
  0.500000  0.333333  0.333333      4.000000
  0.000000  0.416667  0.333333      8.000000
  0.083333  0.416667  0.333333     16.000000
  0.166667  0.416667  0.333333     16.000000
  0.250000  0.416667  0.333333     16.000000
  0.333333  0.416667  0.333333     16.000000
  0.416667  0.416667  0.333333     16.000000
  0.500000  0.416667  0.333333      8.000000
  0.000000  0.500000  0.333333      4.000000
  0.083333  0.500000  0.333333      8.000000
  0.166667  0.500000  0.333333      8.000000
  0.250000  0.500000  0.333333      8.000000
  0.333333  0.500000  0.333333      8.000000
  0.416667  0.500000  0.333333      8.000000
  0.500000  0.500000  0.333333      4.000000
  0.000000  0.416667  0.416667      4.000000
  0.083333  0.416667  0.416667      8.000000
  0.166667  0.416667  0.416667      8.000000
  0.250000  0.416667  0.416667      8.000000
  0.333333  0.416667  0.416667      8.000000
  0.416667  0.416667  0.416667      8.000000
  0.500000  0.416667  0.416667      4.000000
  0.000000  0.500000  0.416667      4.000000
  0.083333  0.500000  0.416667      8.000000
  0.166667  0.500000  0.416667      8.000000
  0.250000  0.500000  0.416667      8.000000
  0.333333  0.500000  0.416667      8.000000
  0.416667  0.500000  0.416667      8.000000
  0.500000  0.500000  0.416667      4.000000
  0.000000  0.500000  0.500000      1.000000
  0.083333  0.500000  0.500000      2.000000
  0.166667  0.500000  0.500000      2.000000
  0.250000  0.500000  0.500000      2.000000
  0.333333  0.500000  0.500000      2.000000
  0.416667  0.500000  0.500000      2.000000
  0.500000  0.500000  0.500000      1.000000
 
 Following cartesian coordinates:
            Coordinates               Weight
  0.000000  0.000000  0.000000      1.000000
  0.009623  0.000000  0.000000      2.000000
  0.019247  0.000000  0.000000      2.000000
  0.028870  0.000000  0.000000      2.000000
  0.038493  0.000000  0.000000      2.000000
  0.048117  0.000000  0.000000      2.000000
  0.057740  0.000000  0.000000      1.000000
  0.000000  0.009623  0.000000      4.000000
  0.009623  0.009623  0.000000      8.000000
  0.019247  0.009623  0.000000      8.000000
  0.028870  0.009623  0.000000      8.000000
  0.038493  0.009623  0.000000      8.000000
  0.048117  0.009623  0.000000      8.000000
  0.057740  0.009623  0.000000      4.000000
  0.000000  0.019247  0.000000      4.000000
  0.009623  0.019247  0.000000      8.000000
  0.019247  0.019247  0.000000      8.000000
  0.028870  0.019247  0.000000      8.000000
  0.038493  0.019247  0.000000      8.000000
  0.048117  0.019247  0.000000      8.000000
  0.057740  0.019247  0.000000      4.000000
  0.000000  0.028870  0.000000      4.000000
  0.009623  0.028870  0.000000      8.000000
  0.019247  0.028870  0.000000      8.000000
  0.028870  0.028870  0.000000      8.000000
  0.038493  0.028870  0.000000      8.000000
  0.048117  0.028870  0.000000      8.000000
  0.057740  0.028870  0.000000      4.000000
  0.000000  0.038493  0.000000      4.000000
  0.009623  0.038493  0.000000      8.000000
  0.019247  0.038493  0.000000      8.000000
  0.028870  0.038493  0.000000      8.000000
  0.038493  0.038493  0.000000      8.000000
  0.048117  0.038493  0.000000      8.000000
  0.057740  0.038493  0.000000      4.000000
  0.000000  0.048117  0.000000      4.000000
  0.009623  0.048117  0.000000      8.000000
  0.019247  0.048117  0.000000      8.000000
  0.028870  0.048117  0.000000      8.000000
  0.038493  0.048117  0.000000      8.000000
  0.048117  0.048117  0.000000      8.000000
  0.057740  0.048117  0.000000      4.000000
  0.000000  0.057740  0.000000      2.000000
  0.009623  0.057740  0.000000      4.000000
  0.019247  0.057740  0.000000      4.000000
  0.028870  0.057740  0.000000      4.000000
  0.038493  0.057740  0.000000      4.000000
  0.048117  0.057740  0.000000      4.000000
  0.057740  0.057740  0.000000      2.000000
  0.000000  0.009623  0.009623      4.000000
  0.009623  0.009623  0.009623      8.000000
  0.019247  0.009623  0.009623      8.000000
  0.028870  0.009623  0.009623      8.000000
  0.038493  0.009623  0.009623      8.000000
  0.048117  0.009623  0.009623      8.000000
  0.057740  0.009623  0.009623      4.000000
  0.000000  0.019247  0.009623      8.000000
  0.009623  0.019247  0.009623     16.000000
  0.019247  0.019247  0.009623     16.000000
  0.028870  0.019247  0.009623     16.000000
  0.038493  0.019247  0.009623     16.000000
  0.048117  0.019247  0.009623     16.000000
  0.057740  0.019247  0.009623      8.000000
  0.000000  0.028870  0.009623      8.000000
  0.009623  0.028870  0.009623     16.000000
  0.019247  0.028870  0.009623     16.000000
  0.028870  0.028870  0.009623     16.000000
  0.038493  0.028870  0.009623     16.000000
  0.048117  0.028870  0.009623     16.000000
  0.057740  0.028870  0.009623      8.000000
  0.000000  0.038493  0.009623      8.000000
  0.009623  0.038493  0.009623     16.000000
  0.019247  0.038493  0.009623     16.000000
  0.028870  0.038493  0.009623     16.000000
  0.038493  0.038493  0.009623     16.000000
  0.048117  0.038493  0.009623     16.000000
  0.057740  0.038493  0.009623      8.000000
  0.000000  0.048117  0.009623      8.000000
  0.009623  0.048117  0.009623     16.000000
  0.019247  0.048117  0.009623     16.000000
  0.028870  0.048117  0.009623     16.000000
  0.038493  0.048117  0.009623     16.000000
  0.048117  0.048117  0.009623     16.000000
  0.057740  0.048117  0.009623      8.000000
  0.000000  0.057740  0.009623      4.000000
  0.009623  0.057740  0.009623      8.000000
  0.019247  0.057740  0.009623      8.000000
  0.028870  0.057740  0.009623      8.000000
  0.038493  0.057740  0.009623      8.000000
  0.048117  0.057740  0.009623      8.000000
  0.057740  0.057740  0.009623      4.000000
  0.000000  0.019247  0.019247      4.000000
  0.009623  0.019247  0.019247      8.000000
  0.019247  0.019247  0.019247      8.000000
  0.028870  0.019247  0.019247      8.000000
  0.038493  0.019247  0.019247      8.000000
  0.048117  0.019247  0.019247      8.000000
  0.057740  0.019247  0.019247      4.000000
  0.000000  0.028870  0.019247      8.000000
  0.009623  0.028870  0.019247     16.000000
  0.019247  0.028870  0.019247     16.000000
  0.028870  0.028870  0.019247     16.000000
  0.038493  0.028870  0.019247     16.000000
  0.048117  0.028870  0.019247     16.000000
  0.057740  0.028870  0.019247      8.000000
  0.000000  0.038493  0.019247      8.000000
  0.009623  0.038493  0.019247     16.000000
  0.019247  0.038493  0.019247     16.000000
  0.028870  0.038493  0.019247     16.000000
  0.038493  0.038493  0.019247     16.000000
  0.048117  0.038493  0.019247     16.000000
  0.057740  0.038493  0.019247      8.000000
  0.000000  0.048117  0.019247      8.000000
  0.009623  0.048117  0.019247     16.000000
  0.019247  0.048117  0.019247     16.000000
  0.028870  0.048117  0.019247     16.000000
  0.038493  0.048117  0.019247     16.000000
  0.048117  0.048117  0.019247     16.000000
  0.057740  0.048117  0.019247      8.000000
  0.000000  0.057740  0.019247      4.000000
  0.009623  0.057740  0.019247      8.000000
  0.019247  0.057740  0.019247      8.000000
  0.028870  0.057740  0.019247      8.000000
  0.038493  0.057740  0.019247      8.000000
  0.048117  0.057740  0.019247      8.000000
  0.057740  0.057740  0.019247      4.000000
  0.000000  0.028870  0.028870      4.000000
  0.009623  0.028870  0.028870      8.000000
  0.019247  0.028870  0.028870      8.000000
  0.028870  0.028870  0.028870      8.000000
  0.038493  0.028870  0.028870      8.000000
  0.048117  0.028870  0.028870      8.000000
  0.057740  0.028870  0.028870      4.000000
  0.000000  0.038493  0.028870      8.000000
  0.009623  0.038493  0.028870     16.000000
  0.019247  0.038493  0.028870     16.000000
  0.028870  0.038493  0.028870     16.000000
  0.038493  0.038493  0.028870     16.000000
  0.048117  0.038493  0.028870     16.000000
  0.057740  0.038493  0.028870      8.000000
  0.000000  0.048117  0.028870      8.000000
  0.009623  0.048117  0.028870     16.000000
  0.019247  0.048117  0.028870     16.000000
  0.028870  0.048117  0.028870     16.000000
  0.038493  0.048117  0.028870     16.000000
  0.048117  0.048117  0.028870     16.000000
  0.057740  0.048117  0.028870      8.000000
  0.000000  0.057740  0.028870      4.000000
  0.009623  0.057740  0.028870      8.000000
  0.019247  0.057740  0.028870      8.000000
  0.028870  0.057740  0.028870      8.000000
  0.038493  0.057740  0.028870      8.000000
  0.048117  0.057740  0.028870      8.000000
  0.057740  0.057740  0.028870      4.000000
  0.000000  0.038493  0.038493      4.000000
  0.009623  0.038493  0.038493      8.000000
  0.019247  0.038493  0.038493      8.000000
  0.028870  0.038493  0.038493      8.000000
  0.038493  0.038493  0.038493      8.000000
  0.048117  0.038493  0.038493      8.000000
  0.057740  0.038493  0.038493      4.000000
  0.000000  0.048117  0.038493      8.000000
  0.009623  0.048117  0.038493     16.000000
  0.019247  0.048117  0.038493     16.000000
  0.028870  0.048117  0.038493     16.000000
  0.038493  0.048117  0.038493     16.000000
  0.048117  0.048117  0.038493     16.000000
  0.057740  0.048117  0.038493      8.000000
  0.000000  0.057740  0.038493      4.000000
  0.009623  0.057740  0.038493      8.000000
  0.019247  0.057740  0.038493      8.000000
  0.028870  0.057740  0.038493      8.000000
  0.038493  0.057740  0.038493      8.000000
  0.048117  0.057740  0.038493      8.000000
  0.057740  0.057740  0.038493      4.000000
  0.000000  0.048117  0.048117      4.000000
  0.009623  0.048117  0.048117      8.000000
  0.019247  0.048117  0.048117      8.000000
  0.028870  0.048117  0.048117      8.000000
  0.038493  0.048117  0.048117      8.000000
  0.048117  0.048117  0.048117      8.000000
  0.057740  0.048117  0.048117      4.000000
  0.000000  0.057740  0.048117      4.000000
  0.009623  0.057740  0.048117      8.000000
  0.019247  0.057740  0.048117      8.000000
  0.028870  0.057740  0.048117      8.000000
  0.038493  0.057740  0.048117      8.000000
  0.048117  0.057740  0.048117      8.000000
  0.057740  0.057740  0.048117      4.000000
  0.000000  0.057740  0.057740      1.000000
  0.009623  0.057740  0.057740      2.000000
  0.019247  0.057740  0.057740      2.000000
  0.028870  0.057740  0.057740      2.000000
  0.038493  0.057740  0.057740      2.000000
  0.048117  0.057740  0.057740      2.000000
  0.057740  0.057740  0.057740      1.000000
 


--------------------------------------------------------------------------------------------------------




 Dimension of arrays:
   k-Points           NKPTS =    196   number of bands    NBANDS=    212
   number of dos      NEDOS =    301   number of ions     NIONS =     32
   non local maximal  LDIM  =      6   non local SUM 2l+1 LMDIM =     18
   total plane-waves  NPLWV = 512000
   max r-space proj   IRMAX =      1   max aug-charges    IRDMAX= 310312
   dimension x,y,z NGX =    80 NGY =   80 NGZ =   80
   dimension x,y,z NGXF=   160 NGYF=  160 NGZF=  160
   support grid    NGXF=   320 NGYF=  320 NGZF=  320
   ions per type =              32
 NGX,Y,Z   is equivalent  to a cutoff of  15.36, 15.36, 15.36 a.u.
 NGXF,Y,Z  is equivalent  to a cutoff of  30.72, 30.72, 30.72 a.u.


 I would recommend the setting:
   dimension x,y,z NGX =    77 NGY =   77 NGZ =   77
 SYSTEM =  unknown system                          
 POSCAR =  Ag                                      

 Startparameter for this run:
   NWRITE =      2    write-flag & timer
   PREC   = accura    medium, high low
   ISTART =      0    job   : 0-new  1-cont  2-samecut
   ICHARG =      2    charge: 1-file 2-atom 10-const
   ISPIN  =      1    spin polarized calculation?
   LNONCOLLINEAR =      F non collinear calculations
   LSORBIT =      F    spin-orbit coupling
   INIWAV =      1    electr: 0-lowe 1-rand  2-diag
   LASPH  =      F    aspherical Exc in radial PAW
   METAGGA=      F    non-selfconsistent MetaGGA calc.

 Electronic Relaxation 1
   ENCUT  =  750.0 eV  55.12 Ry    7.42 a.u.  19.34 19.34 19.34*2*pi/ulx,y,z
   ENINI  =  750.0     initial cutoff
   ENAUG  =  412.5 eV  augmentation charge cutoff
   NELM   =     60;   NELMIN=  2; NELMDL=  0     # of ELM steps 
   EDIFF  = 0.1E-07   stopping-criterion for ELM
   LREAL  =      F    real-space projection
   LCOMPAT=      F    compatible to vasp.4.4
   LREAL_COMPAT= F    compatible to vasp.4.5.1-3
   GGA_COMPAT  = T    GGA compatible to vasp.4.4-vasp.4.6
   LMAXPAW     = -100 max onsite density
   LMAXMIX     =    2 max onsite mixed and CHGCAR
   VOSKOWN=      0    Vosko Wilk Nusair interpolation
   ROPT   =    0.00000
 Ionic relaxation
   EDIFFG = 0.1E-06   stopping-criterion for IOM
   NSW    =      0    number of steps for IOM
   NBLOCK =      1;   KBLOCK =      1    inner block; outer block 
   IBRION =     -1    ionic relax: 0-MD 1-quasi-New 2-CG
   NFREE  =      0    steps in history (QN), initial steepest desc. (CG)
   ISIF   =      2    stress and relaxation
   IWAVPR =     10    prediction:  0-non 1-charg 2-wave 3-comb
   ISYM   =      2    0-nonsym 1-usesym 2-fastsym
   LCORR  =      T    Harris-Foulkes like correction to forces

   POTIM  =   0.50    time-step for ionic-motion
   TEIN   =    0.0    initial temperature
   TEBEG  =    0.0;   TEEND  =   0.0 temperature during run
   SMASS  =  -3.00    Nose mass-parameter (am)
   estimated Nose-frequenzy (Omega)   =  0.10E-29 period in steps =****** mass=  -0.171E-26a.u.
   NPACO  =    256;   APACO  = 16.0  distance and # of slots for P.C.
   PSTRESS=    0.0 pullay stress

  Mass of Ions in am
   POMASS = 107.87
  Ionic Valenz
   ZVAL   =  11.00
  Atomic Wigner-Seitz radii
   RWIGS  =  -1.00
   NELECT =     352.0000    total number of electrons
   NUPDOWN=      -1.0000    fix difference up-down

 DOS related values:
   EMIN   =  10.00;   EMAX   =-10.00  energy-range for DOS
   ISMEAR =     0;   SIGMA  =   0.01  broadening in eV -4-tet -1-fermi 0-gaus

 Electronic relaxation 2 (details)
   IALGO  =     38    algorithm
   LDIAG  =      T    sub-space diagonalisation
   IMIX   =      4    mixing-type and parameters
     AMIX     =   0.40;   BMIX     =  1.00
     AMIX_MAG =   1.60;   BMIX_MAG =  1.00
     AMIN     =   0.10
     WC   =   100.;   INIMIX=   1;  MIXPRE=   1

 Intra band minimization:
   WEIMIN = 0.0000     energy-eigenvalue tresh-hold
   EBREAK =  0.12E-10  absolut break condition
   DEPER  =   0.30     relativ break condition  

   TIME   =   0.10     timestep for ELM

  volume/ion in A,a.u.               =      20.29       136.94
  Fermi-wavevector in a.u.,eV,Ry     =   1.334840 24.242829  1.781798

 Second variation
   LSECVAR=     F    do a second variation
 
 Write flags
   LWAVE  =      F    write WAVECAR
   LCHARG =      F    write CHGCAR
   LVTOT  =      F    write LOCPOT, local potential
   LELF   =      F    write electronic localiz. function (ELF)
   LORBIT =      0    0 simple, 1 ext, 2 COOP (PROOUT)


 Dipole corrections
   IDIPOL =      0    1-x, 2-y, 3-z
   LDIPOL =      F    correct potential



--------------------------------------------------------------------------------------------------------


 Static calculation
 charge density will be updated during run
 non-spin polarized calculation
 Variant of blocked Davidson
 Davidson routine will perform the subspace rotation
 performe sub-space diagonalisation
    after iterative eigenvector-optimisation
 modified Broyden-mixing scheme, WC =      100.0
 initial mixing is a Kerker type mixing with AMIX =  0.4000 and BMIX =      1.0000
 Hartree-type preconditioning will be used
 using additional bands           36
 reciprocal scheme for non local part
 use partial core corrections
 calculate Harris-corrections to forces 
   (improved forces if not selfconsistent)
 use gradient corrections 
 use of overlap-Matrix (Vanderbilt PP)
 Gauss-broadening in eV      SIGMA  =   0.01


--------------------------------------------------------------------------------------------------------


  energy-cutoff  :      750.00
  volume of cell :      649.35
      direct lattice vectors                 reciprocal lattice vectors
     8.659507546  0.000000000  0.000000000     0.115480008  0.000000000  0.000000000
     0.000000000  8.659507546  0.000000000     0.000000000  0.115480008  0.000000000
     0.000000000  0.000000000  8.659507546     0.000000000  0.000000000  0.115480008

  length of vectors
     8.659507546  8.659507546  8.659507546     0.115480008  0.115480008  0.115480008


 
 k-points in units of 2pi/SCALE and weight: Automatic mesh                          
   0.00000000  0.00000000  0.00000000       0.001
   0.00962333  0.00000000  0.00000000       0.001
   0.01924667  0.00000000  0.00000000       0.001
   0.02887000  0.00000000  0.00000000       0.001
   0.03849334  0.00000000  0.00000000       0.001
   0.04811667  0.00000000  0.00000000       0.001
   0.05774000  0.00000000  0.00000000       0.001
   0.00000000  0.00962333  0.00000000       0.002
   0.00962333  0.00962333  0.00000000       0.005
   0.01924667  0.00962333  0.00000000       0.005
   0.02887000  0.00962333  0.00000000       0.005
   0.03849334  0.00962333  0.00000000       0.005
   0.04811667  0.00962333  0.00000000       0.005
   0.05774000  0.00962333  0.00000000       0.002
   0.00000000  0.01924667  0.00000000       0.002
   0.00962333  0.01924667  0.00000000       0.005
   0.01924667  0.01924667  0.00000000       0.005
   0.02887000  0.01924667  0.00000000       0.005
   0.03849334  0.01924667  0.00000000       0.005
   0.04811667  0.01924667  0.00000000       0.005
   0.05774000  0.01924667  0.00000000       0.002
   0.00000000  0.02887000  0.00000000       0.002
   0.00962333  0.02887000  0.00000000       0.005
   0.01924667  0.02887000  0.00000000       0.005
   0.02887000  0.02887000  0.00000000       0.005
   0.03849334  0.02887000  0.00000000       0.005
   0.04811667  0.02887000  0.00000000       0.005
   0.05774000  0.02887000  0.00000000       0.002
   0.00000000  0.03849334  0.00000000       0.002
   0.00962333  0.03849334  0.00000000       0.005
   0.01924667  0.03849334  0.00000000       0.005
   0.02887000  0.03849334  0.00000000       0.005
   0.03849334  0.03849334  0.00000000       0.005
   0.04811667  0.03849334  0.00000000       0.005
   0.05774000  0.03849334  0.00000000       0.002
   0.00000000  0.04811667  0.00000000       0.002
   0.00962333  0.04811667  0.00000000       0.005
   0.01924667  0.04811667  0.00000000       0.005
   0.02887000  0.04811667  0.00000000       0.005
   0.03849334  0.04811667  0.00000000       0.005
   0.04811667  0.04811667  0.00000000       0.005
   0.05774000  0.04811667  0.00000000       0.002
   0.00000000  0.05774000  0.00000000       0.001
   0.00962333  0.05774000  0.00000000       0.002
   0.01924667  0.05774000  0.00000000       0.002
   0.02887000  0.05774000  0.00000000       0.002
   0.03849334  0.05774000  0.00000000       0.002
   0.04811667  0.05774000  0.00000000       0.002
   0.05774000  0.05774000  0.00000000       0.001
   0.00000000  0.00962333  0.00962333       0.002
   0.00962333  0.00962333  0.00962333       0.005
   0.01924667  0.00962333  0.00962333       0.005
   0.02887000  0.00962333  0.00962333       0.005
   0.03849334  0.00962333  0.00962333       0.005
   0.04811667  0.00962333  0.00962333       0.005
   0.05774000  0.00962333  0.00962333       0.002
   0.00000000  0.01924667  0.00962333       0.005
   0.00962333  0.01924667  0.00962333       0.009
   0.01924667  0.01924667  0.00962333       0.009
   0.02887000  0.01924667  0.00962333       0.009
   0.03849334  0.01924667  0.00962333       0.009
   0.04811667  0.01924667  0.00962333       0.009
   0.05774000  0.01924667  0.00962333       0.005
   0.00000000  0.02887000  0.00962333       0.005
   0.00962333  0.02887000  0.00962333       0.009
   0.01924667  0.02887000  0.00962333       0.009
   0.02887000  0.02887000  0.00962333       0.009
   0.03849334  0.02887000  0.00962333       0.009
   0.04811667  0.02887000  0.00962333       0.009
   0.05774000  0.02887000  0.00962333       0.005
   0.00000000  0.03849334  0.00962333       0.005
   0.00962333  0.03849334  0.00962333       0.009
   0.01924667  0.03849334  0.00962333       0.009
   0.02887000  0.03849334  0.00962333       0.009
   0.03849334  0.03849334  0.00962333       0.009
   0.04811667  0.03849334  0.00962333       0.009
   0.05774000  0.03849334  0.00962333       0.005
   0.00000000  0.04811667  0.00962333       0.005
   0.00962333  0.04811667  0.00962333       0.009
   0.01924667  0.04811667  0.00962333       0.009
   0.02887000  0.04811667  0.00962333       0.009
   0.03849334  0.04811667  0.00962333       0.009
   0.04811667  0.04811667  0.00962333       0.009
   0.05774000  0.04811667  0.00962333       0.005
   0.00000000  0.05774000  0.00962333       0.002
   0.00962333  0.05774000  0.00962333       0.005
   0.01924667  0.05774000  0.00962333       0.005
   0.02887000  0.05774000  0.00962333       0.005
   0.03849334  0.05774000  0.00962333       0.005
   0.04811667  0.05774000  0.00962333       0.005
   0.05774000  0.05774000  0.00962333       0.002
   0.00000000  0.01924667  0.01924667       0.002
   0.00962333  0.01924667  0.01924667       0.005
   0.01924667  0.01924667  0.01924667       0.005
   0.02887000  0.01924667  0.01924667       0.005
   0.03849334  0.01924667  0.01924667       0.005
   0.04811667  0.01924667  0.01924667       0.005
   0.05774000  0.01924667  0.01924667       0.002
   0.00000000  0.02887000  0.01924667       0.005
   0.00962333  0.02887000  0.01924667       0.009
   0.01924667  0.02887000  0.01924667       0.009
   0.02887000  0.02887000  0.01924667       0.009
   0.03849334  0.02887000  0.01924667       0.009
   0.04811667  0.02887000  0.01924667       0.009
   0.05774000  0.02887000  0.01924667       0.005
   0.00000000  0.03849334  0.01924667       0.005
   0.00962333  0.03849334  0.01924667       0.009
   0.01924667  0.03849334  0.01924667       0.009
   0.02887000  0.03849334  0.01924667       0.009
   0.03849334  0.03849334  0.01924667       0.009
   0.04811667  0.03849334  0.01924667       0.009
   0.05774000  0.03849334  0.01924667       0.005
   0.00000000  0.04811667  0.01924667       0.005
   0.00962333  0.04811667  0.01924667       0.009
   0.01924667  0.04811667  0.01924667       0.009
   0.02887000  0.04811667  0.01924667       0.009
   0.03849334  0.04811667  0.01924667       0.009
   0.04811667  0.04811667  0.01924667       0.009
   0.05774000  0.04811667  0.01924667       0.005
   0.00000000  0.05774000  0.01924667       0.002
   0.00962333  0.05774000  0.01924667       0.005
   0.01924667  0.05774000  0.01924667       0.005
   0.02887000  0.05774000  0.01924667       0.005
   0.03849334  0.05774000  0.01924667       0.005
   0.04811667  0.05774000  0.01924667       0.005
   0.05774000  0.05774000  0.01924667       0.002
   0.00000000  0.02887000  0.02887000       0.002
   0.00962333  0.02887000  0.02887000       0.005
   0.01924667  0.02887000  0.02887000       0.005
   0.02887000  0.02887000  0.02887000       0.005
   0.03849334  0.02887000  0.02887000       0.005
   0.04811667  0.02887000  0.02887000       0.005
   0.05774000  0.02887000  0.02887000       0.002
   0.00000000  0.03849334  0.02887000       0.005
   0.00962333  0.03849334  0.02887000       0.009
   0.01924667  0.03849334  0.02887000       0.009
   0.02887000  0.03849334  0.02887000       0.009
   0.03849334  0.03849334  0.02887000       0.009
   0.04811667  0.03849334  0.02887000       0.009
   0.05774000  0.03849334  0.02887000       0.005
   0.00000000  0.04811667  0.02887000       0.005
   0.00962333  0.04811667  0.02887000       0.009
   0.01924667  0.04811667  0.02887000       0.009
   0.02887000  0.04811667  0.02887000       0.009
   0.03849334  0.04811667  0.02887000       0.009
   0.04811667  0.04811667  0.02887000       0.009
   0.05774000  0.04811667  0.02887000       0.005
   0.00000000  0.05774000  0.02887000       0.002
   0.00962333  0.05774000  0.02887000       0.005
   0.01924667  0.05774000  0.02887000       0.005
   0.02887000  0.05774000  0.02887000       0.005
   0.03849334  0.05774000  0.02887000       0.005
   0.04811667  0.05774000  0.02887000       0.005
   0.05774000  0.05774000  0.02887000       0.002
   0.00000000  0.03849334  0.03849334       0.002
   0.00962333  0.03849334  0.03849334       0.005
   0.01924667  0.03849334  0.03849334       0.005
   0.02887000  0.03849334  0.03849334       0.005
   0.03849334  0.03849334  0.03849334       0.005
   0.04811667  0.03849334  0.03849334       0.005
   0.05774000  0.03849334  0.03849334       0.002
   0.00000000  0.04811667  0.03849334       0.005
   0.00962333  0.04811667  0.03849334       0.009
   0.01924667  0.04811667  0.03849334       0.009
   0.02887000  0.04811667  0.03849334       0.009
   0.03849334  0.04811667  0.03849334       0.009
   0.04811667  0.04811667  0.03849334       0.009
   0.05774000  0.04811667  0.03849334       0.005
   0.00000000  0.05774000  0.03849334       0.002
   0.00962333  0.05774000  0.03849334       0.005
   0.01924667  0.05774000  0.03849334       0.005
   0.02887000  0.05774000  0.03849334       0.005
   0.03849334  0.05774000  0.03849334       0.005
   0.04811667  0.05774000  0.03849334       0.005
   0.05774000  0.05774000  0.03849334       0.002
   0.00000000  0.04811667  0.04811667       0.002
   0.00962333  0.04811667  0.04811667       0.005
   0.01924667  0.04811667  0.04811667       0.005
   0.02887000  0.04811667  0.04811667       0.005
   0.03849334  0.04811667  0.04811667       0.005
   0.04811667  0.04811667  0.04811667       0.005
   0.05774000  0.04811667  0.04811667       0.002
   0.00000000  0.05774000  0.04811667       0.002
   0.00962333  0.05774000  0.04811667       0.005
   0.01924667  0.05774000  0.04811667       0.005
   0.02887000  0.05774000  0.04811667       0.005
   0.03849334  0.05774000  0.04811667       0.005
   0.04811667  0.05774000  0.04811667       0.005
   0.05774000  0.05774000  0.04811667       0.002
   0.00000000  0.05774000  0.05774000       0.001
   0.00962333  0.05774000  0.05774000       0.001
   0.01924667  0.05774000  0.05774000       0.001
   0.02887000  0.05774000  0.05774000       0.001
   0.03849334  0.05774000  0.05774000       0.001
   0.04811667  0.05774000  0.05774000       0.001
   0.05774000  0.05774000  0.05774000       0.001
 
 k-points in reciprocal lattice and weights: Automatic mesh                          
   0.00000000  0.00000000  0.00000000       0.001
   0.08333333  0.00000000  0.00000000       0.001
   0.16666667  0.00000000  0.00000000       0.001
   0.25000000  0.00000000  0.00000000       0.001
   0.33333333  0.00000000  0.00000000       0.001
   0.41666667  0.00000000  0.00000000       0.001
   0.50000000  0.00000000  0.00000000       0.001
   0.00000000  0.08333333  0.00000000       0.002
   0.08333333  0.08333333  0.00000000       0.005
   0.16666667  0.08333333  0.00000000       0.005
   0.25000000  0.08333333  0.00000000       0.005
   0.33333333  0.08333333  0.00000000       0.005
   0.41666667  0.08333333  0.00000000       0.005
   0.50000000  0.08333333  0.00000000       0.002
   0.00000000  0.16666667  0.00000000       0.002
   0.08333333  0.16666667  0.00000000       0.005
   0.16666667  0.16666667  0.00000000       0.005
   0.25000000  0.16666667  0.00000000       0.005
   0.33333333  0.16666667  0.00000000       0.005
   0.41666667  0.16666667  0.00000000       0.005
   0.50000000  0.16666667  0.00000000       0.002
   0.00000000  0.25000000  0.00000000       0.002
   0.08333333  0.25000000  0.00000000       0.005
   0.16666667  0.25000000  0.00000000       0.005
   0.25000000  0.25000000  0.00000000       0.005
   0.33333333  0.25000000  0.00000000       0.005
   0.41666667  0.25000000  0.00000000       0.005
   0.50000000  0.25000000  0.00000000       0.002
   0.00000000  0.33333333  0.00000000       0.002
   0.08333333  0.33333333  0.00000000       0.005
   0.16666667  0.33333333  0.00000000       0.005
   0.25000000  0.33333333  0.00000000       0.005
   0.33333333  0.33333333  0.00000000       0.005
   0.41666667  0.33333333  0.00000000       0.005
   0.50000000  0.33333333  0.00000000       0.002
   0.00000000  0.41666667  0.00000000       0.002
   0.08333333  0.41666667  0.00000000       0.005
   0.16666667  0.41666667  0.00000000       0.005
   0.25000000  0.41666667  0.00000000       0.005
   0.33333333  0.41666667  0.00000000       0.005
   0.41666667  0.41666667  0.00000000       0.005
   0.50000000  0.41666667  0.00000000       0.002
   0.00000000  0.50000000  0.00000000       0.001
   0.08333333  0.50000000  0.00000000       0.002
   0.16666667  0.50000000  0.00000000       0.002
   0.25000000  0.50000000  0.00000000       0.002
   0.33333333  0.50000000  0.00000000       0.002
   0.41666667  0.50000000  0.00000000       0.002
   0.50000000  0.50000000  0.00000000       0.001
   0.00000000  0.08333333  0.08333333       0.002
   0.08333333  0.08333333  0.08333333       0.005
   0.16666667  0.08333333  0.08333333       0.005
   0.25000000  0.08333333  0.08333333       0.005
   0.33333333  0.08333333  0.08333333       0.005
   0.41666667  0.08333333  0.08333333       0.005
   0.50000000  0.08333333  0.08333333       0.002
   0.00000000  0.16666667  0.08333333       0.005
   0.08333333  0.16666667  0.08333333       0.009
   0.16666667  0.16666667  0.08333333       0.009
   0.25000000  0.16666667  0.08333333       0.009
   0.33333333  0.16666667  0.08333333       0.009
   0.41666667  0.16666667  0.08333333       0.009
   0.50000000  0.16666667  0.08333333       0.005
   0.00000000  0.25000000  0.08333333       0.005
   0.08333333  0.25000000  0.08333333       0.009
   0.16666667  0.25000000  0.08333333       0.009
   0.25000000  0.25000000  0.08333333       0.009
   0.33333333  0.25000000  0.08333333       0.009
   0.41666667  0.25000000  0.08333333       0.009
   0.50000000  0.25000000  0.08333333       0.005
   0.00000000  0.33333333  0.08333333       0.005
   0.08333333  0.33333333  0.08333333       0.009
   0.16666667  0.33333333  0.08333333       0.009
   0.25000000  0.33333333  0.08333333       0.009
   0.33333333  0.33333333  0.08333333       0.009
   0.41666667  0.33333333  0.08333333       0.009
   0.50000000  0.33333333  0.08333333       0.005
   0.00000000  0.41666667  0.08333333       0.005
   0.08333333  0.41666667  0.08333333       0.009
   0.16666667  0.41666667  0.08333333       0.009
   0.25000000  0.41666667  0.08333333       0.009
   0.33333333  0.41666667  0.08333333       0.009
   0.41666667  0.41666667  0.08333333       0.009
   0.50000000  0.41666667  0.08333333       0.005
   0.00000000  0.50000000  0.08333333       0.002
   0.08333333  0.50000000  0.08333333       0.005
   0.16666667  0.50000000  0.08333333       0.005
   0.25000000  0.50000000  0.08333333       0.005
   0.33333333  0.50000000  0.08333333       0.005
   0.41666667  0.50000000  0.08333333       0.005
   0.50000000  0.50000000  0.08333333       0.002
   0.00000000  0.16666667  0.16666667       0.002
   0.08333333  0.16666667  0.16666667       0.005
   0.16666667  0.16666667  0.16666667       0.005
   0.25000000  0.16666667  0.16666667       0.005
   0.33333333  0.16666667  0.16666667       0.005
   0.41666667  0.16666667  0.16666667       0.005
   0.50000000  0.16666667  0.16666667       0.002
   0.00000000  0.25000000  0.16666667       0.005
   0.08333333  0.25000000  0.16666667       0.009
   0.16666667  0.25000000  0.16666667       0.009
   0.25000000  0.25000000  0.16666667       0.009
   0.33333333  0.25000000  0.16666667       0.009
   0.41666667  0.25000000  0.16666667       0.009
   0.50000000  0.25000000  0.16666667       0.005
   0.00000000  0.33333333  0.16666667       0.005
   0.08333333  0.33333333  0.16666667       0.009
   0.16666667  0.33333333  0.16666667       0.009
   0.25000000  0.33333333  0.16666667       0.009
   0.33333333  0.33333333  0.16666667       0.009
   0.41666667  0.33333333  0.16666667       0.009
   0.50000000  0.33333333  0.16666667       0.005
   0.00000000  0.41666667  0.16666667       0.005
   0.08333333  0.41666667  0.16666667       0.009
   0.16666667  0.41666667  0.16666667       0.009
   0.25000000  0.41666667  0.16666667       0.009
   0.33333333  0.41666667  0.16666667       0.009
   0.41666667  0.41666667  0.16666667       0.009
   0.50000000  0.41666667  0.16666667       0.005
   0.00000000  0.50000000  0.16666667       0.002
   0.08333333  0.50000000  0.16666667       0.005
   0.16666667  0.50000000  0.16666667       0.005
   0.25000000  0.50000000  0.16666667       0.005
   0.33333333  0.50000000  0.16666667       0.005
   0.41666667  0.50000000  0.16666667       0.005
   0.50000000  0.50000000  0.16666667       0.002
   0.00000000  0.25000000  0.25000000       0.002
   0.08333333  0.25000000  0.25000000       0.005
   0.16666667  0.25000000  0.25000000       0.005
   0.25000000  0.25000000  0.25000000       0.005
   0.33333333  0.25000000  0.25000000       0.005
   0.41666667  0.25000000  0.25000000       0.005
   0.50000000  0.25000000  0.25000000       0.002
   0.00000000  0.33333333  0.25000000       0.005
   0.08333333  0.33333333  0.25000000       0.009
   0.16666667  0.33333333  0.25000000       0.009
   0.25000000  0.33333333  0.25000000       0.009
   0.33333333  0.33333333  0.25000000       0.009
   0.41666667  0.33333333  0.25000000       0.009
   0.50000000  0.33333333  0.25000000       0.005
   0.00000000  0.41666667  0.25000000       0.005
   0.08333333  0.41666667  0.25000000       0.009
   0.16666667  0.41666667  0.25000000       0.009
   0.25000000  0.41666667  0.25000000       0.009
   0.33333333  0.41666667  0.25000000       0.009
   0.41666667  0.41666667  0.25000000       0.009
   0.50000000  0.41666667  0.25000000       0.005
   0.00000000  0.50000000  0.25000000       0.002
   0.08333333  0.50000000  0.25000000       0.005
   0.16666667  0.50000000  0.25000000       0.005
   0.25000000  0.50000000  0.25000000       0.005
   0.33333333  0.50000000  0.25000000       0.005
   0.41666667  0.50000000  0.25000000       0.005
   0.50000000  0.50000000  0.25000000       0.002
   0.00000000  0.33333333  0.33333333       0.002
   0.08333333  0.33333333  0.33333333       0.005
   0.16666667  0.33333333  0.33333333       0.005
   0.25000000  0.33333333  0.33333333       0.005
   0.33333333  0.33333333  0.33333333       0.005
   0.41666667  0.33333333  0.33333333       0.005
   0.50000000  0.33333333  0.33333333       0.002
   0.00000000  0.41666667  0.33333333       0.005
   0.08333333  0.41666667  0.33333333       0.009
   0.16666667  0.41666667  0.33333333       0.009
   0.25000000  0.41666667  0.33333333       0.009
   0.33333333  0.41666667  0.33333333       0.009
   0.41666667  0.41666667  0.33333333       0.009
   0.50000000  0.41666667  0.33333333       0.005
   0.00000000  0.50000000  0.33333333       0.002
   0.08333333  0.50000000  0.33333333       0.005
   0.16666667  0.50000000  0.33333333       0.005
   0.25000000  0.50000000  0.33333333       0.005
   0.33333333  0.50000000  0.33333333       0.005
   0.41666667  0.50000000  0.33333333       0.005
   0.50000000  0.50000000  0.33333333       0.002
   0.00000000  0.41666667  0.41666667       0.002
   0.08333333  0.41666667  0.41666667       0.005
   0.16666667  0.41666667  0.41666667       0.005
   0.25000000  0.41666667  0.41666667       0.005
   0.33333333  0.41666667  0.41666667       0.005
   0.41666667  0.41666667  0.41666667       0.005
   0.50000000  0.41666667  0.41666667       0.002
   0.00000000  0.50000000  0.41666667       0.002
   0.08333333  0.50000000  0.41666667       0.005
   0.16666667  0.50000000  0.41666667       0.005
   0.25000000  0.50000000  0.41666667       0.005
   0.33333333  0.50000000  0.41666667       0.005
   0.41666667  0.50000000  0.41666667       0.005
   0.50000000  0.50000000  0.41666667       0.002
   0.00000000  0.50000000  0.50000000       0.001
   0.08333333  0.50000000  0.50000000       0.001
   0.16666667  0.50000000  0.50000000       0.001
   0.25000000  0.50000000  0.50000000       0.001
   0.33333333  0.50000000  0.50000000       0.001
   0.41666667  0.50000000  0.50000000       0.001
   0.50000000  0.50000000  0.50000000       0.001
 
 position of ions in fractional coordinates (direct lattice) 
   0.00115480  0.00000000  0.00000000
   0.50000000  0.00000000  0.00000000
   0.00000000  0.50000000  0.00000000
   0.50000000  0.50000000  0.00000000
   0.00000000  0.00000000  0.50000000
   0.50000000  0.00000000  0.50000000
   0.00000000  0.50000000  0.50000000
   0.50000000  0.50000000  0.50000000
   0.25000000  0.25000000  0.00000000
   0.75000000  0.25000000  0.00000000
   0.25000000  0.75000000  0.00000000
   0.75000000  0.75000000  0.00000000
   0.25000000  0.25000000  0.50000000
   0.75000000  0.25000000  0.50000000
   0.25000000  0.75000000  0.50000000
   0.75000000  0.75000000  0.50000000
   0.25000000  0.00000000  0.25000000
   0.75000000  0.00000000  0.25000000
   0.25000000  0.50000000  0.25000000
   0.75000000  0.50000000  0.25000000
   0.25000000  0.00000000  0.75000000
   0.75000000  0.00000000  0.75000000
   0.25000000  0.50000000  0.75000000
   0.75000000  0.50000000  0.75000000
   0.00000000  0.25000000  0.25000000
   0.50000000  0.25000000  0.25000000
   0.00000000  0.75000000  0.25000000
   0.50000000  0.75000000  0.25000000
   0.00000000  0.25000000  0.75000000
   0.50000000  0.25000000  0.75000000
   0.00000000  0.75000000  0.75000000
   0.50000000  0.75000000  0.75000000
 
 position of ions in cartesian coordinates  (Angst):
   0.01000000  0.00000000  0.00000000
   4.32975377  0.00000000  0.00000000
   0.00000000  4.32975377  0.00000000
   4.32975377  4.32975377  0.00000000
   0.00000000  0.00000000  4.32975377
   4.32975377  0.00000000  4.32975377
   0.00000000  4.32975377  4.32975377
   4.32975377  4.32975377  4.32975377
   2.16487689  2.16487689  0.00000000
   6.49463066  2.16487689  0.00000000
   2.16487689  6.49463066  0.00000000
   6.49463066  6.49463066  0.00000000
   2.16487689  2.16487689  4.32975377
   6.49463066  2.16487689  4.32975377
   2.16487689  6.49463066  4.32975377
   6.49463066  6.49463066  4.32975377
   2.16487689  0.00000000  2.16487689
   6.49463066  0.00000000  2.16487689
   2.16487689  4.32975377  2.16487689
   6.49463066  4.32975377  2.16487689
   2.16487689  0.00000000  6.49463066
   6.49463066  0.00000000  6.49463066
   2.16487689  4.32975377  6.49463066
   6.49463066  4.32975377  6.49463066
   0.00000000  2.16487689  2.16487689
   4.32975377  2.16487689  2.16487689
   0.00000000  6.49463066  2.16487689
   4.32975377  6.49463066  2.16487689
   0.00000000  2.16487689  6.49463066
   4.32975377  2.16487689  6.49463066
   0.00000000  6.49463066  6.49463066
   4.32975377  6.49463066  6.49463066
 


--------------------------------------------------------------------------------------------------------


 k-point  1 :  0.00000.00000.0000  plane waves:  30215
 k-point  2 :  0.08330.00000.0000  plane waves:  30339
 k-point  3 :  0.16670.00000.0000  plane waves:  30311
 k-point  4 :  0.25000.00000.0000  plane waves:  30303
 k-point  5 :  0.33330.00000.0000  plane waves:  30303
 k-point  6 :  0.41670.00000.0000  plane waves:  30270
 k-point  7 :  0.50000.00000.0000  plane waves:  30254
 k-point  8 :  0.00000.08330.0000  plane waves:  30339
 k-point  9 :  0.08330.08330.0000  plane waves:  30337
 k-point 10 :  0.16670.08330.0000  plane waves:  30314
 k-point 11 :  0.25000.08330.0000  plane waves:  30316
 k-point 12 :  0.33330.08330.0000  plane waves:  30275
 k-point 13 :  0.41670.08330.0000  plane waves:  30269
 k-point 14 :  0.50000.08330.0000  plane waves:  30278
 k-point 15 :  0.00000.16670.0000  plane waves:  30311
 k-point 16 :  0.08330.16670.0000  plane waves:  30314
 k-point 17 :  0.16670.16670.0000  plane waves:  30307
 k-point 18 :  0.25000.16670.0000  plane waves:  30291
 k-point 19 :  0.33330.16670.0000  plane waves:  30277
 k-point 20 :  0.41670.16670.0000  plane waves:  30290
 k-point 21 :  0.50000.16670.0000  plane waves:  30286
 k-point 22 :  0.00000.25000.0000  plane waves:  30303
 k-point 23 :  0.08330.25000.0000  plane waves:  30316
 k-point 24 :  0.16670.25000.0000  plane waves:  30291
 k-point 25 :  0.25000.25000.0000  plane waves:  30275
 k-point 26 :  0.33330.25000.0000  plane waves:  30270
 k-point 27 :  0.41670.25000.0000  plane waves:  30309
 k-point 28 :  0.50000.25000.0000  plane waves:  30334
 k-point 29 :  0.00000.33330.0000  plane waves:  30303
 k-point 30 :  0.08330.33330.0000  plane waves:  30275
 k-point 31 :  0.16670.33330.0000  plane waves:  30277
 k-point 32 :  0.25000.33330.0000  plane waves:  30270
 k-point 33 :  0.33330.33330.0000  plane waves:  30284
 k-point 34 :  0.41670.33330.0000  plane waves:  30284
 k-point 35 :  0.50000.33330.0000  plane waves:  30298
 k-point 36 :  0.00000.41670.0000  plane waves:  30270
 k-point 37 :  0.08330.41670.0000  plane waves:  30269
 k-point 38 :  0.16670.41670.0000  plane waves:  30290
 k-point 39 :  0.25000.41670.0000  plane waves:  30309
 k-point 40 :  0.33330.41670.0000  plane waves:  30284
 k-point 41 :  0.41670.41670.0000  plane waves:  30268
 k-point 42 :  0.50000.41670.0000  plane waves:  30278
 k-point 43 :  0.00000.50000.0000  plane waves:  30254
 k-point 44 :  0.08330.50000.0000  plane waves:  30278
 k-point 45 :  0.16670.50000.0000  plane waves:  30286
 k-point 46 :  0.25000.50000.0000  plane waves:  30334
 k-point 47 :  0.33330.50000.0000  plane waves:  30298
 k-point 48 :  0.41670.50000.0000  plane waves:  30278
 k-point 49 :  0.50000.50000.0000  plane waves:  30368
 k-point 50 :  0.00000.08330.0833  plane waves:  30337
 k-point 51 :  0.08330.08330.0833  plane waves:  30341
 k-point 52 :  0.16670.08330.0833  plane waves:  30331
 k-point 53 :  0.25000.08330.0833  plane waves:  30290
 k-point 54 :  0.33330.08330.0833  plane waves:  30270
 k-point 55 :  0.41670.08330.0833  plane waves:  30276
 k-point 56 :  0.50000.08330.0833  plane waves:  30272
 k-point 57 :  0.00000.16670.0833  plane waves:  30314
 k-point 58 :  0.08330.16670.0833  plane waves:  30331
 k-point 59 :  0.16670.16670.0833  plane waves:  30337
 k-point 60 :  0.25000.16670.0833  plane waves:  30298
 k-point 61 :  0.33330.16670.0833  plane waves:  30280
 k-point 62 :  0.41670.16670.0833  plane waves:  30272
 k-point 63 :  0.50000.16670.0833  plane waves:  30270
 k-point 64 :  0.00000.25000.0833  plane waves:  30316
 k-point 65 :  0.08330.25000.0833  plane waves:  30290
 k-point 66 :  0.16670.25000.0833  plane waves:  30298
 k-point 67 :  0.25000.25000.0833  plane waves:  30259
 k-point 68 :  0.33330.25000.0833  plane waves:  30278
 k-point 69 :  0.41670.25000.0833  plane waves:  30290
 k-point 70 :  0.50000.25000.0833  plane waves:  30280
 k-point 71 :  0.00000.33330.0833  plane waves:  30275
 k-point 72 :  0.08330.33330.0833  plane waves:  30270
 k-point 73 :  0.16670.33330.0833  plane waves:  30280
 k-point 74 :  0.25000.33330.0833  plane waves:  30278
 k-point 75 :  0.33330.33330.0833  plane waves:  30284
 k-point 76 :  0.41670.33330.0833  plane waves:  30287
 k-point 77 :  0.50000.33330.0833  plane waves:  30304
 k-point 78 :  0.00000.41670.0833  plane waves:  30269
 k-point 79 :  0.08330.41670.0833  plane waves:  30276
 k-point 80 :  0.16670.41670.0833  plane waves:  30272
 k-point 81 :  0.25000.41670.0833  plane waves:  30290
 k-point 82 :  0.33330.41670.0833  plane waves:  30287
 k-point 83 :  0.41670.41670.0833  plane waves:  30290
 k-point 84 :  0.50000.41670.0833  plane waves:  30282
 k-point 85 :  0.00000.50000.0833  plane waves:  30278
 k-point 86 :  0.08330.50000.0833  plane waves:  30272
 k-point 87 :  0.16670.50000.0833  plane waves:  30270
 k-point 88 :  0.25000.50000.0833  plane waves:  30280
 k-point 89 :  0.33330.50000.0833  plane waves:  30304
 k-point 90 :  0.41670.50000.0833  plane waves:  30282
 k-point 91 :  0.50000.50000.0833  plane waves:  30292
 k-point 92 :  0.00000.16670.1667  plane waves:  30307
 k-point 93 :  0.08330.16670.1667  plane waves:  30337
 k-point 94 :  0.16670.16670.1667  plane waves:  30307
 k-point 95 :  0.25000.16670.1667  plane waves:  30288
 k-point 96 :  0.33330.16670.1667  plane waves:  30296
 k-point 97 :  0.41670.16670.1667  plane waves:  30284
 k-point 98 :  0.50000.16670.1667  plane waves:  30260
 k-point 99 :  0.00000.25000.1667  plane waves:  30291
 k-point ** :  0.08330.25000.1667  plane waves:  30298
 k-point ** :  0.16670.25000.1667  plane waves:  30288
 k-point ** :  0.25000.25000.1667  plane waves:  30269
 k-point ** :  0.33330.25000.1667  plane waves:  30294
 k-point ** :  0.41670.25000.1667  plane waves:  30285
 k-point ** :  0.50000.25000.1667  plane waves:  30276
 k-point ** :  0.00000.33330.1667  plane waves:  30277
 k-point ** :  0.08330.33330.1667  plane waves:  30280
 k-point ** :  0.16670.33330.1667  plane waves:  30296
 k-point ** :  0.25000.33330.1667  plane waves:  30294
 k-point ** :  0.33330.33330.1667  plane waves:  30251
 k-point ** :  0.41670.33330.1667  plane waves:  30284
 k-point ** :  0.50000.33330.1667  plane waves:  30266
 k-point ** :  0.00000.41670.1667  plane waves:  30290
 k-point ** :  0.08330.41670.1667  plane waves:  30272
 k-point ** :  0.16670.41670.1667  plane waves:  30284
 k-point ** :  0.25000.41670.1667  plane waves:  30285
 k-point ** :  0.33330.41670.1667  plane waves:  30284
 k-point ** :  0.41670.41670.1667  plane waves:  30286
 k-point ** :  0.50000.41670.1667  plane waves:  30266
 k-point ** :  0.00000.50000.1667  plane waves:  30286
 k-point ** :  0.08330.50000.1667  plane waves:  30270
 k-point ** :  0.16670.50000.1667  plane waves:  30260
 k-point ** :  0.25000.50000.1667  plane waves:  30276
 k-point ** :  0.33330.50000.1667  plane waves:  30266
 k-point ** :  0.41670.50000.1667  plane waves:  30266
 k-point ** :  0.50000.50000.1667  plane waves:  30328
 k-point ** :  0.00000.25000.2500  plane waves:  30275
 k-point ** :  0.08330.25000.2500  plane waves:  30259
 k-point ** :  0.16670.25000.2500  plane waves:  30269
 k-point ** :  0.25000.25000.2500  plane waves:  30298
 k-point ** :  0.33330.25000.2500  plane waves:  30310
 k-point ** :  0.41670.25000.2500  plane waves:  30265
 k-point ** :  0.50000.25000.2500  plane waves:  30286
 k-point ** :  0.00000.33330.2500  plane waves:  30270
 k-point ** :  0.08330.33330.2500  plane waves:  30278
 k-point ** :  0.16670.33330.2500  plane waves:  30294
 k-point ** :  0.25000.33330.2500  plane waves:  30310
 k-point ** :  0.33330.33330.2500  plane waves:  30265
 k-point ** :  0.41670.33330.2500  plane waves:  30265
 k-point ** :  0.50000.33330.2500  plane waves:  30274
 k-point ** :  0.00000.41670.2500  plane waves:  30309
 k-point ** :  0.08330.41670.2500  plane waves:  30290
 k-point ** :  0.16670.41670.2500  plane waves:  30285
 k-point ** :  0.25000.41670.2500  plane waves:  30265
 k-point ** :  0.33330.41670.2500  plane waves:  30265
 k-point ** :  0.41670.41670.2500  plane waves:  30267
 k-point ** :  0.50000.41670.2500  plane waves:  30266
 k-point ** :  0.00000.50000.2500  plane waves:  30334
 k-point ** :  0.08330.50000.2500  plane waves:  30280
 k-point ** :  0.16670.50000.2500  plane waves:  30276
 k-point ** :  0.25000.50000.2500  plane waves:  30286
 k-point ** :  0.33330.50000.2500  plane waves:  30274
 k-point ** :  0.41670.50000.2500  plane waves:  30266
 k-point ** :  0.50000.50000.2500  plane waves:  30264
 k-point ** :  0.00000.33330.3333  plane waves:  30284
 k-point ** :  0.08330.33330.3333  plane waves:  30284
 k-point ** :  0.16670.33330.3333  plane waves:  30251
 k-point ** :  0.25000.33330.3333  plane waves:  30265
 k-point ** :  0.33330.33330.3333  plane waves:  30256
 k-point ** :  0.41670.33330.3333  plane waves:  30298
 k-point ** :  0.50000.33330.3333  plane waves:  30268
 k-point ** :  0.00000.41670.3333  plane waves:  30284
 k-point ** :  0.08330.41670.3333  plane waves:  30287
 k-point ** :  0.16670.41670.3333  plane waves:  30284
 k-point ** :  0.25000.41670.3333  plane waves:  30265
 k-point ** :  0.33330.41670.3333  plane waves:  30298
 k-point ** :  0.41670.41670.3333  plane waves:  30271
 k-point ** :  0.50000.41670.3333  plane waves:  30280
 k-point ** :  0.00000.50000.3333  plane waves:  30298
 k-point ** :  0.08330.50000.3333  plane waves:  30304
 k-point ** :  0.16670.50000.3333  plane waves:  30266
 k-point ** :  0.25000.50000.3333  plane waves:  30274
 k-point ** :  0.33330.50000.3333  plane waves:  30268
 k-point ** :  0.41670.50000.3333  plane waves:  30280
 k-point ** :  0.50000.50000.3333  plane waves:  30280
 k-point ** :  0.00000.41670.4167  plane waves:  30268
 k-point ** :  0.08330.41670.4167  plane waves:  30290
 k-point ** :  0.16670.41670.4167  plane waves:  30286
 k-point ** :  0.25000.41670.4167  plane waves:  30267
 k-point ** :  0.33330.41670.4167  plane waves:  30271
 k-point ** :  0.41670.41670.4167  plane waves:  30316
 k-point ** :  0.50000.41670.4167  plane waves:  30300
 k-point ** :  0.00000.50000.4167  plane waves:  30278
 k-point ** :  0.08330.50000.4167  plane waves:  30282
 k-point ** :  0.16670.50000.4167  plane waves:  30266
 k-point ** :  0.25000.50000.4167  plane waves:  30266
 k-point ** :  0.33330.50000.4167  plane waves:  30280
 k-point ** :  0.41670.50000.4167  plane waves:  30300
 k-point ** :  0.50000.50000.4167  plane waves:  30292
 k-point ** :  0.00000.50000.5000  plane waves:  30368
 k-point ** :  0.08330.50000.5000  plane waves:  30292
 k-point ** :  0.16670.50000.5000  plane waves:  30328
 k-point ** :  0.25000.50000.5000  plane waves:  30264
 k-point ** :  0.33330.50000.5000  plane waves:  30280
 k-point ** :  0.41670.50000.5000  plane waves:  30292
 k-point ** :  0.50000.50000.5000  plane waves:  30280

 maximum and minimum number of plane-waves per node :  30368 30215

 maximum number of plane-waves:  30368
 maximal index in each direction: 
   IXMAX= 19   IYMAX= 19   IZMAX= 19
   IXMIN=-19   IYMIN=-19   IZMIN=-19

 NGX is ok and might be reduce to  78
 NGY is ok and might be reduce to  78
 NGZ is ok and might be reduce to  78

 parallel 3dFFT wavefunction:
    minimum data exchange during FFTs selected (reduces bandwidth)
 parallel 3dFFT charge:
    minimum data exchange during FFTs selected (reduces bandwidth)

 For storing wavefunctions ******* MBYTES are necessary
 For predicting wavefunctions  220.21 MBYTES are necessary
Broyden mixing: mesh for mixing (old mesh)
   NGX = 39   NGY = 39   NGZ = 39
  (NGX  =160   NGY  =160   NGZ  =160)
 gives a total of  59319 points
 initial charge density was supplied:
 charge density of overlapping atoms calculated
 number of electron  352.0000000 magnetization 
 keeping initial charge density in first step


--------------------------------------------------------------------------------------------------------


 Maximum index for augmentation-charges        75333 (set IRDMAX)


--------------------------------------------------------------------------------------------------------


 First call to EWALD:  gamma=   0.205
 Maximum number of real-space cells 3x 3x 3
 Maximum number of reciprocal cells 3x 3x 3

    FEWALD:  VPU time    0.00: CPU time    0.00


----------------------------------------- Iteration    1(   1)  ---------------------------------------


    POTLOK:  VPU time    0.57: CPU time    0.58
    SETDIJ:  VPU time    0.68: CPU time    0.69
    EDDAV :  VPU time 3592.75: CPU time 3601.00
    DOS   :  VPU time    0.00: CPU time   -0.00
    ------------------------------------------
      LOOP:  VPU time 3594.20: CPU time 3602.46

 eigenvalue-minimisations  : 83160
 total energy-change (2. order) : 0.4085958E+04  (-0.2101387E+05)
 number of electron  352.0000000 magnetization 
 augmentation part   352.0000000 magnetization 

 Free energy of the ion-electron system (eV)
  ---------------------------------------------------
  alpha Z        PSCENC =      2800.32745220
  Ewald energy   TEWEN  =    -29520.53997516
  -1/2 Hartree   DENC   =     -7354.79447440
  -V(xc)+E(xc)   XCENC  =      -356.22539392
  PAW double counting   =     27861.41421209   -26376.63839568
  entropy T*S    EENTRO =        -0.00055561
  eigenvalues    EBANDS =      3835.21840774
  atomic energy  EATOM  =     33197.19690173
  ---------------------------------------------------
  free energy    TOTEN  =      4085.95817899 eV

  energy without entropy =     4085.95873460  energy(sigma->0) =     4085.95845679


--------------------------------------------------------------------------------------------------------




----------------------------------------- Iteration    1(   2)  ---------------------------------------


    EDDAV :  VPU time 3618.66: CPU time 3625.21
    DOS   :  VPU time   -0.00: CPU time   -0.01
    ------------------------------------------
      LOOP:  VPU time 3618.87: CPU time 3625.43

 eigenvalue-minimisations  : 83104
 total energy-change (2. order) :-0.3970951E+04  (-0.3797598E+04)
 number of electron  352.0000000 magnetization 
 augmentation part   352.0000000 magnetization 

 Free energy of the ion-electron system (eV)
  ---------------------------------------------------
  alpha Z        PSCENC =      2800.32745220
  Ewald energy   TEWEN  =    -29520.53997516
  -1/2 Hartree   DENC   =     -7354.79447440
  -V(xc)+E(xc)   XCENC  =      -356.22539392
  PAW double counting   =     27861.41421209   -26376.63839568
  entropy T*S    EENTRO =        -0.00043022
  eigenvalues    EBANDS =      -135.73232457
  atomic energy  EATOM  =     33197.19690173
  ---------------------------------------------------
  free energy    TOTEN  =       115.00757207 eV

  energy without entropy =      115.00800229  energy(sigma->0) =      115.00778718


--------------------------------------------------------------------------------------------------------




----------------------------------------- Iteration    1(   3)  ---------------------------------------


    EDDAV :  VPU time 3784.87: CPU time 3792.55
    DOS   :  VPU time   -0.00: CPU time   -0.06
    ------------------------------------------
      LOOP:  VPU time 3785.07: CPU time 3792.84

 eigenvalue-minimisations  : 87872
 total energy-change (2. order) :-0.2049951E+03  (-0.1956791E+03)
 number of electron  352.0000000 magnetization 
 augmentation part   352.0000000 magnetization 

 Free energy of the ion-electron system (eV)
  ---------------------------------------------------
  alpha Z        PSCENC =      2800.32745220
  Ewald energy   TEWEN  =    -29520.53997516
  -1/2 Hartree   DENC   =     -7354.79447440
  -V(xc)+E(xc)   XCENC  =      -356.22539392
  PAW double counting   =     27861.41421209   -26376.63839568
  entropy T*S    EENTRO =        -0.00056823
  eigenvalues    EBANDS =      -340.72726519
  atomic energy  EATOM  =     33197.19690173
  ---------------------------------------------------
  free energy    TOTEN  =       -89.98750656 eV

  energy without entropy =      -89.98693833  energy(sigma->0) =      -89.98722245


--------------------------------------------------------------------------------------------------------




----------------------------------------- Iteration    1(   4)  ---------------------------------------


    EDDAV :  VPU time 4361.26: CPU time 4776.34
    DOS   :  VPU time    0.00: CPU time   -0.03
    ------------------------------------------
      LOOP:  VPU time 4361.75: CPU time 4783.80

 eigenvalue-minimisations  : 88928
 total energy-change (2. order) :-0.4421027E+01  (-0.4389473E+01)
 number of electron  352.0000000 magnetization 
 augmentation part   352.0000000 magnetization 

 Free energy of the ion-electron system (eV)
  ---------------------------------------------------
  alpha Z        PSCENC =      2800.32745220
  Ewald energy   TEWEN  =    -29520.53997516
  -1/2 Hartree   DENC   =     -7354.79447440
  -V(xc)+E(xc)   XCENC  =      -356.22539392
  PAW double counting   =     27861.41421209   -26376.63839568
  entropy T*S    EENTRO =        -0.00064906
  eigenvalues    EBANDS =      -345.14821137
  atomic energy  EATOM  =     33197.19690173
  ---------------------------------------------------
  free energy    TOTEN  =       -94.40853358 eV

  energy without entropy =      -94.40788452  energy(sigma->0) =      -94.40820905


--------------------------------------------------------------------------------------------------------




----------------------------------------- Iteration    1(   5)  ---------------------------------------


    EDDAV :  VPU time 3809.91: CPU time 3902.23
    DOS   :  VPU time    0.00: CPU time   -0.03
    CHARGE:  VPU time  141.06: CPU time  164.26
    MIXING:  VPU time    0.49: CPU time    0.57
    ------------------------------------------
      LOOP:  VPU time 3951.67: CPU time 4067.39

 eigenvalue-minimisations  : 88240
 total energy-change (2. order) :-0.3238025E-01  (-0.3233948E-01)
 number of electron  352.0000006 magnetization 
 augmentation part   164.2343451 magnetization 

 Broyden mixing:
  rms(total) = 0.14004E+01    rms(broyden)= 0.14004E+01
  rms(prec ) = 0.21072E+01
  weight for this iteration     100.00

 Free energy of the ion-electron system (eV)
  ---------------------------------------------------
  alpha Z        PSCENC =      2800.32745220
  Ewald energy   TEWEN  =    -29520.53997516
  -1/2 Hartree   DENC   =     -7354.79447440
  -V(xc)+E(xc)   XCENC  =      -356.22539392
  PAW double counting   =     27861.41421209   -26376.63839568
  entropy T*S    EENTRO =        -0.00064969
  eigenvalues    EBANDS =      -345.18059099
  atomic energy  EATOM  =     33197.19690173
  ---------------------------------------------------
  free energy    TOTEN  =       -94.44091383 eV

  energy without entropy =      -94.44026413  energy(sigma->0) =      -94.44058898


--------------------------------------------------------------------------------------------------------




----------------------------------------- Iteration    1(   6)  ---------------------------------------


    POTLOK:  VPU time    1.25: CPU time    2.61
    SETDIJ:  VPU time    1.63: CPU time    1.67
    EDDAV :  VPU time 3523.33: CPU time 3541.49
    DOS   :  VPU time   -0.00: CPU time   -0.00
    CHARGE:  VPU time  128.44: CPU time  132.22
    MIXING:  VPU time    0.02: CPU time    0.11
    ------------------------------------------
      LOOP:  VPU time 3654.87: CPU time 3678.38

 eigenvalue-minimisations  : 87152
 total energy-change (2. order) : 0.5720689E+01  (-0.2377994E+01)
 number of electron  352.0000006 magnetization 
 augmentation part   169.3548300 magnetization 

 Broyden mixing:
  rms(total) = 0.26160E+00    rms(broyden)= 0.26159E+00
  rms(prec ) = 0.34341E+00
  weight for this iteration     100.00

 eigenvalues of (default mixing * dielectric matrix)
  average eigenvalue GAMMA=   1.0147
  1.0147

 Free energy of the ion-electron system (eV)
  ---------------------------------------------------
  alpha Z        PSCENC =      2800.32745220
  Ewald energy   TEWEN  =    -29520.53997516
  -1/2 Hartree   DENC   =     -7072.79100688
  -V(xc)+E(xc)   XCENC  =      -366.52353027
  PAW double counting   =     27405.24489791   -25937.70381824
  entropy T*S    EENTRO =        -0.00051276
  eigenvalues    EBANDS =      -593.93063305
  atomic energy  EATOM  =     33197.19690173
  ---------------------------------------------------
  free energy    TOTEN  =       -88.72022452 eV

  energy without entropy =      -88.71971175  energy(sigma->0) =      -88.71996813


--------------------------------------------------------------------------------------------------------




----------------------------------------- Iteration    1(   7)  ---------------------------------------


    POTLOK:  VPU time    0.87: CPU time    0.89
    SETDIJ:  VPU time    1.16: CPU time    1.16
    EDDAV :  VPU time 2946.65: CPU time 2955.87
    DOS   :  VPU time    0.00: CPU time   -0.06
    CHARGE:  VPU time  111.53: CPU time  114.36
    MIXING:  VPU time    0.03: CPU time    0.58
    ------------------------------------------
      LOOP:  VPU time 3060.45: CPU time 3073.25

 eigenvalue-minimisations  : 86344
 total energy-change (2. order) : 0.8689130E-01  (-0.3961110E-01)
 number of electron  352.0000006 magnetization 
 augmentation part   169.5064996 magnetization 

 Broyden mixing:
  rms(total) = 0.15121E+00    rms(broyden)= 0.15121E+00
  rms(prec ) = 0.19514E+00
  weight for this iteration     100.00

 eigenvalues of (default mixing * dielectric matrix)
  average eigenvalue GAMMA=   1.7389
  1.0178  2.4601

 Free energy of the ion-electron system (eV)
  ---------------------------------------------------
  alpha Z        PSCENC =      2800.32745220
  Ewald energy   TEWEN  =    -29520.53997516
  -1/2 Hartree   DENC   =     -7043.61936799
  -V(xc)+E(xc)   XCENC  =      -367.72652454
  PAW double counting   =     27447.08556427   -25994.27112546
  entropy T*S    EENTRO =        -0.00049043
  eigenvalues    EBANDS =      -607.08576784
  atomic energy  EATOM  =     33197.19690173
[...]
     68      -2.0146      2.00000
     69      -2.0143      2.00000
     70      -2.0142      2.00000
     71      -2.0139      2.00000
     72      -2.0139      2.00000
     73      -1.8530      2.00000
     74      -1.8526      2.00000
     75      -1.8516      2.00000
     76      -1.8516      2.00000
     77      -1.8515      2.00000
     78      -1.8515      2.00000
     79      -1.8505      2.00000
     80      -1.8501      2.00000
     81      -1.7579      2.00000
     82      -1.7579      2.00000
     83      -1.7569      2.00000
     84      -1.7568      2.00000
     85      -1.7557      2.00000
     86      -1.7556      2.00000
     87      -1.7556      2.00000
     88      -1.7556      2.00000
     89      -1.7556      2.00000
     90      -1.7556      2.00000
     91      -1.7555      2.00000
     92      -1.7555      2.00000
     93      -1.7555      2.00000
     94      -1.7555      2.00000
     95      -1.7554      2.00000
     96      -1.7554      2.00000
     97      -1.7554      2.00000
     98      -1.7554      2.00000
     99      -1.7554      2.00000
    100      -1.7552      2.00000
    101      -1.7542      2.00000
    102      -1.7540      2.00000
    103      -1.7531      2.00000
    104      -1.7531      2.00000
    105      -1.5427      2.00000
    106      -1.5418      2.00000
    107      -1.5418      2.00000
    108      -1.5405      2.00000
    109      -1.5404      2.00000
    110      -1.5403      2.00000
    111      -1.5403      2.00000
    112      -1.5402      2.00000
    113      -1.5401      2.00000
    114      -1.5401      2.00000
    115      -1.5401      2.00000
    116      -1.5401      2.00000
    117      -1.5400      2.00000
    118      -1.5400      2.00000
    119      -1.5400      2.00000
    120      -1.5400      2.00000
    121      -1.5399      2.00000
    122      -1.5397      2.00000
    123      -1.5397      2.00000
    124      -1.5397      2.00000
    125      -1.5395      2.00000
    126      -1.5382      2.00000
    127      -1.5382      2.00000
    128      -1.5374      2.00000
    129      -1.3114      2.00000
    130      -1.3105      2.00000
    131      -1.3105      2.00000
    132      -1.3105      2.00000
    133      -1.3099      2.00000
    134      -1.3099      2.00000
    135      -1.3097      2.00000
    136      -1.3097      2.00000
    137      -1.3096      2.00000
    138      -1.3096      2.00000
    139      -1.3094      2.00000
    140      -1.3094      2.00000
    141      -1.3088      2.00000
    142      -1.3088      2.00000
    143      -1.3088      2.00000
    144      -1.3078      2.00000
    145      -0.7833      2.00000
    146      -0.7833      2.00000
    147      -0.7831      2.00000
    148      -0.7830      2.00000
    149      -0.7830      2.00000
    150      -0.7829      2.00000
    151      -0.7829      2.00000
    152      -0.7829      2.00000
    153      -0.7829      2.00000
    154      -0.7828      2.00000
    155      -0.7828      2.00000
    156      -0.7828      2.00000
    157      -0.7827      2.00000
    158      -0.7826      2.00000
    159      -0.7826      2.00000
    160      -0.7826      2.00000
    161      -0.7826      2.00000
    162      -0.7825      2.00000
    163      -0.7825      2.00000
    164      -0.7825      2.00000
    165      -0.7825      2.00000
    166      -0.7823      2.00000
    167      -0.7822      2.00000
    168      -0.7822      2.00000
    169       2.9545      0.00000
    170       2.9568      0.00000
    171       2.9568      0.00000
    172       2.9589      0.00000
    173       2.9591      0.00000
    174       2.9593      0.00000
    175       2.9593      0.00000
    176       2.9593      0.00000
    177       2.9593      0.00000
    178       2.9594      0.00000
    179       2.9594      0.00000
    180       2.9594      0.00000
    181       2.9595      0.00000
    182       2.9595      0.00000
    183       2.9596      0.00000
    184       2.9596      0.00000
    185       2.9596      0.00000
    186       2.9597      0.00000
    187       2.9597      0.00000
    188       2.9598      0.00000
    189       2.9600      0.00000
    190       2.9621      0.00000
    191       2.9621      0.00000
    192       2.9645      0.00000
    193       7.4678      0.00000
    194       7.4682      0.00000
    195       7.4699      0.00000
    196       7.4713      0.00000
    197       7.4715      0.00000
    198       7.4718      0.00000
    199       7.4718      0.00000
    200       7.4720      0.00000
    201       7.4720      0.00000
    202       7.4721      0.00000
    203       7.4721      0.00000
    204       7.4721      0.00000
    205       7.4722      0.00000
    206       7.4722      0.00000
    207       7.4724      0.00000
    208       7.4726      0.00000
    209       7.4728      0.00000
    210       7.4733      0.00000
    211       7.4739      0.00000
    212       7.4748      0.00000


--------------------------------------------------------------------------------------------------------


 soft charge-density along one line, spin component           1
         0         1         2         3         4         5         6         7         8         9
 total charge-density along one line
 
 pseudopotential strength for first ion, spin component:           1
-12.547  -0.000   0.000  -0.000  -0.000   0.202   0.000  -0.000
 -0.000 -12.547   0.000  -0.000   0.000   0.000   0.202  -0.000
  0.000   0.000 -12.539   0.000  -0.000  -0.000  -0.000   0.201
 -0.000  -0.000   0.000 -12.547  -0.000   0.000   0.000  -0.000
 -0.000   0.000  -0.000  -0.000 -12.539   0.000  -0.000   0.000
  0.202   0.000  -0.000   0.000   0.000   0.444  -0.000   0.000
  0.000   0.202  -0.000   0.000  -0.000  -0.000   0.444   0.000
 -0.000  -0.000   0.201  -0.000   0.000   0.000   0.000   0.444
  0.000   0.000  -0.000   0.202   0.000  -0.000  -0.000   0.000
  0.000  -0.000   0.000   0.000   0.201  -0.000   0.000  -0.000
  0.000   0.000   0.000   0.000  -0.000  -0.000  -0.000  -0.000
 -0.000  -0.000   0.000  -0.000   0.000   0.000   0.000   0.000
 -0.000  -0.000   0.000  -0.000  -0.000   0.000   0.000  -0.000
 -0.000  -0.000   0.000  -0.000  -0.000   0.000   0.000   0.000
 -0.000  -0.000   0.000  -0.000  -0.000   0.000   0.000  -0.000
  0.000   0.000  -0.000   0.000   0.000  -0.000  -0.000   0.000
  0.000   0.000  -0.000   0.000   0.000  -0.000  -0.000   0.000
  0.000   0.000  -0.000   0.000   0.000  -0.000  -0.000   0.000
 total augmentation occupancy for first ion, spin component:           1
  1.943   0.000  -0.000  -0.000  -0.000  -0.033  -0.000  -0.001   0.000   0.000   0.002  -0.001   0.000   0.000   0.000  -0.000
  0.000   1.945  -0.001  -0.000  -0.001  -0.000  -0.036   0.001   0.000  -0.000   0.002  -0.001   0.000   0.000  -0.000  -0.000
 -0.000  -0.001   1.968  -0.001  -0.002  -0.001   0.001  -0.058   0.001   0.001   0.012   0.001  -0.000  -0.000  -0.000  -0.000
 -0.000  -0.000  -0.001   1.947  -0.000   0.000   0.000   0.001  -0.038   0.001   0.001  -0.001   0.000   0.000  -0.000  -0.000
 -0.000  -0.001  -0.002  -0.000   1.961   0.000  -0.000   0.001   0.001  -0.053   0.007   0.000   0.000   0.000   0.000   0.000
 -0.033  -0.000  -0.001   0.000   0.000   0.051   0.000   0.001   0.000  -0.000  -0.000   0.001   0.001  -0.000  -0.000  -0.000
 -0.000  -0.036   0.001   0.000  -0.000   0.000   0.053  -0.001  -0.000   0.001   0.000   0.001   0.000  -0.000   0.000   0.000
 -0.001   0.001  -0.058   0.001   0.001   0.001  -0.001   0.045  -0.001  -0.001  -0.009   0.000   0.000   0.000  -0.000   0.000
  0.000   0.000   0.001  -0.038   0.001   0.000  -0.000  -0.001   0.055  -0.001   0.001   0.001  -0.000   0.001   0.000   0.000
  0.000  -0.000   0.001   0.001  -0.053  -0.000   0.001  -0.001  -0.001   0.043  -0.005   0.000  -0.000  -0.000   0.000   0.000
  0.002   0.002   0.012   0.001   0.007  -0.000   0.000  -0.009   0.001  -0.005   0.960  -0.290   0.000  -0.000   0.002  -0.000
 -0.001  -0.001   0.001  -0.001   0.000   0.001   0.001   0.000   0.001   0.000  -0.290   0.135   0.000   0.000  -0.001  -0.000
  0.000   0.000  -0.000   0.000   0.000   0.001   0.000   0.000  -0.000  -0.000   0.000   0.000   0.081   0.000   0.002  -0.004
  0.000   0.000  -0.000   0.000   0.000  -0.000  -0.000   0.000   0.001  -0.000  -0.000   0.000   0.000   0.086  -0.001  -0.000
  0.000  -0.000  -0.000  -0.000   0.000  -0.000   0.000  -0.000   0.000   0.000   0.002  -0.001   0.002  -0.001   0.084  -0.000
 -0.000  -0.000  -0.000  -0.000   0.000  -0.000   0.000   0.000   0.000   0.000  -0.000  -0.000  -0.004  -0.000  -0.000   0.000
 -0.000  -0.000   0.000  -0.000   0.000   0.000   0.000  -0.000  -0.000   0.000   0.000   0.000  -0.000  -0.005  -0.000   0.000
  0.000  -0.000   0.000   0.000  -0.000  -0.000  -0.000   0.000  -0.000  -0.000  -0.000   0.000  -0.000  -0.000  -0.004   0.000


------------------------ aborting loop because EDIFF is reached ----------------------------------------




--------------------------------------------------------------------------------------------------------


    CHARGE:  VPU time  141.20: CPU time  145.14
    FORLOC:  VPU time    0.15: CPU time    0.16
    FORNL :  VPU time  853.70: CPU time  856.10
    STRESS:  VPU time 2747.85: CPU time 2753.27
    FORCOR:  VPU time    0.67: CPU time    0.67
    FORHAR:  VPU time    0.21: CPU time    0.22
    MIXING:  VPU time    0.02: CPU time    0.02


--------------------------------------------------------------------------------------------------------



  FREE ENERGIE OF THE ION-ELECTRON SYSTEM (eV)
  ---------------------------------------------------
  free  energy   TOTEN  =       -88.585460 eV

  energy  without entropy=      -88.584981  energy(sigma->0) =      -88.585220
 

  FORCE on cell =-STRESS in cart. coord.  units (eV/reduce length):
  Direction    X        Y        Z        XY       YZ       ZX
  --------------------------------------------------------------------------------------
  Alpha Z   2800.33   2800.33   2800.33
  Ewald    -9840.24  -9840.21  -9840.21      0.00     -0.00     -0.00
  Hartree   2336.33   2336.35   2336.35     -0.00     -0.00     -0.00
  E(xc)    -1853.00  -1853.00  -1853.00      0.00     -0.00     -0.00
  Local     3001.73   3001.67   3001.67     -0.00      0.00     -0.00
  n-local  -2158.30  -2161.79  -2154.81      1.42      0.75      0.09
  augment   1336.72   1336.72   1336.72     -0.00     -0.00     -0.00
  Kinetic   4346.42   4340.62   4352.23      0.69     -0.65     -1.99
  -------------------------------------------------------------------------------------
  Total      -30.02    -30.02    -30.02      0.00      0.00      0.00
  in kB      -74.06    -74.06    -74.06      0.00      0.00      0.00
  external pressure =      -74.06 kB  Pullay stress =        0.00 kB


 VOLUME and BASIS-vectors are now :
 -----------------------------------------------------------------------------
  energy-cutoff  :      750.00
  volume of cell :      649.35
      direct lattice vectors                 reciprocal lattice vectors
     8.659507546  0.000000000  0.000000000     0.115480008  0.000000000  0.000000000
     0.000000000  8.659507546  0.000000000     0.000000000  0.115480008  0.000000000
     0.000000000  0.000000000  8.659507546     0.000000000  0.000000000  0.115480008

  length of vectors
     8.659507546  8.659507546  8.659507546     0.115480008  0.115480008  0.115480008


 FORCES acting on ions
    electron-ion (+dipol)            ewald-force                    non-local-force                 convergence-correction
 -----------------------------------------------------------------------------------------------
   0.350E+01 0.437E-13 0.736E-07   -.348E+01 0.107E-12 -.355E-13   -.333E-01 -.634E-20 -.531E-20   -.255E-04 0.844E-13 -.132E-12
   -.911E+00 0.217E-12 -.740E-07   0.920E+00 0.142E-13 0.426E-13   -.736E-02 -.722E-22 -.844E-21   0.145E-05 0.675E-13 -.214E-12
   0.290E+00 -.861E-13 -.915E-11   -.291E+00 -.711E-14 0.391E-13   0.839E-03 0.591E-21 -.153E-20   -.176E-05 -.270E-12 -.770E-13
   -.232E+00 0.847E-12 -.892E-11   0.229E+00 0.142E-13 -.142E-13   0.306E-02 -.111E-19 -.311E-21   0.598E-06 -.231E-12 -.107E-12
   0.290E+00 0.435E-13 0.454E-11   -.291E+00 0.107E-13 -.107E-13   0.839E-03 -.793E-21 -.777E-21   -.133E-05 0.799E-13 -.344E-13
   -.232E+00 0.480E-14 0.580E-11   0.229E+00 0.142E-13 -.142E-13   0.306E-02 -.513E-20 0.308E-20   0.516E-06 0.633E-13 0.316E-13
   0.122E+00 -.864E-13 0.347E-10   -.120E+00 -.711E-14 0.320E-13   -.139E-02 0.595E-20 0.406E-20   0.152E-05 -.268E-12 -.918E-13
   -.112E+00 -.671E-11 0.366E-10   0.112E+00 0.142E-13 0.284E-13   -.388E-03 -.523E-21 -.115E-20   -.533E-06 -.226E-12 -.710E-13
   -.445E+00 -.850E+00 -.599E-11   0.442E+00 0.849E+00 0.355E-13   0.523E-02 0.426E-02 -.722E-20   0.551E-05 0.593E-05 -.167E-12
   -.447E+00 0.844E+00 -.146E-10   0.445E+00 -.842E+00 -.213E-13   0.523E-02 -.423E-02 -.625E-20   0.569E-05 -.629E-05 -.124E-12
   -.445E+00 0.850E+00 -.622E-11   0.442E+00 -.849E+00 0.284E-13   0.523E-02 -.426E-02 -.634E-20   0.551E-05 -.593E-05 -.120E-12
   -.447E+00 -.844E+00 0.132E-11   0.445E+00 0.842E+00 0.284E-13   0.523E-02 0.423E-02 -.159E-20   0.569E-05 0.629E-05 -.101E-12
   -.125E-01 -.700E-01 -.842E-10   0.135E-01 0.698E-01 -.355E-13   -.820E-03 0.211E-03 0.168E-20   -.873E-07 0.883E-06 -.824E-15
   -.138E-01 0.699E-01 -.837E-10   0.148E-01 -.697E-01 0.213E-13   -.816E-03 -.216E-03 0.382E-21   -.580E-06 -.117E-05 -.342E-13
   -.125E-01 0.700E-01 -.839E-10   0.135E-01 -.698E-01 -.284E-13   -.820E-03 -.211E-03 -.278E-21   -.873E-07 -.883E-06 -.512E-13
   -.138E-01 -.699E-01 -.994E-10   0.148E-01 0.697E-01 0.284E-13   -.816E-03 0.216E-03 -.120E-20   -.580E-06 0.117E-05 -.726E-13
   -.445E+00 0.142E-13 -.850E+00   0.442E+00 0.355E-14 0.849E+00   0.523E-02 0.164E-20 0.426E-02   0.543E-05 0.439E-13 0.599E-05
   -.447E+00 0.299E-13 0.844E+00   0.445E+00 -.249E-13 -.842E+00   0.523E-02 0.285E-20 -.423E-02   0.561E-05 0.684E-13 -.636E-05
   -.125E-01 0.809E-12 -.700E-01   0.135E-01 -.284E-13 0.698E-01   -.820E-03 0.271E-21 0.211E-03   -.667E-07 -.217E-12 0.949E-06
   -.138E-01 0.929E-11 0.699E-01   0.148E-01 -.284E-13 -.697E-01   -.816E-03 0.551E-21 -.216E-03   -.559E-06 -.227E-12 -.124E-05
   -.445E+00 0.872E-13 0.850E+00   0.442E+00 0.284E-13 -.849E+00   0.523E-02 -.206E-21 -.426E-02   0.543E-05 0.934E-13 -.599E-05
   -.447E+00 0.546E-13 -.844E+00   0.445E+00 -.284E-13 0.842E+00   0.523E-02 0.176E-20 0.423E-02   0.561E-05 0.982E-13 0.636E-05
   -.125E-01 0.119E-11 0.700E-01   0.135E-01 0.000E+00 -.698E-01   -.820E-03 -.183E-20 -.211E-03   -.667E-07 -.265E-12 -.949E-06
   -.138E-01 -.714E-11 -.699E-01   0.148E-01 -.284E-13 0.697E-01   -.816E-03 -.282E-21 0.216E-03   -.559E-06 -.259E-12 0.124E-05
   0.548E+00 0.200E-02 0.200E-02   -.549E+00 -.199E-02 -.199E-02   0.868E-03 -.117E-04 -.117E-04   -.374E-05 -.410E-06 -.411E-06
   -.307E+00 -.585E-03 -.585E-03   0.309E+00 0.597E-03 0.597E-03   -.102E-02 -.106E-04 -.106E-04   -.388E-06 -.549E-07 -.547E-07
   0.548E+00 -.200E-02 0.200E-02   -.549E+00 0.199E-02 -.199E-02   0.868E-03 0.117E-04 -.117E-04   -.374E-05 0.410E-06 -.411E-06
   -.307E+00 0.585E-03 -.585E-03   0.309E+00 -.597E-03 0.597E-03   -.102E-02 0.106E-04 -.106E-04   -.388E-06 0.549E-07 -.547E-07
   0.548E+00 0.200E-02 -.200E-02   -.549E+00 -.199E-02 0.199E-02   0.868E-03 -.117E-04 0.117E-04   -.374E-05 -.410E-06 0.411E-06
   -.307E+00 -.585E-03 0.585E-03   0.309E+00 0.597E-03 -.597E-03   -.102E-02 -.106E-04 0.106E-04   -.388E-06 -.549E-07 0.547E-07
   0.548E+00 -.200E-02 -.200E-02   -.549E+00 0.199E-02 0.199E-02   0.868E-03 0.117E-04 0.117E-04   -.374E-05 0.410E-06 0.411E-06
   -.307E+00 0.585E-03 0.585E-03   0.309E+00 -.597E-03 -.597E-03   -.102E-02 0.106E-04 0.106E-04   -.388E-06 0.549E-07 0.547E-07
 -----------------------------------------------------------------------------------------------
   -.665E-06 0.938E-12 -.378E-09   0.182E-13 0.182E-14 -.760E-13   0.812E-05 0.911E-18 -.796E-19   0.363E-06 -.775E-12 -.640E-12
 
 
 POSITION                                       TOTAL-FORCE (eV/Angst)
 -----------------------------------------------------------------------------------
      0.01000      0.00000      0.00000        -0.022141     -0.000000      0.000000
      4.32975      0.00000      0.00000         0.001008     -0.000000     -0.000000
      0.00000      4.32975      0.00000        -0.000272      0.000000      0.000000
      4.32975      4.32975      0.00000        -0.000452      0.000000      0.000000
      0.00000      0.00000      4.32975        -0.000272     -0.000000      0.000000
      4.32975      0.00000      4.32975        -0.000452      0.000000      0.000000
      0.00000      4.32975      4.32975         0.000043      0.000000      0.000000
      4.32975      4.32975      4.32975        -0.000080      0.000000     -0.000000
      2.16488      2.16488      0.00000         0.002621      0.003080     -0.000000
      6.49463      2.16488      0.00000         0.002507     -0.002934      0.000000
      2.16488      6.49463      0.00000         0.002621     -0.003080     -0.000000
      6.49463      6.49463      0.00000         0.002507      0.002934      0.000000
      2.16488      2.16488      4.32975         0.000203      0.000049     -0.000000
      6.49463      2.16488      4.32975         0.000202     -0.000048     -0.000000
      2.16488      6.49463      4.32975         0.000203     -0.000049     -0.000000
      6.49463      6.49463      4.32975         0.000202      0.000048      0.000000
      2.16488      0.00000      2.16488         0.002621     -0.000000      0.003080
      6.49463      0.00000      2.16488         0.002507      0.000000     -0.002934
      2.16488      4.32975      2.16488         0.000203     -0.000000      0.000049
      6.49463      4.32975      2.16488         0.000202     -0.000000     -0.000048
      2.16488      0.00000      6.49463         0.002621      0.000000     -0.003080
      6.49463      0.00000      6.49463         0.002507      0.000000      0.002934
      2.16488      4.32975      6.49463         0.000203     -0.000000     -0.000049
      6.49463      4.32975      6.49463         0.000202     -0.000000      0.000048
      0.00000      2.16488      2.16488        -0.000443     -0.000002     -0.000002
      4.32975      2.16488      2.16488         0.000565      0.000002      0.000002
      0.00000      6.49463      2.16488        -0.000443      0.000002     -0.000002
      4.32975      6.49463      2.16488         0.000565     -0.000002      0.000002
      0.00000      2.16488      6.49463        -0.000443     -0.000002      0.000002
      4.32975      2.16488      6.49463         0.000565      0.000002     -0.000002
      0.00000      6.49463      6.49463        -0.000443      0.000002      0.000002
      4.32975      6.49463      6.49463         0.000565     -0.000002     -0.000002
 -----------------------------------------------------------------------------------
    total drift:                                0.000008      0.000000     -0.000000


--------------------------------------------------------------------------------------------------------



 mean value of Nose-termostat <S>:     1.000 mean value of <T> :     0.000
 mean temperature <T/S>/<1/S>  :     0.000

     LOOP+:  VPU time59166.53: CPU time59865.91
  
  
 General timing and accounting informations for this job:
 ========================================================
  
                  Total CPU time used (sec):    59766.705
                            User time (sec):    58600.101
                          System time (sec):     1166.604
                         Elapsed time (sec):    60467.125
  
                   Maximum memory used (kb):    11057836.
                   Average memory used (kb):           0.
  
                          Minor page faults:      3552288
                          Major page faults:       126039
                 Voluntary context switches:       193030
