<?xml version="1.0" encoding="ISO-8859-1"?>
<modeling>
 <generator>
  <i name="program" type="string">vasp</i>
  <i name="version" type="string">4.6.28 </i>
  <i name="subversion" type="string">25Jul05 complex  parallel</i>
  <i name="platform" type="string">LinuxIFC</i>
  <i name="date" type="string">2017 01 10</i>
  <i name="time" type="string">17:17:05</i>
 </generator>
 <incar>
  <i type="string" name="PREC">accurate</i>
  <i type="int" name="IALGO">    38</i>
  <i type="logical" name="ADDGRID"> T  </i>
  <i name="EDIFF">      0.00000001</i>
  <i type="int" name="IBRION">    -1</i>
  <i name="ENCUT">    750.00000000</i>
  <i type="logical" name="LREAL"> F  </i>
  <i type="int" name="ISMEAR">     0</i>
  <i name="SIGMA">      0.01000000</i>
  <i type="logical" name="LWAVE"> F  </i>
  <i type="logical" name="LCHARG"> F  </i>
 </incar>
 <kpoints>
  <generation param="Gamma">
   <v type="int" name="divisions">      12      12      12</v>
   <v name="usershift">      0.00000000      0.00000000      0.00000000</v>
   <v name="genvec1">      0.08333333      0.00000000      0.00000000</v>
   <v name="genvec2">      0.00000000      0.08333333      0.00000000</v>
   <v name="genvec3">      0.00000000      0.00000000      0.08333333</v>
   <v name="shift">      0.00000000      0.00000000      0.00000000</v>
  </generation>
  <varray name="kpointlist" >
   <v>       0.00000000      0.00000000      0.00000000</v>
   <v>       0.08333333      0.00000000      0.00000000</v>
   <v>       0.16666667      0.00000000      0.00000000</v>
   <v>       0.25000000      0.00000000      0.00000000</v>
   <v>       0.33333333      0.00000000      0.00000000</v>
   <v>       0.41666667      0.00000000      0.00000000</v>
   <v>       0.50000000      0.00000000      0.00000000</v>
   <v>       0.00000000      0.08333333      0.00000000</v>
   <v>       0.08333333      0.08333333      0.00000000</v>
   <v>       0.16666667      0.08333333      0.00000000</v>
   <v>       0.25000000      0.08333333      0.00000000</v>
   <v>       0.33333333      0.08333333      0.00000000</v>
   <v>       0.41666667      0.08333333      0.00000000</v>
   <v>       0.50000000      0.08333333      0.00000000</v>
   <v>       0.00000000      0.16666667      0.00000000</v>
   <v>       0.08333333      0.16666667      0.00000000</v>
   <v>       0.16666667      0.16666667      0.00000000</v>
   <v>       0.25000000      0.16666667      0.00000000</v>
   <v>       0.33333333      0.16666667      0.00000000</v>
   <v>       0.41666667      0.16666667      0.00000000</v>
   <v>       0.50000000      0.16666667      0.00000000</v>
   <v>       0.00000000      0.25000000      0.00000000</v>
   <v>       0.08333333      0.25000000      0.00000000</v>
   <v>       0.16666667      0.25000000      0.00000000</v>
   <v>       0.25000000      0.25000000      0.00000000</v>
   <v>       0.33333333      0.25000000      0.00000000</v>
   <v>       0.41666667      0.25000000      0.00000000</v>
   <v>       0.50000000      0.25000000      0.00000000</v>
   <v>       0.00000000      0.33333333      0.00000000</v>
   <v>       0.08333333      0.33333333      0.00000000</v>
   <v>       0.16666667      0.33333333      0.00000000</v>
   <v>       0.25000000      0.33333333      0.00000000</v>
   <v>       0.33333333      0.33333333      0.00000000</v>
   <v>       0.41666667      0.33333333      0.00000000</v>
   <v>       0.50000000      0.33333333      0.00000000</v>
   <v>       0.00000000      0.41666667      0.00000000</v>
   <v>       0.08333333      0.41666667      0.00000000</v>
   <v>       0.16666667      0.41666667      0.00000000</v>
   <v>       0.25000000      0.41666667      0.00000000</v>
   <v>       0.33333333      0.41666667      0.00000000</v>
   <v>       0.41666667      0.41666667      0.00000000</v>
   <v>       0.50000000      0.41666667      0.00000000</v>
   <v>       0.00000000      0.50000000      0.00000000</v>
   <v>       0.08333333      0.50000000      0.00000000</v>
   <v>       0.16666667      0.50000000      0.00000000</v>
   <v>       0.25000000      0.50000000      0.00000000</v>
   <v>       0.33333333      0.50000000      0.00000000</v>
   <v>       0.41666667      0.50000000      0.00000000</v>
   <v>       0.50000000      0.50000000      0.00000000</v>
   <v>       0.00000000      0.08333333      0.08333333</v>
   <v>       0.08333333      0.08333333      0.08333333</v>
   <v>       0.16666667      0.08333333      0.08333333</v>
   <v>       0.25000000      0.08333333      0.08333333</v>
   <v>       0.33333333      0.08333333      0.08333333</v>
   <v>       0.41666667      0.08333333      0.08333333</v>
   <v>       0.50000000      0.08333333      0.08333333</v>
   <v>       0.00000000      0.16666667      0.08333333</v>
   <v>       0.08333333      0.16666667      0.08333333</v>
   <v>       0.16666667      0.16666667      0.08333333</v>
   <v>       0.25000000      0.16666667      0.08333333</v>
   <v>       0.33333333      0.16666667      0.08333333</v>
   <v>       0.41666667      0.16666667      0.08333333</v>
   <v>       0.50000000      0.16666667      0.08333333</v>
   <v>       0.00000000      0.25000000      0.08333333</v>
   <v>       0.08333333      0.25000000      0.08333333</v>
   <v>       0.16666667      0.25000000      0.08333333</v>
   <v>       0.25000000      0.25000000      0.08333333</v>
   <v>       0.33333333      0.25000000      0.08333333</v>
   <v>       0.41666667      0.25000000      0.08333333</v>
   <v>       0.50000000      0.25000000      0.08333333</v>
   <v>       0.00000000      0.33333333      0.08333333</v>
   <v>       0.08333333      0.33333333      0.08333333</v>
   <v>       0.16666667      0.33333333      0.08333333</v>
   <v>       0.25000000      0.33333333      0.08333333</v>
   <v>       0.33333333      0.33333333      0.08333333</v>
   <v>       0.41666667      0.33333333      0.08333333</v>
   <v>       0.50000000      0.33333333      0.08333333</v>
   <v>       0.00000000      0.41666667      0.08333333</v>
   <v>       0.08333333      0.41666667      0.08333333</v>
   <v>       0.16666667      0.41666667      0.08333333</v>
   <v>       0.25000000      0.41666667      0.08333333</v>
   <v>       0.33333333      0.41666667      0.08333333</v>
   <v>       0.41666667      0.41666667      0.08333333</v>
   <v>       0.50000000      0.41666667      0.08333333</v>
   <v>       0.00000000      0.50000000      0.08333333</v>
   <v>       0.08333333      0.50000000      0.08333333</v>
   <v>       0.16666667      0.50000000      0.08333333</v>
   <v>       0.25000000      0.50000000      0.08333333</v>
   <v>       0.33333333      0.50000000      0.08333333</v>
   <v>       0.41666667      0.50000000      0.08333333</v>
   <v>       0.50000000      0.50000000      0.08333333</v>
   <v>       0.00000000      0.16666667      0.16666667</v>
   <v>       0.08333333      0.16666667      0.16666667</v>
   <v>       0.16666667      0.16666667      0.16666667</v>
   <v>       0.25000000      0.16666667      0.16666667</v>
   <v>       0.33333333      0.16666667      0.16666667</v>
   <v>       0.41666667      0.16666667      0.16666667</v>
   <v>       0.50000000      0.16666667      0.16666667</v>
   <v>       0.00000000      0.25000000      0.16666667</v>
   <v>       0.08333333      0.25000000      0.16666667</v>
   <v>       0.16666667      0.25000000      0.16666667</v>
   <v>       0.25000000      0.25000000      0.16666667</v>
   <v>       0.33333333      0.25000000      0.16666667</v>
   <v>       0.41666667      0.25000000      0.16666667</v>
   <v>       0.50000000      0.25000000      0.16666667</v>
   <v>       0.00000000      0.33333333      0.16666667</v>
   <v>       0.08333333      0.33333333      0.16666667</v>
   <v>       0.16666667      0.33333333      0.16666667</v>
   <v>       0.25000000      0.33333333      0.16666667</v>
   <v>       0.33333333      0.33333333      0.16666667</v>
   <v>       0.41666667      0.33333333      0.16666667</v>
   <v>       0.50000000      0.33333333      0.16666667</v>
   <v>       0.00000000      0.41666667      0.16666667</v>
   <v>       0.08333333      0.41666667      0.16666667</v>
   <v>       0.16666667      0.41666667      0.16666667</v>
   <v>       0.25000000      0.41666667      0.16666667</v>
   <v>       0.33333333      0.41666667      0.16666667</v>
   <v>       0.41666667      0.41666667      0.16666667</v>
   <v>       0.50000000      0.41666667      0.16666667</v>
   <v>       0.00000000      0.50000000      0.16666667</v>
   <v>       0.08333333      0.50000000      0.16666667</v>
   <v>       0.16666667      0.50000000      0.16666667</v>
   <v>       0.25000000      0.50000000      0.16666667</v>
   <v>       0.33333333      0.50000000      0.16666667</v>
   <v>       0.41666667      0.50000000      0.16666667</v>
   <v>       0.50000000      0.50000000      0.16666667</v>
   <v>       0.00000000      0.25000000      0.25000000</v>
   <v>       0.08333333      0.25000000      0.25000000</v>
   <v>       0.16666667      0.25000000      0.25000000</v>
   <v>       0.25000000      0.25000000      0.25000000</v>
   <v>       0.33333333      0.25000000      0.25000000</v>
   <v>       0.41666667      0.25000000      0.25000000</v>
   <v>       0.50000000      0.25000000      0.25000000</v>
   <v>       0.00000000      0.33333333      0.25000000</v>
   <v>       0.08333333      0.33333333      0.25000000</v>
   <v>       0.16666667      0.33333333      0.25000000</v>
   <v>       0.25000000      0.33333333      0.25000000</v>
   <v>       0.33333333      0.33333333      0.25000000</v>
   <v>       0.41666667      0.33333333      0.25000000</v>
   <v>       0.50000000      0.33333333      0.25000000</v>
   <v>       0.00000000      0.41666667      0.25000000</v>
   <v>       0.08333333      0.41666667      0.25000000</v>
   <v>       0.16666667      0.41666667      0.25000000</v>
   <v>       0.25000000      0.41666667      0.25000000</v>
   <v>       0.33333333      0.41666667      0.25000000</v>
   <v>       0.41666667      0.41666667      0.25000000</v>
   <v>       0.50000000      0.41666667      0.25000000</v>
   <v>       0.00000000      0.50000000      0.25000000</v>
   <v>       0.08333333      0.50000000      0.25000000</v>
   <v>       0.16666667      0.50000000      0.25000000</v>
   <v>       0.25000000      0.50000000      0.25000000</v>
   <v>       0.33333333      0.50000000      0.25000000</v>
   <v>       0.41666667      0.50000000      0.25000000</v>
   <v>       0.50000000      0.50000000      0.25000000</v>
   <v>       0.00000000      0.33333333      0.33333333</v>
   <v>       0.08333333      0.33333333      0.33333333</v>
   <v>       0.16666667      0.33333333      0.33333333</v>
   <v>       0.25000000      0.33333333      0.33333333</v>
   <v>       0.33333333      0.33333333      0.33333333</v>
   <v>       0.41666667      0.33333333      0.33333333</v>
   <v>       0.50000000      0.33333333      0.33333333</v>
   <v>       0.00000000      0.41666667      0.33333333</v>
   <v>       0.08333333      0.41666667      0.33333333</v>
   <v>       0.16666667      0.41666667      0.33333333</v>
   <v>       0.25000000      0.41666667      0.33333333</v>
   <v>       0.33333333      0.41666667      0.33333333</v>
   <v>       0.41666667      0.41666667      0.33333333</v>
   <v>       0.50000000      0.41666667      0.33333333</v>
   <v>       0.00000000      0.50000000      0.33333333</v>
   <v>       0.08333333      0.50000000      0.33333333</v>
   <v>       0.16666667      0.50000000      0.33333333</v>
   <v>       0.25000000      0.50000000      0.33333333</v>
   <v>       0.33333333      0.50000000      0.33333333</v>
   <v>       0.41666667      0.50000000      0.33333333</v>
   <v>       0.50000000      0.50000000      0.33333333</v>
   <v>       0.00000000      0.41666667      0.41666667</v>
   <v>       0.08333333      0.41666667      0.41666667</v>
   <v>       0.16666667      0.41666667      0.41666667</v>
   <v>       0.25000000      0.41666667      0.41666667</v>
   <v>       0.33333333      0.41666667      0.41666667</v>
   <v>       0.41666667      0.41666667      0.41666667</v>
   <v>       0.50000000      0.41666667      0.41666667</v>
   <v>       0.00000000      0.50000000      0.41666667</v>
   <v>       0.08333333      0.50000000      0.41666667</v>
   <v>       0.16666667      0.50000000      0.41666667</v>
   <v>       0.25000000      0.50000000      0.41666667</v>
   <v>       0.33333333      0.50000000      0.41666667</v>
   <v>       0.41666667      0.50000000      0.41666667</v>
   <v>       0.50000000      0.50000000      0.41666667</v>
   <v>       0.00000000      0.50000000      0.50000000</v>
   <v>       0.08333333      0.50000000      0.50000000</v>
   <v>       0.16666667      0.50000000      0.50000000</v>
   <v>       0.25000000      0.50000000      0.50000000</v>
   <v>       0.33333333      0.50000000      0.50000000</v>
   <v>       0.41666667      0.50000000      0.50000000</v>
   <v>       0.50000000      0.50000000      0.50000000</v>
  </varray>
  <varray name="weights" >
   <v>       0.00057870</v>
   <v>       0.00115741</v>
   <v>       0.00115741</v>
   <v>       0.00115741</v>
   <v>       0.00115741</v>
   <v>       0.00115741</v>
   <v>       0.00057870</v>
   <v>       0.00231481</v>
   <v>       0.00462963</v>
   <v>       0.00462963</v>
   <v>       0.00462963</v>
   <v>       0.00462963</v>
   <v>       0.00462963</v>
   <v>       0.00231481</v>
   <v>       0.00231481</v>
   <v>       0.00462963</v>
   <v>       0.00462963</v>
   <v>       0.00462963</v>
   <v>       0.00462963</v>
   <v>       0.00462963</v>
   <v>       0.00231481</v>
   <v>       0.00231481</v>
   <v>       0.00462963</v>
   <v>       0.00462963</v>
   <v>       0.00462963</v>
   <v>       0.00462963</v>
   <v>       0.00462963</v>
   <v>       0.00231481</v>
   <v>       0.00231481</v>
   <v>       0.00462963</v>
   <v>       0.00462963</v>
   <v>       0.00462963</v>
   <v>       0.00462963</v>
   <v>       0.00462963</v>
   <v>       0.00231481</v>
   <v>       0.00231481</v>
   <v>       0.00462963</v>
   <v>       0.00462963</v>
   <v>       0.00462963</v>
   <v>       0.00462963</v>
   <v>       0.00462963</v>
   <v>       0.00231481</v>
   <v>       0.00115741</v>
   <v>       0.00231481</v>
   <v>       0.00231481</v>
   <v>       0.00231481</v>
   <v>       0.00231481</v>
   <v>       0.00231481</v>
   <v>       0.00115741</v>
   <v>       0.00231481</v>
   <v>       0.00462963</v>
   <v>       0.00462963</v>
   <v>       0.00462963</v>
   <v>       0.00462963</v>
   <v>       0.00462963</v>
   <v>       0.00231481</v>
   <v>       0.00462963</v>
   <v>       0.00925926</v>
   <v>       0.00925926</v>
   <v>       0.00925926</v>
   <v>       0.00925926</v>
   <v>       0.00925926</v>
   <v>       0.00462963</v>
   <v>       0.00462963</v>
   <v>       0.00925926</v>
   <v>       0.00925926</v>
   <v>       0.00925926</v>
   <v>       0.00925926</v>
   <v>       0.00925926</v>
   <v>       0.00462963</v>
   <v>       0.00462963</v>
   <v>       0.00925926</v>
   <v>       0.00925926</v>
   <v>       0.00925926</v>
   <v>       0.00925926</v>
   <v>       0.00925926</v>
   <v>       0.00462963</v>
   <v>       0.00462963</v>
   <v>       0.00925926</v>
   <v>       0.00925926</v>
   <v>       0.00925926</v>
   <v>       0.00925926</v>
   <v>       0.00925926</v>
   <v>       0.00462963</v>
   <v>       0.00231481</v>
   <v>       0.00462963</v>
   <v>       0.00462963</v>
   <v>       0.00462963</v>
   <v>       0.00462963</v>
   <v>       0.00462963</v>
   <v>       0.00231481</v>
   <v>       0.00231481</v>
   <v>       0.00462963</v>
   <v>       0.00462963</v>
   <v>       0.00462963</v>
   <v>       0.00462963</v>
   <v>       0.00462963</v>
   <v>       0.00231481</v>
   <v>       0.00462963</v>
   <v>       0.00925926</v>
   <v>       0.00925926</v>
   <v>       0.00925926</v>
   <v>       0.00925926</v>
   <v>       0.00925926</v>
   <v>       0.00462963</v>
   <v>       0.00462963</v>
   <v>       0.00925926</v>
   <v>       0.00925926</v>
   <v>       0.00925926</v>
   <v>       0.00925926</v>
   <v>       0.00925926</v>
   <v>       0.00462963</v>
   <v>       0.00462963</v>
   <v>       0.00925926</v>
   <v>       0.00925926</v>
   <v>       0.00925926</v>
   <v>       0.00925926</v>
   <v>       0.00925926</v>
   <v>       0.00462963</v>
   <v>       0.00231481</v>
   <v>       0.00462963</v>
   <v>       0.00462963</v>
   <v>       0.00462963</v>
   <v>       0.00462963</v>
   <v>       0.00462963</v>
   <v>       0.00231481</v>
   <v>       0.00231481</v>
   <v>       0.00462963</v>
   <v>       0.00462963</v>
   <v>       0.00462963</v>
   <v>       0.00462963</v>
   <v>       0.00462963</v>
   <v>       0.00231481</v>
   <v>       0.00462963</v>
   <v>       0.00925926</v>
   <v>       0.00925926</v>
   <v>       0.00925926</v>
   <v>       0.00925926</v>
   <v>       0.00925926</v>
   <v>       0.00462963</v>
   <v>       0.00462963</v>
   <v>       0.00925926</v>
   <v>       0.00925926</v>
   <v>       0.00925926</v>
   <v>       0.00925926</v>
   <v>       0.00925926</v>
   <v>       0.00462963</v>
   <v>       0.00231481</v>
   <v>       0.00462963</v>
   <v>       0.00462963</v>
   <v>       0.00462963</v>
   <v>       0.00462963</v>
   <v>       0.00462963</v>
   <v>       0.00231481</v>
   <v>       0.00231481</v>
   <v>       0.00462963</v>
   <v>       0.00462963</v>
   <v>       0.00462963</v>
   <v>       0.00462963</v>
   <v>       0.00462963</v>
   <v>       0.00231481</v>
   <v>       0.00462963</v>
   <v>       0.00925926</v>
   <v>       0.00925926</v>
   <v>       0.00925926</v>
   <v>       0.00925926</v>
   <v>       0.00925926</v>
   <v>       0.00462963</v>
   <v>       0.00231481</v>
   <v>       0.00462963</v>
   <v>       0.00462963</v>
   <v>       0.00462963</v>
   <v>       0.00462963</v>
   <v>       0.00462963</v>
   <v>       0.00231481</v>
   <v>       0.00231481</v>
   <v>       0.00462963</v>
   <v>       0.00462963</v>
   <v>       0.00462963</v>
   <v>       0.00462963</v>
   <v>       0.00462963</v>
   <v>       0.00231481</v>
   <v>       0.00231481</v>
   <v>       0.00462963</v>
   <v>       0.00462963</v>
   <v>       0.00462963</v>
   <v>       0.00462963</v>
   <v>       0.00462963</v>
   <v>       0.00231481</v>
   <v>       0.00057870</v>
   <v>       0.00115741</v>
   <v>       0.00115741</v>
   <v>       0.00115741</v>
   <v>       0.00115741</v>
   <v>       0.00115741</v>
   <v>       0.00057870</v>
  </varray>
 </kpoints>
 <parameters>
  <separator name="general" >
   <i type="string" name="SYSTEM">unknown system</i>
   <i type="logical" name="LCOMPAT"> F  </i>
  </separator>
  <separator name="electronic" >
   <i type="string" name="PREC">accura</i>
   <i name="ENMAX">    750.00000000</i>
   <i name="ENAUG">    412.49600000</i>
   <i name="EDIFF">      0.00000001</i>
   <i type="int" name="IALGO">    38</i>
   <i type="int" name="IWAVPR">    10</i>
   <i type="int" name="NBANDS">   211</i>
   <i name="NELECT">    352.00000000</i>
   <separator name="electronic smearing" >
    <i type="int" name="ISMEAR">     0</i>
    <i name="SIGMA">      0.01000000</i>
   </separator>
   <separator name="electronic projectors" >
    <i type="logical" name="LREAL"> F  </i>
    <v name="ROPT">      0.00000000</v>
    <i type="int" name="LMAXPAW">  -100</i>
    <i type="int" name="LMAXMIX">     2</i>
   </separator>
   <separator name="electronic startup" >
    <i type="int" name="ISTART">     0</i>
    <i type="int" name="ICHARG">     2</i>
    <i type="int" name="INIWAV">     1</i>
   </separator>
   <separator name="electronic spin" >
    <i type="int" name="ISPIN">     1</i>
    <i type="logical" name="LNONCOLLINEAR"> F  </i>
    <v name="MAGMOM">      1.00000000      1.00000000      1.00000000      1.00000000      1.00000000      1.00000000      1.00000000      1.00000000      1.00000000      1.00000000      1.00000000      1.00000000      1.00000000      1.00000000      1.00000000      1.00000000      1.00000000      1.00000000      1.00000000      1.00000000
      1.00000000      1.00000000      1.00000000      1.00000000      1.00000000      1.00000000      1.00000000      1.00000000      1.00000000      1.00000000      1.00000000      1.00000000</v>
    <i name="NUPDOWN">     -1.00000000</i>
    <i type="logical" name="LSORBIT"> F  </i>
    <v name="SAXIS">      0.00000000      0.00000000      1.00000000</v>
    <i type="logical" name="LSPIRAL"> F  </i>
    <v name="QSPIRAL">      0.00000000      0.00000000      0.00000000</v>
    <i type="logical" name="LZEROZ"> F  </i>
   </separator>
   <separator name="electronic exchange-correlation" >
    <i type="string" name="GGA">--</i>
    <i type="int" name="VOSKOWN">     0</i>
    <i type="logical" name="LASPH"> F  </i>
    <i type="logical" name="LMETAGGA"> F  </i>
    <i type="string" name="GGA2">--</i>
   </separator>
   <separator name="electronic convergence" >
    <i type="int" name="NELM">    60</i>
    <i type="int" name="NELMDL">     0</i>
    <i type="int" name="NELMIN">     2</i>
    <i name="ENINI">    750.00000000</i>
    <separator name="electronic convergence detail" >
     <i type="logical" name="LDIAG"> T  </i>
     <i name="WEIMIN">      0.00000000</i>
     <i name="EBREAK">      0.00000000</i>
     <i name="DEPER">      0.30000000</i>
     <i type="int" name="NRMM">     4</i>
     <i name="TIME">      0.10000000</i>
    </separator>
   </separator>
   <separator name="electronic mixer" >
    <i name="AMIX">      0.40000000</i>
    <i name="BMIX">      1.00000000</i>
    <i name="AMIN">      0.10000000</i>
    <i name="AMIX_MAG">      1.60000000</i>
    <i name="BMIX_MAG">      1.00000000</i>
    <separator name="electronic mixer details" >
     <i type="int" name="IMIX">     4</i>
     <i type="int" name="MAXMIX">   -45</i>
     <i name="WC">    100.00000000</i>
     <i type="int" name="INIMIX">     1</i>
     <i type="int" name="MIXPRE">     1</i>
     <i type="int" name="MREMOVE">     5</i>
    </separator>
   </separator>
   <separator name="electronic dipolcorrection" >
    <i type="int" name="IDIPOL">     0</i>
    <i type="logical" name="LDIPOL"> F  </i>
    <v name="DIPOL">   -100.00000000</v>
    <i name="EFIELD">      0.00000000</i>
   </separator>
  </separator>
  <separator name="grids" >
   <i type="int" name="NGX">    80</i>
   <i type="int" name="NGY">    80</i>
   <i type="int" name="NGZ">    80</i>
   <i type="int" name="NGXF">   160</i>
   <i type="int" name="NGYF">   160</i>
   <i type="int" name="NGZF">   160</i>
   <i type="logical" name="ADDGRID"> T  </i>
  </separator>
  <separator name="ionic" >
   <i type="int" name="NSW">     0</i>
   <i type="int" name="IBRION">    -1</i>
   <i type="int" name="ISIF">     2</i>
   <i name="PSTRESS">      0.00000000</i>
   <i name="EDIFFG">      0.00000010</i>
   <i type="int" name="NFREE">     0</i>
   <i name="POTIM">      0.50000000</i>
   <i name="SMASS">     -3.00000000</i>
  </separator>
  <separator name="ionic md" >
   <i name="TEBEG">      0.00010000</i>
   <i name="TEEND">      0.00010000</i>
   <i type="int" name="NBLOCK">     1</i>
   <i type="int" name="KBLOCK">     1</i>
   <i type="int" name="NPACO">   256</i>
   <i name="APACO">     16.00000000</i>
  </separator>
  <separator name="symmetry" >
   <i type="int" name="ISYM">     2</i>
   <i name="SYMPREC">      0.00001000</i>
  </separator>
  <separator name="dos" >
   <i type="logical" name="LORBIT"> F  </i>
   <v name="RWIGS">     -1.00000000</v>
   <i type="int" name="NEDOS">   301</i>
   <i name="EMIN">     10.00000000</i>
   <i name="EMAX">    -10.00000000</i>
  </separator>
  <separator name="writing" >
   <i type="int" name="NWRITE">     2</i>
   <i type="logical" name="LWAVE"> F  </i>
   <i type="logical" name="LCHARG"> F  </i>
   <i type="logical" name="LPARD"> F  </i>
   <i type="logical" name="LVTOT"> F  </i>
   <i type="logical" name="LELF"> F  </i>
   <i type="logical" name="LOPTICS"> F  </i>
   <i name="STM">      0.00000000</i>
  </separator>
  <separator name="performance" >
   <i type="int" name="NPAR">     4</i>
   <i type="int" name="NSIM">     4</i>
   <i type="int" name="NBLK">   256</i>
   <i type="logical" name="LPLANE"> T  </i>
   <i type="logical" name="LCRITICAL_MEM"> F  </i>
   <i type="logical" name="LSCALAPACK"> F  </i>
   <i type="logical" name="LSCALU"> F  </i>
   <i type="logical" name="LASYNC"> F  </i>
  </separator>
  <separator name="miscellaneous" >
   <i type="int" name="IDIOT">     3</i>
   <i type="logical" name="LMUSIC"> F  </i>
   <v name="POMASS">    107.86800000</v>
   <i type="logical" name="LCORR"> T  </i>
  </separator>
  <i type="logical" name="LREAL_COMPAT"> F  </i>
  <i type="logical" name="GGA_COMPAT"> T  </i>
  <i type="logical" name="LBERRY"> F  </i>
  <i type="int" name="ICORELEVEL">     0</i>
  <i type="logical" name="LDAU"> F  </i>
  <i type="int" name="I_CONSTRAINED_M">     0</i>
 </parameters>
 <atominfo>
  <atoms>      32</atoms>
  <types>       1</types>
  <array name="atoms" >
   <dimension dim="1">ion</dimension>
   <field type="string">element</field>
   <field type="int">atomtype</field>
   <set>
    <rc><c>Ag</c><c>   1</c></rc>
    <rc><c>Ag</c><c>   1</c></rc>
    <rc><c>Ag</c><c>   1</c></rc>
    <rc><c>Ag</c><c>   1</c></rc>
    <rc><c>Ag</c><c>   1</c></rc>
    <rc><c>Ag</c><c>   1</c></rc>
    <rc><c>Ag</c><c>   1</c></rc>
    <rc><c>Ag</c><c>   1</c></rc>
    <rc><c>Ag</c><c>   1</c></rc>
    <rc><c>Ag</c><c>   1</c></rc>
    <rc><c>Ag</c><c>   1</c></rc>
    <rc><c>Ag</c><c>   1</c></rc>
    <rc><c>Ag</c><c>   1</c></rc>
    <rc><c>Ag</c><c>   1</c></rc>
    <rc><c>Ag</c><c>   1</c></rc>
    <rc><c>Ag</c><c>   1</c></rc>
    <rc><c>Ag</c><c>   1</c></rc>
    <rc><c>Ag</c><c>   1</c></rc>
    <rc><c>Ag</c><c>   1</c></rc>
    <rc><c>Ag</c><c>   1</c></rc>
    <rc><c>Ag</c><c>   1</c></rc>
    <rc><c>Ag</c><c>   1</c></rc>
    <rc><c>Ag</c><c>   1</c></rc>
    <rc><c>Ag</c><c>   1</c></rc>
    <rc><c>Ag</c><c>   1</c></rc>
    <rc><c>Ag</c><c>   1</c></rc>
    <rc><c>Ag</c><c>   1</c></rc>
    <rc><c>Ag</c><c>   1</c></rc>
    <rc><c>Ag</c><c>   1</c></rc>
    <rc><c>Ag</c><c>   1</c></rc>
    <rc><c>Ag</c><c>   1</c></rc>
    <rc><c>Ag</c><c>   1</c></rc>
   </set>
  </array>
  <array name="atomtypes" >
   <dimension dim="1">type</dimension>
   <field type="int">atomspertype</field>
   <field type="string">element</field>
   <field>mass</field>
   <field>valence</field>
   <field type="string">pseudopotential</field>
   <set>
    <rc><c>  32</c><c>Ag</c><c>    107.86800000</c><c>     11.00000000</c><c> PAW_PBE Ag 06Sep2000                   </c></rc>
   </set>
  </array>
 </atominfo>
 <structure name="initialpos" >
  <crystal>
   <varray name="basis" >
    <v>       8.65950755      0.00000000      0.00000000</v>
    <v>       0.00000000      8.65950755      0.00000000</v>
    <v>       0.00000000      0.00000000      8.65950755</v>
   </varray>
   <i name="volume">    649.35110660</i>
   <varray name="rec_basis" >
    <v>       0.11548001      0.00000000      0.00000000</v>
    <v>       0.00000000      0.11548001      0.00000000</v>
    <v>       0.00000000      0.00000000      0.11548001</v>
   </varray>
  </crystal>
  <varray name="positions" >
   <v>       0.00115480      0.00000000      0.00000000</v>
   <v>       0.50000000      0.00000000      0.00000000</v>
   <v>       0.00000000      0.50000000      0.00000000</v>
   <v>       0.50000000      0.50000000      0.00000000</v>
   <v>       0.00000000      0.00000000      0.50000000</v>
   <v>       0.50000000      0.00000000      0.50000000</v>
   <v>       0.00000000      0.50000000      0.50000000</v>
   <v>       0.50000000      0.50000000      0.50000000</v>
   <v>       0.25000000      0.25000000      0.00000000</v>
   <v>       0.75000000      0.25000000      0.00000000</v>
   <v>       0.25000000      0.75000000      0.00000000</v>
   <v>       0.75000000      0.75000000      0.00000000</v>
   <v>       0.25000000      0.25000000      0.50000000</v>
   <v>       0.75000000      0.25000000      0.50000000</v>
   <v>       0.25000000      0.75000000      0.50000000</v>
   <v>       0.75000000      0.75000000      0.50000000</v>
   <v>       0.25000000      0.00000000      0.25000000</v>
   <v>       0.75000000      0.00000000      0.25000000</v>
   <v>       0.25000000      0.50000000      0.25000000</v>
   <v>       0.75000000      0.50000000      0.25000000</v>
   <v>       0.25000000      0.00000000      0.75000000</v>
   <v>       0.75000000      0.00000000      0.75000000</v>
   <v>       0.25000000      0.50000000      0.75000000</v>
   <v>       0.75000000      0.50000000      0.75000000</v>
   <v>       0.00000000      0.25000000      0.25000000</v>
   <v>       0.50000000      0.25000000      0.25000000</v>
   <v>       0.00000000      0.75000000      0.25000000</v>
   <v>       0.50000000      0.75000000      0.25000000</v>
   <v>       0.00000000      0.25000000      0.75000000</v>
   <v>       0.50000000      0.25000000      0.75000000</v>
   <v>       0.00000000      0.75000000      0.75000000</v>
   <v>       0.50000000      0.75000000      0.75000000</v>
  </varray>
 </structure>
 <calculation>
  <scstep>
   <time name="dav"> 3592.75 3601.00</time>
   <time name="total"> 3594.20 3602.46</time>
   <energy>
    <i name="alphaZ">   2800.32745220</i>
    <i name="ewald"> -29520.53997516</i>
    <i name="hartreedc">  -7354.79447440</i>
    <i name="XCdc">   -356.22539392</i>
    <i name="pawpsdc">  27861.41421209</i>
    <i name="pawaedc"> -26376.63839568</i>
    <i name="eentropy">     -0.00055561</i>
    <i name="bandstr">   3835.21840774</i>
    <i name="atom">  33197.19690173</i>
    <i name="e_fr_energy">   4085.95817899</i>
    <i name="e_wo_entrp">   4085.95873460</i>
    <i name="e_0_energy">   4085.95845679</i>
   </energy>
  </scstep>
  <scstep>
   <time name="dav"> 3618.66 3625.21</time>
   <time name="total"> 3618.87 3625.43</time>
   <energy>
    <i name="e_fr_energy">    115.00757207</i>
    <i name="e_wo_entrp">    115.00800229</i>
    <i name="e_0_energy">    115.00778718</i>
   </energy>
  </scstep>
  <scstep>
   <time name="dav"> 3784.87 3792.55</time>
   <time name="total"> 3785.07 3792.84</time>
   <energy>
    <i name="e_fr_energy">    -89.98750656</i>
    <i name="e_wo_entrp">    -89.98693833</i>
    <i name="e_0_energy">    -89.98722245</i>
   </energy>
  </scstep>
  <scstep>
   <time name="dav"> 4361.26 4776.34</time>
   <time name="total"> 4361.75 4783.80</time>
   <energy>
    <i name="e_fr_energy">    -94.40853358</i>
    <i name="e_wo_entrp">    -94.40788452</i>
    <i name="e_0_energy">    -94.40820905</i>
   </energy>
  </scstep>
  <scstep>
   <time name="dav"> 3809.91 3902.23</time>
   <time name="total"> 3951.67 4067.39</time>
   <energy>
    <i name="e_fr_energy">    -94.44091383</i>
    <i name="e_wo_entrp">    -94.44026413</i>
    <i name="e_0_energy">    -94.44058898</i>
   </energy>
  </scstep>
  <scstep>
   <time name="dav"> 3523.33 3541.49</time>
   <time name="total"> 3654.87 3678.38</time>
   <energy>
    <i name="e_fr_energy">    -88.72022452</i>
    <i name="e_wo_entrp">    -88.71971175</i>
    <i name="e_0_energy">    -88.71996813</i>
   </energy>
  </scstep>
  <scstep>
   <time name="dav"> 2946.65 2955.87</time>
   <time name="total"> 3060.45 3073.25</time>
   <energy>
    <i name="e_fr_energy">    -88.63333322</i>
    <i name="e_wo_entrp">    -88.63284279</i>
    <i name="e_0_energy">    -88.63308801</i>
   </energy>
  </scstep>
  <scstep>
   <time name="dav"> 3291.84 3301.74</time>
   <time name="total"> 3424.45 3437.19</time>
   <energy>
    <i name="e_fr_energy">    -88.58459570</i>
    <i name="e_wo_entrp">    -88.58411624</i>
    <i name="e_0_energy">    -88.58435597</i>
   </energy>
  </scstep>
  <scstep>
   <time name="dav"> 3686.93 3694.75</time>
   <time name="total"> 3821.72 3831.78</time>
   <energy>
    <i name="e_fr_energy">    -88.58548468</i>
    <i name="e_wo_entrp">    -88.58501090</i>
    <i name="e_0_energy">    -88.58524779</i>
   </energy>
  </scstep>
  <scstep>
   <time name="dav"> 3709.08 3716.06</time>
   <time name="total"> 3844.24 3855.01</time>
   <energy>
    <i name="e_fr_energy">    -88.58546718</i>
    <i name="e_wo_entrp">    -88.58498868</i>
    <i name="e_0_energy">    -88.58522793</i>
   </energy>
  </scstep>
  <scstep>
   <time name="dav"> 3761.01 3772.75</time>
   <time name="total"> 3895.79 3909.75</time>
   <energy>
    <i name="e_fr_energy">    -88.58546508</i>
    <i name="e_wo_entrp">    -88.58498588</i>
    <i name="e_0_energy">    -88.58522548</i>
   </energy>
  </scstep>
  <scstep>
   <time name="dav"> 3721.41 3728.68</time>
   <time name="total"> 3856.76 3866.24</time>
   <energy>
    <i name="e_fr_energy">    -88.58546202</i>
    <i name="e_wo_entrp">    -88.58498260</i>
    <i name="e_0_energy">    -88.58522231</i>
   </energy>
  </scstep>
  <scstep>
   <time name="dav"> 3380.56 3387.92</time>
   <time name="total"> 3515.91 3524.72</time>
   <energy>
    <i name="e_fr_energy">    -88.58546014</i>
    <i name="e_wo_entrp">    -88.58498071</i>
    <i name="e_0_energy">    -88.58522043</i>
   </energy>
  </scstep>
  <scstep>
   <time name="dav"> 2385.52 2390.58</time>
   <time name="total"> 2514.10 2519.61</time>
   <energy>
    <i name="e_fr_energy">    -88.58546011</i>
    <i name="e_wo_entrp">    -88.58498068</i>
    <i name="e_0_energy">    -88.58522040</i>
   </energy>
  </scstep>
  <scstep>
   <time name="dav"> 2342.39 2346.68</time>
   <time name="total"> 2474.42 2479.94</time>
   <energy>
    <i name="e_fr_energy">    -88.58546014</i>
    <i name="e_wo_entrp">    -88.58498071</i>
    <i name="e_0_energy">    -88.58522042</i>
   </energy>
  </scstep>
  <scstep>
   <time name="dav"> 2045.76 2059.25</time>
   <time name="total"> 2048.28 2061.95</time>
   <energy>
    <i name="alphaZ">   2800.32745220</i>
    <i name="ewald"> -29520.53997516</i>
    <i name="hartreedc">  -7009.03105732</i>
    <i name="XCdc">   -369.18812510</i>
    <i name="pawpsdc">  27557.27064349</i>
    <i name="pawaedc"> -26122.47111422</i>
    <i name="eentropy">     -0.00047943</i>
    <i name="bandstr">   -622.14970633</i>
    <i name="atom">  33197.19690173</i>
    <i name="e_fr_energy">    -88.58546014</i>
    <i name="e_wo_entrp">    -88.58498071</i>
    <i name="e_0_energy">    -88.58522043</i>
   </energy>
  </scstep>
  <structure>
   <crystal>
    <varray name="basis" >
     <v>       8.65950755      0.00000000      0.00000000</v>
     <v>       0.00000000      8.65950755      0.00000000</v>
     <v>       0.00000000      0.00000000      8.65950755</v>
    </varray>
    <i name="volume">    649.35110660</i>
    <varray name="rec_basis" >
     <v>       0.11548001      0.00000000      0.00000000</v>
     <v>       0.00000000      0.11548001      0.00000000</v>
     <v>       0.00000000      0.00000000      0.11548001</v>
    </varray>
   </crystal>
   <varray name="positions" >
    <v>       0.00115480      0.00000000      0.00000000</v>
    <v>       0.50000000      0.00000000      0.00000000</v>
    <v>       0.00000000      0.50000000      0.00000000</v>
    <v>       0.50000000      0.50000000      0.00000000</v>
    <v>       0.00000000      0.00000000      0.50000000</v>
    <v>       0.50000000      0.00000000      0.50000000</v>
    <v>       0.00000000      0.50000000      0.50000000</v>
    <v>       0.50000000      0.50000000      0.50000000</v>
    <v>       0.25000000      0.25000000      0.00000000</v>
    <v>       0.75000000      0.25000000      0.00000000</v>
    <v>       0.25000000      0.75000000      0.00000000</v>
    <v>       0.75000000      0.75000000      0.00000000</v>
    <v>       0.25000000      0.25000000      0.50000000</v>
    <v>       0.75000000      0.25000000      0.50000000</v>
    <v>       0.25000000      0.75000000      0.50000000</v>
    <v>       0.75000000      0.75000000      0.50000000</v>
    <v>       0.25000000      0.00000000      0.25000000</v>
    <v>       0.75000000      0.00000000      0.25000000</v>
    <v>       0.25000000      0.50000000      0.25000000</v>
    <v>       0.75000000      0.50000000      0.25000000</v>
    <v>       0.25000000      0.00000000      0.75000000</v>
    <v>       0.75000000      0.00000000      0.75000000</v>
    <v>       0.25000000      0.50000000      0.75000000</v>
    <v>       0.75000000      0.50000000      0.75000000</v>
    <v>       0.00000000      0.25000000      0.25000000</v>
    <v>       0.50000000      0.25000000      0.25000000</v>
    <v>       0.00000000      0.75000000      0.25000000</v>
    <v>       0.50000000      0.75000000      0.25000000</v>
    <v>       0.00000000      0.25000000      0.75000000</v>
    <v>       0.50000000      0.25000000      0.75000000</v>
    <v>       0.00000000      0.75000000      0.75000000</v>
    <v>       0.50000000      0.75000000      0.75000000</v>
   </varray>
  </structure>
  <varray name="forces" >
   <v>      -0.02214142     -0.00000000      0.00000000</v>
   <v>       0.00100840     -0.00000000     -0.00000000</v>
   <v>      -0.00027172      0.00000000      0.00000000</v>
   <v>      -0.00045216      0.00000000      0.00000000</v>
   <v>      -0.00027172     -0.00000000      0.00000000</v>
   <v>      -0.00045216      0.00000000      0.00000000</v>
   <v>       0.00004318      0.00000000      0.00000000</v>
   <v>      -0.00008042      0.00000000     -0.00000000</v>
   <v>       0.00262113      0.00308004     -0.00000000</v>
   <v>       0.00250673     -0.00293361      0.00000000</v>
   <v>       0.00262113     -0.00308004     -0.00000000</v>
   <v>       0.00250673      0.00293361      0.00000000</v>
   <v>       0.00020281      0.00004903     -0.00000000</v>
   <v>       0.00020186     -0.00004839     -0.00000000</v>
   <v>       0.00020281     -0.00004903     -0.00000000</v>
   <v>       0.00020186      0.00004839      0.00000000</v>
   <v>       0.00262113     -0.00000000      0.00308004</v>
   <v>       0.00250673      0.00000000     -0.00293361</v>
   <v>       0.00020281     -0.00000000      0.00004903</v>
   <v>       0.00020186     -0.00000000     -0.00004839</v>
   <v>       0.00262113      0.00000000     -0.00308004</v>
   <v>       0.00250673      0.00000000      0.00293361</v>
   <v>       0.00020281     -0.00000000     -0.00004903</v>
   <v>       0.00020186     -0.00000000      0.00004839</v>
   <v>      -0.00044348     -0.00000246     -0.00000246</v>
   <v>       0.00056545      0.00000186      0.00000186</v>
   <v>      -0.00044348      0.00000246     -0.00000246</v>
   <v>       0.00056545     -0.00000186      0.00000186</v>
   <v>      -0.00044348     -0.00000246      0.00000246</v>
   <v>       0.00056545      0.00000186     -0.00000186</v>
   <v>      -0.00044348      0.00000246      0.00000246</v>
   <v>       0.00056545     -0.00000186     -0.00000186</v>
  </varray>
  <varray name="stress" >
   <v>     -74.06437975     -0.00000000      0.00000000</v>
   <v>       0.00000000    -74.06462354      0.00000000</v>
   <v>       0.00000000      0.00000000    -74.06462354</v>
  </varray>
  <energy>
   <i name="e_fr_energy">    -88.58546014</i>
   <i name="e_wo_entrp">    -88.58522043</i>
   <i name="e_0_energy">     -0.00047943</i>
  </energy>
  <eigenvalues>
   <array>
    <dimension dim="1">band</dimension>
    <dimension dim="2">kpoint</dimension>
    <dimension dim="3">spin</dimension>
    <field>eigene</field>
    <field>occ</field>
    <set>
     <set comment="spin 1">
      <set comment="kpoint 1">
       <r>  -4.4662  1.0000</r>
       <r>  -3.3495  1.0000</r>
       <r>  -3.3494  1.0000</r>
       <r>  -3.3494  1.0000</r>
       <r>  -3.3350  1.0000</r>
       <r>  -3.3350  1.0000</r>
       <r>  -3.3350  1.0000</r>
       <r>  -3.3350  1.0000</r>
       <r>  -3.2680  1.0000</r>
       <r>  -3.2680  1.0000</r>
       <r>  -3.2680  1.0000</r>
       <r>  -2.9547  1.0000</r>
       <r>  -2.9532  1.0000</r>
       <r>  -2.9532  1.0000</r>
       <r>  -2.9532  1.0000</r>
       <r>  -2.9532  1.0000</r>
       <r>  -2.9518  1.0000</r>
       <r>  -2.7764  1.0000</r>
       <r>  -2.7751  1.0000</r>
       <r>  -2.7751  1.0000</r>
       <r>  -2.7751  1.0000</r>
       <r>  -2.7751  1.0000</r>
       <r>  -2.7738  1.0000</r>
       <r>  -2.7427  1.0000</r>
       <r>  -2.7414  1.0000</r>
       <r>  -2.7414  1.0000</r>
       <r>  -2.7414  1.0000</r>
       <r>  -2.7414  1.0000</r>
       <r>  -2.7402  1.0000</r>
       <r>  -2.5408  1.0000</r>
       <r>  -2.5408  1.0000</r>
       <r>  -2.5405  1.0000</r>
       <r>  -2.5400  1.0000</r>
       <r>  -2.5397  1.0000</r>
       <r>  -2.5397  1.0000</r>
       <r>  -2.5397  1.0000</r>
       <r>  -2.5397  1.0000</r>
       <r>  -2.5394  1.0000</r>
       <r>  -2.5388  1.0000</r>
       <r>  -2.5386  1.0000</r>
       <r>  -2.5386  1.0000</r>
       <r>  -2.3827  1.0000</r>
       <r>  -2.3811  1.0000</r>
       <r>  -2.3811  1.0000</r>
       <r>  -2.3804  1.0000</r>
       <r>  -2.3804  1.0000</r>
       <r>  -2.3804  1.0000</r>
       <r>  -2.3804  1.0000</r>
       <r>  -2.3804  1.0000</r>
       <r>  -2.3803  1.0000</r>
       <r>  -2.3797  1.0000</r>
       <r>  -2.3797  1.0000</r>
       <r>  -2.3782  1.0000</r>
       <r>  -2.3347  1.0000</r>
       <r>  -2.3347  1.0000</r>
       <r>  -2.3333  1.0000</r>
       <r>  -2.3333  1.0000</r>
       <r>  -2.3333  1.0000</r>
       <r>  -2.3333  1.0000</r>
       <r>  -2.3333  1.0000</r>
       <r>  -2.3332  1.0000</r>
       <r>  -2.3332  1.0000</r>
       <r>  -2.3332  1.0000</r>
       <r>  -2.3318  1.0000</r>
       <r>  -2.3318  1.0000</r>
       <r>  -2.1773  1.0000</r>
       <r>  -2.1773  1.0000</r>
       <r>  -2.1773  1.0000</r>
       <r>  -2.1773  1.0000</r>
       <r>  -2.1773  1.0000</r>
       <r>  -2.1773  1.0000</r>
       <r>  -2.1773  1.0000</r>
       <r>  -2.1773  1.0000</r>
       <r>  -2.1666  1.0000</r>
       <r>  -2.1666  1.0000</r>
       <r>  -2.1666  1.0000</r>
       <r>  -2.0269  1.0000</r>
       <r>  -2.0253  1.0000</r>
       <r>  -2.0251  1.0000</r>
       <r>  -2.0251  1.0000</r>
       <r>  -2.0249  1.0000</r>
       <r>  -2.0249  1.0000</r>
       <r>  -2.0249  1.0000</r>
       <r>  -2.0249  1.0000</r>
       <r>  -2.0248  1.0000</r>
       <r>  -2.0248  1.0000</r>
       <r>  -2.0245  1.0000</r>
       <r>  -2.0230  1.0000</r>
       <r>  -1.6725  1.0000</r>
       <r>  -1.6721  1.0000</r>
       <r>  -1.6714  1.0000</r>
       <r>  -1.6714  1.0000</r>
       <r>  -1.6711  1.0000</r>
       <r>  -1.6711  1.0000</r>
       <r>  -1.6711  1.0000</r>
       <r>  -1.6710  1.0000</r>
       <r>  -1.6707  1.0000</r>
       <r>  -1.6707  1.0000</r>
       <r>  -1.6700  1.0000</r>
       <r>  -1.6696  1.0000</r>
       <r>  -1.5159  1.0000</r>
       <r>  -1.5159  1.0000</r>
       <r>  -1.5144  1.0000</r>
       <r>  -1.5144  1.0000</r>
       <r>  -1.5143  1.0000</r>
       <r>  -1.5143  1.0000</r>
       <r>  -1.5143  1.0000</r>
       <r>  -1.5143  1.0000</r>
       <r>  -1.5142  1.0000</r>
       <r>  -1.5142  1.0000</r>
       <r>  -1.5128  1.0000</r>
       <r>  -1.5128  1.0000</r>
       <r>  -1.4096  1.0000</r>
       <r>  -1.4096  1.0000</r>
       <r>  -1.3926  1.0000</r>
       <r>  -1.3926  1.0000</r>
       <r>  -1.3911  1.0000</r>
       <r>  -1.3909  1.0000</r>
       <r>  -1.3908  1.0000</r>
       <r>  -1.3908  1.0000</r>
       <r>  -1.3908  1.0000</r>
       <r>  -1.3908  1.0000</r>
       <r>  -1.3908  1.0000</r>
       <r>  -1.3905  1.0000</r>
       <r>  -1.3892  1.0000</r>
       <r>  -1.3892  1.0000</r>
       <r>  -1.3823  1.0000</r>
       <r>  -1.3815  1.0000</r>
       <r>  -1.3815  1.0000</r>
       <r>  -1.3814  1.0000</r>
       <r>  -1.3814  1.0000</r>
       <r>  -1.3805  1.0000</r>
       <r>  -1.2494  1.0000</r>
       <r>  -1.2479  1.0000</r>
       <r>  -1.2479  1.0000</r>
       <r>  -1.2479  1.0000</r>
       <r>  -1.2479  1.0000</r>
       <r>  -1.2464  1.0000</r>
       <r>  -1.1360  1.0000</r>
       <r>  -1.1353  1.0000</r>
       <r>  -1.1353  1.0000</r>
       <r>  -1.1353  1.0000</r>
       <r>  -1.1353  1.0000</r>
       <r>  -1.1346  1.0000</r>
       <r>  -0.8496  1.0000</r>
       <r>  -0.8496  1.0000</r>
       <r>  -0.8496  1.0000</r>
       <r>  -0.8241  1.0000</r>
       <r>  -0.8241  1.0000</r>
       <r>  -0.8241  1.0000</r>
       <r>  -0.8241  1.0000</r>
       <r>  -0.8241  1.0000</r>
       <r>  -0.8241  1.0000</r>
       <r>  -0.8241  1.0000</r>
       <r>  -0.8241  1.0000</r>
       <r>  -0.6728  1.0000</r>
       <r>  -0.6725  1.0000</r>
       <r>  -0.6725  1.0000</r>
       <r>  -0.6725  1.0000</r>
       <r>  -0.6725  1.0000</r>
       <r>  -0.6725  1.0000</r>
       <r>  -0.6719  1.0000</r>
       <r>  -0.6719  1.0000</r>
       <r>  -0.6719  1.0000</r>
       <r>  -0.6719  1.0000</r>
       <r>  -0.6718  1.0000</r>
       <r>  -0.6716  1.0000</r>
       <r>   1.4657  1.0000</r>
       <r>   1.4668  1.0000</r>
       <r>   1.4668  1.0000</r>
       <r>   1.4677  1.0000</r>
       <r>   1.4680  1.0000</r>
       <r>   1.4680  1.0000</r>
       <r>   1.4680  1.0000</r>
       <r>   1.4680  1.0000</r>
       <r>   1.4682  1.0000</r>
       <r>   1.4691  1.0000</r>
       <r>   1.4691  1.0000</r>
       <r>   1.4702  1.0000</r>
       <r>   2.1550  0.5784</r>
       <r>   2.1551  0.5782</r>
       <r>   2.1551  0.5780</r>
       <r>   2.1551  0.5780</r>
       <r>   3.8809  0.0000</r>
       <r>   3.8809  0.0000</r>
       <r>   3.8809  0.0000</r>
       <r>   4.8589  0.0000</r>
       <r>   4.8589  0.0000</r>
       <r>   4.8589  0.0000</r>
       <r>   4.8589  0.0000</r>
       <r>   7.4619  0.0000</r>
       <r>   7.4619  0.0000</r>
       <r>   7.4644  0.0000</r>
       <r>   7.4644  0.0000</r>
       <r>   7.4646  0.0000</r>
       <r>   7.4646  0.0000</r>
       <r>   7.4646  0.0000</r>
       <r>   7.4646  0.0000</r>
       <r>   7.4649  0.0000</r>
       <r>   7.4649  0.0000</r>
       <r>   7.4673  0.0000</r>
       <r>   7.4673  0.0000</r>
       <r>   7.6217  0.0000</r>
       <r>   7.6217  0.0000</r>
       <r>   7.6217  0.0000</r>
       <r>   8.0213  0.0000</r>
       <r>   8.0213  0.0000</r>
       <r>   8.0214  0.0000</r>
       <r>   8.0214  0.0000</r>
       <r>   8.0214  0.0000</r>
       <r>   8.0214  0.0000</r>
       <r>   9.4020  0.0000</r>
      </set>
      <set comment="kpoint 2">
       <r>  -4.4503  1.0000</r>
       <r>  -3.3436  1.0000</r>
       <r>  -3.3419  1.0000</r>
       <r>  -3.3419  1.0000</r>
       <r>  -3.3279  1.0000</r>
       <r>  -3.3279  1.0000</r>
       <r>  -3.3279  1.0000</r>
       <r>  -3.3279  1.0000</r>
       <r>  -3.2637  1.0000</r>
       <r>  -3.2613  1.0000</r>
       <r>  -3.2613  1.0000</r>
       <r>  -3.0303  1.0000</r>
       <r>  -2.9435  1.0000</r>
       <r>  -2.9434  1.0000</r>
       <r>  -2.9434  1.0000</r>
       <r>  -2.9434  1.0000</r>
       <r>  -2.9307  1.0000</r>
       <r>  -2.8127  1.0000</r>
       <r>  -2.7889  1.0000</r>
       <r>  -2.7888  1.0000</r>
       <r>  -2.7697  1.0000</r>
       <r>  -2.7697  1.0000</r>
       <r>  -2.7697  1.0000</r>
       <r>  -2.7697  1.0000</r>
       <r>  -2.7376  1.0000</r>
       <r>  -2.7376  1.0000</r>
       <r>  -2.7376  1.0000</r>
       <r>  -2.7376  1.0000</r>
       <r>  -2.6693  1.0000</r>
       <r>  -2.5913  1.0000</r>
       <r>  -2.5913  1.0000</r>
       <r>  -2.5913  1.0000</r>
       <r>  -2.5913  1.0000</r>
       <r>  -2.5575  1.0000</r>
       <r>  -2.5575  1.0000</r>
       <r>  -2.5575  1.0000</r>
       <r>  -2.5575  1.0000</r>
       <r>  -2.5182  1.0000</r>
       <r>  -2.5182  1.0000</r>
       <r>  -2.5182  1.0000</r>
       <r>  -2.5182  1.0000</r>
       <r>  -2.4780  1.0000</r>
       <r>  -2.4780  1.0000</r>
       <r>  -2.4118  1.0000</r>
       <r>  -2.4117  1.0000</r>
       <r>  -2.4117  1.0000</r>
       <r>  -2.4117  1.0000</r>
       <r>  -2.3567  1.0000</r>
       <r>  -2.3557  1.0000</r>
       <r>  -2.3557  1.0000</r>
       <r>  -2.3557  1.0000</r>
       <r>  -2.3550  1.0000</r>
       <r>  -2.3550  1.0000</r>
       <r>  -2.3550  1.0000</r>
       <r>  -2.3540  1.0000</r>
       <r>  -2.3353  1.0000</r>
       <r>  -2.3353  1.0000</r>
       <r>  -2.3353  1.0000</r>
       <r>  -2.3353  1.0000</r>
       <r>  -2.3326  1.0000</r>
       <r>  -2.3326  1.0000</r>
       <r>  -2.3326  1.0000</r>
       <r>  -2.3325  1.0000</r>
       <r>  -2.1795  1.0000</r>
       <r>  -2.1795  1.0000</r>
       <r>  -2.1794  1.0000</r>
       <r>  -2.1794  1.0000</r>
       <r>  -2.1787  1.0000</r>
       <r>  -2.1787  1.0000</r>
       <r>  -2.1723  1.0000</r>
       <r>  -2.1723  1.0000</r>
       <r>  -2.1723  1.0000</r>
       <r>  -2.1723  1.0000</r>
       <r>  -2.1717  1.0000</r>
       <r>  -2.1616  1.0000</r>
       <r>  -2.1616  1.0000</r>
       <r>  -2.0608  1.0000</r>
       <r>  -2.0608  1.0000</r>
       <r>  -2.0608  1.0000</r>
       <r>  -2.0608  1.0000</r>
       <r>  -2.0365  1.0000</r>
       <r>  -2.0365  1.0000</r>
       <r>  -2.0365  1.0000</r>
       <r>  -2.0365  1.0000</r>
       <r>  -1.9890  1.0000</r>
       <r>  -1.9890  1.0000</r>
       <r>  -1.9890  1.0000</r>
       <r>  -1.9890  1.0000</r>
       <r>  -1.6950  1.0000</r>
       <r>  -1.6949  1.0000</r>
       <r>  -1.6949  1.0000</r>
       <r>  -1.6949  1.0000</r>
       <r>  -1.6623  1.0000</r>
       <r>  -1.6623  1.0000</r>
       <r>  -1.6622  1.0000</r>
       <r>  -1.6622  1.0000</r>
       <r>  -1.6378  1.0000</r>
       <r>  -1.6378  1.0000</r>
       <r>  -1.6378  1.0000</r>
       <r>  -1.6377  1.0000</r>
       <r>  -1.6081  1.0000</r>
       <r>  -1.6081  1.0000</r>
       <r>  -1.5762  1.0000</r>
       <r>  -1.5762  1.0000</r>
       <r>  -1.5762  1.0000</r>
       <r>  -1.5762  1.0000</r>
       <r>  -1.5147  1.0000</r>
       <r>  -1.5147  1.0000</r>
       <r>  -1.5147  1.0000</r>
       <r>  -1.5147  1.0000</r>
       <r>  -1.4539  1.0000</r>
       <r>  -1.4345  1.0000</r>
       <r>  -1.4345  1.0000</r>
       <r>  -1.4344  1.0000</r>
       <r>  -1.4344  1.0000</r>
       <r>  -1.4174  1.0000</r>
       <r>  -1.4174  1.0000</r>
       <r>  -1.4147  1.0000</r>
       <r>  -1.4073  1.0000</r>
       <r>  -1.3817  1.0000</r>
       <r>  -1.3816  1.0000</r>
       <r>  -1.3816  1.0000</r>
       <r>  -1.3815  1.0000</r>
       <r>  -1.3684  1.0000</r>
       <r>  -1.3684  1.0000</r>
       <r>  -1.3660  1.0000</r>
       <r>  -1.3659  1.0000</r>
       <r>  -1.3659  1.0000</r>
       <r>  -1.3658  1.0000</r>
       <r>  -1.3361  1.0000</r>
       <r>  -1.3361  1.0000</r>
       <r>  -1.3360  1.0000</r>
       <r>  -1.3360  1.0000</r>
       <r>  -1.1968  1.0000</r>
       <r>  -1.1968  1.0000</r>
       <r>  -1.1968  1.0000</r>
       <r>  -1.1968  1.0000</r>
       <r>  -1.1717  1.0000</r>
       <r>  -1.1193  1.0000</r>
       <r>  -1.1193  1.0000</r>
       <r>  -1.1193  1.0000</r>
       <r>  -1.1193  1.0000</r>
       <r>  -1.0987  1.0000</r>
       <r>  -0.9570  1.0000</r>
       <r>  -0.8564  1.0000</r>
       <r>  -0.8564  1.0000</r>
       <r>  -0.8521  1.0000</r>
       <r>  -0.8400  1.0000</r>
       <r>  -0.8400  1.0000</r>
       <r>  -0.8400  1.0000</r>
       <r>  -0.8400  1.0000</r>
       <r>  -0.8302  1.0000</r>
       <r>  -0.8302  1.0000</r>
       <r>  -0.8302  1.0000</r>
       <r>  -0.8302  1.0000</r>
       <r>  -0.6955  1.0000</r>
       <r>  -0.6955  1.0000</r>
       <r>  -0.6811  1.0000</r>
       <r>  -0.6811  1.0000</r>
       <r>  -0.6811  1.0000</r>
       <r>  -0.6811  1.0000</r>
       <r>  -0.6809  1.0000</r>
       <r>  -0.6809  1.0000</r>
       <r>  -0.6728  1.0000</r>
       <r>  -0.6725  1.0000</r>
       <r>  -0.6719  1.0000</r>
       <r>  -0.6716  1.0000</r>
       <r>   1.1213  1.0000</r>
       <r>   1.1213  1.0000</r>
       <r>   1.1213  1.0000</r>
       <r>   1.1213  1.0000</r>
       <r>   1.4738  1.0000</r>
       <r>   1.4738  1.0000</r>
       <r>   1.4738  1.0000</r>
       <r>   1.4738  1.0000</r>
       <r>   1.8443  1.0000</r>
       <r>   1.8443  1.0000</r>
       <r>   1.8443  1.0000</r>
       <r>   1.8443  1.0000</r>
       <r>   2.1298  0.9999</r>
       <r>   2.1298  0.9999</r>
       <r>   2.1298  0.9999</r>
       <r>   2.1298  0.9999</r>
       <r>   3.7428  0.0000</r>
       <r>   3.9178  0.0000</r>
       <r>   3.9178  0.0000</r>
       <r>   4.9241  0.0000</r>
       <r>   4.9241  0.0000</r>
       <r>   4.9241  0.0000</r>
       <r>   4.9241  0.0000</r>
       <r>   7.0148  0.0000</r>
       <r>   7.0148  0.0000</r>
       <r>   7.1037  0.0000</r>
       <r>   7.1037  0.0000</r>
       <r>   7.1038  0.0000</r>
       <r>   7.1038  0.0000</r>
       <r>   7.4884  0.0000</r>
       <r>   7.4884  0.0000</r>
       <r>   7.4884  0.0000</r>
       <r>   7.4884  0.0000</r>
       <r>   7.6253  0.0000</r>
       <r>   7.6253  0.0000</r>
       <r>   7.7864  0.0000</r>
       <r>   7.9247  0.0000</r>
       <r>   7.9247  0.0000</r>
       <r>   8.0069  0.0000</r>
       <r>   8.0069  0.0000</r>
       <r>   8.2572  0.0000</r>
       <r>   8.2572  0.0000</r>
       <r>   8.2572  0.0000</r>
       <r>   8.2572  0.0000</r>
       <r>   9.4430  0.0000</r>
      </set>
      <set comment="kpoint 3">
       <r>  -4.4028  1.0000</r>
       <r>  -3.3263  1.0000</r>
       <r>  -3.3195  1.0000</r>
       <r>  -3.3195  1.0000</r>
       <r>  -3.3066  1.0000</r>
       <r>  -3.3066  1.0000</r>
       <r>  -3.3066  1.0000</r>
       <r>  -3.3066  1.0000</r>
       <r>  -3.2507  1.0000</r>
       <r>  -3.2413  1.0000</r>
       <r>  -3.2413  1.0000</r>
       <r>  -3.1650  1.0000</r>
       <r>  -2.9479  1.0000</r>
       <r>  -2.9144  1.0000</r>
       <r>  -2.9143  1.0000</r>
       <r>  -2.9143  1.0000</r>
       <r>  -2.9143  1.0000</r>
       <r>  -2.8819  1.0000</r>
       <r>  -2.8277  1.0000</r>
       <r>  -2.8277  1.0000</r>
       <r>  -2.7541  1.0000</r>
       <r>  -2.7541  1.0000</r>
       <r>  -2.7541  1.0000</r>
       <r>  -2.7541  1.0000</r>
       <r>  -2.7264  1.0000</r>
       <r>  -2.7264  1.0000</r>
       <r>  -2.7264  1.0000</r>
       <r>  -2.7263  1.0000</r>
       <r>  -2.6907  1.0000</r>
       <r>  -2.6907  1.0000</r>
       <r>  -2.6907  1.0000</r>
       <r>  -2.6907  1.0000</r>
       <r>  -2.6120  1.0000</r>
       <r>  -2.6120  1.0000</r>
       <r>  -2.5977  1.0000</r>
       <r>  -2.5711  1.0000</r>
       <r>  -2.5711  1.0000</r>
       <r>  -2.5711  1.0000</r>
       <r>  -2.5711  1.0000</r>
       <r>  -2.4968  1.0000</r>
       <r>  -2.4968  1.0000</r>
       <r>  -2.4968  1.0000</r>
       <r>  -2.4968  1.0000</r>
       <r>  -2.4487  1.0000</r>
       <r>  -2.4487  1.0000</r>
       <r>  -2.4487  1.0000</r>
       <r>  -2.4486  1.0000</r>
       <r>  -2.3409  1.0000</r>
       <r>  -2.3409  1.0000</r>
       <r>  -2.3409  1.0000</r>
       <r>  -2.3409  1.0000</r>
       <r>  -2.3382  1.0000</r>
       <r>  -2.3378  1.0000</r>
       <r>  -2.3378  1.0000</r>
       <r>  -2.3378  1.0000</r>
       <r>  -2.3308  1.0000</r>
       <r>  -2.3308  1.0000</r>
       <r>  -2.3308  1.0000</r>
       <r>  -2.3306  1.0000</r>
       <r>  -2.3221  1.0000</r>
       <r>  -2.3221  1.0000</r>
       <r>  -2.3221  1.0000</r>
       <r>  -2.3220  1.0000</r>
       <r>  -2.1871  1.0000</r>
       <r>  -2.1856  1.0000</r>
       <r>  -2.1856  1.0000</r>
       <r>  -2.1856  1.0000</r>
       <r>  -2.1856  1.0000</r>
       <r>  -2.1572  1.0000</r>
       <r>  -2.1572  1.0000</r>
       <r>  -2.1572  1.0000</r>
       <r>  -2.1572  1.0000</r>
       <r>  -2.1466  1.0000</r>
       <r>  -2.1466  1.0000</r>
       <r>  -2.1225  1.0000</r>
       <r>  -2.1225  1.0000</r>
       <r>  -2.1225  1.0000</r>
       <r>  -2.1225  1.0000</r>
       <r>  -2.0874  1.0000</r>
       <r>  -2.0874  1.0000</r>
       <r>  -2.0874  1.0000</r>
       <r>  -2.0874  1.0000</r>
       <r>  -2.0158  1.0000</r>
       <r>  -2.0158  1.0000</r>
       <r>  -1.8940  1.0000</r>
       <r>  -1.8940  1.0000</r>
       <r>  -1.8940  1.0000</r>
       <r>  -1.8940  1.0000</r>
       <r>  -1.7499  1.0000</r>
       <r>  -1.7498  1.0000</r>
       <r>  -1.7498  1.0000</r>
       <r>  -1.7498  1.0000</r>
       <r>  -1.6974  1.0000</r>
       <r>  -1.6974  1.0000</r>
       <r>  -1.6889  1.0000</r>
       <r>  -1.6888  1.0000</r>
       <r>  -1.6888  1.0000</r>
       <r>  -1.6888  1.0000</r>
       <r>  -1.6142  1.0000</r>
       <r>  -1.6141  1.0000</r>
       <r>  -1.6141  1.0000</r>
       <r>  -1.6141  1.0000</r>
       <r>  -1.5853  1.0000</r>
       <r>  -1.5853  1.0000</r>
       <r>  -1.5853  1.0000</r>
       <r>  -1.5853  1.0000</r>
       <r>  -1.5730  1.0000</r>
       <r>  -1.5158  1.0000</r>
       <r>  -1.5158  1.0000</r>
       <r>  -1.5158  1.0000</r>
       <r>  -1.5158  1.0000</r>
       <r>  -1.4672  1.0000</r>
       <r>  -1.4672  1.0000</r>
       <r>  -1.4672  1.0000</r>
       <r>  -1.4672  1.0000</r>
       <r>  -1.4299  1.0000</r>
       <r>  -1.4004  1.0000</r>
       <r>  -1.3821  1.0000</r>
       <r>  -1.3820  1.0000</r>
       <r>  -1.3820  1.0000</r>
       <r>  -1.3820  1.0000</r>
       <r>  -1.3315  1.0000</r>
       <r>  -1.3315  1.0000</r>
       <r>  -1.3189  1.0000</r>
       <r>  -1.3189  1.0000</r>
       <r>  -1.3080  1.0000</r>
       <r>  -1.3080  1.0000</r>
       <r>  -1.3080  1.0000</r>
       <r>  -1.3080  1.0000</r>
       <r>  -1.2711  1.0000</r>
       <r>  -1.2711  1.0000</r>
       <r>  -1.2711  1.0000</r>
       <r>  -1.2711  1.0000</r>
       <r>  -1.2074  1.0000</r>
       <r>  -1.1829  1.0000</r>
       <r>  -1.1829  1.0000</r>
       <r>  -1.1829  1.0000</r>
       <r>  -1.1829  1.0000</r>
       <r>  -1.0625  1.0000</r>
       <r>  -1.0051  1.0000</r>
       <r>  -1.0051  1.0000</r>
       <r>  -1.0051  1.0000</r>
       <r>  -1.0051  1.0000</r>
       <r>  -0.8870  1.0000</r>
       <r>  -0.8870  1.0000</r>
       <r>  -0.8870  1.0000</r>
       <r>  -0.8870  1.0000</r>
       <r>  -0.8765  1.0000</r>
       <r>  -0.8765  1.0000</r>
       <r>  -0.8596  1.0000</r>
       <r>  -0.8484  1.0000</r>
       <r>  -0.8483  1.0000</r>
       <r>  -0.8483  1.0000</r>
       <r>  -0.8483  1.0000</r>
       <r>  -0.7622  1.0000</r>
       <r>  -0.7622  1.0000</r>
       <r>  -0.7082  1.0000</r>
       <r>  -0.7082  1.0000</r>
       <r>  -0.7082  1.0000</r>
       <r>  -0.7082  1.0000</r>
       <r>  -0.7058  1.0000</r>
       <r>  -0.7058  1.0000</r>
       <r>  -0.6727  1.0000</r>
       <r>  -0.6725  1.0000</r>
       <r>  -0.6719  1.0000</r>
       <r>  -0.6717  1.0000</r>
       <r>  -0.5956  1.0000</r>
       <r>   0.8026  1.0000</r>
       <r>   0.8026  1.0000</r>
       <r>   0.8026  1.0000</r>
       <r>   0.8026  1.0000</r>
       <r>   1.4914  1.0000</r>
       <r>   1.4914  1.0000</r>
       <r>   1.4914  1.0000</r>
       <r>   1.4914  1.0000</r>
       <r>   2.0620  1.0000</r>
       <r>   2.0620  1.0000</r>
       <r>   2.0620  1.0000</r>
       <r>   2.0621  1.0000</r>
       <r>   2.2513  0.0000</r>
       <r>   2.2513  0.0000</r>
       <r>   2.2513  0.0000</r>
       <r>   2.2513  0.0000</r>
       <r>   3.3855  0.0000</r>
       <r>   4.0262  0.0000</r>
       <r>   4.0262  0.0000</r>
       <r>   5.1108  0.0000</r>
       <r>   5.1108  0.0000</r>
       <r>   5.1108  0.0000</r>
       <r>   5.1108  0.0000</r>
       <r>   6.5236  0.0000</r>
       <r>   6.5236  0.0000</r>
       <r>   6.5236  0.0000</r>
       <r>   6.5236  0.0000</r>
       <r>   6.5780  0.0000</r>
       <r>   6.5780  0.0000</r>
       <r>   7.5594  0.0000</r>
       <r>   7.5594  0.0000</r>
       <r>   7.5594  0.0000</r>
       <r>   7.5594  0.0000</r>
       <r>   7.6361  0.0000</r>
       <r>   7.6361  0.0000</r>
       <r>   7.9683  0.0000</r>
       <r>   7.9683  0.0000</r>
       <r>   8.2240  0.0000</r>
       <r>   8.3922  0.0000</r>
       <r>   8.3922  0.0000</r>
       <r>   8.4906  0.0000</r>
       <r>   8.4906  0.0000</r>
       <r>   8.4906  0.0000</r>
       <r>   8.4906  0.0000</r>
       <r>   9.0110  0.0000</r>
      </set>
      <set comment="kpoint 4">
       <r>  -4.3243  1.0000</r>
       <r>  -3.3421  1.0000</r>
       <r>  -3.2981  1.0000</r>
       <r>  -3.2830  1.0000</r>
       <r>  -3.2830  1.0000</r>
       <r>  -3.2714  1.0000</r>
       <r>  -3.2714  1.0000</r>
       <r>  -3.2714  1.0000</r>
       <r>  -3.2714  1.0000</r>
       <r>  -3.2294  1.0000</r>
       <r>  -3.2081  1.0000</r>
       <r>  -3.2081  1.0000</r>
       <r>  -2.9891  1.0000</r>
       <r>  -2.9481  1.0000</r>
       <r>  -2.8857  1.0000</r>
       <r>  -2.8856  1.0000</r>
       <r>  -2.8672  1.0000</r>
       <r>  -2.8672  1.0000</r>
       <r>  -2.8672  1.0000</r>
       <r>  -2.8671  1.0000</r>
       <r>  -2.7984  1.0000</r>
       <r>  -2.7984  1.0000</r>
       <r>  -2.7984  1.0000</r>
       <r>  -2.7984  1.0000</r>
       <r>  -2.7346  1.0000</r>
       <r>  -2.7346  1.0000</r>
       <r>  -2.7294  1.0000</r>
       <r>  -2.7294  1.0000</r>
       <r>  -2.7293  1.0000</r>
       <r>  -2.7293  1.0000</r>
       <r>  -2.7078  1.0000</r>
       <r>  -2.7078  1.0000</r>
       <r>  -2.7078  1.0000</r>
       <r>  -2.7078  1.0000</r>
       <r>  -2.5820  1.0000</r>
       <r>  -2.5820  1.0000</r>
       <r>  -2.5820  1.0000</r>
       <r>  -2.5820  1.0000</r>
       <r>  -2.5277  1.0000</r>
       <r>  -2.4896  1.0000</r>
       <r>  -2.4896  1.0000</r>
       <r>  -2.4895  1.0000</r>
       <r>  -2.4895  1.0000</r>
       <r>  -2.4865  1.0000</r>
       <r>  -2.4865  1.0000</r>
       <r>  -2.4864  1.0000</r>
       <r>  -2.4864  1.0000</r>
       <r>  -2.3479  1.0000</r>
       <r>  -2.3479  1.0000</r>
       <r>  -2.3479  1.0000</r>
       <r>  -2.3479  1.0000</r>
       <r>  -2.3289  1.0000</r>
       <r>  -2.3281  1.0000</r>
       <r>  -2.3281  1.0000</r>
       <r>  -2.3280  1.0000</r>
       <r>  -2.3263  1.0000</r>
       <r>  -2.3262  1.0000</r>
       <r>  -2.3262  1.0000</r>
       <r>  -2.3255  1.0000</r>
       <r>  -2.2980  1.0000</r>
       <r>  -2.2980  1.0000</r>
       <r>  -2.2980  1.0000</r>
       <r>  -2.2979  1.0000</r>
       <r>  -2.2122  1.0000</r>
       <r>  -2.1956  1.0000</r>
       <r>  -2.1956  1.0000</r>
       <r>  -2.1956  1.0000</r>
       <r>  -2.1955  1.0000</r>
       <r>  -2.1906  1.0000</r>
       <r>  -2.1906  1.0000</r>
       <r>  -2.1906  1.0000</r>
       <r>  -2.1906  1.0000</r>
       <r>  -2.1437  1.0000</r>
       <r>  -2.1436  1.0000</r>
       <r>  -2.1436  1.0000</r>
       <r>  -2.1436  1.0000</r>
       <r>  -2.1323  1.0000</r>
       <r>  -2.1323  1.0000</r>
       <r>  -2.1323  1.0000</r>
       <r>  -2.1322  1.0000</r>
       <r>  -2.1217  1.0000</r>
       <r>  -2.1217  1.0000</r>
       <r>  -1.8460  1.0000</r>
       <r>  -1.8460  1.0000</r>
       <r>  -1.8154  1.0000</r>
       <r>  -1.8154  1.0000</r>
       <r>  -1.8154  1.0000</r>
       <r>  -1.8154  1.0000</r>
       <r>  -1.8044  1.0000</r>
       <r>  -1.8044  1.0000</r>
       <r>  -1.8044  1.0000</r>
       <r>  -1.8044  1.0000</r>
       <r>  -1.7812  1.0000</r>
       <r>  -1.7812  1.0000</r>
       <r>  -1.7647  1.0000</r>
       <r>  -1.7647  1.0000</r>
       <r>  -1.7647  1.0000</r>
       <r>  -1.7647  1.0000</r>
       <r>  -1.6215  1.0000</r>
       <r>  -1.5478  1.0000</r>
       <r>  -1.5478  1.0000</r>
       <r>  -1.5478  1.0000</r>
       <r>  -1.5478  1.0000</r>
       <r>  -1.5317  1.0000</r>
       <r>  -1.5317  1.0000</r>
       <r>  -1.5317  1.0000</r>
       <r>  -1.5317  1.0000</r>
       <r>  -1.5173  1.0000</r>
       <r>  -1.5173  1.0000</r>
       <r>  -1.5173  1.0000</r>
       <r>  -1.5173  1.0000</r>
       <r>  -1.4903  1.0000</r>
       <r>  -1.4903  1.0000</r>
       <r>  -1.4903  1.0000</r>
       <r>  -1.4903  1.0000</r>
       <r>  -1.4543  1.0000</r>
       <r>  -1.3891  1.0000</r>
       <r>  -1.3842  1.0000</r>
       <r>  -1.3842  1.0000</r>
       <r>  -1.3842  1.0000</r>
       <r>  -1.3842  1.0000</r>
       <r>  -1.2768  1.0000</r>
       <r>  -1.2767  1.0000</r>
       <r>  -1.2418  1.0000</r>
       <r>  -1.2377  1.0000</r>
       <r>  -1.2377  1.0000</r>
       <r>  -1.2377  1.0000</r>
       <r>  -1.2375  1.0000</r>
       <r>  -1.2206  1.0000</r>
       <r>  -1.2206  1.0000</r>
       <r>  -1.2058  1.0000</r>
       <r>  -1.2058  1.0000</r>
       <r>  -1.2058  1.0000</r>
       <r>  -1.2058  1.0000</r>
       <r>  -1.1977  1.0000</r>
       <r>  -1.1977  1.0000</r>
       <r>  -1.1977  1.0000</r>
       <r>  -1.1977  1.0000</r>
       <r>  -1.0274  1.0000</r>
       <r>  -0.9630  1.0000</r>
       <r>  -0.9629  1.0000</r>
       <r>  -0.9629  1.0000</r>
       <r>  -0.9629  1.0000</r>
       <r>  -0.9094  1.0000</r>
       <r>  -0.9094  1.0000</r>
       <r>  -0.8781  1.0000</r>
       <r>  -0.8781  1.0000</r>
       <r>  -0.8781  1.0000</r>
       <r>  -0.8781  1.0000</r>
       <r>  -0.8718  1.0000</r>
       <r>  -0.8663  1.0000</r>
       <r>  -0.8663  1.0000</r>
       <r>  -0.8396  1.0000</r>
       <r>  -0.8395  1.0000</r>
       <r>  -0.8395  1.0000</r>
       <r>  -0.8395  1.0000</r>
       <r>  -0.7518  1.0000</r>
       <r>  -0.7518  1.0000</r>
       <r>  -0.7518  1.0000</r>
       <r>  -0.7518  1.0000</r>
       <r>  -0.7462  1.0000</r>
       <r>  -0.7462  1.0000</r>
       <r>  -0.6727  1.0000</r>
       <r>  -0.6725  1.0000</r>
       <r>  -0.6720  1.0000</r>
       <r>  -0.6717  1.0000</r>
       <r>  -0.1791  1.0000</r>
       <r>   0.5096  1.0000</r>
       <r>   0.5096  1.0000</r>
       <r>   0.5096  1.0000</r>
       <r>   0.5096  1.0000</r>
       <r>   1.5213  1.0000</r>
       <r>   1.5213  1.0000</r>
       <r>   1.5213  1.0000</r>
       <r>   1.5213  1.0000</r>
       <r>   1.9697  1.0000</r>
       <r>   1.9697  1.0000</r>
       <r>   1.9697  1.0000</r>
       <r>   1.9697  1.0000</r>
       <r>   2.6895  0.0000</r>
       <r>   2.6895  0.0000</r>
       <r>   2.6895  0.0000</r>
       <r>   2.6895  0.0000</r>
       <r>   2.9078  0.0000</r>
       <r>   4.1997  0.0000</r>
       <r>   4.1997  0.0000</r>
       <r>   5.3990  0.0000</r>
       <r>   5.3990  0.0000</r>
       <r>   5.3990  0.0000</r>
       <r>   5.3990  0.0000</r>
       <r>   5.9190  0.0000</r>
       <r>   5.9190  0.0000</r>
       <r>   5.9190  0.0000</r>
       <r>   5.9190  0.0000</r>
       <r>   6.1572  0.0000</r>
       <r>   6.1572  0.0000</r>
       <r>   7.6544  0.0000</r>
       <r>   7.6544  0.0000</r>
       <r>   7.6759  0.0000</r>
       <r>   7.6759  0.0000</r>
       <r>   7.6759  0.0000</r>
       <r>   7.6759  0.0000</r>
       <r>   7.9159  0.0000</r>
       <r>   7.9159  0.0000</r>
       <r>   8.3807  0.0000</r>
       <r>   8.3808  0.0000</r>
       <r>   8.3808  0.0000</r>
       <r>   8.3808  0.0000</r>
       <r>   8.6375  0.0000</r>
       <r>   8.6375  0.0000</r>
       <r>   8.6375  0.0000</r>
       <r>   8.6387  0.0000</r>
      </set>
      <set comment="kpoint 5">
       <r>  -4.2158  1.0000</r>
       <r>  -3.5382  1.0000</r>
       <r>  -3.2598  1.0000</r>
       <r>  -3.2336  1.0000</r>
       <r>  -3.2335  1.0000</r>
       <r>  -3.2225  1.0000</r>
       <r>  -3.2225  1.0000</r>
       <r>  -3.2225  1.0000</r>
       <r>  -3.2225  1.0000</r>
       <r>  -3.1999  1.0000</r>
       <r>  -3.1615  1.0000</r>
       <r>  -3.1615  1.0000</r>
       <r>  -3.0428  1.0000</r>
       <r>  -3.0101  1.0000</r>
       <r>  -2.9553  1.0000</r>
       <r>  -2.9553  1.0000</r>
       <r>  -2.9028  1.0000</r>
       <r>  -2.9028  1.0000</r>
       <r>  -2.9028  1.0000</r>
       <r>  -2.9028  1.0000</r>
       <r>  -2.8452  1.0000</r>
       <r>  -2.8452  1.0000</r>
       <r>  -2.8041  1.0000</r>
       <r>  -2.8041  1.0000</r>
       <r>  -2.8041  1.0000</r>
       <r>  -2.8041  1.0000</r>
       <r>  -2.6981  1.0000</r>
       <r>  -2.6980  1.0000</r>
       <r>  -2.6980  1.0000</r>
       <r>  -2.6980  1.0000</r>
       <r>  -2.6825  1.0000</r>
       <r>  -2.6825  1.0000</r>
       <r>  -2.6825  1.0000</r>
       <r>  -2.6825  1.0000</r>
       <r>  -2.5932  1.0000</r>
       <r>  -2.5932  1.0000</r>
       <r>  -2.5932  1.0000</r>
       <r>  -2.5932  1.0000</r>
       <r>  -2.5322  1.0000</r>
       <r>  -2.5322  1.0000</r>
       <r>  -2.5322  1.0000</r>
       <r>  -2.5321  1.0000</r>
       <r>  -2.5070  1.0000</r>
       <r>  -2.5070  1.0000</r>
       <r>  -2.5070  1.0000</r>
       <r>  -2.5070  1.0000</r>
       <r>  -2.4607  1.0000</r>
       <r>  -2.3530  1.0000</r>
       <r>  -2.3530  1.0000</r>
       <r>  -2.3530  1.0000</r>
       <r>  -2.3530  1.0000</r>
       <r>  -2.3251  1.0000</r>
       <r>  -2.3247  1.0000</r>
       <r>  -2.3247  1.0000</r>
       <r>  -2.3247  1.0000</r>
       <r>  -2.3202  1.0000</r>
       <r>  -2.3201  1.0000</r>
       <r>  -2.3201  1.0000</r>
       <r>  -2.3197  1.0000</r>
       <r>  -2.2780  1.0000</r>
       <r>  -2.2779  1.0000</r>
       <r>  -2.2779  1.0000</r>
       <r>  -2.2779  1.0000</r>
       <r>  -2.2538  1.0000</r>
       <r>  -2.2538  1.0000</r>
       <r>  -2.2538  1.0000</r>
       <r>  -2.2538  1.0000</r>
       <r>  -2.2468  1.0000</r>
       <r>  -2.2086  1.0000</r>
       <r>  -2.2086  1.0000</r>
       <r>  -2.2086  1.0000</r>
       <r>  -2.2086  1.0000</r>
       <r>  -2.1692  1.0000</r>
       <r>  -2.1691  1.0000</r>
       <r>  -2.1691  1.0000</r>
       <r>  -2.1691  1.0000</r>
       <r>  -2.0980  1.0000</r>
       <r>  -2.0980  1.0000</r>
       <r>  -2.0980  1.0000</r>
       <r>  -2.0980  1.0000</r>
       <r>  -2.0871  1.0000</r>
       <r>  -2.0871  1.0000</r>
       <r>  -1.9123  1.0000</r>
       <r>  -1.9123  1.0000</r>
       <r>  -1.9123  1.0000</r>
       <r>  -1.9123  1.0000</r>
       <r>  -1.8820  1.0000</r>
       <r>  -1.8820  1.0000</r>
       <r>  -1.8820  1.0000</r>
       <r>  -1.8820  1.0000</r>
       <r>  -1.8584  1.0000</r>
       <r>  -1.8584  1.0000</r>
       <r>  -1.6715  1.0000</r>
       <r>  -1.6715  1.0000</r>
       <r>  -1.6236  1.0000</r>
       <r>  -1.6198  1.0000</r>
       <r>  -1.6198  1.0000</r>
       <r>  -1.6198  1.0000</r>
       <r>  -1.6198  1.0000</r>
       <r>  -1.5187  1.0000</r>
       <r>  -1.5187  1.0000</r>
       <r>  -1.5187  1.0000</r>
       <r>  -1.5187  1.0000</r>
       <r>  -1.5052  1.0000</r>
       <r>  -1.5052  1.0000</r>
       <r>  -1.5052  1.0000</r>
       <r>  -1.5052  1.0000</r>
       <r>  -1.4865  1.0000</r>
       <r>  -1.4849  1.0000</r>
       <r>  -1.4848  1.0000</r>
       <r>  -1.4848  1.0000</r>
       <r>  -1.4848  1.0000</r>
       <r>  -1.4768  1.0000</r>
       <r>  -1.4768  1.0000</r>
       <r>  -1.4768  1.0000</r>
       <r>  -1.4767  1.0000</r>
       <r>  -1.3899  1.0000</r>
       <r>  -1.3899  1.0000</r>
       <r>  -1.3899  1.0000</r>
       <r>  -1.3899  1.0000</r>
       <r>  -1.3735  1.0000</r>
       <r>  -1.2738  1.0000</r>
       <r>  -1.2420  1.0000</r>
       <r>  -1.2420  1.0000</r>
       <r>  -1.2420  1.0000</r>
       <r>  -1.2420  1.0000</r>
       <r>  -1.2112  1.0000</r>
       <r>  -1.2111  1.0000</r>
       <r>  -1.1648  1.0000</r>
       <r>  -1.1648  1.0000</r>
       <r>  -1.1648  1.0000</r>
       <r>  -1.1648  1.0000</r>
       <r>  -1.1243  1.0000</r>
       <r>  -1.1243  1.0000</r>
       <r>  -1.1184  1.0000</r>
       <r>  -1.1184  1.0000</r>
       <r>  -1.1184  1.0000</r>
       <r>  -1.1184  1.0000</r>
       <r>  -1.0643  1.0000</r>
       <r>  -1.0642  1.0000</r>
       <r>  -1.0642  1.0000</r>
       <r>  -1.0642  1.0000</r>
       <r>  -0.9997  1.0000</r>
       <r>  -0.9997  1.0000</r>
       <r>  -0.9940  1.0000</r>
       <r>  -0.9542  1.0000</r>
       <r>  -0.9542  1.0000</r>
       <r>  -0.9187  1.0000</r>
       <r>  -0.9187  1.0000</r>
       <r>  -0.9187  1.0000</r>
       <r>  -0.9187  1.0000</r>
       <r>  -0.8886  1.0000</r>
       <r>  -0.8096  1.0000</r>
       <r>  -0.8096  1.0000</r>
       <r>  -0.8096  1.0000</r>
       <r>  -0.8096  1.0000</r>
       <r>  -0.8009  1.0000</r>
       <r>  -0.8009  1.0000</r>
       <r>  -0.6727  1.0000</r>
       <r>  -0.6724  1.0000</r>
       <r>  -0.6720  1.0000</r>
       <r>  -0.6717  1.0000</r>
       <r>  -0.6550  1.0000</r>
       <r>  -0.6550  1.0000</r>
       <r>  -0.6550  1.0000</r>
       <r>  -0.6550  1.0000</r>
       <r>   0.2397  1.0000</r>
       <r>   0.2397  1.0000</r>
       <r>   0.2397  1.0000</r>
       <r>   0.2397  1.0000</r>
       <r>   0.2807  1.0000</r>
       <r>   1.5641  1.0000</r>
       <r>   1.5641  1.0000</r>
       <r>   1.5641  1.0000</r>
       <r>   1.5641  1.0000</r>
       <r>   1.8702  1.0000</r>
       <r>   1.8702  1.0000</r>
       <r>   1.8702  1.0000</r>
       <r>   1.8702  1.0000</r>
       <r>   2.3782  0.0000</r>
       <r>   3.1588  0.0000</r>
       <r>   3.1588  0.0000</r>
       <r>   3.1588  0.0000</r>
       <r>   3.1588  0.0000</r>
       <r>   4.4299  0.0000</r>
       <r>   4.4299  0.0000</r>
       <r>   5.3216  0.0000</r>
       <r>   5.3216  0.0000</r>
       <r>   5.3216  0.0000</r>
       <r>   5.3216  0.0000</r>
       <r>   5.7554  0.0000</r>
       <r>   5.7554  0.0000</r>
       <r>   5.7677  0.0000</r>
       <r>   5.7677  0.0000</r>
       <r>   5.7678  0.0000</r>
       <r>   5.7678  0.0000</r>
       <r>   7.6803  0.0000</r>
       <r>   7.6803  0.0000</r>
       <r>   7.7805  0.0000</r>
       <r>   7.7805  0.0000</r>
       <r>   7.7805  0.0000</r>
       <r>   7.7805  0.0000</r>
       <r>   7.8359  0.0000</r>
       <r>   7.8360  0.0000</r>
       <r>   7.8360  0.0000</r>
       <r>   7.8360  0.0000</r>
       <r>   7.8592  0.0000</r>
       <r>   7.8592  0.0000</r>
       <r>   8.7593  0.0000</r>
       <r>   8.7597  0.0000</r>
       <r>   8.7617  0.0000</r>
       <r>   8.7657  0.0000</r>
      </set>
      <set comment="kpoint 6">
       <r>  -4.0790  1.0000</r>
       <r>  -3.7341  1.0000</r>
       <r>  -3.2129  1.0000</r>
       <r>  -3.1731  1.0000</r>
       <r>  -3.1731  1.0000</r>
       <r>  -3.1627  1.0000</r>
       <r>  -3.1604  1.0000</r>
       <r>  -3.1604  1.0000</r>
       <r>  -3.1604  1.0000</r>
       <r>  -3.1604  1.0000</r>
       <r>  -3.1019  1.0000</r>
       <r>  -3.1019  1.0000</r>
       <r>  -3.1012  1.0000</r>
       <r>  -3.0671  1.0000</r>
       <r>  -3.0301  1.0000</r>
       <r>  -3.0301  1.0000</r>
       <r>  -2.9994  1.0000</r>
       <r>  -2.9994  1.0000</r>
       <r>  -2.9994  1.0000</r>
       <r>  -2.9994  1.0000</r>
       <r>  -2.9435  1.0000</r>
       <r>  -2.9435  1.0000</r>
       <r>  -2.7284  1.0000</r>
       <r>  -2.7284  1.0000</r>
       <r>  -2.7283  1.0000</r>
       <r>  -2.7283  1.0000</r>
       <r>  -2.6641  1.0000</r>
       <r>  -2.6640  1.0000</r>
       <r>  -2.6640  1.0000</r>
       <r>  -2.6640  1.0000</r>
       <r>  -2.6512  1.0000</r>
       <r>  -2.6512  1.0000</r>
       <r>  -2.6512  1.0000</r>
       <r>  -2.6511  1.0000</r>
       <r>  -2.6090  1.0000</r>
       <r>  -2.6090  1.0000</r>
       <r>  -2.6090  1.0000</r>
       <r>  -2.6089  1.0000</r>
       <r>  -2.5745  1.0000</r>
       <r>  -2.5745  1.0000</r>
       <r>  -2.5745  1.0000</r>
       <r>  -2.5745  1.0000</r>
       <r>  -2.5659  1.0000</r>
       <r>  -2.5659  1.0000</r>
       <r>  -2.5659  1.0000</r>
       <r>  -2.5659  1.0000</r>
       <r>  -2.3979  1.0000</r>
       <r>  -2.3513  1.0000</r>
       <r>  -2.3513  1.0000</r>
       <r>  -2.3513  1.0000</r>
       <r>  -2.3512  1.0000</r>
       <r>  -2.3220  1.0000</r>
       <r>  -2.3214  1.0000</r>
       <r>  -2.3214  1.0000</r>
       <r>  -2.3214  1.0000</r>
       <r>  -2.3181  1.0000</r>
       <r>  -2.3181  1.0000</r>
       <r>  -2.3181  1.0000</r>
       <r>  -2.3175  1.0000</r>
       <r>  -2.3041  1.0000</r>
       <r>  -2.3041  1.0000</r>
       <r>  -2.3041  1.0000</r>
       <r>  -2.3041  1.0000</r>
       <r>  -2.2898  1.0000</r>
       <r>  -2.2592  1.0000</r>
       <r>  -2.2592  1.0000</r>
       <r>  -2.2592  1.0000</r>
       <r>  -2.2592  1.0000</r>
       <r>  -2.2241  1.0000</r>
       <r>  -2.2241  1.0000</r>
       <r>  -2.2241  1.0000</r>
       <r>  -2.2241  1.0000</r>
       <r>  -2.1471  1.0000</r>
       <r>  -2.1471  1.0000</r>
       <r>  -2.1471  1.0000</r>
       <r>  -2.1471  1.0000</r>
       <r>  -2.0549  1.0000</r>
       <r>  -2.0549  1.0000</r>
       <r>  -2.0549  1.0000</r>
       <r>  -2.0548  1.0000</r>
       <r>  -2.0431  1.0000</r>
       <r>  -2.0431  1.0000</r>
       <r>  -2.0085  1.0000</r>
       <r>  -2.0085  1.0000</r>
       <r>  -2.0085  1.0000</r>
       <r>  -2.0085  1.0000</r>
       <r>  -1.9456  1.0000</r>
       <r>  -1.9456  1.0000</r>
       <r>  -1.9456  1.0000</r>
       <r>  -1.9456  1.0000</r>
       <r>  -1.9282  1.0000</r>
       <r>  -1.9282  1.0000</r>
       <r>  -1.5996  1.0000</r>
       <r>  -1.5240  1.0000</r>
       <r>  -1.5193  1.0000</r>
       <r>  -1.5193  1.0000</r>
       <r>  -1.5193  1.0000</r>
       <r>  -1.5193  1.0000</r>
       <r>  -1.5140  1.0000</r>
       <r>  -1.5140  1.0000</r>
       <r>  -1.5140  1.0000</r>
       <r>  -1.5140  1.0000</r>
       <r>  -1.4953  1.0000</r>
       <r>  -1.4953  1.0000</r>
       <r>  -1.4703  1.0000</r>
       <r>  -1.4702  1.0000</r>
       <r>  -1.4702  1.0000</r>
       <r>  -1.4702  1.0000</r>
       <r>  -1.4474  1.0000</r>
       <r>  -1.4474  1.0000</r>
       <r>  -1.4473  1.0000</r>
       <r>  -1.4473  1.0000</r>
       <r>  -1.4079  1.0000</r>
       <r>  -1.4079  1.0000</r>
       <r>  -1.4079  1.0000</r>
       <r>  -1.4079  1.0000</r>
       <r>  -1.4011  1.0000</r>
       <r>  -1.4011  1.0000</r>
       <r>  -1.4011  1.0000</r>
       <r>  -1.4011  1.0000</r>
       <r>  -1.3538  1.0000</r>
       <r>  -1.3036  1.0000</r>
       <r>  -1.2887  1.0000</r>
       <r>  -1.2887  1.0000</r>
       <r>  -1.2887  1.0000</r>
       <r>  -1.2887  1.0000</r>
       <r>  -1.1863  1.0000</r>
       <r>  -1.1863  1.0000</r>
       <r>  -1.1863  1.0000</r>
       <r>  -1.1863  1.0000</r>
       <r>  -1.1538  1.0000</r>
       <r>  -1.1538  1.0000</r>
       <r>  -1.1414  1.0000</r>
       <r>  -1.1414  1.0000</r>
       <r>  -1.0940  1.0000</r>
       <r>  -1.0940  1.0000</r>
       <r>  -1.0940  1.0000</r>
       <r>  -1.0940  1.0000</r>
       <r>  -1.0365  1.0000</r>
       <r>  -1.0365  1.0000</r>
       <r>  -1.0365  1.0000</r>
       <r>  -1.0365  1.0000</r>
       <r>  -1.0320  1.0000</r>
       <r>  -1.0320  1.0000</r>
       <r>  -1.0094  1.0000</r>
       <r>  -1.0093  1.0000</r>
       <r>  -0.9691  1.0000</r>
       <r>  -0.9691  1.0000</r>
       <r>  -0.9691  1.0000</r>
       <r>  -0.9691  1.0000</r>
       <r>  -0.9628  1.0000</r>
       <r>  -0.9097  1.0000</r>
       <r>  -0.8785  1.0000</r>
       <r>  -0.8785  1.0000</r>
       <r>  -0.8785  1.0000</r>
       <r>  -0.8785  1.0000</r>
       <r>  -0.8681  1.0000</r>
       <r>  -0.8681  1.0000</r>
       <r>  -0.6727  1.0000</r>
       <r>  -0.6723  1.0000</r>
       <r>  -0.6721  1.0000</r>
       <r>  -0.6717  1.0000</r>
       <r>  -0.4553  1.0000</r>
       <r>  -0.4553  1.0000</r>
       <r>  -0.4553  1.0000</r>
       <r>  -0.4553  1.0000</r>
       <r>  -0.0095  1.0000</r>
       <r>  -0.0095  1.0000</r>
       <r>  -0.0095  1.0000</r>
       <r>  -0.0095  1.0000</r>
       <r>   0.7749  1.0000</r>
       <r>   1.6205  1.0000</r>
       <r>   1.6205  1.0000</r>
       <r>   1.6205  1.0000</r>
       <r>   1.6205  1.0000</r>
       <r>   1.7752  1.0000</r>
       <r>   1.7752  1.0000</r>
       <r>   1.7752  1.0000</r>
       <r>   1.7752  1.0000</r>
       <r>   1.8341  1.0000</r>
       <r>   3.6584  0.0000</r>
       <r>   3.6584  0.0000</r>
       <r>   3.6584  0.0000</r>
       <r>   3.6584  0.0000</r>
       <r>   4.7079  0.0000</r>
       <r>   4.7079  0.0000</r>
       <r>   4.7424  0.0000</r>
       <r>   4.7424  0.0000</r>
       <r>   4.7424  0.0000</r>
       <r>   4.7424  0.0000</r>
       <r>   5.3769  0.0000</r>
[...]
       <r>  -1.6863  1.0000</r>
       <r>  -1.6862  1.0000</r>
       <r>  -1.6862  1.0000</r>
       <r>  -1.6861  1.0000</r>
       <r>  -1.6776  1.0000</r>
       <r>  -1.6776  1.0000</r>
       <r>  -1.6776  1.0000</r>
       <r>  -1.6776  1.0000</r>
       <r>  -1.6724  1.0000</r>
       <r>  -1.6723  1.0000</r>
       <r>  -1.6723  1.0000</r>
       <r>  -1.6723  1.0000</r>
       <r>  -1.6142  1.0000</r>
       <r>  -1.6142  1.0000</r>
       <r>  -1.6141  1.0000</r>
       <r>  -1.6141  1.0000</r>
       <r>  -1.6140  1.0000</r>
       <r>  -1.6140  1.0000</r>
       <r>  -1.6139  1.0000</r>
       <r>  -1.6139  1.0000</r>
       <r>  -1.4404  1.0000</r>
       <r>  -1.4403  1.0000</r>
       <r>  -1.4403  1.0000</r>
       <r>  -1.4403  1.0000</r>
       <r>  -1.4015  1.0000</r>
       <r>  -1.4015  1.0000</r>
       <r>  -1.4015  1.0000</r>
       <r>  -1.4015  1.0000</r>
       <r>  -1.3866  1.0000</r>
       <r>  -1.3866  1.0000</r>
       <r>  -1.3863  1.0000</r>
       <r>  -1.3863  1.0000</r>
       <r>  -1.3863  1.0000</r>
       <r>  -1.3862  1.0000</r>
       <r>  -1.3859  1.0000</r>
       <r>  -1.3859  1.0000</r>
       <r>  -1.2584  1.0000</r>
       <r>  -1.2584  1.0000</r>
       <r>  -1.2584  1.0000</r>
       <r>  -1.2584  1.0000</r>
       <r>  -1.1726  1.0000</r>
       <r>  -1.1726  1.0000</r>
       <r>  -1.1726  1.0000</r>
       <r>  -1.1726  1.0000</r>
       <r>  -1.1600  1.0000</r>
       <r>  -1.1600  1.0000</r>
       <r>  -1.1600  1.0000</r>
       <r>  -1.1600  1.0000</r>
       <r>  -0.8140  1.0000</r>
       <r>  -0.8140  1.0000</r>
       <r>  -0.8139  1.0000</r>
       <r>  -0.8139  1.0000</r>
       <r>  -0.8139  1.0000</r>
       <r>  -0.8139  1.0000</r>
       <r>  -0.8138  1.0000</r>
       <r>  -0.8138  1.0000</r>
       <r>  -0.8051  1.0000</r>
       <r>  -0.8051  1.0000</r>
       <r>  -0.8051  1.0000</r>
       <r>  -0.8051  1.0000</r>
       <r>  -0.7955  1.0000</r>
       <r>  -0.7955  1.0000</r>
       <r>  -0.7955  1.0000</r>
       <r>  -0.7955  1.0000</r>
       <r>  -0.7917  1.0000</r>
       <r>  -0.7917  1.0000</r>
       <r>  -0.7917  1.0000</r>
       <r>  -0.7916  1.0000</r>
       <r>  -0.7916  1.0000</r>
       <r>  -0.7916  1.0000</r>
       <r>  -0.7915  1.0000</r>
       <r>  -0.7915  1.0000</r>
       <r>   1.8794  1.0000</r>
       <r>   1.8794  1.0000</r>
       <r>   1.8795  1.0000</r>
       <r>   1.8795  1.0000</r>
       <r>   2.5923  0.0000</r>
       <r>   2.5923  0.0000</r>
       <r>   2.5925  0.0000</r>
       <r>   2.5925  0.0000</r>
       <r>   2.5925  0.0000</r>
       <r>   2.5925  0.0000</r>
       <r>   2.5927  0.0000</r>
       <r>   2.5927  0.0000</r>
       <r>   3.4214  0.0000</r>
       <r>   3.4214  0.0000</r>
       <r>   3.4219  0.0000</r>
       <r>   3.4219  0.0000</r>
       <r>   3.4219  0.0000</r>
       <r>   3.4219  0.0000</r>
       <r>   3.4225  0.0000</r>
       <r>   3.4225  0.0000</r>
       <r>   4.1242  0.0000</r>
       <r>   4.1242  0.0000</r>
       <r>   4.1242  0.0000</r>
       <r>   4.1243  0.0000</r>
       <r>   6.5194  0.0000</r>
       <r>   6.5194  0.0000</r>
       <r>   6.5197  0.0000</r>
       <r>   6.5197  0.0000</r>
       <r>   6.5197  0.0000</r>
       <r>   6.5197  0.0000</r>
       <r>   6.5200  0.0000</r>
       <r>   6.5200  0.0000</r>
       <r>   7.0836  0.0000</r>
       <r>   7.0836  0.0000</r>
       <r>   7.0836  0.0000</r>
       <r>   7.0836  0.0000</r>
       <r>   7.9878  0.0000</r>
       <r>   7.9878  0.0000</r>
       <r>   7.9878  0.0000</r>
       <r>   7.9878  0.0000</r>
       <r>   8.5390  0.0000</r>
       <r>   8.5391  0.0000</r>
       <r>   8.5391  0.0000</r>
       <r>   8.5391  0.0000</r>
      </set>
      <set comment="kpoint 195">
       <r>  -3.3386  1.0000</r>
       <r>  -3.3386  1.0000</r>
       <r>  -3.3386  1.0000</r>
       <r>  -3.3386  1.0000</r>
       <r>  -3.2530  1.0000</r>
       <r>  -3.2530  1.0000</r>
       <r>  -3.2530  1.0000</r>
       <r>  -3.2529  1.0000</r>
       <r>  -2.9880  1.0000</r>
       <r>  -2.9878  1.0000</r>
       <r>  -2.9878  1.0000</r>
       <r>  -2.9876  1.0000</r>
       <r>  -2.9875  1.0000</r>
       <r>  -2.9875  1.0000</r>
       <r>  -2.9875  1.0000</r>
       <r>  -2.9875  1.0000</r>
       <r>  -2.9864  1.0000</r>
       <r>  -2.9861  1.0000</r>
       <r>  -2.9861  1.0000</r>
       <r>  -2.9860  1.0000</r>
       <r>  -2.9681  1.0000</r>
       <r>  -2.9681  1.0000</r>
       <r>  -2.9681  1.0000</r>
       <r>  -2.9681  1.0000</r>
       <r>  -2.9547  1.0000</r>
       <r>  -2.9547  1.0000</r>
       <r>  -2.9544  1.0000</r>
       <r>  -2.9544  1.0000</r>
       <r>  -2.9544  1.0000</r>
       <r>  -2.9543  1.0000</r>
       <r>  -2.9540  1.0000</r>
       <r>  -2.9540  1.0000</r>
       <r>  -2.6016  1.0000</r>
       <r>  -2.6016  1.0000</r>
       <r>  -2.6013  1.0000</r>
       <r>  -2.6012  1.0000</r>
       <r>  -2.6012  1.0000</r>
       <r>  -2.6012  1.0000</r>
       <r>  -2.6009  1.0000</r>
       <r>  -2.6009  1.0000</r>
       <r>  -2.5862  1.0000</r>
       <r>  -2.5861  1.0000</r>
       <r>  -2.5861  1.0000</r>
       <r>  -2.5861  1.0000</r>
       <r>  -2.4787  1.0000</r>
       <r>  -2.4787  1.0000</r>
       <r>  -2.4784  1.0000</r>
       <r>  -2.4783  1.0000</r>
       <r>  -2.4783  1.0000</r>
       <r>  -2.4783  1.0000</r>
       <r>  -2.4780  1.0000</r>
       <r>  -2.4780  1.0000</r>
       <r>  -2.4747  1.0000</r>
       <r>  -2.4747  1.0000</r>
       <r>  -2.4747  1.0000</r>
       <r>  -2.4746  1.0000</r>
       <r>  -2.0341  1.0000</r>
       <r>  -2.0341  1.0000</r>
       <r>  -2.0341  1.0000</r>
       <r>  -2.0341  1.0000</r>
       <r>  -2.0272  1.0000</r>
       <r>  -2.0272  1.0000</r>
       <r>  -2.0272  1.0000</r>
       <r>  -2.0271  1.0000</r>
       <r>  -2.0159  1.0000</r>
       <r>  -2.0158  1.0000</r>
       <r>  -2.0158  1.0000</r>
       <r>  -2.0158  1.0000</r>
       <r>  -2.0068  1.0000</r>
       <r>  -2.0068  1.0000</r>
       <r>  -2.0068  1.0000</r>
       <r>  -2.0068  1.0000</r>
       <r>  -1.9563  1.0000</r>
       <r>  -1.9563  1.0000</r>
       <r>  -1.9563  1.0000</r>
       <r>  -1.9563  1.0000</r>
       <r>  -1.8003  1.0000</r>
       <r>  -1.8003  1.0000</r>
       <r>  -1.7994  1.0000</r>
       <r>  -1.7994  1.0000</r>
       <r>  -1.7994  1.0000</r>
       <r>  -1.7994  1.0000</r>
       <r>  -1.7986  1.0000</r>
       <r>  -1.7986  1.0000</r>
       <r>  -1.7968  1.0000</r>
       <r>  -1.7968  1.0000</r>
       <r>  -1.7966  1.0000</r>
       <r>  -1.7966  1.0000</r>
       <r>  -1.7346  1.0000</r>
       <r>  -1.7346  1.0000</r>
       <r>  -1.7346  1.0000</r>
       <r>  -1.7346  1.0000</r>
       <r>  -1.7206  1.0000</r>
       <r>  -1.7206  1.0000</r>
       <r>  -1.7200  1.0000</r>
       <r>  -1.7199  1.0000</r>
       <r>  -1.7199  1.0000</r>
       <r>  -1.7198  1.0000</r>
       <r>  -1.7193  1.0000</r>
       <r>  -1.7193  1.0000</r>
       <r>  -1.7128  1.0000</r>
       <r>  -1.7127  1.0000</r>
       <r>  -1.7127  1.0000</r>
       <r>  -1.7127  1.0000</r>
       <r>  -1.6099  1.0000</r>
       <r>  -1.6099  1.0000</r>
       <r>  -1.6099  1.0000</r>
       <r>  -1.6099  1.0000</r>
       <r>  -1.5842  1.0000</r>
       <r>  -1.5842  1.0000</r>
       <r>  -1.5840  1.0000</r>
       <r>  -1.5840  1.0000</r>
       <r>  -1.5839  1.0000</r>
       <r>  -1.5839  1.0000</r>
       <r>  -1.5837  1.0000</r>
       <r>  -1.5837  1.0000</r>
       <r>  -1.4739  1.0000</r>
       <r>  -1.4739  1.0000</r>
       <r>  -1.4736  1.0000</r>
       <r>  -1.4735  1.0000</r>
       <r>  -1.4735  1.0000</r>
       <r>  -1.4735  1.0000</r>
       <r>  -1.4732  1.0000</r>
       <r>  -1.4732  1.0000</r>
       <r>  -1.4698  1.0000</r>
       <r>  -1.4698  1.0000</r>
       <r>  -1.4698  1.0000</r>
       <r>  -1.4697  1.0000</r>
       <r>  -1.3768  1.0000</r>
       <r>  -1.3767  1.0000</r>
       <r>  -1.3767  1.0000</r>
       <r>  -1.3767  1.0000</r>
       <r>  -1.2894  1.0000</r>
       <r>  -1.2892  1.0000</r>
       <r>  -1.2892  1.0000</r>
       <r>  -1.2892  1.0000</r>
       <r>  -1.2854  1.0000</r>
       <r>  -1.2854  1.0000</r>
       <r>  -1.2854  1.0000</r>
       <r>  -1.2852  1.0000</r>
       <r>  -1.2410  1.0000</r>
       <r>  -1.2410  1.0000</r>
       <r>  -1.2410  1.0000</r>
       <r>  -1.2410  1.0000</r>
       <r>  -0.7949  1.0000</r>
       <r>  -0.7949  1.0000</r>
       <r>  -0.7949  1.0000</r>
       <r>  -0.7949  1.0000</r>
       <r>  -0.7949  1.0000</r>
       <r>  -0.7949  1.0000</r>
       <r>  -0.7948  1.0000</r>
       <r>  -0.7948  1.0000</r>
       <r>  -0.7900  1.0000</r>
       <r>  -0.7900  1.0000</r>
       <r>  -0.7900  1.0000</r>
       <r>  -0.7900  1.0000</r>
       <r>  -0.7844  1.0000</r>
       <r>  -0.7844  1.0000</r>
       <r>  -0.7844  1.0000</r>
       <r>  -0.7844  1.0000</r>
       <r>  -0.7808  1.0000</r>
       <r>  -0.7808  1.0000</r>
       <r>  -0.7808  1.0000</r>
       <r>  -0.7808  1.0000</r>
       <r>  -0.7808  1.0000</r>
       <r>  -0.7808  1.0000</r>
       <r>  -0.7807  1.0000</r>
       <r>  -0.7807  1.0000</r>
       <r>   2.4069  0.0000</r>
       <r>   2.4069  0.0000</r>
       <r>   2.4069  0.0000</r>
       <r>   2.4069  0.0000</r>
       <r>   2.7617  0.0000</r>
       <r>   2.7617  0.0000</r>
       <r>   2.7620  0.0000</r>
       <r>   2.7620  0.0000</r>
       <r>   2.7620  0.0000</r>
       <r>   2.7620  0.0000</r>
       <r>   2.7623  0.0000</r>
       <r>   2.7623  0.0000</r>
       <r>   3.1805  0.0000</r>
       <r>   3.1805  0.0000</r>
       <r>   3.1809  0.0000</r>
       <r>   3.1809  0.0000</r>
       <r>   3.1809  0.0000</r>
       <r>   3.1809  0.0000</r>
       <r>   3.1813  0.0000</r>
       <r>   3.1813  0.0000</r>
       <r>   3.5338  0.0000</r>
       <r>   3.5338  0.0000</r>
       <r>   3.5338  0.0000</r>
       <r>   3.5338  0.0000</r>
       <r>   6.9799  0.0000</r>
       <r>   6.9799  0.0000</r>
       <r>   6.9801  0.0000</r>
       <r>   6.9801  0.0000</r>
       <r>   6.9802  0.0000</r>
       <r>   6.9802  0.0000</r>
       <r>   6.9804  0.0000</r>
       <r>   6.9804  0.0000</r>
       <r>   7.2608  0.0000</r>
       <r>   7.2608  0.0000</r>
       <r>   7.2608  0.0000</r>
       <r>   7.2608  0.0000</r>
       <r>   7.7151  0.0000</r>
       <r>   7.7152  0.0000</r>
       <r>   7.7152  0.0000</r>
       <r>   7.7152  0.0000</r>
       <r>   7.9925  0.0000</r>
       <r>   7.9926  0.0000</r>
       <r>   7.9926  0.0000</r>
       <r>   7.9927  0.0000</r>
      </set>
      <set comment="kpoint 196">
       <r>  -3.2989  1.0000</r>
       <r>  -3.2976  1.0000</r>
       <r>  -3.2975  1.0000</r>
       <r>  -3.2975  1.0000</r>
       <r>  -3.2968  1.0000</r>
       <r>  -3.2968  1.0000</r>
       <r>  -3.2967  1.0000</r>
       <r>  -3.2955  1.0000</r>
       <r>  -2.9771  1.0000</r>
       <r>  -2.9767  1.0000</r>
       <r>  -2.9767  1.0000</r>
       <r>  -2.9765  1.0000</r>
       <r>  -2.9758  1.0000</r>
       <r>  -2.9754  1.0000</r>
       <r>  -2.9753  1.0000</r>
       <r>  -2.9753  1.0000</r>
       <r>  -2.9753  1.0000</r>
       <r>  -2.9752  1.0000</r>
       <r>  -2.9752  1.0000</r>
       <r>  -2.9752  1.0000</r>
       <r>  -2.9751  1.0000</r>
       <r>  -2.9751  1.0000</r>
       <r>  -2.9751  1.0000</r>
       <r>  -2.9750  1.0000</r>
       <r>  -2.9750  1.0000</r>
       <r>  -2.9750  1.0000</r>
       <r>  -2.9749  1.0000</r>
       <r>  -2.9745  1.0000</r>
       <r>  -2.9738  1.0000</r>
       <r>  -2.9736  1.0000</r>
       <r>  -2.9736  1.0000</r>
       <r>  -2.9732  1.0000</r>
       <r>  -2.5382  1.0000</r>
       <r>  -2.5356  1.0000</r>
       <r>  -2.5355  1.0000</r>
       <r>  -2.5354  1.0000</r>
       <r>  -2.5354  1.0000</r>
       <r>  -2.5350  1.0000</r>
       <r>  -2.5348  1.0000</r>
       <r>  -2.5348  1.0000</r>
       <r>  -2.5347  1.0000</r>
       <r>  -2.5346  1.0000</r>
       <r>  -2.5346  1.0000</r>
       <r>  -2.5346  1.0000</r>
       <r>  -2.5346  1.0000</r>
       <r>  -2.5346  1.0000</r>
       <r>  -2.5346  1.0000</r>
       <r>  -2.5346  1.0000</r>
       <r>  -2.5344  1.0000</r>
       <r>  -2.5344  1.0000</r>
       <r>  -2.5342  1.0000</r>
       <r>  -2.5338  1.0000</r>
       <r>  -2.5338  1.0000</r>
       <r>  -2.5337  1.0000</r>
       <r>  -2.5336  1.0000</r>
       <r>  -2.5311  1.0000</r>
       <r>  -2.0158  1.0000</r>
       <r>  -2.0158  1.0000</r>
       <r>  -2.0156  1.0000</r>
       <r>  -2.0154  1.0000</r>
       <r>  -2.0150  1.0000</r>
       <r>  -2.0150  1.0000</r>
       <r>  -2.0149  1.0000</r>
       <r>  -2.0149  1.0000</r>
       <r>  -2.0147  1.0000</r>
       <r>  -2.0147  1.0000</r>
       <r>  -2.0147  1.0000</r>
       <r>  -2.0146  1.0000</r>
       <r>  -2.0143  1.0000</r>
       <r>  -2.0142  1.0000</r>
       <r>  -2.0139  1.0000</r>
       <r>  -2.0139  1.0000</r>
       <r>  -1.8530  1.0000</r>
       <r>  -1.8526  1.0000</r>
       <r>  -1.8516  1.0000</r>
       <r>  -1.8516  1.0000</r>
       <r>  -1.8515  1.0000</r>
       <r>  -1.8515  1.0000</r>
       <r>  -1.8505  1.0000</r>
       <r>  -1.8501  1.0000</r>
       <r>  -1.7579  1.0000</r>
       <r>  -1.7579  1.0000</r>
       <r>  -1.7569  1.0000</r>
       <r>  -1.7568  1.0000</r>
       <r>  -1.7557  1.0000</r>
       <r>  -1.7556  1.0000</r>
       <r>  -1.7556  1.0000</r>
       <r>  -1.7556  1.0000</r>
       <r>  -1.7556  1.0000</r>
       <r>  -1.7556  1.0000</r>
       <r>  -1.7555  1.0000</r>
       <r>  -1.7555  1.0000</r>
       <r>  -1.7555  1.0000</r>
       <r>  -1.7555  1.0000</r>
       <r>  -1.7554  1.0000</r>
       <r>  -1.7554  1.0000</r>
       <r>  -1.7554  1.0000</r>
       <r>  -1.7554  1.0000</r>
       <r>  -1.7554  1.0000</r>
       <r>  -1.7552  1.0000</r>
       <r>  -1.7542  1.0000</r>
       <r>  -1.7540  1.0000</r>
       <r>  -1.7531  1.0000</r>
       <r>  -1.7531  1.0000</r>
       <r>  -1.5427  1.0000</r>
       <r>  -1.5418  1.0000</r>
       <r>  -1.5418  1.0000</r>
       <r>  -1.5405  1.0000</r>
       <r>  -1.5404  1.0000</r>
       <r>  -1.5403  1.0000</r>
       <r>  -1.5403  1.0000</r>
       <r>  -1.5402  1.0000</r>
       <r>  -1.5401  1.0000</r>
       <r>  -1.5401  1.0000</r>
       <r>  -1.5401  1.0000</r>
       <r>  -1.5401  1.0000</r>
       <r>  -1.5400  1.0000</r>
       <r>  -1.5400  1.0000</r>
       <r>  -1.5400  1.0000</r>
       <r>  -1.5400  1.0000</r>
       <r>  -1.5399  1.0000</r>
       <r>  -1.5397  1.0000</r>
       <r>  -1.5397  1.0000</r>
       <r>  -1.5397  1.0000</r>
       <r>  -1.5395  1.0000</r>
       <r>  -1.5382  1.0000</r>
       <r>  -1.5382  1.0000</r>
       <r>  -1.5374  1.0000</r>
       <r>  -1.3114  1.0000</r>
       <r>  -1.3105  1.0000</r>
       <r>  -1.3105  1.0000</r>
       <r>  -1.3105  1.0000</r>
       <r>  -1.3099  1.0000</r>
       <r>  -1.3099  1.0000</r>
       <r>  -1.3097  1.0000</r>
       <r>  -1.3097  1.0000</r>
       <r>  -1.3096  1.0000</r>
       <r>  -1.3096  1.0000</r>
       <r>  -1.3094  1.0000</r>
       <r>  -1.3094  1.0000</r>
       <r>  -1.3088  1.0000</r>
       <r>  -1.3088  1.0000</r>
       <r>  -1.3088  1.0000</r>
       <r>  -1.3078  1.0000</r>
       <r>  -0.7833  1.0000</r>
       <r>  -0.7833  1.0000</r>
       <r>  -0.7831  1.0000</r>
       <r>  -0.7830  1.0000</r>
       <r>  -0.7830  1.0000</r>
       <r>  -0.7829  1.0000</r>
       <r>  -0.7829  1.0000</r>
       <r>  -0.7829  1.0000</r>
       <r>  -0.7829  1.0000</r>
       <r>  -0.7828  1.0000</r>
       <r>  -0.7828  1.0000</r>
       <r>  -0.7828  1.0000</r>
       <r>  -0.7827  1.0000</r>
       <r>  -0.7826  1.0000</r>
       <r>  -0.7826  1.0000</r>
       <r>  -0.7826  1.0000</r>
       <r>  -0.7826  1.0000</r>
       <r>  -0.7825  1.0000</r>
       <r>  -0.7825  1.0000</r>
       <r>  -0.7825  1.0000</r>
       <r>  -0.7825  1.0000</r>
       <r>  -0.7823  1.0000</r>
       <r>  -0.7822  1.0000</r>
       <r>  -0.7822  1.0000</r>
       <r>   2.9545  0.0000</r>
       <r>   2.9568  0.0000</r>
       <r>   2.9568  0.0000</r>
       <r>   2.9589  0.0000</r>
       <r>   2.9591  0.0000</r>
       <r>   2.9593  0.0000</r>
       <r>   2.9593  0.0000</r>
       <r>   2.9593  0.0000</r>
       <r>   2.9593  0.0000</r>
       <r>   2.9594  0.0000</r>
       <r>   2.9594  0.0000</r>
       <r>   2.9594  0.0000</r>
       <r>   2.9595  0.0000</r>
       <r>   2.9595  0.0000</r>
       <r>   2.9596  0.0000</r>
       <r>   2.9596  0.0000</r>
       <r>   2.9596  0.0000</r>
       <r>   2.9597  0.0000</r>
       <r>   2.9597  0.0000</r>
       <r>   2.9598  0.0000</r>
       <r>   2.9600  0.0000</r>
       <r>   2.9621  0.0000</r>
       <r>   2.9621  0.0000</r>
       <r>   2.9645  0.0000</r>
       <r>   7.4678  0.0000</r>
       <r>   7.4682  0.0000</r>
       <r>   7.4699  0.0000</r>
       <r>   7.4713  0.0000</r>
       <r>   7.4715  0.0000</r>
       <r>   7.4718  0.0000</r>
       <r>   7.4718  0.0000</r>
       <r>   7.4720  0.0000</r>
       <r>   7.4720  0.0000</r>
       <r>   7.4721  0.0000</r>
       <r>   7.4721  0.0000</r>
       <r>   7.4721  0.0000</r>
       <r>   7.4722  0.0000</r>
       <r>   7.4722  0.0000</r>
       <r>   7.4724  0.0000</r>
       <r>   7.4726  0.0000</r>
       <r>   7.4728  0.0000</r>
       <r>   7.4733  0.0000</r>
       <r>   7.4739  0.0000</r>
       <r>   7.4748  0.0000</r>
      </set>
     </set>
    </set>
   </array>
  </eigenvalues>
 </calculation>
 <structure name="finalpos" >
  <crystal>
   <varray name="basis" >
    <v>       8.65950755      0.00000000      0.00000000</v>
    <v>       0.00000000      8.65950755      0.00000000</v>
    <v>       0.00000000      0.00000000      8.65950755</v>
   </varray>
   <i name="volume">    649.35110660</i>
   <varray name="rec_basis" >
    <v>       0.11548001      0.00000000      0.00000000</v>
    <v>       0.00000000      0.11548001      0.00000000</v>
    <v>       0.00000000      0.00000000      0.11548001</v>
   </varray>
  </crystal>
  <varray name="positions" >
   <v>       0.00115480      0.00000000      0.00000000</v>
   <v>       0.50000000      0.00000000      0.00000000</v>
   <v>       0.00000000      0.50000000      0.00000000</v>
   <v>       0.50000000      0.50000000      0.00000000</v>
   <v>       0.00000000      0.00000000      0.50000000</v>
   <v>       0.50000000      0.00000000      0.50000000</v>
   <v>       0.00000000      0.50000000      0.50000000</v>
   <v>       0.50000000      0.50000000      0.50000000</v>
   <v>       0.25000000      0.25000000      0.00000000</v>
   <v>       0.75000000      0.25000000      0.00000000</v>
   <v>       0.25000000      0.75000000      0.00000000</v>
   <v>       0.75000000      0.75000000      0.00000000</v>
   <v>       0.25000000      0.25000000      0.50000000</v>
   <v>       0.75000000      0.25000000      0.50000000</v>
   <v>       0.25000000      0.75000000      0.50000000</v>
   <v>       0.75000000      0.75000000      0.50000000</v>
   <v>       0.25000000      0.00000000      0.25000000</v>
   <v>       0.75000000      0.00000000      0.25000000</v>
   <v>       0.25000000      0.50000000      0.25000000</v>
   <v>       0.75000000      0.50000000      0.25000000</v>
   <v>       0.25000000      0.00000000      0.75000000</v>
   <v>       0.75000000      0.00000000      0.75000000</v>
   <v>       0.25000000      0.50000000      0.75000000</v>
   <v>       0.75000000      0.50000000      0.75000000</v>
   <v>       0.00000000      0.25000000      0.25000000</v>
   <v>       0.50000000      0.25000000      0.25000000</v>
   <v>       0.00000000      0.75000000      0.25000000</v>
   <v>       0.50000000      0.75000000      0.25000000</v>
   <v>       0.00000000      0.25000000      0.75000000</v>
   <v>       0.50000000      0.25000000      0.75000000</v>
   <v>       0.00000000      0.75000000      0.75000000</v>
   <v>       0.50000000      0.75000000      0.75000000</v>
  </varray>
 </structure>
</modeling>
