32   
1    

1    
  0.0100000000000000   0.0000000000000000   0.0000000000000000
  -0.0645911000   -0.0000000000   -0.0000000000
   0.0027766700    0.0000000000    0.0000000000
   0.0007511400   -0.0000000000    0.0000000000
   0.0003991100   -0.0000000000    0.0000000000
   0.0007511400    0.0000000000    0.0000000000
   0.0003991100    0.0000000000   -0.0000000000
  -0.0001302100   -0.0000000000   -0.0000000000
   0.0005052500   -0.0000000000   -0.0000000000
  -0.0018492000    0.0000387200   -0.0000387200
  -0.0012373200    0.0000002700   -0.0000002700
  -0.0018492000   -0.0000387200   -0.0000387200
  -0.0012373200   -0.0000002700   -0.0000002700
  -0.0018492000    0.0000387200    0.0000387200
  -0.0012373200    0.0000002700    0.0000002700
  -0.0018492000   -0.0000387200    0.0000387200
  -0.0012373200   -0.0000002700    0.0000002700
   0.0086986800    0.0000000000   -0.0093888600
   0.0088888600   -0.0000000000    0.0094024200
   0.0001382900    0.0000000000    0.0009843300
   0.0001454000   -0.0000000000   -0.0007400400
   0.0086986800    0.0000000000    0.0093888600
   0.0088888600   -0.0000000000   -0.0094024200
   0.0001382900   -0.0000000000   -0.0009843300
   0.0001454000   -0.0000000000    0.0007400400
   0.0086986800    0.0093888600   -0.0000000000
   0.0088888600   -0.0094024200    0.0000000000
   0.0086986800   -0.0093888600    0.0000000000
   0.0088888600    0.0094024200   -0.0000000000
   0.0001382900   -0.0009843300   -0.0000000000
   0.0001454000    0.0007400400   -0.0000000000
   0.0001382900    0.0009843300    0.0000000000
   0.0001454000   -0.0007400400   -0.0000000000
