mesh: [    48,    48,    48 ]
nqpoint: 2600   
reciprocal_lattice:
- [   0.23816336,   0.00000000,   0.00000000 ] # a*
- [   0.00000000,   0.23816336,   0.00000000 ] # b*
- [   0.00000000,   0.00000000,   0.23816336 ] # c*
natom:   4      
lattice:
- [     4.198798624459728,     0.000000000000000,     0.000000000000000 ] # a
- [     0.000000000000000,     4.198798624459728,     0.000000000000000 ] # b
- [     0.000000000000000,     0.000000000000000,     4.198798624459728 ] # c
points:
- symbol: Al # 1
  coordinates: [  0.500000000000000,  0.500000000000000,  0.000000000000000 ]
  mass: 26.981539
- symbol: Al # 2
  coordinates: [  0.500000000000000,  0.000000000000000,  0.500000000000000 ]
  mass: 26.981539
- symbol: Al # 3
  coordinates: [  0.000000000000000,  0.500000000000000,  0.500000000000000 ]
  mass: 26.981539
- symbol: Al # 4
  coordinates: [  0.000000000000000,  0.000000000000000,  0.000000000000000 ]
  mass: 26.981539
phonon:
- q-position: [    0.0104167,    0.0104167,    0.0104167 ]
  weight: 8    
  band:
  - # 1
    frequency:     0.0750245687
  - # 2
    frequency:     0.0750245687
  - # 3
    frequency:     0.2279083148
  - # 4
    frequency:     4.1645097110
  - # 5
    frequency:     4.1645097110
  - # 6
    frequency:     4.1645097110
  - # 7
    frequency:     4.1682137879
  - # 8
    frequency:     4.1682137879
  - # 9
    frequency:     4.1682137879
  - # 10
    frequency:     7.8883903685
  - # 11
    frequency:     7.8883903685
  - # 12
    frequency:     7.8883903685

- q-position: [    0.0312500,    0.0104167,    0.0104167 ]
  weight: 24   
  band:
  - # 1
    frequency:     0.1576041213
  - # 2
    frequency:     0.1789704820
  - # 3
    frequency:     0.4184783088
  - # 4
    frequency:     4.1587619541
  - # 5
    frequency:     4.1624704066
  - # 6
    frequency:     4.1712038620
  - # 7
    frequency:     4.1712038620
  - # 8
    frequency:     4.1829868468
  - # 9
    frequency:     4.1829868468
  - # 10
    frequency:     7.8788530410
  - # 11
    frequency:     7.8829617384
  - # 12
    frequency:     7.8829617384

- q-position: [    0.0520833,    0.0104167,    0.0104167 ]
  weight: 24   
  band:
  - # 1
    frequency:     0.2750124501
  - # 2
    frequency:     0.2913046161
  - # 3
    frequency:     0.6394249002
  - # 4
    frequency:     4.1472838185
  - # 5
    frequency:     4.1510009156
  - # 6
    frequency:     4.1873866011
  - # 7
    frequency:     4.1873866011
  - # 8
    frequency:     4.2093498807
  - # 9
    frequency:     4.2093498807
  - # 10
    frequency:     7.8597987338
  - # 11
    frequency:     7.8721080774
  - # 12
    frequency:     7.8721080774

- q-position: [    0.0729167,    0.0104167,    0.0104167 ]
  weight: 24   
  band:
  - # 1
    frequency:     0.3931261525
  - # 2
    frequency:     0.4051653587
  - # 3
    frequency:     0.8695476269
  - # 4
    frequency:     4.1301099609
  - # 5
    frequency:     4.1338397578
  - # 6
    frequency:     4.2122398903
  - # 7
    frequency:     4.2122398903
  - # 8
    frequency:     4.2473611855
  - # 9
    frequency:     4.2473611855
  - # 10
    frequency:     7.8312680352
  - # 11
    frequency:     7.8558367027
  - # 12
    frequency:     7.8558367027

- q-position: [    0.0937500,    0.0104167,    0.0104167 ]
  weight: 24   
  band:
  - # 1
    frequency:     0.5105417282
  - # 2
    frequency:     0.5196111742
  - # 3
    frequency:     1.1031912328
  - # 4
    frequency:     4.1072921156
  - # 5
    frequency:     4.1110383487
  - # 6
    frequency:     4.2449485475
  - # 7
    frequency:     4.2449485475
  - # 8
    frequency:     4.2967383626
  - # 9
    frequency:     4.2967383626
  - # 10
    frequency:     7.7933215588
  - # 11
    frequency:     7.8341588876
  - # 12
    frequency:     7.8341588876

- q-position: [    0.1145833,    0.0104167,    0.0104167 ]
  weight: 24   
  band:
  - # 1
    frequency:     0.6274723027
  - # 2
    frequency:     0.6343834213
  - # 3
    frequency:     1.3382024422
  - # 4
    frequency:     4.0788987959
  - # 5
    frequency:     4.0826647778
  - # 6
    frequency:     4.2846543497
  - # 7
    frequency:     4.2846543497
  - # 8
    frequency:     4.3569498397
  - # 9
    frequency:     4.3569498397
  - # 10
    frequency:     7.7460396239
  - # 11
    frequency:     7.8070902162
  - # 12
    frequency:     7.8070902162

- q-position: [    0.1354167,    0.0104167,    0.0104167 ]
  weight: 24   
  band:
  - # 1
    frequency:     0.7441207968
  - # 2
    frequency:     0.7493816050
  - # 3
    frequency:     1.5735499597
  - # 4
    frequency:     4.0450148970
  - # 5
    frequency:     4.0488034135
  - # 6
    frequency:     4.3304297692
  - # 7
    frequency:     4.3304297692
  - # 8
    frequency:     4.4272948952
  - # 9
    frequency:     4.4272948952
  - # 10
    frequency:     7.6895218315
  - # 11
    frequency:     7.7746510541
  - # 12
    frequency:     7.7746510541

- q-position: [    0.1562500,    0.0104167,    0.0104167 ]
  weight: 24   
  band:
  - # 1
    frequency:     0.8606076013
  - # 2
    frequency:     0.8645522951
  - # 3
    frequency:     1.8086355729
  - # 4
    frequency:     4.0057412028
  - # 5
    frequency:     4.0095544116
  - # 6
    frequency:     4.3812785721
  - # 7
    frequency:     4.3812785721
  - # 8
    frequency:     4.5069605275
  - # 9
    frequency:     4.5069605275
  - # 10
    frequency:     7.6238865402
  - # 11
    frequency:     7.7368671330
  - # 12
    frequency:     7.7368671330

- q-position: [    0.1770833,    0.0104167,    0.0104167 ]
  weight: 24   
  band:
  - # 1
    frequency:     0.9769944659
  - # 2
    frequency:     0.9798549869
  - # 3
    frequency:     2.0430513955
  - # 4
    frequency:     3.9611937995
  - # 5
    frequency:     3.9650331310
  - # 6
    frequency:     4.4361514617
  - # 7
    frequency:     4.4361514617
  - # 8
    frequency:     4.5950629547
  - # 9
    frequency:     4.5950629547
  - # 10
    frequency:     7.5492702444
  - # 11
    frequency:     7.6937702455
  - # 12
    frequency:     7.6937702455

- q-position: [    0.1979167,    0.0104167,    0.0104167 ]
  weight: 24   
  band:
  - # 1
    frequency:     1.0933033451
  - # 2
    frequency:     1.0952487578
  - # 3
    frequency:     2.2764806568
  - # 4
    frequency:     3.9115033970
  - # 5
    frequency:     3.9153694578
  - # 6
    frequency:     4.4939676973
  - # 7
    frequency:     4.4939676973
  - # 8
    frequency:     4.6906796093
  - # 9
    frequency:     4.6906796093
  - # 10
    frequency:     7.4658268596
  - # 11
    frequency:     7.6453990486
  - # 12
    frequency:     7.6453990486

- q-position: [    0.2187500,    0.0104167,    0.0104167 ]
  weight: 24   
  band:
  - # 1
    frequency:     1.2095270497
  - # 2
    frequency:     1.2106860546
  - # 3
    frequency:     2.5086521996
  - # 4
    frequency:     3.8568145618
  - # 5
    frequency:     3.8607070411
  - # 6
    frequency:     4.5536376547
  - # 7
    frequency:     4.5536376547
  - # 8
    frequency:     4.7928744563
  - # 9
    frequency:     4.7928744563
  - # 10
    frequency:     7.3737269196
  - # 11
    frequency:     7.5917999732
  - # 12
    frequency:     7.5917999732

- q-position: [    0.2395833,    0.0104167,    0.0104167 ]
  weight: 24   
  band:
  - # 1
    frequency:     1.3256350435
  - # 2
    frequency:     1.3261094056
  - # 3
    frequency:     2.7393176203
  - # 4
    frequency:     3.7972848662
  - # 5
    frequency:     3.8012024453
  - # 6
    frequency:     4.6140838200
  - # 7
    frequency:     4.6140838200
  - # 8
    frequency:     4.9007179390
  - # 9
    frequency:     4.9007179390
  - # 10
    frequency:     7.2731566899
  - # 11
    frequency:     7.5330282349
  - # 12
    frequency:     7.5330282349

- q-position: [    0.2604167,    0.0104167,    0.0104167 ]
  weight: 24   
  band:
  - # 1
    frequency:     1.4414495388
  - # 2
    frequency:     1.4415766648
  - # 3
    frequency:     2.9682389266
  - # 4
    frequency:     3.7330839549
  - # 5
    frequency:     3.7370242201
  - # 6
    frequency:     4.6742590976
  - # 7
    frequency:     4.6742590976
  - # 8
    frequency:     5.0133023102
  - # 9
    frequency:     5.0133023102
  - # 10
    frequency:     7.1643172058
  - # 11
    frequency:     7.4691489462
  - # 12
    frequency:     7.4691489462

- q-position: [    0.2812500,    0.0104167,    0.0104167 ]
  weight: 24   
  band:
  - # 1
    frequency:     1.5566242802
  - # 2
    frequency:     1.5572830156
  - # 3
    frequency:     3.1951814969
  - # 4
    frequency:     3.6643925364
  - # 5
    frequency:     3.6683518956
  - # 6
    frequency:     4.7331620849
  - # 7
    frequency:     4.7331620849
  - # 8
    frequency:     5.1297529652
  - # 9
    frequency:     5.1297529652
  - # 10
    frequency:     7.0474232389
  - # 11
    frequency:     7.4002383250
  - # 12
    frequency:     7.4002383250

- q-position: [    0.3020833,    0.0104167,    0.0104167 ]
  weight: 24   
  band:
  - # 1
    frequency:     1.6715379501
  - # 2
    frequency:     1.6726681806
  - # 3
    frequency:     3.4199099118
  - # 4
    frequency:     3.5914013021
  - # 5
    frequency:     3.5953749052
  - # 6
    frequency:     4.7898493830
  - # 7
    frequency:     4.7898493830
  - # 8
    frequency:     5.2492363819
  - # 9
    frequency:     5.2492363819
  - # 10
    frequency:     6.9227022023
  - # 11
    frequency:     7.3263850002
  - # 12
    frequency:     7.3263850002

- q-position: [    0.3229167,    0.0104167,    0.0104167 ]
  weight: 24   
  band:
  - # 1
    frequency:     1.7860811178
  - # 2
    frequency:     1.7876301270
  - # 3
    frequency:     3.5143097794
  - # 4
    frequency:     3.5182914430
  - # 5
    frequency:     3.6421854465
  - # 6
    frequency:     4.8434452391
  - # 7
    frequency:     4.8434452391
  - # 8
    frequency:     5.3709652604
  - # 9
    frequency:     5.3709652604
  - # 10
    frequency:     6.7903929999
  - # 11
    frequency:     7.2476914117
  - # 12
    frequency:     7.2476914117

- q-position: [    0.3437500,    0.0104167,    0.0104167 ]
  weight: 24   
  band:
  - # 1
    frequency:     1.9001306352
  - # 2
    frequency:     1.9020514823
  - # 3
    frequency:     3.4333251247
  - # 4
    frequency:     3.4373072603
  - # 5
    frequency:     3.8617645880
  - # 6
    frequency:     4.8931489055
  - # 7
    frequency:     4.8931489055
  - # 8
    frequency:     5.4942014272
  - # 9
    frequency:     5.4942014272
  - # 10
    frequency:     6.6507448305
  - # 11
    frequency:     7.1642753059
  - # 12
    frequency:     7.1642753059

- q-position: [    0.3645833,    0.0104167,    0.0104167 ]
  weight: 24   
  band:
  - # 1
    frequency:     2.0135499035
  - # 2
    frequency:     2.0158002934
  - # 3
    frequency:     3.3486608632
  - # 4
    frequency:     3.3526344095
  - # 5
    frequency:     4.0783982226
  - # 6
    frequency:     4.9382401249
  - # 7
    frequency:     4.9382401249
  - # 8
    frequency:     5.6182570081
  - # 9
    frequency:     5.6182570081
  - # 10
    frequency:     6.5040159540
  - # 11
    frequency:     7.0762713290
  - # 12
    frequency:     7.0762713290

- q-position: [    0.3854167,    0.0104167,    0.0104167 ]
  weight: 24   
  band:
  - # 1
    frequency:     2.1261893382
  - # 2
    frequency:     2.1287308253
  - # 3
    frequency:     3.2605355822
  - # 4
    frequency:     3.2644899411
  - # 5
    frequency:     4.2918312882
  - # 6
    frequency:     4.9780831250
  - # 7
    frequency:     4.9780831250
  - # 8
    frequency:     5.7424943022
  - # 9
    frequency:     5.7424943022
  - # 10
    frequency:     6.3504724308
  - # 11
    frequency:     6.9838327224
  - # 12
    frequency:     6.9838327224

- q-position: [    0.4062500,    0.0104167,    0.0104167 ]
  weight: 24   
  band:
  - # 1
    frequency:     2.2378870080
  - # 2
    frequency:     2.2406844298
  - # 3
    frequency:     3.1691715859
  - # 4
    frequency:     3.1730945613
  - # 5
    frequency:     4.5018027675
  - # 6
    frequency:     5.0121294612
  - # 7
    frequency:     5.0121294612
  - # 8
    frequency:     5.8663247049
  - # 9
    frequency:     5.8663247049
  - # 10
    frequency:     6.1903868434
  - # 11
    frequency:     6.8871331385
  - # 12
    frequency:     6.8871331385

- q-position: [    0.4270833,    0.0104167,    0.0104167 ]
  weight: 24   
  band:
  - # 1
    frequency:     2.3484694259
  - # 2
    frequency:     2.3514904956
  - # 3
    frequency:     3.0747935209
  - # 4
    frequency:     3.0786712597
  - # 5
    frequency:     4.7080459420
  - # 6
    frequency:     5.0399199925
  - # 7
    frequency:     5.0399199925
  - # 8
    frequency:     5.9892069204
  - # 9
    frequency:     5.9892069204
  - # 10
    frequency:     6.0240370115
  - # 11
    frequency:     6.7863686204
  - # 12
    frequency:     6.7863686204

- q-position: [    0.4479167,    0.0104167,    0.0104167 ]
  weight: 24   
  band:
  - # 1
    frequency:     2.4577524719
  - # 2
    frequency:     2.4609674833
  - # 3
    frequency:     2.9776269803
  - # 4
    frequency:     2.9814439150
  - # 5
    frequency:     4.9102888530
  - # 6
    frequency:     5.0610862183
  - # 7
    frequency:     5.0610862183
  - # 8
    frequency:     5.8517047116
  - # 9
    frequency:     6.1106444996
  - # 10
    frequency:     6.1106444996
  - # 11
    frequency:     6.6817599398
  - # 12
    frequency:     6.6817599398

- q-position: [    0.4687500,    0.0104167,    0.0104167 ]
  weight: 24   
  band:
  - # 1
    frequency:     2.5655424309
  - # 2
    frequency:     2.5689240420
  - # 3
    frequency:     2.8778970983
  - # 4
    frequency:     2.8816358882
  - # 5
    frequency:     5.0753511556
  - # 6
    frequency:     5.0753511556
  - # 7
    frequency:     5.1082549332
  - # 8
    frequency:     5.6736744128
  - # 9
    frequency:     6.2301816705
  - # 10
    frequency:     6.2301816705
  - # 11
    frequency:     6.5735564926
  - # 12
    frequency:     6.5735564926

- q-position: [    0.4895833,    0.0104167,    0.0104167 ]
  weight: 24   
  band:
  - # 1
    frequency:     2.6716371281
  - # 2
    frequency:     2.6751601987
  - # 3
    frequency:     2.7758271442
  - # 4
    frequency:     2.7794686137
  - # 5
    frequency:     5.0825298891
  - # 6
    frequency:     5.0825298891
  - # 7
    frequency:     5.3016637787
  - # 8
    frequency:     5.4902320400
  - # 9
    frequency:     6.3473772241
  - # 10
    frequency:     6.3473772241
  - # 11
    frequency:     6.4620621114
  - # 12
    frequency:     6.4620621114

- q-position: [    0.0312500,    0.0312500,    0.0104167 ]
  weight: 24   
  band:
  - # 1
    frequency:     0.1575197970
  - # 2
    frequency:     0.2380234399
  - # 3
    frequency:     0.5651834138
  - # 4
    frequency:     4.1654443927
  - # 5
    frequency:     4.1654443927
  - # 6
    frequency:     4.1711763583
  - # 7
    frequency:     4.1772459543
  - # 8
    frequency:     4.1772459543
  - # 9
    frequency:     4.2042482914
  - # 10
    frequency:     7.8734659678
  - # 11
    frequency:     7.8734659678
  - # 12
    frequency:     7.8775330627

- q-position: [    0.0520833,    0.0312500,    0.0104167 ]
  weight: 48   
  band:
  - # 1
    frequency:     0.2408452885
  - # 2
    frequency:     0.3313717631
  - # 3
    frequency:     0.7554255467
  - # 4
    frequency:     4.1539428048
  - # 5
    frequency:     4.1657812866
  - # 6
    frequency:     4.1811137375
  - # 7
    frequency:     4.1816028559
  - # 8
    frequency:     4.2036145526
  - # 9
    frequency:     4.2363980188
  - # 10
    frequency:     7.8544947571
  - # 11
    frequency:     7.8626956205
  - # 12
    frequency:     7.8666793180

- q-position: [    0.0729167,    0.0312500,    0.0104167 ]
  weight: 48   
  band:
  - # 1
    frequency:     0.3556033055
  - # 2
    frequency:     0.4356058638
  - # 3
    frequency:     0.9633598400
  - # 4
    frequency:     4.1367336979
  - # 5
    frequency:     4.1486269803
  - # 6
    frequency:     4.2006791004
  - # 7
    frequency:     4.2064173074
  - # 8
    frequency:     4.2416359872
  - # 9
    frequency:     4.2790281991
  - # 10
    frequency:     7.8260886617
  - # 11
    frequency:     7.8465497182
  - # 12
    frequency:     7.8504078368

- q-position: [    0.0937500,    0.0312500,    0.0104167 ]
  weight: 48   
  band:
  - # 1
    frequency:     0.4762871838
  - # 2
    frequency:     0.5445063819
  - # 3
    frequency:     1.1807628446
  - # 4
    frequency:     4.1138687186
  - # 5
    frequency:     4.1258339948
  - # 6
    frequency:     4.2291748372
  - # 7
    frequency:     4.2390721182
  - # 8
    frequency:     4.2910275903
  - # 9
    frequency:     4.3317596847
  - # 10
    frequency:     7.7883082501
  - # 11
    frequency:     7.8250401408
  - # 12
    frequency:     7.8287299147

- q-position: [    0.1145833,    0.0312500,    0.0104167 ]
  weight: 48   
  band:
  - # 1
    frequency:     0.5975711778
  - # 2
    frequency:     0.6558040909
  - # 3
    frequency:     1.4036099268
  - # 4
    frequency:     4.0854162572
  - # 5
    frequency:     4.0974698200
  - # 6
    frequency:     4.2657221149
  - # 7
    frequency:     4.2787091089
  - # 8
    frequency:     4.3512568668
  - # 9
    frequency:     4.3941064358
  - # 10
    frequency:     7.7412337889
  - # 11
    frequency:     7.7981832890
  - # 12
    frequency:     7.8016611651

- q-position: [    0.1354167,    0.0312500,    0.0104167 ]
  weight: 48   
  band:
  - # 1
    frequency:     0.7183593550
  - # 2
    frequency:     0.7685094530
  - # 3
    frequency:     1.6295954412
  - # 4
    frequency:     4.0514610459
  - # 5
    frequency:     4.0636180878
  - # 6
    frequency:     4.3093023912
  - # 7
    frequency:     4.3244008102
  - # 8
    frequency:     4.4216220396
  - # 9
    frequency:     4.4654859377
  - # 10
    frequency:     7.6849648256
  - # 11
    frequency:     7.7660005615
  - # 12
    frequency:     7.7692219898

- q-position: [    0.1562500,    0.0312500,    0.0104167 ]
  weight: 48   
  band:
  - # 1
    frequency:     0.8384954876
  - # 2
    frequency:     0.8821238483
  - # 3
    frequency:     1.8572814342
  - # 4
    frequency:     4.0121036589
  - # 5
    frequency:     4.0243780902
  - # 6
    frequency:     4.3587937631
  - # 7
    frequency:     4.3751509218
  - # 8
    frequency:     4.5013090946
  - # 9
    frequency:     4.5452386011
  - # 10
    frequency:     7.6196196730
  - # 11
    frequency:     7.7285189477
  - # 12
    frequency:     7.7314381623

- q-position: [    0.1770833,    0.0312500,    0.0104167 ]
  weight: 48   
  band:
  - # 1
    frequency:     0.9580318915
  - # 2
    frequency:     0.9963615054
  - # 3
    frequency:     2.0857053925
  - # 4
    frequency:     3.9674599170
  - # 5
    frequency:     3.9798642062
  - # 6
    frequency:     4.4130075944
  - # 7
    frequency:     4.4299099215
  - # 8
    frequency:     4.5894333399
  - # 9
    frequency:     4.6326468449
  - # 10
    frequency:     7.5453347979
  - # 11
    frequency:     7.6857717330
  - # 12
    frequency:     7.6883415235

- q-position: [    0.1979167,    0.0312500,    0.0104167 ]
  weight: 48   
  band:
  - # 1
    frequency:     1.0770463250
  - # 2
    frequency:     1.1110359509
  - # 3
    frequency:     2.3141777890
  - # 4
    frequency:     3.9176601980
  - # 5
    frequency:     3.9302052412
  - # 6
    frequency:     4.4707237086
  - # 7
    frequency:     4.4875966660
  - # 8
    frequency:     4.6850714232
  - # 9
    frequency:     4.7269524513
  - # 10
    frequency:     7.4622641188
  - # 11
    frequency:     7.6377993147
  - # 12
    frequency:     7.6399707845

- q-position: [    0.2187500,    0.0312500,    0.0104167 ]
  weight: 48   
  band:
  - # 1
    frequency:     1.1955955761
  - # 2
    frequency:     1.2260078545
  - # 3
    frequency:     2.5421712184
  - # 4
    frequency:     3.8628486566
  - # 5
    frequency:     3.8755436798
  - # 6
    frequency:     4.5307220152
  - # 7
    frequency:     4.5471209342
  - # 8
    frequency:     4.7872866589
  - # 9
    frequency:     4.8273721403
  - # 10
    frequency:     7.3705782175
  - # 11
    frequency:     7.5846501241
  - # 12
    frequency:     7.5863724366

- q-position: [    0.2395833,    0.0312500,    0.0104167 ]
  weight: 48   
  band:
  - # 1
    frequency:     1.3137061361
  - # 2
    frequency:     1.3411587029
  - # 3
    frequency:     2.7692569603
  - # 4
    frequency:     3.8031823557
  - # 5
    frequency:     3.8160348598
  - # 6
    frequency:     4.5918091524
  - # 7
    frequency:     4.6074043973
  - # 8
    frequency:     4.8951489724
  - # 9
    frequency:     4.9331115310
  - # 10
    frequency:     7.2704634708
  - # 11
    frequency:     7.5263816550
  - # 12
    frequency:     7.5276017636

- q-position: [    0.2604167,    0.0312500,    0.0104167 ]
  weight: 48   
  band:
  - # 1
    frequency:     1.4313749286
  - # 2
    frequency:     1.4563764798
  - # 3
    frequency:     2.9950672831
  - # 4
    frequency:     3.7388303131
  - # 5
    frequency:     3.7518460682
  - # 6
    frequency:     4.6528396379
  - # 7
    frequency:     4.6673989013
  - # 8
    frequency:     5.0077502204
  - # 9
    frequency:     5.0433775675
  - # 10
    frequency:     7.1621211076
  - # 11
    frequency:     7.4630615927
  - # 12
    frequency:     7.4637239565

- q-position: [    0.2812500,    0.0312500,    0.0104167 ]
  weight: 48   
  band:
  - # 1
    frequency:     1.5485723215
  - # 2
    frequency:     1.5715474386
  - # 3
    frequency:     3.2192722917
  - # 4
    frequency:     3.6699724664
  - # 5
    frequency:     3.6831555669
  - # 6
    frequency:     4.7127317768
  - # 7
    frequency:     4.7261017130
  - # 8
    frequency:     5.1242155052
  - # 9
    frequency:     5.1573893474
  - # 10
    frequency:     7.0457661995
  - # 11
    frequency:     7.3947690447
  - # 12
    frequency:     7.3948153274

- q-position: [    0.3020833,    0.0312500,    0.0104167 ]
  weight: 48   
  band:
  - # 1
    frequency:     1.6652451994
  - # 2
    frequency:     1.6865512484
  - # 3
    frequency:     3.4415653062
  - # 4
    frequency:     3.5967985613
  - # 5
    frequency:     3.6101515528
  - # 6
    frequency:     4.7704790444
  - # 7
    frequency:     4.7825678039
  - # 8
    frequency:     5.2437110884
  - # 9
    frequency:     5.2743872374
  - # 10
    frequency:     6.9216265926
  - # 11
    frequency:     7.3209646243
  - # 12
    frequency:     7.3215958704

- q-position: [    0.3229167,    0.0312500,    0.0104167 ]
  weight: 48   
  band:
  - # 1
    frequency:     1.7813195397
  - # 2
    frequency:     1.8012581760
  - # 3
    frequency:     3.5195069656
  - # 4
    frequency:     3.5330310597
  - # 5
    frequency:     3.6616534244
  - # 6
    frequency:     4.8251578508
  - # 7
    frequency:     4.8359194659
  - # 8
    frequency:     5.3654494949
  - # 9
    frequency:     5.3936401890
  - # 10
    frequency:     6.7899417889
  - # 11
    frequency:     7.2422744488
  - # 12
    frequency:     7.2436481127

- q-position: [    0.3437500,    0.0312500,    0.0104167 ]
  weight: 48   
  band:
  - # 1
    frequency:     1.8967024363
  - # 2
    frequency:     1.9155276054
  - # 3
    frequency:     3.4383034159
  - # 4
    frequency:     3.4519988079
  - # 5
    frequency:     3.8792513467
  - # 6
    frequency:     4.8759325861
  - # 7
    frequency:     4.8853536477
  - # 8
    frequency:     5.4886923665
  - # 9
    frequency:     5.5144512575
  - # 10
    frequency:     6.6509617857
  - # 11
    frequency:     7.1588627842
  - # 12
    frequency:     7.1610475359

- q-position: [    0.3645833,    0.0312500,    0.0104167 ]
  weight: 48   
  band:
  - # 1
    frequency:     2.0112836625
  - # 2
    frequency:     2.0292074872
  - # 3
    frequency:     3.3533996988
  - # 4
    frequency:     3.3672660115
  - # 5
    frequency:     4.0940773220
  - # 6
    frequency:     4.9220587189
  - # 7
    frequency:     4.9301474221
  - # 8
    frequency:     5.6127515560
  - # 9
    frequency:     5.6361614185
  - # 10
    frequency:     6.5049458858
  - # 11
    frequency:     7.0708646545
  - # 12
    frequency:     7.0739332863

- q-position: [    0.3854167,    0.0312500,    0.0104167 ]
  weight: 48   
  band:
  - # 1
    frequency:     2.1249369144
  - # 2
    frequency:     2.1421344422
  - # 3
    frequency:     3.2650122747
  - # 4
    frequency:     3.2790491511
  - # 5
    frequency:     4.3058505177
  - # 6
    frequency:     4.9628845615
  - # 7
    frequency:     4.9696619700
  - # 8
    frequency:     5.7369888566
  - # 9
    frequency:     5.7581518240
  - # 10
    frequency:     6.3521614857
  - # 11
    frequency:     6.9784339592
  - # 12
    frequency:     6.9824637157

- q-position: [    0.4062500,    0.0312500,    0.0104167 ]
  weight: 48   
  band:
  - # 1
    frequency:     2.2375208774
  - # 2
    frequency:     2.2541343074
  - # 3
    frequency:     3.1733608472
  - # 4
    frequency:     3.1875687222
  - # 5
    frequency:     4.5142893779
  - # 6
    frequency:     4.9978521603
  - # 7
    frequency:     5.0033454240
  - # 8
    frequency:     5.8608146111
  - # 9
    frequency:     5.8798446036
  - # 10
    frequency:     6.1928828571
  - # 11
    frequency:     6.8817456177
  - # 12
    frequency:     6.8868184828

- q-position: [    0.4270833,    0.0312500,    0.0104167 ]
  weight: 48   
  band:
  - # 1
    frequency:     2.3488802465
  - # 2
    frequency:     2.3650229591
  - # 3
    frequency:     3.0786668858
  - # 4
    frequency:     3.0930479688
  - # 5
    frequency:     4.7191106865
  - # 6
    frequency:     5.0264976366
  - # 7
    frequency:     5.0307348586
  - # 8
    frequency:     5.9836851084
  - # 9
    frequency:     6.0007020226
  - # 10
    frequency:     6.0273899316
  - # 11
    frequency:     6.7809984556
  - # 12
    frequency:     6.7872013083

- q-position: [    0.4479167,    0.0312500,    0.0104167 ]
  weight: 48   
  band:
  - # 1
    frequency:     2.4588467957
  - # 2
    frequency:     2.4746072892
  - # 3
    frequency:     2.9811521079
  - # 4
    frequency:     2.9957116139
  - # 5
    frequency:     4.9200291480
  - # 6
    frequency:     5.0484512015
  - # 7
    frequency:     5.0514576638
  - # 8
    frequency:     5.8559671046
  - # 9
    frequency:     6.1050974161
  - # 10
    frequency:     6.1202223933
  - # 11
    frequency:     6.6764206689
  - # 12
    frequency:     6.6838449560

- q-position: [    0.4687500,    0.0312500,    0.0104167 ]
  weight: 48   
  band:
  - # 1
    frequency:     2.5672405502
  - # 2
    frequency:     2.5826862572
  - # 3
    frequency:     2.8810369289
  - # 4
    frequency:     2.8957845979
  - # 5
    frequency:     5.0634369921
  - # 6
    frequency:     5.0652324874
  - # 7
    frequency:     5.1167573581
  - # 8
    frequency:     5.6789020723
  - # 9
    frequency:     6.2245721226
  - # 10
    frequency:     6.2379210142
  - # 11
    frequency:     6.5682897968
  - # 12
    frequency:     6.5770281212

- q-position: [    0.4895833,    0.0312500,    0.0104167 ]
  weight: 48   
  band:
  - # 1
    frequency:     2.6738710777
  - # 2
    frequency:     2.6890519780
  - # 3
    frequency:     2.7785388901
  - # 4
    frequency:     2.7934908319
  - # 5
    frequency:     5.0712728211
  - # 6
    frequency:     5.0718698901
  - # 7
    frequency:     5.3090060740
  - # 8
    frequency:     5.4964847191
  - # 9
    frequency:     6.3414741984
  - # 10
    frequency:     6.3530758595
  - # 11
    frequency:     6.4571876478
  - # 12
    frequency:     6.4672541325

- q-position: [    0.0520833,    0.0520833,    0.0104167 ]
  weight: 24   
  band:
  - # 1
    frequency:     0.2542692382
  - # 2
    frequency:     0.4048220619
  - # 3
    frequency:     0.9208488658
  - # 4
    frequency:     4.1700525070
  - # 5
    frequency:     4.1700525070
  - # 6
    frequency:     4.1841271365
  - # 7
    frequency:     4.1921608691
  - # 8
    frequency:     4.1921608691
  - # 9
    frequency:     4.2745695394
  - # 10
    frequency:     7.8438909959
  - # 11
    frequency:     7.8438909959
  - # 12
    frequency:     7.8558254215

- q-position: [    0.0729167,    0.0520833,    0.0104167 ]
  weight: 48   
  band:
  - # 1
    frequency:     0.3311816934
  - # 2
    frequency:     0.4952018413
  - # 3
    frequency:     1.1081550012
  - # 4
    frequency:     4.1527697338
  - # 5
    frequency:     4.1750226807
  - # 6
    frequency:     4.1947889327
  - # 7
    frequency:     4.1969039995
  - # 8
    frequency:     4.2302024087
  - # 9
    frequency:     4.3226714353
  - # 10
    frequency:     7.8157346788
  - # 11
    frequency:     7.8279959580
  - # 12
    frequency:     7.8395537511

- q-position: [    0.0937500,    0.0520833,    0.0104167 ]
  weight: 48   
  band:
  - # 1
    frequency:     0.4387331231
  - # 2
    frequency:     0.5948225177
  - # 3
    frequency:     1.3079321394
  - # 4
    frequency:     4.1298055477
  - # 5
    frequency:     4.1522505253
  - # 6
    frequency:     4.2190136593
  - # 7
    frequency:     4.2273356185
  - # 8
    frequency:     4.2796226713
  - # 9
    frequency:     4.3800978157
  - # 10
    frequency:     7.7782871258
  - # 11
    frequency:     7.8068227135
  - # 12
    frequency:     7.8178756480

- q-position: [    0.1145833,    0.0520833,    0.0104167 ]
  weight: 48   
  band:
  - # 1
    frequency:     0.5572952392
  - # 2
    frequency:     0.6997851584
  - # 3
    frequency:     1.5157212937
  - # 4
    frequency:     4.1012274835
  - # 5
    frequency:     4.1239113452
  - # 6
    frequency:     4.2497617096
  - # 7
    frequency:     4.2668345296
  - # 8
    frequency:     4.3398873033
  - # 9
    frequency:     4.4462264637
  - # 10
    frequency:     7.7316284684
  - # 11
    frequency:     7.7803892624
  - # 12
    frequency:     7.7908067856

- q-position: [    0.1354167,    0.0520833,    0.0104167 ]
  weight: 48   
  band:
  - # 1
    frequency:     0.6795359002
  - # 2