<?xml version="1.0" encoding="ISO-8859-1"?>
<modeling>
 <generator>
  <i name="program" type="string">vasp</i>
  <i name="version" type="string">4.6.28 </i>
  <i name="subversion" type="string">25Jul05 complex  parallel</i>
  <i name="platform" type="string">LinuxIFC</i>
  <i name="date" type="string">2016 10 21</i>
  <i name="time" type="string">16:40:00</i>
 </generator>
 <incar>
  <i type="string" name="PREC">accurate</i>
  <i type="int" name="IALGO">    38</i>
  <i name="EDIFF">      0.00000001</i>
  <i type="int" name="IBRION">    -1</i>
  <i name="ENCUT">    500.00000000</i>
  <i type="logical" name="LREAL"> F  </i>
  <i type="int" name="ISMEAR">     0</i>
  <i name="SIGMA">      0.01000000</i>
  <i type="logical" name="LWAVE"> F  </i>
  <i type="logical" name="LCHARG"> F  </i>
 </incar>
 <kpoints>
  <generation param="Gamma">
   <v type="int" name="divisions">      12      12      12</v>
   <v name="usershift">      0.00000000      0.00000000      0.00000000</v>
   <v name="genvec1">      0.08333333      0.00000000      0.00000000</v>
   <v name="genvec2">      0.00000000      0.08333333      0.00000000</v>
   <v name="genvec3">      0.00000000      0.00000000      0.08333333</v>
   <v name="shift">      0.00000000      0.00000000      0.00000000</v>
  </generation>
  <varray name="kpointlist" >
   <v>       0.00000000      0.00000000      0.00000000</v>
   <v>       0.08333333      0.00000000      0.00000000</v>
   <v>       0.16666667      0.00000000      0.00000000</v>
   <v>       0.25000000      0.00000000      0.00000000</v>
   <v>       0.33333333      0.00000000      0.00000000</v>
   <v>       0.41666667      0.00000000      0.00000000</v>
   <v>       0.50000000      0.00000000      0.00000000</v>
   <v>       0.00000000      0.08333333      0.00000000</v>
   <v>       0.08333333      0.08333333      0.00000000</v>
   <v>       0.16666667      0.08333333      0.00000000</v>
   <v>       0.25000000      0.08333333      0.00000000</v>
   <v>       0.33333333      0.08333333      0.00000000</v>
   <v>       0.41666667      0.08333333      0.00000000</v>
   <v>       0.50000000      0.08333333      0.00000000</v>
   <v>       0.00000000      0.16666667      0.00000000</v>
   <v>       0.08333333      0.16666667      0.00000000</v>
   <v>       0.16666667      0.16666667      0.00000000</v>
   <v>       0.25000000      0.16666667      0.00000000</v>
   <v>       0.33333333      0.16666667      0.00000000</v>
   <v>       0.41666667      0.16666667      0.00000000</v>
   <v>       0.50000000      0.16666667      0.00000000</v>
   <v>       0.00000000      0.25000000      0.00000000</v>
   <v>       0.08333333      0.25000000      0.00000000</v>
   <v>       0.16666667      0.25000000      0.00000000</v>
   <v>       0.25000000      0.25000000      0.00000000</v>
   <v>       0.33333333      0.25000000      0.00000000</v>
   <v>       0.41666667      0.25000000      0.00000000</v>
   <v>       0.50000000      0.25000000      0.00000000</v>
   <v>       0.00000000      0.33333333      0.00000000</v>
   <v>       0.08333333      0.33333333      0.00000000</v>
   <v>       0.16666667      0.33333333      0.00000000</v>
   <v>       0.25000000      0.33333333      0.00000000</v>
   <v>       0.33333333      0.33333333      0.00000000</v>
   <v>       0.41666667      0.33333333      0.00000000</v>
   <v>       0.50000000      0.33333333      0.00000000</v>
   <v>       0.00000000      0.41666667      0.00000000</v>
   <v>       0.08333333      0.41666667      0.00000000</v>
   <v>       0.16666667      0.41666667      0.00000000</v>
   <v>       0.25000000      0.41666667      0.00000000</v>
   <v>       0.33333333      0.41666667      0.00000000</v>
   <v>       0.41666667      0.41666667      0.00000000</v>
   <v>       0.50000000      0.41666667      0.00000000</v>
   <v>       0.00000000      0.50000000      0.00000000</v>
   <v>       0.08333333      0.50000000      0.00000000</v>
   <v>       0.16666667      0.50000000      0.00000000</v>
   <v>       0.25000000      0.50000000      0.00000000</v>
   <v>       0.33333333      0.50000000      0.00000000</v>
   <v>       0.41666667      0.50000000      0.00000000</v>
   <v>       0.50000000      0.50000000      0.00000000</v>
   <v>       0.00000000      0.08333333      0.08333333</v>
   <v>       0.08333333      0.08333333      0.08333333</v>
   <v>       0.16666667      0.08333333      0.08333333</v>
   <v>       0.25000000      0.08333333      0.08333333</v>
   <v>       0.33333333      0.08333333      0.08333333</v>
   <v>       0.41666667      0.08333333      0.08333333</v>
   <v>       0.50000000      0.08333333      0.08333333</v>
   <v>       0.00000000      0.16666667      0.08333333</v>
   <v>       0.08333333      0.16666667      0.08333333</v>
   <v>       0.16666667      0.16666667      0.08333333</v>
   <v>       0.25000000      0.16666667      0.08333333</v>
   <v>       0.33333333      0.16666667      0.08333333</v>
   <v>       0.41666667      0.16666667      0.08333333</v>
   <v>       0.50000000      0.16666667      0.08333333</v>
   <v>       0.00000000      0.25000000      0.08333333</v>
   <v>       0.08333333      0.25000000      0.08333333</v>
   <v>       0.16666667      0.25000000      0.08333333</v>
   <v>       0.25000000      0.25000000      0.08333333</v>
   <v>       0.33333333      0.25000000      0.08333333</v>
   <v>       0.41666667      0.25000000      0.08333333</v>
   <v>       0.50000000      0.25000000      0.08333333</v>
   <v>       0.00000000      0.33333333      0.08333333</v>
   <v>       0.08333333      0.33333333      0.08333333</v>
   <v>       0.16666667      0.33333333      0.08333333</v>
   <v>       0.25000000      0.33333333      0.08333333</v>
   <v>       0.33333333      0.33333333      0.08333333</v>
   <v>       0.41666667      0.33333333      0.08333333</v>
   <v>       0.50000000      0.33333333      0.08333333</v>
   <v>       0.00000000      0.41666667      0.08333333</v>
   <v>       0.08333333      0.41666667      0.08333333</v>
   <v>       0.16666667      0.41666667      0.08333333</v>
   <v>       0.25000000      0.41666667      0.08333333</v>
   <v>       0.33333333      0.41666667      0.08333333</v>
   <v>       0.41666667      0.41666667      0.08333333</v>
   <v>       0.50000000      0.41666667      0.08333333</v>
   <v>       0.00000000      0.50000000      0.08333333</v>
   <v>       0.08333333      0.50000000      0.08333333</v>
   <v>       0.16666667      0.50000000      0.08333333</v>
   <v>       0.25000000      0.50000000      0.08333333</v>
   <v>       0.33333333      0.50000000      0.08333333</v>
   <v>       0.41666667      0.50000000      0.08333333</v>
   <v>       0.50000000      0.50000000      0.08333333</v>
   <v>       0.00000000      0.16666667      0.16666667</v>
   <v>       0.08333333      0.16666667      0.16666667</v>
   <v>       0.16666667      0.16666667      0.16666667</v>
   <v>       0.25000000      0.16666667      0.16666667</v>
   <v>       0.33333333      0.16666667      0.16666667</v>
   <v>       0.41666667      0.16666667      0.16666667</v>
   <v>       0.50000000      0.16666667      0.16666667</v>
   <v>       0.00000000      0.25000000      0.16666667</v>
   <v>       0.08333333      0.25000000      0.16666667</v>
   <v>       0.16666667      0.25000000      0.16666667</v>
   <v>       0.25000000      0.25000000      0.16666667</v>
   <v>       0.33333333      0.25000000      0.16666667</v>
   <v>       0.41666667      0.25000000      0.16666667</v>
   <v>       0.50000000      0.25000000      0.16666667</v>
   <v>       0.00000000      0.33333333      0.16666667</v>
   <v>       0.08333333      0.33333333      0.16666667</v>
   <v>       0.16666667      0.33333333      0.16666667</v>
   <v>       0.25000000      0.33333333      0.16666667</v>
   <v>       0.33333333      0.33333333      0.16666667</v>
   <v>       0.41666667      0.33333333      0.16666667</v>
   <v>       0.50000000      0.33333333      0.16666667</v>
   <v>       0.00000000      0.41666667      0.16666667</v>
   <v>       0.08333333      0.41666667      0.16666667</v>
   <v>       0.16666667      0.41666667      0.16666667</v>
   <v>       0.25000000      0.41666667      0.16666667</v>
   <v>       0.33333333      0.41666667      0.16666667</v>
   <v>       0.41666667      0.41666667      0.16666667</v>
   <v>       0.50000000      0.41666667      0.16666667</v>
   <v>       0.00000000      0.50000000      0.16666667</v>
   <v>       0.08333333      0.50000000      0.16666667</v>
   <v>       0.16666667      0.50000000      0.16666667</v>
   <v>       0.25000000      0.50000000      0.16666667</v>
   <v>       0.33333333      0.50000000      0.16666667</v>
   <v>       0.41666667      0.50000000      0.16666667</v>
   <v>       0.50000000      0.50000000      0.16666667</v>
   <v>       0.00000000      0.25000000      0.25000000</v>
   <v>       0.08333333      0.25000000      0.25000000</v>
   <v>       0.16666667      0.25000000      0.25000000</v>
   <v>       0.25000000      0.25000000      0.25000000</v>
   <v>       0.33333333      0.25000000      0.25000000</v>
   <v>       0.41666667      0.25000000      0.25000000</v>
   <v>       0.50000000      0.25000000      0.25000000</v>
   <v>       0.00000000      0.33333333      0.25000000</v>
   <v>       0.08333333      0.33333333      0.25000000</v>
   <v>       0.16666667      0.33333333      0.25000000</v>
   <v>       0.25000000      0.33333333      0.25000000</v>
   <v>       0.33333333      0.33333333      0.25000000</v>
   <v>       0.41666667      0.33333333      0.25000000</v>
   <v>       0.50000000      0.33333333      0.25000000</v>
   <v>       0.00000000      0.41666667      0.25000000</v>
   <v>       0.08333333      0.41666667      0.25000000</v>
   <v>       0.16666667      0.41666667      0.25000000</v>
   <v>       0.25000000      0.41666667      0.25000000</v>
   <v>       0.33333333      0.41666667      0.25000000</v>
   <v>       0.41666667      0.41666667      0.25000000</v>
   <v>       0.50000000      0.41666667      0.25000000</v>
   <v>       0.00000000      0.50000000      0.25000000</v>
   <v>       0.08333333      0.50000000      0.25000000</v>
   <v>       0.16666667      0.50000000      0.25000000</v>
   <v>       0.25000000      0.50000000      0.25000000</v>
   <v>       0.33333333      0.50000000      0.25000000</v>
   <v>       0.41666667      0.50000000      0.25000000</v>
   <v>       0.50000000      0.50000000      0.25000000</v>
   <v>       0.00000000      0.33333333      0.33333333</v>
   <v>       0.08333333      0.33333333      0.33333333</v>
   <v>       0.16666667      0.33333333      0.33333333</v>
   <v>       0.25000000      0.33333333      0.33333333</v>
   <v>       0.33333333      0.33333333      0.33333333</v>
   <v>       0.41666667      0.33333333      0.33333333</v>
   <v>       0.50000000      0.33333333      0.33333333</v>
   <v>       0.00000000      0.41666667      0.33333333</v>
   <v>       0.08333333      0.41666667      0.33333333</v>
   <v>       0.16666667      0.41666667      0.33333333</v>
   <v>       0.25000000      0.41666667      0.33333333</v>
   <v>       0.33333333      0.41666667      0.33333333</v>
   <v>       0.41666667      0.41666667      0.33333333</v>
   <v>       0.50000000      0.41666667      0.33333333</v>
   <v>       0.00000000      0.50000000      0.33333333</v>
   <v>       0.08333333      0.50000000      0.33333333</v>
   <v>       0.16666667      0.50000000      0.33333333</v>
   <v>       0.25000000      0.50000000      0.33333333</v>
   <v>       0.33333333      0.50000000      0.33333333</v>
   <v>       0.41666667      0.50000000      0.33333333</v>
   <v>       0.50000000      0.50000000      0.33333333</v>
   <v>       0.00000000      0.41666667      0.41666667</v>
   <v>       0.08333333      0.41666667      0.41666667</v>
   <v>       0.16666667      0.41666667      0.41666667</v>
   <v>       0.25000000      0.41666667      0.41666667</v>
   <v>       0.33333333      0.41666667      0.41666667</v>
   <v>       0.41666667      0.41666667      0.41666667</v>
   <v>       0.50000000      0.41666667      0.41666667</v>
   <v>       0.00000000      0.50000000      0.41666667</v>
   <v>       0.08333333      0.50000000      0.41666667</v>
   <v>       0.16666667      0.50000000      0.41666667</v>
   <v>       0.25000000      0.50000000      0.41666667</v>
   <v>       0.33333333      0.50000000      0.41666667</v>
   <v>       0.41666667      0.50000000      0.41666667</v>
   <v>       0.50000000      0.50000000      0.41666667</v>
   <v>       0.00000000      0.50000000      0.50000000</v>
   <v>       0.08333333      0.50000000      0.50000000</v>
   <v>       0.16666667      0.50000000      0.50000000</v>
   <v>       0.25000000      0.50000000      0.50000000</v>
   <v>       0.33333333      0.50000000      0.50000000</v>
   <v>       0.41666667      0.50000000      0.50000000</v>
   <v>       0.50000000      0.50000000      0.50000000</v>
  </varray>
  <varray name="weights" >
   <v>       0.00057870</v>
   <v>       0.00115741</v>
   <v>       0.00115741</v>
   <v>       0.00115741</v>
   <v>       0.00115741</v>
   <v>       0.00115741</v>
   <v>       0.00057870</v>
   <v>       0.00231481</v>
   <v>       0.00462963</v>
   <v>       0.00462963</v>
   <v>       0.00462963</v>
   <v>       0.00462963</v>
   <v>       0.00462963</v>
   <v>       0.00231481</v>
   <v>       0.00231481</v>
   <v>       0.00462963</v>
   <v>       0.00462963</v>
   <v>       0.00462963</v>
   <v>       0.00462963</v>
   <v>       0.00462963</v>
   <v>       0.00231481</v>
   <v>       0.00231481</v>
   <v>       0.00462963</v>
   <v>       0.00462963</v>
   <v>       0.00462963</v>
   <v>       0.00462963</v>
   <v>       0.00462963</v>
   <v>       0.00231481</v>
   <v>       0.00231481</v>
   <v>       0.00462963</v>
   <v>       0.00462963</v>
   <v>       0.00462963</v>
   <v>       0.00462963</v>
   <v>       0.00462963</v>
   <v>       0.00231481</v>
   <v>       0.00231481</v>
   <v>       0.00462963</v>
   <v>       0.00462963</v>
   <v>       0.00462963</v>
   <v>       0.00462963</v>
   <v>       0.00462963</v>
   <v>       0.00231481</v>
   <v>       0.00115741</v>
   <v>       0.00231481</v>
   <v>       0.00231481</v>
   <v>       0.00231481</v>
   <v>       0.00231481</v>
   <v>       0.00231481</v>
   <v>       0.00115741</v>
   <v>       0.00231481</v>
   <v>       0.00462963</v>
   <v>       0.00462963</v>
   <v>       0.00462963</v>
   <v>       0.00462963</v>
   <v>       0.00462963</v>
   <v>       0.00231481</v>
   <v>       0.00462963</v>
   <v>       0.00925926</v>
   <v>       0.00925926</v>
   <v>       0.00925926</v>
   <v>       0.00925926</v>
   <v>       0.00925926</v>
   <v>       0.00462963</v>
   <v>       0.00462963</v>
   <v>       0.00925926</v>
   <v>       0.00925926</v>
   <v>       0.00925926</v>
   <v>       0.00925926</v>
   <v>       0.00925926</v>
   <v>       0.00462963</v>
   <v>       0.00462963</v>
   <v>       0.00925926</v>
   <v>       0.00925926</v>
   <v>       0.00925926</v>
   <v>       0.00925926</v>
   <v>       0.00925926</v>
   <v>       0.00462963</v>
   <v>       0.00462963</v>
   <v>       0.00925926</v>
   <v>       0.00925926</v>
   <v>       0.00925926</v>
   <v>       0.00925926</v>
   <v>       0.00925926</v>
   <v>       0.00462963</v>
   <v>       0.00231481</v>
   <v>       0.00462963</v>
   <v>       0.00462963</v>
   <v>       0.00462963</v>
   <v>       0.00462963</v>
   <v>       0.00462963</v>
   <v>       0.00231481</v>
   <v>       0.00231481</v>
   <v>       0.00462963</v>
   <v>       0.00462963</v>
   <v>       0.00462963</v>
   <v>       0.00462963</v>
   <v>       0.00462963</v>
   <v>       0.00231481</v>
   <v>       0.00462963</v>
   <v>       0.00925926</v>
   <v>       0.00925926</v>
   <v>       0.00925926</v>
   <v>       0.00925926</v>
   <v>       0.00925926</v>
   <v>       0.00462963</v>
   <v>       0.00462963</v>
   <v>       0.00925926</v>
   <v>       0.00925926</v>
   <v>       0.00925926</v>
   <v>       0.00925926</v>
   <v>       0.00925926</v>
   <v>       0.00462963</v>
   <v>       0.00462963</v>
   <v>       0.00925926</v>
   <v>       0.00925926</v>
   <v>       0.00925926</v>
   <v>       0.00925926</v>
   <v>       0.00925926</v>
   <v>       0.00462963</v>
   <v>       0.00231481</v>
   <v>       0.00462963</v>
   <v>       0.00462963</v>
   <v>       0.00462963</v>
   <v>       0.00462963</v>
   <v>       0.00462963</v>
   <v>       0.00231481</v>
   <v>       0.00231481</v>
   <v>       0.00462963</v>
   <v>       0.00462963</v>
   <v>       0.00462963</v>
   <v>       0.00462963</v>
   <v>       0.00462963</v>
   <v>       0.00231481</v>
   <v>       0.00462963</v>
   <v>       0.00925926</v>
   <v>       0.00925926</v>
   <v>       0.00925926</v>
   <v>       0.00925926</v>
   <v>       0.00925926</v>
   <v>       0.00462963</v>
   <v>       0.00462963</v>
   <v>       0.00925926</v>
   <v>       0.00925926</v>
   <v>       0.00925926</v>
   <v>       0.00925926</v>
   <v>       0.00925926</v>
   <v>       0.00462963</v>
   <v>       0.00231481</v>
   <v>       0.00462963</v>
   <v>       0.00462963</v>
   <v>       0.00462963</v>
   <v>       0.00462963</v>
   <v>       0.00462963</v>
   <v>       0.00231481</v>
   <v>       0.00231481</v>
   <v>       0.00462963</v>
   <v>       0.00462963</v>
   <v>       0.00462963</v>
   <v>       0.00462963</v>
   <v>       0.00462963</v>
   <v>       0.00231481</v>
   <v>       0.00462963</v>
   <v>       0.00925926</v>
   <v>       0.00925926</v>
   <v>       0.00925926</v>
   <v>       0.00925926</v>
   <v>       0.00925926</v>
   <v>       0.00462963</v>
   <v>       0.00231481</v>
   <v>       0.00462963</v>
   <v>       0.00462963</v>
   <v>       0.00462963</v>
   <v>       0.00462963</v>
   <v>       0.00462963</v>
   <v>       0.00231481</v>
   <v>       0.00231481</v>
   <v>       0.00462963</v>
   <v>       0.00462963</v>
   <v>       0.00462963</v>
   <v>       0.00462963</v>
   <v>       0.00462963</v>
   <v>       0.00231481</v>
   <v>       0.00231481</v>
   <v>       0.00462963</v>
   <v>       0.00462963</v>
   <v>       0.00462963</v>
   <v>       0.00462963</v>
   <v>       0.00462963</v>
   <v>       0.00231481</v>
   <v>       0.00057870</v>
   <v>       0.00115741</v>
   <v>       0.00115741</v>
   <v>       0.00115741</v>
   <v>       0.00115741</v>
   <v>       0.00115741</v>
   <v>       0.00057870</v>
  </varray>
 </kpoints>
 <parameters>
  <separator name="general" >
   <i type="string" name="SYSTEM">unknown system</i>
   <i type="logical" name="LCOMPAT"> F  </i>
  </separator>
  <separator name="electronic" >
   <i type="string" name="PREC">accura</i>
   <i name="ENMAX">    500.00000000</i>
   <i name="ENAUG">    291.05200000</i>
   <i name="EDIFF">      0.00000001</i>
   <i type="int" name="IALGO">    38</i>
   <i type="int" name="IWAVPR">    10</i>
   <i type="int" name="NBANDS">    65</i>
   <i name="NELECT">     96.00000000</i>
   <separator name="electronic smearing" >
    <i type="int" name="ISMEAR">     0</i>
    <i name="SIGMA">      0.01000000</i>
   </separator>
   <separator name="electronic projectors" >
    <i type="logical" name="LREAL"> F  </i>
    <v name="ROPT">      0.00000000</v>
    <i type="int" name="LMAXPAW">  -100</i>
    <i type="int" name="LMAXMIX">     2</i>
   </separator>
   <separator name="electronic startup" >
    <i type="int" name="ISTART">     0</i>
    <i type="int" name="ICHARG">     2</i>
    <i type="int" name="INIWAV">     1</i>
   </separator>
   <separator name="electronic spin" >
    <i type="int" name="ISPIN">     1</i>
    <i type="logical" name="LNONCOLLINEAR"> F  </i>
    <v name="MAGMOM">      1.00000000      1.00000000      1.00000000      1.00000000      1.00000000      1.00000000      1.00000000      1.00000000      1.00000000      1.00000000      1.00000000      1.00000000      1.00000000      1.00000000      1.00000000      1.00000000      1.00000000      1.00000000      1.00000000      1.00000000
      1.00000000      1.00000000      1.00000000      1.00000000      1.00000000      1.00000000      1.00000000      1.00000000      1.00000000      1.00000000      1.00000000      1.00000000</v>
    <i name="NUPDOWN">     -1.00000000</i>
    <i type="logical" name="LSORBIT"> F  </i>
    <v name="SAXIS">      0.00000000      0.00000000      1.00000000</v>
    <i type="logical" name="LSPIRAL"> F  </i>
    <v name="QSPIRAL">      0.00000000      0.00000000      0.00000000</v>
    <i type="logical" name="LZEROZ"> F  </i>
   </separator>
   <separator name="electronic exchange-correlation" >
    <i type="string" name="GGA">--</i>
    <i type="int" name="VOSKOWN">     0</i>
    <i type="logical" name="LASPH"> F  </i>
    <i type="logical" name="LMETAGGA"> F  </i>
    <i type="string" name="GGA2">--</i>
   </separator>
   <separator name="electronic convergence" >
    <i type="int" name="NELM">    60</i>
    <i type="int" name="NELMDL">     0</i>
    <i type="int" name="NELMIN">     2</i>
    <i name="ENINI">    500.00000000</i>
    <separator name="electronic convergence detail" >
     <i type="logical" name="LDIAG"> T  </i>
     <i name="WEIMIN">      0.00000000</i>
     <i name="EBREAK">      0.00000000</i>
     <i name="DEPER">      0.30000000</i>
     <i type="int" name="NRMM">     4</i>
     <i name="TIME">      0.10000000</i>
    </separator>
   </separator>
   <separator name="electronic mixer" >
    <i name="AMIX">      0.40000000</i>
    <i name="BMIX">      1.00000000</i>
    <i name="AMIN">      0.10000000</i>
    <i name="AMIX_MAG">      1.60000000</i>
    <i name="BMIX_MAG">      1.00000000</i>
    <separator name="electronic mixer details" >
     <i type="int" name="IMIX">     4</i>
     <i type="int" name="MAXMIX">   -45</i>
     <i name="WC">    100.00000000</i>
     <i type="int" name="INIMIX">     1</i>
     <i type="int" name="MIXPRE">     1</i>
     <i type="int" name="MREMOVE">     5</i>
    </separator>
   </separator>
   <separator name="electronic dipolcorrection" >
    <i type="int" name="IDIPOL">     0</i>
    <i type="logical" name="LDIPOL"> F  </i>
    <v name="DIPOL">   -100.00000000</v>
    <i name="EFIELD">      0.00000000</i>
   </separator>
  </separator>
  <separator name="grids" >
   <i type="int" name="NGX">    64</i>
   <i type="int" name="NGY">    64</i>
   <i type="int" name="NGZ">    64</i>
   <i type="int" name="NGXF">   128</i>
   <i type="int" name="NGYF">   128</i>
   <i type="int" name="NGZF">   128</i>
   <i type="logical" name="ADDGRID"> F  </i>
  </separator>
  <separator name="ionic" >
   <i type="int" name="NSW">     0</i>
   <i type="int" name="IBRION">    -1</i>
   <i type="int" name="ISIF">     2</i>
   <i name="PSTRESS">      0.00000000</i>
   <i name="EDIFFG">      0.00000010</i>
   <i type="int" name="NFREE">     0</i>
   <i name="POTIM">      0.50000000</i>
   <i name="SMASS">     -3.00000000</i>
  </separator>
  <separator name="ionic md" >
   <i name="TEBEG">      0.00010000</i>
   <i name="TEEND">      0.00010000</i>
   <i type="int" name="NBLOCK">     1</i>
   <i type="int" name="KBLOCK">     1</i>
   <i type="int" name="NPACO">   256</i>
   <i name="APACO">     16.00000000</i>
  </separator>
  <separator name="symmetry" >
   <i type="int" name="ISYM">     2</i>
   <i name="SYMPREC">      0.00001000</i>
  </separator>
  <separator name="dos" >
   <i type="logical" name="LORBIT"> F  </i>
   <v name="RWIGS">     -1.00000000</v>
   <i type="int" name="NEDOS">   301</i>
   <i name="EMIN">     10.00000000</i>
   <i name="EMAX">    -10.00000000</i>
  </separator>
  <separator name="writing" >
   <i type="int" name="NWRITE">     2</i>
   <i type="logical" name="LWAVE"> F  </i>
   <i type="logical" name="LCHARG"> F  </i>
   <i type="logical" name="LPARD"> F  </i>
   <i type="logical" name="LVTOT"> F  </i>
   <i type="logical" name="LELF"> F  </i>
   <i type="logical" name="LOPTICS"> F  </i>
   <i name="STM">      0.00000000</i>
  </separator>
  <separator name="performance" >
   <i type="int" name="NPAR">     4</i>
   <i type="int" name="NSIM">     4</i>
   <i type="int" name="NBLK">   256</i>
   <i type="logical" name="LPLANE"> T  </i>
   <i type="logical" name="LCRITICAL_MEM"> F  </i>
   <i type="logical" name="LSCALAPACK"> F  </i>
   <i type="logical" name="LSCALU"> F  </i>
   <i type="logical" name="LASYNC"> F  </i>
  </separator>
  <separator name="miscellaneous" >
   <i type="int" name="IDIOT">     3</i>
   <i type="logical" name="LMUSIC"> F  </i>
   <v name="POMASS">     26.98200000</v>
   <i type="logical" name="LCORR"> T  </i>
  </separator>
  <i type="logical" name="LREAL_COMPAT"> F  </i>
  <i type="logical" name="GGA_COMPAT"> T  </i>
  <i type="logical" name="LBERRY"> F  </i>
  <i type="int" name="ICORELEVEL">     0</i>
  <i type="logical" name="LDAU"> F  </i>
  <i type="int" name="I_CONSTRAINED_M">     0</i>
 </parameters>
 <atominfo>
  <atoms>      32</atoms>
  <types>       1</types>
  <array name="atoms" >
   <dimension dim="1">ion</dimension>
   <field type="string">element</field>
   <field type="int">atomtype</field>
   <set>
    <rc><c>Al</c><c>   1</c></rc>
    <rc><c>Al</c><c>   1</c></rc>
    <rc><c>Al</c><c>   1</c></rc>
    <rc><c>Al</c><c>   1</c></rc>
    <rc><c>Al</c><c>   1</c></rc>
    <rc><c>Al</c><c>   1</c></rc>
    <rc><c>Al</c><c>   1</c></rc>
    <rc><c>Al</c><c>   1</c></rc>
    <rc><c>Al</c><c>   1</c></rc>
    <rc><c>Al</c><c>   1</c></rc>
    <rc><c>Al</c><c>   1</c></rc>
    <rc><c>Al</c><c>   1</c></rc>
    <rc><c>Al</c><c>   1</c></rc>
    <rc><c>Al</c><c>   1</c></rc>
    <rc><c>Al</c><c>   1</c></rc>
    <rc><c>Al</c><c>   1</c></rc>
    <rc><c>Al</c><c>   1</c></rc>
    <rc><c>Al</c><c>   1</c></rc>
    <rc><c>Al</c><c>   1</c></rc>
    <rc><c>Al</c><c>   1</c></rc>
    <rc><c>Al</c><c>   1</c></rc>
    <rc><c>Al</c><c>   1</c></rc>
    <rc><c>Al</c><c>   1</c></rc>
    <rc><c>Al</c><c>   1</c></rc>
    <rc><c>Al</c><c>   1</c></rc>
    <rc><c>Al</c><c>   1</c></rc>
    <rc><c>Al</c><c>   1</c></rc>
    <rc><c>Al</c><c>   1</c></rc>
    <rc><c>Al</c><c>   1</c></rc>
    <rc><c>Al</c><c>   1</c></rc>
    <rc><c>Al</c><c>   1</c></rc>
    <rc><c>Al</c><c>   1</c></rc>
   </set>
  </array>
  <array name="atomtypes" >
   <dimension dim="1">type</dimension>
   <field type="int">atomspertype</field>
   <field type="string">element</field>
   <field>mass</field>
   <field>valence</field>
   <field type="string">pseudopotential</field>
   <set>
    <rc><c>  32</c><c>Al</c><c>     26.98200000</c><c>      3.00000000</c><c> PAW_PBE Al 04Jan2001                   </c></rc>
   </set>
  </array>
 </atominfo>
 <structure name="initialpos" >
  <crystal>
   <varray name="basis" >
    <v>       8.39759725      0.00000000      0.00000000</v>
    <v>       0.00000000      8.39759725      0.00000000</v>
    <v>       0.00000000      0.00000000      8.39759725</v>
   </varray>
   <i name="volume">    592.19553112</i>
   <varray name="rec_basis" >
    <v>       0.11908168      0.00000000      0.00000000</v>
    <v>       0.00000000      0.11908168      0.00000000</v>
    <v>       0.00000000      0.00000000      0.11908168</v>
   </varray>
  </crystal>
  <varray name="positions" >
   <v>       0.25119082      0.25000000      0.00000000</v>
   <v>       0.75000000      0.25000000      0.00000000</v>
   <v>       0.25000000      0.75000000      0.00000000</v>
   <v>       0.75000000      0.75000000      0.00000000</v>
   <v>       0.25000000      0.25000000      0.50000000</v>
   <v>       0.75000000      0.25000000      0.50000000</v>
   <v>       0.25000000      0.75000000      0.50000000</v>
   <v>       0.75000000      0.75000000      0.50000000</v>
   <v>       0.25000000      0.00000000      0.25000000</v>
   <v>       0.75000000      0.00000000      0.25000000</v>
   <v>       0.25000000      0.50000000      0.25000000</v>
   <v>       0.75000000      0.50000000      0.25000000</v>
   <v>       0.25000000      0.00000000      0.75000000</v>
   <v>       0.75000000      0.00000000      0.75000000</v>
   <v>       0.25000000      0.50000000      0.75000000</v>
   <v>       0.75000000      0.50000000      0.75000000</v>
   <v>       0.00000000      0.25000000      0.25000000</v>
   <v>       0.50000000      0.25000000      0.25000000</v>
   <v>       0.00000000      0.75000000      0.25000000</v>
   <v>       0.50000000      0.75000000      0.25000000</v>
   <v>       0.00000000      0.25000000      0.75000000</v>
   <v>       0.50000000      0.25000000      0.75000000</v>
   <v>       0.00000000      0.75000000      0.75000000</v>
   <v>       0.50000000      0.75000000      0.75000000</v>
   <v>       0.00000000      0.00000000      0.00000000</v>
   <v>       0.50000000      0.00000000      0.00000000</v>
   <v>       0.00000000      0.50000000      0.00000000</v>
   <v>       0.50000000      0.50000000      0.00000000</v>
   <v>       0.00000000      0.00000000      0.50000000</v>
   <v>       0.50000000      0.00000000      0.50000000</v>
   <v>       0.00000000      0.50000000      0.50000000</v>
   <v>       0.50000000      0.50000000      0.50000000</v>
  </varray>
 </structure>
 <calculation>
  <scstep>
   <time name="dav">  232.81  232.75</time>
   <time name="total">  233.24  233.18</time>
   <energy>
    <i name="alphaZ">     -5.80791868</i>
    <i name="ewald">  -2264.22495736</i>
    <i name="hartreedc">     -5.08689961</i>
    <i name="XCdc">   -846.12864639</i>
    <i name="pawpsdc">   1137.73615723</i>
    <i name="pawaedc">   -115.16745734</i>
    <i name="eentropy">     -0.00048171</i>
    <i name="bandstr">    501.34974800</i>
    <i name="atom">   1713.22913220</i>
    <i name="e_fr_energy">    115.89867634</i>
    <i name="e_wo_entrp">    115.89915804</i>
    <i name="e_0_energy">    115.89891719</i>
   </energy>
  </scstep>
  <scstep>
   <time name="dav">  263.84  263.90</time>
   <time name="total">  263.87  263.92</time>
   <energy>
    <i name="e_fr_energy">   -105.37264698</i>
    <i name="e_wo_entrp">   -105.37201540</i>
    <i name="e_0_energy">   -105.37233119</i>
   </energy>
  </scstep>
  <scstep>
   <time name="dav">  273.63  273.55</time>
   <time name="total">  273.65  273.58</time>
   <energy>
    <i name="e_fr_energy">   -118.67651272</i>
    <i name="e_wo_entrp">   -118.67582939</i>
    <i name="e_0_energy">   -118.67617105</i>
   </energy>
  </scstep>
  <scstep>
   <time name="dav">  264.52  264.46</time>
   <time name="total">  264.55  264.48</time>
   <energy>
    <i name="e_fr_energy">   -118.97761715</i>
    <i name="e_wo_entrp">   -118.97692794</i>
    <i name="e_0_energy">   -118.97727254</i>
   </energy>
  </scstep>
  <scstep>
   <time name="dav">  265.77  265.70</time>
   <time name="total">  280.48  280.40</time>
   <energy>
    <i name="e_fr_energy">   -118.98177676</i>
    <i name="e_wo_entrp">   -118.98108584</i>
    <i name="e_0_energy">   -118.98143130</i>
   </energy>
  </scstep>
  <scstep>
   <time name="dav">  263.32  263.24</time>
   <time name="total">  278.88  278.80</time>
   <energy>
    <i name="e_fr_energy">   -118.58951030</i>
    <i name="e_wo_entrp">   -118.58882597</i>
    <i name="e_0_energy">   -118.58916813</i>
   </energy>
  </scstep>
  <scstep>
   <time name="dav">  250.77  250.80</time>
   <time name="total">  266.35  266.39</time>
   <energy>
    <i name="e_fr_energy">   -118.30599179</i>
    <i name="e_wo_entrp">   -118.30538185</i>
    <i name="e_0_energy">   -118.30568682</i>
   </energy>
  </scstep>
  <scstep>
   <time name="dav">  260.96  260.89</time>
   <time name="total">  276.49  276.41</time>
   <energy>
    <i name="e_fr_energy">   -118.30590504</i>
    <i name="e_wo_entrp">   -118.30529875</i>
    <i name="e_0_energy">   -118.30560190</i>
   </energy>
  </scstep>
  <scstep>
   <time name="dav">  257.65  257.58</time>
   <time name="total">  273.54  273.47</time>
   <energy>
    <i name="e_fr_energy">   -118.30592102</i>
    <i name="e_wo_entrp">   -118.30531729</i>
    <i name="e_0_energy">   -118.30561916</i>
   </energy>
  </scstep>
  <scstep>
   <time name="dav">  259.88  259.81</time>
   <time name="total">  272.07  271.99</time>
   <energy>
    <i name="e_fr_energy">   -118.30591920</i>
    <i name="e_wo_entrp">   -118.30531562</i>
    <i name="e_0_energy">   -118.30561741</i>
   </energy>
  </scstep>
  <scstep>
   <time name="dav">  218.02  217.96</time>
   <time name="total">  227.57  227.51</time>
   <energy>
    <i name="e_fr_energy">   -118.30591577</i>
    <i name="e_wo_entrp">   -118.30531222</i>
    <i name="e_0_energy">   -118.30561400</i>
   </energy>
  </scstep>
  <scstep>
   <time name="dav">  142.84  142.79</time>
   <time name="total">  151.44  151.39</time>
   <energy>
    <i name="e_fr_energy">   -118.30591473</i>
    <i name="e_wo_entrp">   -118.30531122</i>
    <i name="e_0_energy">   -118.30561297</i>
   </energy>
  </scstep>
  <scstep>
   <time name="dav">  124.77  124.75</time>
   <time name="total">  133.80  133.79</time>
   <energy>
    <i name="e_fr_energy">   -118.30591464</i>
    <i name="e_wo_entrp">   -118.30531112</i>
    <i name="e_0_energy">   -118.30561288</i>
   </energy>
  </scstep>
  <scstep>
   <time name="dav">  122.66  122.62</time>
   <time name="total">  131.39  131.35</time>
   <energy>
    <i name="e_fr_energy">   -118.30591465</i>
    <i name="e_wo_entrp">   -118.30531113</i>
    <i name="e_0_energy">   -118.30561289</i>
   </energy>
  </scstep>
  <scstep>
   <time name="dav">  121.22  121.21</time>
   <time name="total">  130.28  130.26</time>
   <energy>
    <i name="e_fr_energy">   -118.30591467</i>
    <i name="e_wo_entrp">   -118.30531115</i>
    <i name="e_0_energy">   -118.30561291</i>
   </energy>
  </scstep>
  <scstep>
   <time name="dav">  120.35  120.30</time>
   <time name="total">  120.70  120.66</time>
   <energy>
    <i name="alphaZ">     -5.80791868</i>
    <i name="ewald">  -2264.22495736</i>
    <i name="hartreedc">     -3.22031450</i>
    <i name="XCdc">   -843.43832559</i>
    <i name="pawpsdc">   1132.05879976</i>
    <i name="pawaedc">   -109.40137771</i>
    <i name="eentropy">     -0.00060352</i>
    <i name="bandstr">    262.49965071</i>
    <i name="atom">   1713.22913220</i>
    <i name="e_fr_energy">   -118.30591468</i>
    <i name="e_wo_entrp">   -118.30531116</i>
    <i name="e_0_energy">   -118.30561292</i>
   </energy>
  </scstep>
  <structure>
   <crystal>
    <varray name="basis" >
     <v>       8.39759725      0.00000000      0.00000000</v>
     <v>       0.00000000      8.39759725      0.00000000</v>
     <v>       0.00000000      0.00000000      8.39759725</v>
    </varray>
    <i name="volume">    592.19553112</i>
    <varray name="rec_basis" >
     <v>       0.11908168      0.00000000      0.00000000</v>
     <v>       0.00000000      0.11908168      0.00000000</v>
     <v>       0.00000000      0.00000000      0.11908168</v>
    </varray>
   </crystal>
   <varray name="positions" >
    <v>       0.25119082      0.25000000      0.00000000</v>
    <v>       0.75000000      0.25000000      0.00000000</v>
    <v>       0.25000000      0.75000000      0.00000000</v>
    <v>       0.75000000      0.75000000      0.00000000</v>
    <v>       0.25000000      0.25000000      0.50000000</v>
    <v>       0.75000000      0.25000000      0.50000000</v>
    <v>       0.25000000      0.75000000      0.50000000</v>
    <v>       0.75000000      0.75000000      0.50000000</v>
    <v>       0.25000000      0.00000000      0.25000000</v>
    <v>       0.75000000      0.00000000      0.25000000</v>
    <v>       0.25000000      0.50000000      0.25000000</v>
    <v>       0.75000000      0.50000000      0.25000000</v>
    <v>       0.25000000      0.00000000      0.75000000</v>
    <v>       0.75000000      0.00000000      0.75000000</v>
    <v>       0.25000000      0.50000000      0.75000000</v>
    <v>       0.75000000      0.50000000      0.75000000</v>
    <v>       0.00000000      0.25000000      0.25000000</v>
    <v>       0.50000000      0.25000000      0.25000000</v>
    <v>       0.00000000      0.75000000      0.25000000</v>
    <v>       0.50000000      0.75000000      0.25000000</v>
    <v>       0.00000000      0.25000000      0.75000000</v>
    <v>       0.50000000      0.25000000      0.75000000</v>
    <v>       0.00000000      0.75000000      0.75000000</v>
    <v>       0.50000000      0.75000000      0.75000000</v>
    <v>       0.00000000      0.00000000      0.00000000</v>
    <v>       0.50000000      0.00000000      0.00000000</v>
    <v>       0.00000000      0.50000000      0.00000000</v>
    <v>       0.50000000      0.50000000      0.00000000</v>
    <v>       0.00000000      0.00000000      0.50000000</v>
    <v>       0.50000000      0.00000000      0.50000000</v>
    <v>       0.00000000      0.50000000      0.50000000</v>
    <v>       0.50000000      0.50000000      0.50000000</v>
   </varray>
  </structure>
  <varray name="forces" >
   <v>      -0.02794312     -0.00000000     -0.00000000</v>
   <v>       0.00158949     -0.00000000      0.00000000</v>
   <v>      -0.00021868      0.00000000      0.00000000</v>
   <v>       0.00053057      0.00000000      0.00000000</v>
   <v>      -0.00021868     -0.00000000      0.00000000</v>
   <v>       0.00053057      0.00000000      0.00000000</v>
   <v>       0.00012046      0.00000000      0.00000000</v>
   <v>      -0.00046493     -0.00000000      0.00000000</v>
   <v>      -0.00128770      0.00001046     -0.00001046</v>
   <v>      -0.00058660      0.00000175     -0.00000175</v>
   <v>      -0.00128770     -0.00001046     -0.00001046</v>
   <v>      -0.00058660     -0.00000175     -0.00000175</v>
   <v>      -0.00128770      0.00001046      0.00001046</v>
   <v>      -0.00058660      0.00000175      0.00000175</v>
   <v>      -0.00128770     -0.00001046      0.00001046</v>
   <v>      -0.00058660     -0.00000175      0.00000175</v>
   <v>       0.00418106     -0.00000000     -0.00405726</v>
   <v>       0.00428728      0.00000000      0.00420038</v>
   <v>      -0.00003818      0.00000000      0.00019866</v>
   <v>      -0.00003728      0.00000000     -0.00019648</v>
   <v>       0.00418106     -0.00000000      0.00405726</v>
   <v>       0.00428728     -0.00000000     -0.00420038</v>
   <v>      -0.00003818      0.00000000     -0.00019866</v>
   <v>      -0.00003728      0.00000000      0.00019648</v>
   <v>       0.00418106      0.00405726      0.00000000</v>
   <v>       0.00428728     -0.00420038     -0.00000000</v>
   <v>       0.00418106     -0.00405726      0.00000000</v>
   <v>       0.00428728      0.00420038      0.00000000</v>
   <v>      -0.00003818     -0.00019866      0.00000000</v>
   <v>      -0.00003728      0.00019648     -0.00000000</v>
   <v>      -0.00003818      0.00019866      0.00000000</v>
   <v>      -0.00003728     -0.00019648      0.00000000</v>
  </varray>
  <varray name="stress" >
   <v>     -68.35523716      0.00000000      0.00000000</v>
   <v>      -0.00000000    -68.35951087      0.00000000</v>
   <v>       0.00000000      0.00000000    -68.35951087</v>
  </varray>
  <energy>
   <i name="e_fr_energy">   -118.30591468</i>
   <i name="e_wo_entrp">   -118.30561292</i>
   <i name="e_0_energy">     -0.00060352</i>
  </energy>
  <eigenvalues>
   <array>
    <dimension dim="1">band</dimension>
    <dimension dim="2">kpoint</dimension>
    <dimension dim="3">spin</dimension>
    <field>eigene</field>
    <field>occ</field>
    <set>
     <set comment="spin 1">
      <set comment="kpoint 1">
       <r>  -3.5116  1.0000</r>
       <r>  -1.4297  1.0000</r>
       <r>  -1.4262  1.0000</r>
       <r>  -1.4262  1.0000</r>
       <r>  -1.4262  1.0000</r>
       <r>  -1.4262  1.0000</r>
       <r>  -1.4227  1.0000</r>
       <r>   0.6260  1.0000</r>
       <r>   0.6304  1.0000</r>
       <r>   0.6304  1.0000</r>
       <r>   0.6319  1.0000</r>
       <r>   0.6320  1.0000</r>
       <r>   0.6320  1.0000</r>
       <r>   0.6320  1.0000</r>
       <r>   0.6320  1.0000</r>
       <r>   0.6321  1.0000</r>
       <r>   0.6336  1.0000</r>
       <r>   0.6336  1.0000</r>
       <r>   0.6380  1.0000</r>
       <r>   2.6203  1.0000</r>
       <r>   2.6204  1.0000</r>
       <r>   2.6204  1.0000</r>
       <r>   2.6204  1.0000</r>
       <r>   2.7095  1.0000</r>
       <r>   2.7095  1.0000</r>
       <r>   2.7095  1.0000</r>
       <r>   2.7096  1.0000</r>
       <r>   4.2068  1.0000</r>
       <r>   4.2068  1.0000</r>
       <r>   4.2068  1.0000</r>
       <r>   5.2483  1.0000</r>
       <r>   5.2483  1.0000</r>
       <r>   5.2483  1.0000</r>
       <r>   6.1492  1.0000</r>
       <r>   6.1492  1.0000</r>
       <r>   6.1532  1.0000</r>
       <r>   6.1532  1.0000</r>
       <r>   6.1533  1.0000</r>
       <r>   6.1533  1.0000</r>
       <r>   6.1533  1.0000</r>
       <r>   6.1533  1.0000</r>
       <r>   6.1534  1.0000</r>
       <r>   6.1534  1.0000</r>
       <r>   6.1574  1.0000</r>
       <r>   6.1574  1.0000</r>
       <r>   7.2111  0.0000</r>
       <r>   7.2150  0.0000</r>
       <r>   7.2150  0.0000</r>
       <r>   7.2150  0.0000</r>
       <r>   7.2150  0.0000</r>
       <r>   7.2188  0.0000</r>
       <r>   7.3528  0.0000</r>
       <r>   7.3537  0.0000</r>
       <r>   7.3537  0.0000</r>
       <r>   7.3537  0.0000</r>
       <r>   7.3537  0.0000</r>
       <r>   7.3545  0.0000</r>
       <r>   8.0976  0.0000</r>
       <r>   8.0986  0.0000</r>
       <r>   8.0997  0.0000</r>
       <r>   8.1014  0.0000</r>
       <r>   8.1015  0.0000</r>
       <r>   8.1015  0.0000</r>
       <r>   8.1015  0.0000</r>
       <r>   8.1016  0.0000</r>
       <r>   8.1030  0.0000</r>
       <r>   8.1043  0.0000</r>
       <r>   8.1054  0.0000</r>
      </set>
      <set comment="kpoint 2">
       <r>  -3.4971  1.0000</r>
       <r>  -1.7574  1.0000</r>
       <r>  -1.4118  1.0000</r>
       <r>  -1.4118  1.0000</r>
       <r>  -1.4118  1.0000</r>
       <r>  -1.4118  1.0000</r>
       <r>  -1.0670  1.0000</r>
       <r>   0.3050  1.0000</r>
       <r>   0.3050  1.0000</r>
       <r>   0.3050  1.0000</r>
       <r>   0.3050  1.0000</r>
       <r>   0.6462  1.0000</r>
       <r>   0.6462  1.0000</r>
       <r>   0.6462  1.0000</r>
       <r>   0.6462  1.0000</r>
       <r>   0.9866  1.0000</r>
       <r>   0.9866  1.0000</r>
       <r>   0.9866  1.0000</r>
       <r>   0.9867  1.0000</r>
       <r>   2.3390  1.0000</r>
       <r>   2.3390  1.0000</r>
       <r>   2.3390  1.0000</r>
       <r>   2.3390  1.0000</r>
       <r>   3.0182  1.0000</r>
       <r>   3.0182  1.0000</r>
       <r>   3.0182  1.0000</r>
       <r>   3.0182  1.0000</r>
       <r>   3.8911  1.0000</r>
       <r>   4.2203  1.0000</r>
       <r>   4.2203  1.0000</r>
       <r>   5.2626  1.0000</r>
       <r>   5.2626  1.0000</r>
       <r>   5.5897  1.0000</r>
       <r>   5.8420  1.0000</r>
       <r>   5.8420  1.0000</r>
       <r>   5.8596  1.0000</r>
       <r>   5.8596  1.0000</r>
       <r>   5.8596  1.0000</r>
       <r>   5.8596  1.0000</r>
       <r>   6.1668  1.0000</r>
       <r>   6.1668  1.0000</r>
       <r>   6.1668  1.0000</r>
       <r>   6.1668  1.0000</r>
       <r>   6.4917  1.0000</r>
       <r>   6.4917  1.0000</r>
       <r>   6.9569  0.0000</r>
       <r>   6.9569  0.0000</r>
       <r>   7.2854  0.0000</r>
       <r>   7.2855  0.0000</r>
       <r>   7.2855  0.0000</r>
       <r>   7.2855  0.0000</r>
       <r>   7.6156  0.0000</r>
       <r>   7.6158  0.0000</r>
       <r>   7.6158  0.0000</r>
       <r>   7.6158  0.0000</r>
       <r>   7.6372  0.0000</r>
       <r>   7.6374  0.0000</r>
       <r>   7.7901  0.0000</r>
       <r>   7.7901  0.0000</r>
       <r>   7.7902  0.0000</r>
       <r>   7.7902  0.0000</r>
       <r>   7.8195  0.0000</r>
       <r>   7.8195  0.0000</r>
       <r>   7.8196  0.0000</r>
       <r>   7.8196  0.0000</r>
       <r>   8.4399  0.0000</r>
       <r>   8.4399  0.0000</r>
       <r>   8.4399  0.0000</r>
      </set>
      <set comment="kpoint 3">
       <r>  -3.4534  1.0000</r>
       <r>  -2.0605  1.0000</r>
       <r>  -1.3687  1.0000</r>
       <r>  -1.3686  1.0000</r>
       <r>  -1.3686  1.0000</r>
       <r>  -1.3686  1.0000</r>
       <r>  -0.6800  1.0000</r>
       <r>   0.0059  1.0000</r>
       <r>   0.0059  1.0000</r>
       <r>   0.0059  1.0000</r>
       <r>   0.0059  1.0000</r>
       <r>   0.6888  1.0000</r>
       <r>   0.6888  1.0000</r>
       <r>   0.6888  1.0000</r>
       <r>   0.6888  1.0000</r>
       <r>   1.3686  1.0000</r>
       <r>   1.3686  1.0000</r>
       <r>   1.3686  1.0000</r>
       <r>   1.3686  1.0000</r>
       <r>   2.0450  1.0000</r>
       <r>   2.0450  1.0000</r>
       <r>   2.0450  1.0000</r>
       <r>   2.0450  1.0000</r>
       <r>   3.3396  1.0000</r>
       <r>   3.3941  1.0000</r>
       <r>   3.3941  1.0000</r>
       <r>   3.3941  1.0000</r>
       <r>   3.3941  1.0000</r>
       <r>   4.2608  1.0000</r>
       <r>   4.2608  1.0000</r>
       <r>   5.3054  1.0000</r>
       <r>   5.3057  1.0000</r>
       <r>   5.3274  1.0000</r>
       <r>   5.3274  1.0000</r>
       <r>   5.3274  1.0000</r>
       <r>   5.3276  1.0000</r>
       <r>   5.5580  1.0000</r>
       <r>   5.5580  1.0000</r>
       <r>   6.2074  1.0000</r>
       <r>   6.2074  1.0000</r>
       <r>   6.2074  1.0000</r>
       <r>   6.2074  1.0000</r>
       <r>   6.2179  1.0000</r>
       <r>   6.6663  1.0000</r>
       <r>   6.6663  1.0000</r>
       <r>   6.8573  0.5734</r>
       <r>   6.8573  0.5734</r>
       <r>   7.2994  0.0000</r>
       <r>   7.2994  0.0000</r>
       <r>   7.2994  0.0000</r>
       <r>   7.2995  0.0000</r>
       <r>   7.3361  0.0000</r>
       <r>   7.3361  0.0000</r>
       <r>   7.3361  0.0000</r>
       <r>   7.3362  0.0000</r>
       <r>   7.5061  0.0000</r>
       <r>   7.5061  0.0000</r>
       <r>   7.5061  0.0000</r>
       <r>   7.5061  0.0000</r>
       <r>   8.0040  0.0000</r>
       <r>   8.0040  0.0000</r>
       <r>   8.2139  0.0000</r>
       <r>   8.2139  0.0000</r>
       <r>   8.2139  0.0000</r>
       <r>   8.2139  0.0000</r>
       <r>   8.6643  0.0000</r>
       <r>   8.6643  0.0000</r>
       <r>   8.6643  0.0000</r>
      </set>
      <set comment="kpoint 4">
       <r>  -3.3805  1.0000</r>
       <r>  -2.3352  1.0000</r>
       <r>  -1.2968  1.0000</r>
       <r>  -1.2968  1.0000</r>
       <r>  -1.2968  1.0000</r>
       <r>  -1.2968  1.0000</r>
       <r>  -0.2680  1.0000</r>
       <r>  -0.2652  1.0000</r>
       <r>  -0.2652  1.0000</r>
       <r>  -0.2652  1.0000</r>
       <r>  -0.2629  1.0000</r>
       <r>   0.7597  1.0000</r>
       <r>   0.7597  1.0000</r>
       <r>   0.7597  1.0000</r>
       <r>   0.7597  1.0000</r>
       <r>   1.7744  1.0000</r>
       <r>   1.7765  1.0000</r>
       <r>   1.7765  1.0000</r>
       <r>   1.7777  1.0000</r>
       <r>   1.7777  1.0000</r>
       <r>   1.7790  1.0000</r>
       <r>   1.7790  1.0000</r>
       <r>   1.7810  1.0000</r>
       <r>   2.7648  1.0000</r>
       <r>   3.7978  1.0000</r>
       <r>   3.7978  1.0000</r>
       <r>   3.7978  1.0000</r>
       <r>   3.7978  1.0000</r>
       <r>   4.3283  1.0000</r>
       <r>   4.3283  1.0000</r>
       <r>   4.7649  1.0000</r>
       <r>   4.7650  1.0000</r>
       <r>   4.7650  1.0000</r>
       <r>   4.7650  1.0000</r>
       <r>   5.3011  1.0000</r>
       <r>   5.3011  1.0000</r>
       <r>   5.3774  1.0000</r>
       <r>   5.3774  1.0000</r>
       <r>   6.2750  1.0000</r>
       <r>   6.2750  1.0000</r>
       <r>   6.2750  1.0000</r>
       <r>   6.2750  1.0000</r>
       <r>   6.4000  1.0000</r>
       <r>   6.4000  1.0000</r>
       <r>   6.7463  1.0000</r>
       <r>   6.7463  1.0000</r>
       <r>   6.7463  1.0000</r>
       <r>   6.7463  1.0000</r>
       <r>   6.9208  0.0000</r>
       <r>   7.2473  0.0000</r>
       <r>   7.2473  0.0000</r>
       <r>   7.2490  0.0000</r>
       <r>   7.2490  0.0000</r>
       <r>   7.2518  0.0000</r>
       <r>   7.2518  0.0000</r>
       <r>   7.4075  0.0000</r>
       <r>   7.4075  0.0000</r>
       <r>   7.4075  0.0000</r>
       <r>   7.4075  0.0000</r>
       <r>   8.3965  0.0000</r>
       <r>   8.3965  0.0000</r>
       <r>   8.4043  0.0000</r>
       <r>   8.4043  0.0000</r>
       <r>   8.4045  0.0000</r>
       <r>   8.4045  0.0000</r>
       <r>   8.8988  0.0000</r>
       <r>   8.8988  0.0000</r>
       <r>   8.8988  0.0000</r>
      </set>
      <set comment="kpoint 5">
       <r>  -3.2786  1.0000</r>
       <r>  -2.5814  1.0000</r>
       <r>  -1.1962  1.0000</r>
       <r>  -1.1962  1.0000</r>
       <r>  -1.1962  1.0000</r>
       <r>  -1.1962  1.0000</r>
       <r>  -0.5082  1.0000</r>
       <r>  -0.5082  1.0000</r>
       <r>  -0.5082  1.0000</r>
       <r>  -0.5082  1.0000</r>
       <r>   0.1759  1.0000</r>
       <r>   0.8590  1.0000</r>
       <r>   0.8590  1.0000</r>
       <r>   0.8590  1.0000</r>
       <r>   0.8590  1.0000</r>
       <r>   1.5380  1.0000</r>
       <r>   1.5380  1.0000</r>
       <r>   1.5380  1.0000</r>
       <r>   1.5380  1.0000</r>
       <r>   2.2012  1.0000</r>
       <r>   2.2136  1.0000</r>
       <r>   2.2136  1.0000</r>
       <r>   2.2136  1.0000</r>
       <r>   2.2137  1.0000</r>
       <r>   4.2110  1.0000</r>
       <r>   4.2110  1.0000</r>
       <r>   4.2110  1.0000</r>
       <r>   4.2110  1.0000</r>
       <r>   4.2282  1.0000</r>
       <r>   4.2282  1.0000</r>
       <r>   4.2282  1.0000</r>
       <r>   4.2282  1.0000</r>
       <r>   4.4229  1.0000</r>
       <r>   4.4229  1.0000</r>
       <r>   5.0713  1.0000</r>
       <r>   5.0713  1.0000</r>
       <r>   5.4776  1.0000</r>
       <r>   5.4776  1.0000</r>
       <r>   6.1602  1.0000</r>
       <r>   6.1603  1.0000</r>
       <r>   6.2002  1.0000</r>
       <r>   6.2002  1.0000</r>
       <r>   6.2002  1.0000</r>
       <r>   6.2003  1.0000</r>
       <r>   6.3697  1.0000</r>
       <r>   6.3697  1.0000</r>
       <r>   6.3697  1.0000</r>
       <r>   6.3697  1.0000</r>
       <r>   7.0190  0.0000</r>
       <r>   7.0190  0.0000</r>
       <r>   7.0190  0.0000</r>
       <r>   7.0190  0.0000</r>
       <r>   7.5056  0.0000</r>
       <r>   7.5056  0.0000</r>
       <r>   7.5056  0.0000</r>
       <r>   7.5056  0.0000</r>
       <r>   7.6634  0.0000</r>
       <r>   7.6701  0.0000</r>
       <r>   7.6701  0.0000</r>
       <r>   8.1706  0.0000</r>
       <r>   8.1706  0.0000</r>
       <r>   8.1706  0.0000</r>
       <r>   8.1706  0.0000</r>
       <r>   8.8122  0.0000</r>
       <r>   8.8122  0.0000</r>
       <r>   9.6180  0.0000</r>
       <r>   9.6204  0.0000</r>
       <r>   9.6233  0.0000</r>
      </set>
      <set comment="kpoint 6">
       <r>  -3.1476  1.0000</r>
       <r>  -2.7989  1.0000</r>
       <r>  -1.0670  1.0000</r>
       <r>  -1.0670  1.0000</r>
       <r>  -1.0670  1.0000</r>
       <r>  -1.0670  1.0000</r>
       <r>  -0.7229  1.0000</r>
       <r>  -0.7229  1.0000</r>
       <r>  -0.7229  1.0000</r>
       <r>  -0.7229  1.0000</r>
       <r>   0.6441  1.0000</r>
       <r>   0.9865  1.0000</r>
       <r>   0.9865  1.0000</r>
       <r>   0.9865  1.0000</r>
       <r>   0.9865  1.0000</r>
       <r>   1.3261  1.0000</r>
       <r>   1.3261  1.0000</r>
       <r>   1.3261  1.0000</r>
       <r>   1.3261  1.0000</r>
       <r>   1.6581  1.0000</r>
       <r>   2.6758  1.0000</r>
       <r>   2.6758  1.0000</r>
       <r>   2.6758  1.0000</r>
       <r>   2.6758  1.0000</r>
       <r>   3.6759  1.0000</r>
       <r>   3.6759  1.0000</r>
       <r>   3.6759  1.0000</r>
       <r>   3.6759  1.0000</r>
       <r>   4.5444  1.0000</r>
       <r>   4.5444  1.0000</r>
       <r>   4.6846  1.0000</r>
       <r>   4.6846  1.0000</r>
       <r>   4.6846  1.0000</r>
       <r>   4.6846  1.0000</r>
       <r>   4.8686  1.0000</r>
       <r>   4.8686  1.0000</r>
       <r>   5.6061  1.0000</r>
       <r>   5.6062  1.0000</r>
       <r>   5.6722  1.0000</r>
       <r>   5.6722  1.0000</r>
       <r>   5.6722  1.0000</r>
       <r>   5.6722  1.0000</r>
       <r>   5.9478  1.0000</r>
       <r>   5.9478  1.0000</r>
       <r>   6.4914  1.0000</r>
       <r>   6.4914  1.0000</r>
       <r>   6.4914  1.0000</r>
       <r>   6.4914  1.0000</r>
       <r>   6.8160  1.0000</r>
       <r>   6.8160  1.0000</r>
       <r>   6.8160  1.0000</r>
       <r>   6.8160  1.0000</r>
       <r>   7.6309  0.0000</r>
       <r>   7.6309  0.0000</r>
       <r>   7.6309  0.0000</r>
       <r>   7.6309  0.0000</r>
       <r>   7.9636  0.0000</r>
       <r>   7.9636  0.0000</r>
       <r>   7.9636  0.0000</r>
       <r>   7.9637  0.0000</r>
       <r>   8.1173  0.0000</r>
       <r>   8.1173  0.0000</r>
       <r>   8.4365  0.0000</r>
       <r>   9.0935  0.0000</r>
       <r>   9.0935  0.0000</r>
       <r>   9.2478  0.0000</r>
       <r>   9.2478  0.0000</r>
       <r>  10.0634  0.0000</r>
      </set>
      <set comment="kpoint 7">
       <r>  -2.9890  1.0000</r>
       <r>  -2.9864  1.0000</r>
       <r>  -0.9129  1.0000</r>
       <r>  -0.9100  1.0000</r>
       <r>  -0.9100  1.0000</r>
       <r>  -0.9093  1.0000</r>
       <r>  -0.9091  1.0000</r>
       <r>  -0.9084  1.0000</r>
       <r>  -0.9084  1.0000</r>
       <r>  -0.9055  1.0000</r>
       <r>   1.1356  1.0000</r>
       <r>   1.1386  1.0000</r>
       <r>   1.1411  1.0000</r>
       <r>   1.1411  1.0000</r>
       <r>   1.1412  1.0000</r>
       <r>   1.1419  1.0000</r>
       <r>   1.1426  1.0000</r>
       <r>   1.1434  1.0000</r>
       <r>   1.1434  1.0000</r>
       <r>   1.1460  1.0000</r>
       <r>   3.1622  1.0000</r>
       <r>   3.1628  1.0000</r>
       <r>   3.1628  1.0000</r>
       <r>   3.1634  1.0000</r>
       <r>   3.1637  1.0000</r>
       <r>   3.1643  1.0000</r>
       <r>   3.1643  1.0000</r>
       <r>   3.1649  1.0000</r>
       <r>   4.6916  1.0000</r>
       <r>   4.6916  1.0000</r>
       <r>   4.6944  1.0000</r>
       <r>   4.6944  1.0000</r>
       <r>   5.1652  1.0000</r>
       <r>   5.1652  1.0000</r>
       <r>   5.1659  1.0000</r>
       <r>   5.1660  1.0000</r>
       <r>   5.1666  1.0000</r>
       <r>   5.1667  1.0000</r>
       <r>   5.1674  1.0000</r>
       <r>   5.1674  1.0000</r>
       <r>   5.7613  1.0000</r>
       <r>   5.7621  1.0000</r>
       <r>   5.7639  1.0000</r>
       <r>   5.7647  1.0000</r>
       <r>   6.6380  1.0000</r>
       <r>   6.6380  1.0000</r>
       <r>   6.6390  1.0000</r>
       <r>   6.6401  1.0000</r>
       <r>   6.6403  1.0000</r>
       <r>   6.6414  1.0000</r>
       <r>   6.6424  1.0000</r>
       <r>   6.6424  1.0000</r>
       <r>   7.7815  0.0000</r>
       <r>   7.7827  0.0000</r>
       <r>   7.7827  0.0000</r>
       <r>   7.7828  0.0000</r>
       <r>   7.7846  0.0000</r>
       <r>   7.7847  0.0000</r>
       <r>   7.7847  0.0000</r>
       <r>   7.7859  0.0000</r>
       <r>   8.5907  0.0000</r>
       <r>   8.5907  0.0000</r>
       <r>   8.5929  0.0000</r>
       <r>   8.5929  0.0000</r>
       <r>   9.2358  0.0000</r>
       <r>   9.2374  0.0000</r>
       <r>   9.6997  0.0000</r>
       <r>   9.7010  0.0000</r>
      </set>
      <set comment="kpoint 8">
       <r>  -3.4971  1.0000</r>
       <r>  -1.7574  1.0000</r>
       <r>  -1.4145  1.0000</r>
       <r>  -1.4118  1.0000</r>
       <r>  -1.4118  1.0000</r>
       <r>  -1.4091  1.0000</r>
       <r>  -1.0670  1.0000</r>
       <r>   0.3023  1.0000</r>
       <r>   0.3050  1.0000</r>
       <r>   0.3050  1.0000</r>
       <r>   0.3077  1.0000</r>
       <r>   0.6441  1.0000</r>
       <r>   0.6452  1.0000</r>
       <r>   0.6472  1.0000</r>
       <r>   0.6483  1.0000</r>
       <r>   0.9839  1.0000</r>
       <r>   0.9866  1.0000</r>
       <r>   0.9866  1.0000</r>
       <r>   0.9893  1.0000</r>
       <r>   2.3369  1.0000</r>
       <r>   2.3380  1.0000</r>
       <r>   2.3400  1.0000</r>
       <r>   2.3411  1.0000</r>
       <r>   3.0161  1.0000</r>
       <r>   3.0171  1.0000</r>
       <r>   3.0192  1.0000</r>
       <r>   3.0203  1.0000</r>
       <r>   3.8910  1.0000</r>
       <r>   4.2203  1.0000</r>
       <r>   4.2203  1.0000</r>
       <r>   5.2626  1.0000</r>
       <r>   5.2626  1.0000</r>
       <r>   5.5897  1.0000</r>
       <r>   5.8418  1.0000</r>
       <r>   5.8421  1.0000</r>
       <r>   5.8568  1.0000</r>
       <r>   5.8596  1.0000</r>
       <r>   5.8596  1.0000</r>
       <r>   5.8626  1.0000</r>
       <r>   6.1643  1.0000</r>
       <r>   6.1668  1.0000</r>
       <r>   6.1668  1.0000</r>
       <r>   6.1693  1.0000</r>
       <r>   6.4917  1.0000</r>
       <r>   6.4917  1.0000</r>
       <r>   6.9569  0.0000</r>
       <r>   6.9569  0.0000</r>
       <r>   7.2833  0.0000</r>
       <r>   7.2855  0.0000</r>
       <r>   7.2855  0.0000</r>
       <r>   7.2876  0.0000</r>
       <r>   7.6137  0.0000</r>
       <r>   7.6158  0.0000</r>
       <r>   7.6158  0.0000</r>
       <r>   7.6179  0.0000</r>
       <r>   7.6372  0.0000</r>
       <r>   7.6372  0.0000</r>
       <r>   7.7876  0.0000</r>
       <r>   7.7901  0.0000</r>
       <r>   7.7902  0.0000</r>
       <r>   7.7928  0.0000</r>
       <r>   7.8170  0.0000</r>
       <r>   7.8185  0.0000</r>
       <r>   7.8205  0.0000</r>
       <r>   7.8221  0.0000</r>
       <r>   8.4374  0.0000</r>
       <r>   8.4399  0.0000</r>
       <r>   8.4413  0.0000</r>
      </set>
      <set comment="kpoint 9">
       <r>  -3.4825  1.0000</r>
       <r>  -1.7441  1.0000</r>
       <r>  -1.7419  1.0000</r>
       <r>  -1.3974  1.0000</r>
       <r>  -1.3974  1.0000</r>
       <r>  -1.0537  1.0000</r>
       <r>  -1.0515  1.0000</r>
       <r>  -0.0226  1.0000</r>
       <r>   0.3177  1.0000</r>
       <r>   0.3186  1.0000</r>
       <r>   0.3199  1.0000</r>
       <r>   0.3208  1.0000</r>
       <r>   0.6598  1.0000</r>
       <r>   0.6609  1.0000</r>
       <r>   0.9992  1.0000</r>
       <r>   1.0001  1.0000</r>
       <r>   1.0014  1.0000</r>
       <r>   1.0023  1.0000</r>
       <r>   1.3405  1.0000</r>
       <r>   2.0168  1.0000</r>
       <r>   2.0168  1.0000</r>
       <r>   2.6492  1.0000</r>
       <r>   2.6492  1.0000</r>
       <r>   2.7366  1.0000</r>
       <r>   2.7366  1.0000</r>
       <r>   3.3664  1.0000</r>
       <r>   3.3664  1.0000</r>
       <r>   3.9043  1.0000</r>
       <r>   3.9052  1.0000</r>
       <r>   4.2338  1.0000</r>
       <r>   5.2770  1.0000</r>
       <r>   5.5448  1.0000</r>
       <r>   5.5470  1.0000</r>
       <r>   5.6034  1.0000</r>
       <r>   5.6043  1.0000</r>
       <r>   5.8543  1.0000</r>
       <r>   5.8567  1.0000</r>
       <r>   5.8660  1.0000</r>
       <r>   5.8661  1.0000</r>
       <r>   5.8806  1.0000</r>
       <r>   5.8807  1.0000</r>
       <r>   6.1994  1.0000</r>
       <r>   6.2007  1.0000</r>
       <r>   6.5040  1.0000</r>
       <r>   6.5064  1.0000</r>
       <r>   6.9735  0.0000</r>
       <r>   6.9754  0.0000</r>
       <r>   7.2731  0.0000</r>
       <r>   7.2745  0.0000</r>
       <r>   7.4789  0.0000</r>
       <r>   7.5055  0.0000</r>
       <r>   7.5065  0.0000</r>
       <r>   7.5078  0.0000</r>
       <r>   7.5086  0.0000</r>
       <r>   7.5565  0.0000</r>
       <r>   7.5566  0.0000</r>
       <r>   7.6548  0.0000</r>
       <r>   7.6562  0.0000</r>
       <r>   7.6769  0.0000</r>
       <r>   7.6769  0.0000</r>
       <r>   7.9491  0.0000</r>
       <r>   7.9509  0.0000</r>
       <r>   8.1277  0.0000</r>
       <r>   8.1296  0.0000</r>
       <r>   8.1575  0.0000</r>
       <r>   8.1586  0.0000</r>
       <r>   8.1588  0.0000</r>
       <r>   8.1598  0.0000</r>
      </set>
      <set comment="kpoint 10">
       <r>  -3.4388  1.0000</r>
       <r>  -2.0460  1.0000</r>
       <r>  -1.6998  1.0000</r>
       <r>  -1.3543  1.0000</r>
       <r>  -1.3543  1.0000</r>
       <r>  -1.0096  1.0000</r>
       <r>  -0.6657  1.0000</r>
       <r>  -0.3224  1.0000</r>
       <r>   0.0201  1.0000</r>
       <r>   0.0202  1.0000</r>
       <r>   0.3613  1.0000</r>
       <r>   0.3619  1.0000</r>
       <r>   0.3625  1.0000</r>
       <r>   1.0425  1.0000</r>
       <r>   1.0433  1.0000</r>
       <r>   1.0438  1.0000</r>
       <r>   1.3828  1.0000</r>
       <r>   1.3828  1.0000</r>
       <r>   1.7209  1.0000</r>
       <r>   1.7213  1.0000</r>
       <r>   1.7220  1.0000</r>
       <r>   2.3953  1.0000</r>
       <r>   2.3953  1.0000</r>
       <r>   3.0737  1.0000</r>
       <r>   3.0737  1.0000</r>
       <r>   3.3535  1.0000</r>
       <r>   3.7425  1.0000</r>
       <r>   3.7425  1.0000</r>
       <r>   3.9459  1.0000</r>
       <r>   4.2743  1.0000</r>
       <r>   5.0112  1.0000</r>
       <r>   5.2592  1.0000</r>
       <r>   5.3199  1.0000</r>
       <r>   5.3411  1.0000</r>
       <r>   5.3412  1.0000</r>
       <r>   5.5716  1.0000</r>
       <r>   5.6462  1.0000</r>
       <r>   5.6706  1.0000</r>
       <r>   5.8962  1.0000</r>
       <r>   5.9144  1.0000</r>
       <r>   5.9144  1.0000</r>
       <r>   6.2319  1.0000</r>
       <r>   6.5458  1.0000</r>
       <r>   6.5635  1.0000</r>
       <r>   6.6864  1.0000</r>
       <r>   6.8708  0.0421</r>
       <r>   6.9855  0.0000</r>
       <r>   6.9857  0.0000</r>
       <r>   6.9897  0.0000</r>
       <r>   7.0182  0.0000</r>
       <r>   7.1948  0.0000</r>
       <r>   7.2217  0.0000</r>
       <r>   7.2217  0.0000</r>
       <r>   7.6397  0.0000</r>
       <r>   7.6399  0.0000</r>
       <r>   7.6526  0.0000</r>
       <r>   7.6527  0.0000</r>
       <r>   7.6689  0.0000</r>
       <r>   7.8445  0.0000</r>
       <r>   7.9120  0.0000</r>
       <r>   8.0185  0.0000</r>
       <r>   8.2292  0.0000</r>
       <r>   8.2292  0.0000</r>
       <r>   8.3162  0.0000</r>
       <r>   8.3503  0.0000</r>
       <r>   8.4962  0.0000</r>
       <r>   8.5246  0.0000</r>
       <r>   8.5312  0.0000</r>
      </set>
      <set comment="kpoint 11">
       <r>  -3.3660  1.0000</r>
       <r>  -2.3207  1.0000</r>
       <r>  -1.6277  1.0000</r>
       <r>  -1.2824  1.0000</r>
       <r>  -1.2824  1.0000</r>
       <r>  -0.9379  1.0000</r>
       <r>  -0.5940  1.0000</r>
       <r>  -0.2529  1.0000</r>
       <r>  -0.2510  1.0000</r>
       <r>  -0.2494  1.0000</r>
       <r>   0.0914  1.0000</r>
       <r>   0.4330  1.0000</r>
       <r>   0.4330  1.0000</r>
       <r>   1.1140  1.0000</r>
       <r>   1.1140  1.0000</r>
       <r>   1.4514  1.0000</r>
       <r>   1.4532  1.0000</r>
       <r>   1.4549  1.0000</r>
       <r>   1.7918  1.0000</r>
       <r>   1.7919  1.0000</r>
       <r>   2.1279  1.0000</r>
       <r>   2.1295  1.0000</r>
       <r>   2.1315  1.0000</r>
       <r>   2.7787  1.0000</r>
       <r>   3.4773  1.0000</r>
       <r>   3.4773  1.0000</r>
       <r>   4.0144  1.0000</r>
       <r>   4.1456  1.0000</r>
       <r>   4.1456  1.0000</r>
       <r>   4.3418  1.0000</r>
       <r>   4.4469  1.0000</r>
       <r>   4.7788  1.0000</r>
       <r>   4.7788  1.0000</r>
       <r>   4.9996  1.0000</r>
       <r>   5.1099  1.0000</r>
       <r>   5.3146  1.0000</r>
       <r>   5.3917  1.0000</r>
       <r>   5.7169  1.0000</r>
       <r>   5.9638  1.0000</r>
       <r>   5.9825  1.0000</r>
       <r>   5.9825  1.0000</r>
       <r>   6.4136  1.0000</r>
       <r>   6.4312  1.0000</r>
       <r>   6.4312  1.0000</r>
       <r>   6.6134  1.0000</r>
       <r>   6.7266  1.0000</r>
       <r>   6.9347  0.0000</r>
       <r>   6.9376  0.0000</r>
       <r>   6.9616  0.0000</r>
       <r>   6.9632  0.0000</r>
       <r>   6.9658  0.0000</r>
       <r>   7.0881  0.0000</r>
       <r>   7.0881  0.0000</r>
       <r>   7.0887  0.0000</r>
       <r>   7.2636  0.0000</r>
       <r>   7.5874  0.0000</r>
       <r>   7.7245  0.0000</r>
       <r>   7.7246  0.0000</r>
       <r>   7.7506  0.0000</r>
       <r>   8.0892  0.0000</r>
       <r>   8.4107  0.0000</r>
       <r>   8.5889  0.0000</r>
       <r>   8.7069  0.0000</r>
       <r>   8.7146  0.0000</r>
       <r>   8.7149  0.0000</r>
       <r>   8.7445  0.0000</r>
       <r>   8.8910  0.0000</r>
       <r>   8.9144  0.0000</r>
      </set>
      <set comment="kpoint 12">
       <r>  -3.2640  1.0000</r>
       <r>  -2.5669  1.0000</r>
       <r>  -1.5270  1.0000</r>
       <r>  -1.1819  1.0000</r>
       <r>  -1.1818  1.0000</r>
       <r>  -0.8381  1.0000</r>
       <r>  -0.8370  1.0000</r>
       <r>  -0.4939  1.0000</r>
       <r>  -0.4939  1.0000</r>
       <r>  -0.1511  1.0000</r>
       <r>   0.1901  1.0000</r>
       <r>   0.5325  1.0000</r>
       <r>   0.5325  1.0000</r>
       <r>   1.2123  1.0000</r>
       <r>   1.2126  1.0000</r>
       <r>   1.2134  1.0000</r>
       <r>   1.2137  1.0000</r>
       <r>   1.8895  1.0000</r>
       <r>   1.8905  1.0000</r>
       <r>   1.8908  1.0000</r>
       <r>   2.2153  1.0000</r>
       <r>   2.2277  1.0000</r>
       <r>   2.2277  1.0000</r>
       <r>   2.5648  1.0000</r>
       <r>   3.8915  1.0000</r>
       <r>   3.9082  1.0000</r>
       <r>   3.9083  1.0000</r>
       <r>   4.1103  1.0000</r>
       <r>   4.2249  1.0000</r>
       <r>   4.2249  1.0000</r>
       <r>   4.4363  1.0000</r>
       <r>   4.5575  1.0000</r>
       <r>   4.5752  1.0000</r>
       <r>   4.5753  1.0000</r>
       <r>   4.7672  1.0000</r>
       <r>   5.0848  1.0000</r>
       <r>   5.4919  1.0000</r>
       <r>   5.8157  1.0000</r>
       <r>   5.8839  1.0000</r>
       <r>   5.8839  1.0000</r>
       <r>   6.0584  1.0000</r>
       <r>   6.0780  1.0000</r>
       <r>   6.0780  1.0000</r>
       <r>   6.1744  1.0000</r>
       <r>   6.4897  1.0000</r>
       <r>   6.5433  1.0000</r>
       <r>   6.5433  1.0000</r>
       <r>   6.7071  1.0000</r>
       <r>   6.7087  1.0000</r>
       <r>   6.7319  1.0000</r>
       <r>   6.7319  1.0000</r>
       <r>   7.1868  0.0000</r>
       <r>   7.3574  0.0000</r>
       <r>   7.3847  0.0000</r>
       <r>   7.6771  0.0000</r>
       <r>   7.6836  0.0000</r>
       <r>   7.8220  0.0000</r>
       <r>   7.8220  0.0000</r>
       <r>   7.8494  0.0000</r>
       <r>   7.8545  0.0000</r>
       <r>   8.4824  0.0000</r>
       <r>   8.4824  0.0000</r>
       <r>   8.5119  0.0000</r>
       <r>   8.8259  0.0000</r>
       <r>   9.1211  0.0000</r>
       <r>   9.3099  0.0000</r>
       <r>   9.3220  0.0000</r>
       <r>   9.3353  0.0000</r>
      </set>
      <set comment="kpoint 13">
       <r>  -3.1331  1.0000</r>
       <r>  -2.7844  1.0000</r>
       <r>  -1.3975  1.0000</r>
       <r>  -1.0539  1.0000</r>
       <r>  -1.0526  1.0000</r>
       <r>  -1.0514  1.0000</r>
       <r>  -0.7099  1.0000</r>
       <r>  -0.7086  1.0000</r>
       <r>  -0.7073  1.0000</r>
       <r>  -0.3653  1.0000</r>
       <r>   0.6577  1.0000</r>
       <r>   0.6603  1.0000</r>
       <r>   0.6609  1.0000</r>
       <r>   1.0006  1.0000</r>
       <r>   1.0006  1.0000</r>
       <r>   1.3403  1.0000</r>
       <r>   1.3403  1.0000</r>
       <r>   1.6719  1.0000</r>
       <r>   1.6792  1.0000</r>
       <r>   1.6794  1.0000</r>
       <r>   2.3529  1.0000</r>
       <r>   2.6898  1.0000</r>
       <r>   2.6898  1.0000</r>
       <r>   3.0259  1.0000</r>
       <r>   3.3552  1.0000</r>
       <r>   3.6899  1.0000</r>
       <r>   3.6899  1.0000</r>
       <r>   4.0238  1.0000</r>
       <r>   4.2335  1.0000</r>
       <r>   4.3654  1.0000</r>
       <r>   4.3654  1.0000</r>
       <r>   4.5579  1.0000</r>
       <r>   4.5620  1.0000</r>
       <r>   4.8821  1.0000</r>
       <r>   5.0308  1.0000</r>
       <r>   5.0308  1.0000</r>
       <r>   5.3548  1.0000</r>
       <r>   5.3548  1.0000</r>
       <r>   5.6204  1.0000</r>
       <r>   5.9425  1.0000</r>
       <r>   5.9620  1.0000</r>
       <r>   6.0163  1.0000</r>
       <r>   6.0164  1.0000</r>
       <r>   6.1801  1.0000</r>
       <r>   6.2006  1.0000</r>
       <r>   6.2006  1.0000</r>
       <r>   6.2798  1.0000</r>
       <r>   6.5047  1.0000</r>
       <r>   6.5276  1.0000</r>
       <r>   6.5276  1.0000</r>
       <r>   6.8298  1.0000</r>
       <r>   7.1545  0.0000</r>
       <r>   7.3126  0.0000</r>
       <r>   7.6466  0.0000</r>
       <r>   7.8321  0.0000</r>
       <r>   7.9465  0.0000</r>
       <r>   7.9465  0.0000</r>
       <r>   7.9745  0.0000</r>
       <r>   8.1309  0.0000</r>
       <r>   8.2768  0.0000</r>
       <r>   8.2768  0.0000</r>
       <r>   8.3059  0.0000</r>
       <r>   8.4501  0.0000</r>
       <r>   8.8045  0.0000</r>
       <r>   9.1070  0.0000</r>
       <r>   9.2614  0.0000</r>
       <r>   9.5557  0.0000</r>
       <r>   9.7554  0.0000</r>
      </set>
      <set comment="kpoint 14">
       <r>  -2.9745  1.0000</r>
       <r>  -2.9718  1.0000</r>
       <r>  -1.2407  1.0000</r>
       <r>  -1.2380  1.0000</r>
       <r>  -0.8968  1.0000</r>
       <r>  -0.8956  1.0000</r>
       <r>  -0.8941  1.0000</r>
       <r>  -0.8930  1.0000</r>
       <r>  -0.5525  1.0000</r>
       <r>  -0.5498  1.0000</r>
       <r>   0.8144  1.0000</r>
       <r>   0.8156  1.0000</r>
       <r>   0.8171  1.0000</r>
       <r>   0.8182  1.0000</r>
       <r>   1.1519  1.0000</r>
       <r>   1.1534  1.0000</r>
       <r>   1.4939  1.0000</r>
       <r>   1.4950  1.0000</r>
       <r>   1.4965  1.0000</r>
       <r>   1.4976  1.0000</r>
       <r>   2.8410  1.0000</r>
       <r>   2.8425  1.0000</r>
       <r>   3.1768  1.0000</r>
       <r>   3.1768  1.0000</r>
       <r>   3.1783  1.0000</r>
       <r>   3.1783  1.0000</r>
       <r>   3.5119  1.0000</r>
       <r>   3.5133  1.0000</r>
       <r>   4.3827  1.0000</r>
       <r>   4.3855  1.0000</r>
       <r>   4.7051  1.0000</r>
       <r>   4.7079  1.0000</r>
       <r>   4.8473  1.0000</r>
       <r>   4.8473  1.0000</r>
       <r>   4.8487  1.0000</r>
       <r>   4.8488  1.0000</r>
       <r>   5.5108  1.0000</r>
       <r>   5.5108  1.0000</r>
       <r>   5.5122  1.0000</r>
       <r>   5.5123  1.0000</r>
       <r>   5.7760  1.0000</r>
       <r>   5.7785  1.0000</r>
       <r>   6.0960  1.0000</r>
       <r>   6.0986  1.0000</r>
       <r>   6.3275  1.0000</r>
       <r>   6.3303  1.0000</r>
       <r>   6.3484  1.0000</r>
       <r>   6.3499  1.0000</r>
       <r>   6.3513  1.0000</r>
       <r>   6.3526  1.0000</r>
       <r>   6.9772  0.0000</r>
       <r>   6.9800  0.0000</r>
       <r>   7.4646  0.0000</r>
       <r>   7.4672  0.0000</r>
       <r>   8.0964  0.0000</r>
       <r>   8.0972  0.0000</r>
       <r>   8.0990  0.0000</r>
       <r>   8.0998  0.0000</r>
       <r>   8.1254  0.0000</r>
       <r>   8.1280  0.0000</r>
       <r>   8.3046  0.0000</r>
       <r>   8.3065  0.0000</r>
       <r>   8.6042  0.0000</r>
       <r>   8.6065  0.0000</r>
       <r>   9.2493  0.0000</r>
       <r>   9.2509  0.0000</r>
       <r>   9.7137  0.0000</r>
       <r>   9.7143  0.0000</r>
      </set>
      <set comment="kpoint 15">
       <r>  -3.4534  1.0000</r>
       <r>  -2.0605  1.0000</r>
       <r>  -1.3714  1.0000</r>
       <r>  -1.3686  1.0000</r>
       <r>  -1.3686  1.0000</r>
       <r>  -1.3660  1.0000</r>
       <r>  -0.6800  1.0000</r>
       <r>   0.0032  1.0000</r>
       <r>   0.0059  1.0000</r>
       <r>   0.0059  1.0000</r>
       <r>   0.0086  1.0000</r>
       <r>   0.6867  1.0000</r>
       <r>   0.6878  1.0000</r>
       <r>   0.6898  1.0000</r>
       <r>   0.6909  1.0000</r>
       <r>   1.3659  1.0000</r>
       <r>   1.3686  1.0000</r>
       <r>   1.3686  1.0000</r>
       <r>   1.3713  1.0000</r>
       <r>   2.0429  1.0000</r>
       <r>   2.0440  1.0000</r>
       <r>   2.0460  1.0000</r>
       <r>   2.0471  1.0000</r>
       <r>   3.3396  1.0000</r>
       <r>   3.3920  1.0000</r>
       <r>   3.3931  1.0000</r>
       <r>   3.3952  1.0000</r>
       <r>   3.3962  1.0000</r>
       <r>   4.2608  1.0000</r>
       <r>   4.2608  1.0000</r>
       <r>   5.3056  1.0000</r>
       <r>   5.3057  1.0000</r>
       <r>   5.3246  1.0000</r>
       <r>   5.3274  1.0000</r>
       <r>   5.3274  1.0000</r>
       <r>   5.3302  1.0000</r>
       <r>   5.5580  1.0000</r>
       <r>   5.5581  1.0000</r>
       <r>   6.2049  1.0000</r>
       <r>   6.2073  1.0000</r>
       <r>   6.2074  1.0000</r>
       <r>   6.2099  1.0000</r>
       <r>   6.2180  1.0000</r>
       <r>   6.6663  1.0000</r>
       <r>   6.6663  1.0000</r>
       <r>   6.8573  0.5731</r>
       <r>   6.8573  0.5727</r>
       <r>   7.2971  0.0000</r>
       <r>   7.2985  0.0000</r>
       <r>   7.3005  0.0000</r>
       <r>   7.3018  0.0000</r>
       <r>   7.3341  0.0000</r>
       <r>   7.3361  0.0000</r>
       <r>   7.3361  0.0000</r>
       <r>   7.3381  0.0000</r>
       <r>   7.5035  0.0000</r>
       <r>   7.5061  0.0000</r>
       <r>   7.5061  0.0000</r>
       <r>   7.5086  0.0000</r>
       <r>   8.0040  0.0000</r>
       <r>   8.0040  0.0000</r>
       <r>   8.2115  0.0000</r>
       <r>   8.2139  0.0000</r>
       <r>   8.2139  0.0000</r>
       <r>   8.2163  0.0000</r>
       <r>   8.6634  0.0000</r>
       <r>   8.6644  0.0000</r>
       <r>   8.6660  0.0000</r>
      </set>
      <set comment="kpoint 16">
       <r>  -3.4388  1.0000</r>
       <r>  -2.0460  1.0000</r>
       <r>  -1.6998  1.0000</r>
       <r>  -1.3543  1.0000</r>
       <r>  -1.3543  1.0000</r>
       <r>  -1.0096  1.0000</r>
       <r>  -0.6657  1.0000</r>
       <r>  -0.3224  1.0000</r>
       <r>   0.0201  1.0000</r>
       <r>   0.0202  1.0000</r>
       <r>   0.3605  1.0000</r>
       <r>   0.3619  1.0000</r>
       <r>   0.3633  1.0000</r>
       <r>   1.0418  1.0000</r>
       <r>   1.0433  1.0000</r>
       <r>   1.0446  1.0000</r>
       <r>   1.3828  1.0000</r>
       <r>   1.3828  1.0000</r>
       <r>   1.7209  1.0000</r>
       <r>   1.7213  1.0000</r>
       <r>   1.7220  1.0000</r>
       <r>   2.3953  1.0000</r>
       <r>   2.3953  1.0000</r>
       <r>   3.0737  1.0000</r>
       <r>   3.0737  1.0000</r>
       <r>   3.3535  1.0000</r>
       <r>   3.7425  1.0000</r>
       <r>   3.7425  1.0000</r>
       <r>   3.9459  1.0000</r>
       <r>   4.2743  1.0000</r>
       <r>   5.0111  1.0000</r>
       <r>   5.2591  1.0000</r>
       <r>   5.3200  1.0000</r>
       <r>   5.3411  1.0000</r>
       <r>   5.3411  1.0000</r>
       <r>   5.5715  1.0000</r>
       <r>   5.6462  1.0000</r>
       <r>   5.6705  1.0000</r>
       <r>   5.8961  1.0000</r>
       <r>   5.9144  1.0000</r>
       <r>   5.9145  1.0000</r>
       <r>   6.2319  1.0000</r>
       <r>   6.5458  1.0000</r>
       <r>   6.5635  1.0000</r>
       <r>   6.6864  1.0000</r>
       <r>   6.8708  0.0420</r>
       <r>   6.9856  0.0000</r>
       <r>   6.9856  0.0000</r>
       <r>   6.9897  0.0000</r>
       <r>   7.0182  0.0000</r>
       <r>   7.1947  0.0000</r>
       <r>   7.2217  0.0000</r>
       <r>   7.2217  0.0000</r>
       <r>   7.6400  0.0000</r>
       <r>   7.6400  0.0000</r>
       <r>   7.6524  0.0000</r>
       <r>   7.6525  0.0000</r>
       <r>   7.6690  0.0000</r>
       <r>   7.8445  0.0000</r>
       <r>   7.9120  0.0000</r>
       <r>   8.0185  0.0000</r>
       <r>   8.2291  0.0000</r>
       <r>   8.2291  0.0000</r>
       <r>   8.3162  0.0000</r>
       <r>   8.3503  0.0000</r>
       <r>   8.4946  0.0000</r>
       <r>   8.5246  0.0000</r>
       <r>   8.5490  0.0000</r>
      </set>
      <set comment="kpoint 17">
       <r>  -3.3951  1.0000</r>
       <r>  -2.0038  1.0000</r>
       <r>  -2.0016  1.0000</r>
       <r>  -1.3112  1.0000</r>
       <r>  -1.3112  1.0000</r>
       <r>  -0.6245  1.0000</r>
       <r>  -0.6227  1.0000</r>
       <r>  -0.6210  1.0000</r>
       <r>   0.0614  1.0000</r>
       <r>   0.0623  1.0000</r>
       <r>   0.0635  1.0000</r>
       <r>   0.0644  1.0000</r>
       <r>   0.7448  1.0000</r>
       <r>   0.7459  1.0000</r>
       <r>   1.4227  1.0000</r>
       <r>   1.4239  1.0000</r>
       <r>   1.4250  1.0000</r>
       <r>   1.4251  1.0000</r>
       <r>   1.4262  1.0000</r>
       <r>   1.4275  1.0000</r>
       <r>   2.1019  1.0000</r>
       <r>   2.7355  1.0000</r>
       <r>   2.7355  1.0000</r>
       <r>   2.8181  1.0000</r>
       <r>   2.8181  1.0000</r>
       <r>   3.3946  1.0000</r>
       <r>   3.3956  1.0000</r>
       <r>   4.1181  1.0000</r>
       <r>   4.1181  1.0000</r>
       <r>   4.3148  1.0000</r>
       <r>   4.7209  1.0000</r>
       <r>   4.7231  1.0000</r>
       <r>   5.3629  1.0000</r>
       <r>   5.3742  1.0000</r>
       <r>   5.3743  1.0000</r>
       <r>   5.3908  1.0000</r>
       <r>   5.3908  1.0000</r>
       <r>   5.6109  1.0000</r>
       <r>   5.6133  1.0000</r>
       <r>   6.0394  1.0000</r>
       <r>   6.0405  1.0000</r>
       <r>   6.2733  1.0000</r>
       <r>   6.2743  1.0000</r>
       <r>   6.6971  1.0000</r>
       <r>   6.6980  1.0000</r>
       <r>   6.6994  1.0000</r>
       <r>   6.7002  1.0000</r>
       <r>   6.7249  1.0000</r>
       <r>   6.7267  1.0000</r>
       <r>   6.9089  0.0000</r>
       <r>   6.9111  0.0000</r>
       <r>   6.9133  0.0000</r>
       <r>   7.5975  0.0000</r>
       <r>   7.5988  0.0000</r>
       <r>   8.0060  0.0000</r>
       <r>   8.0071  0.0000</r>
       <r>   8.0071  0.0000</r>
       <r>   8.0082  0.0000</r>
       <r>   8.0616  0.0000</r>
       <r>   8.0637  0.0000</r>
       <r>   8.0652  0.0000</r>
       <r>   8.2088  0.0000</r>
       <r>   8.2104  0.0000</r>
       <r>   8.2110  0.0000</r>
       <r>   8.2118  0.0000</r>
       <r>   8.3182  0.0000</r>
       <r>   8.3182  0.0000</r>
       <r>   8.9157  0.0000</r>
      </set>
      <set comment="kpoint 18">
       <r>  -3.3223  1.0000</r>
       <r>  -2.2773  1.0000</r>
       <r>  -1.9305  1.0000</r>
       <r>  -1.2393  1.0000</r>
       <r>  -1.2393  1.0000</r>
       <r>  -0.8949  1.0000</r>
       <r>  -0.5513  1.0000</r>
       <r>  -0.2101  1.0000</r>
       <r>  -0.2081  1.0000</r>
       <r>  -0.2066  1.0000</r>
       <r>   0.1341  1.0000</r>
       <r>   0.1341  1.0000</r>
       <r>   0.4755  1.0000</r>
       <r>   1.1544  1.0000</r>
       <r>   1.1563  1.0000</r>
       <r>   1.1579  1.0000</r>
       <r>   1.4957  1.0000</r>
       <r>   1.4958  1.0000</r>
       <r>   1.8341  1.0000</r>
       <r>   1.8341  1.0000</r>
       <r>   2.5066  1.0000</r>
       <r>   2.5078  1.0000</r>
       <r>   2.5104  1.0000</r>
       <r>   2.8206  1.0000</r>
       <r>   3.1848  1.0000</r>
       <r>   3.1848  1.0000</r>
       <r>   3.4644  1.0000</r>
       <r>   4.1560  1.0000</r>
       <r>   4.3823  1.0000</r>
       <r>   4.4600  1.0000</r>
       <r>   4.5205  1.0000</r>
       <r>   4.5205  1.0000</r>
       <r>   4.8202  1.0000</r>
       <r>   4.8202  1.0000</r>
       <r>   5.3552  1.0000</r>
       <r>   5.4346  1.0000</r>
       <r>   5.4513  1.0000</r>
       <r>   5.4513  1.0000</r>
       <r>   5.4816  1.0000</r>
       <r>   5.6797  1.0000</r>
       <r>   6.1430  1.0000</r>
       <r>   6.1430  1.0000</r>
       <r>   6.3436  1.0000</r>
       <r>   6.4160  1.0000</r>
       <r>   6.4388  1.0000</r>
       <r>   6.4389  1.0000</r>
       <r>   6.4794  1.0000</r>
       <r>   6.6535  1.0000</r>
       <r>   6.7958  1.0000</r>
       <r>   6.9762  0.0000</r>
       <r>   6.9790  0.0000</r>
       <r>   7.3042  0.0000</r>
       <r>   7.3411  0.0000</r>
       <r>   7.4565  0.0000</r>
       <r>   7.4566  0.0000</r>
       <r>   7.7997  0.0000</r>
       <r>   7.9530  0.0000</r>
       <r>   8.1055  0.0000</r>
       <r>   8.3176  0.0000</r>
       <r>   8.3287  0.0000</r>
       <r>   8.3287  0.0000</r>
       <r>   8.4006  0.0000</r>
       <r>   8.4006  0.0000</r>
       <r>   8.4529  0.0000</r>
       <r>   8.6027  0.0000</r>
       <r>   8.9552  0.0000</r>
       <r>   8.9552  0.0000</r>
       <r>   9.1088  0.0000</r>
      </set>
      <set comment="kpoint 19">
       <r>  -3.2204  1.0000</r>
       <r>  -2.5234  1.0000</r>
       <r>  -1.8296  1.0000</r>
       <r>  -1.1401  1.0000</r>
       <r>  -1.1388  1.0000</r>
       <r>  -1.1375  1.0000</r>
       <r>  -0.4524  1.0000</r>
       <r>  -0.4510  1.0000</r>
       <r>  -0.4498  1.0000</r>
       <r>   0.2313  1.0000</r>
[...]
       <r>   1.6653  1.0000</r>
       <r>   1.9953  1.0000</r>
       <r>   1.9973  1.0000</r>
       <r>   1.9989  1.0000</r>
       <r>   1.9991  1.0000</r>
       <r>   1.9992  1.0000</r>
       <r>   1.9995  1.0000</r>
       <r>   2.0010  1.0000</r>
       <r>   2.0031  1.0000</r>
       <r>   2.3327  1.0000</r>
       <r>   2.3348  1.0000</r>
       <r>   2.3363  1.0000</r>
       <r>   2.3366  1.0000</r>
       <r>   2.3367  1.0000</r>
       <r>   2.3369  1.0000</r>
       <r>   2.3385  1.0000</r>
       <r>   2.3405  1.0000</r>
       <r>   2.6674  1.0000</r>
       <r>   2.6696  1.0000</r>
       <r>   2.6701  1.0000</r>
       <r>   2.6723  1.0000</r>
       <r>   5.6686  1.0000</r>
       <r>   5.6707  1.0000</r>
       <r>   5.6724  1.0000</r>
       <r>   5.6726  1.0000</r>
       <r>   5.6727  1.0000</r>
       <r>   5.6729  1.0000</r>
       <r>   5.6745  1.0000</r>
       <r>   5.6767  1.0000</r>
       <r>   5.9988  1.0000</r>
       <r>   5.9998  1.0000</r>
       <r>   6.0003  1.0000</r>
       <r>   6.0013  1.0000</r>
       <r>   6.3290  1.0000</r>
       <r>   6.3299  1.0000</r>
       <r>   6.3305  1.0000</r>
       <r>   6.3315  1.0000</r>
       <r>   6.6501  1.0000</r>
       <r>   6.6524  1.0000</r>
       <r>   6.6540  1.0000</r>
       <r>   6.6542  1.0000</r>
       <r>   6.6543  1.0000</r>
       <r>   6.6545  1.0000</r>
       <r>   6.6561  1.0000</r>
       <r>   6.6583  1.0000</r>
       <r>   9.4150  0.0000</r>
       <r>   9.4172  0.0000</r>
       <r>   9.4177  0.0000</r>
       <r>   9.4198  0.0000</r>
       <r>   9.5929  0.0000</r>
       <r>   9.5939  0.0000</r>
       <r>   9.5946  0.0000</r>
       <r>   9.5955  0.0000</r>
       <r>  10.0606  0.0000</r>
       <r>  10.0621  0.0000</r>
       <r>  10.0626  0.0000</r>
       <r>  10.0631  0.0000</r>
      </set>
      <set comment="kpoint 190">
       <r>  -2.4656  1.0000</r>
       <r>  -2.4655  1.0000</r>
       <r>  -2.4655  1.0000</r>
       <r>  -2.4655  1.0000</r>
       <r>  -0.3990  1.0000</r>
       <r>  -0.3945  1.0000</r>
       <r>  -0.3945  1.0000</r>
       <r>  -0.3940  1.0000</r>
       <r>  -0.3939  1.0000</r>
       <r>  -0.3934  1.0000</r>
       <r>  -0.3934  1.0000</r>
       <r>  -0.3889  1.0000</r>
       <r>   1.6470  1.0000</r>
       <r>   1.6470  1.0000</r>
       <r>   1.6470  1.0000</r>
       <r>   1.6470  1.0000</r>
       <r>   1.6470  1.0000</r>
       <r>   1.6470  1.0000</r>
       <r>   1.6470  1.0000</r>
       <r>   1.6470  1.0000</r>
       <r>   3.6462  1.0000</r>
       <r>   3.6462  1.0000</r>
       <r>   3.6474  1.0000</r>
       <r>   3.6478  1.0000</r>
       <r>   3.6478  1.0000</r>
       <r>   3.6478  1.0000</r>
       <r>   3.6492  1.0000</r>
       <r>   3.6492  1.0000</r>
       <r>   3.6833  1.0000</r>
       <r>   3.6833  1.0000</r>
       <r>   3.6846  1.0000</r>
       <r>   3.6846  1.0000</r>
       <r>   3.6846  1.0000</r>
       <r>   3.6851  1.0000</r>
       <r>   3.6861  1.0000</r>
       <r>   3.6861  1.0000</r>
       <r>   5.1794  1.0000</r>
       <r>   5.1794  1.0000</r>
       <r>   5.1794  1.0000</r>
       <r>   5.1794  1.0000</r>
       <r>   5.6547  1.0000</r>
       <r>   5.6547  1.0000</r>
       <r>   5.6547  1.0000</r>
       <r>   5.6547  1.0000</r>
       <r>   6.2762  1.0000</r>
       <r>   6.2762  1.0000</r>
       <r>   6.2762  1.0000</r>
       <r>   6.2762  1.0000</r>
       <r>   7.6290  0.0000</r>
       <r>   7.6290  0.0000</r>
       <r>   7.6297  0.0000</r>
       <r>   7.6303  0.0000</r>
       <r>   7.6320  0.0000</r>
       <r>   7.6327  0.0000</r>
       <r>   7.6333  0.0000</r>
       <r>   7.6333  0.0000</r>
       <r>   9.0785  0.0000</r>
       <r>   9.0785  0.0000</r>
       <r>   9.0785  0.0000</r>
       <r>   9.0785  0.0000</r>
       <r>   9.0785  0.0000</r>
       <r>   9.0785  0.0000</r>
       <r>   9.0785  0.0000</r>
       <r>   9.0785  0.0000</r>
       <r>   9.7196  0.0000</r>
       <r>   9.7196  0.0000</r>
       <r>   9.7196  0.0000</r>
       <r>   9.7196  0.0000</r>
      </set>
      <set comment="kpoint 191">
       <r>  -2.4511  1.0000</r>
       <r>  -2.4510  1.0000</r>
       <r>  -2.4510  1.0000</r>
       <r>  -2.4510  1.0000</r>
       <r>  -0.7231  1.0000</r>
       <r>  -0.7230  1.0000</r>
       <r>  -0.7230  1.0000</r>
       <r>  -0.7230  1.0000</r>
       <r>  -0.0371  1.0000</r>
       <r>  -0.0371  1.0000</r>
       <r>  -0.0371  1.0000</r>
       <r>  -0.0370  1.0000</r>
       <r>   1.6611  1.0000</r>
       <r>   1.6611  1.0000</r>
       <r>   1.6611  1.0000</r>
       <r>   1.6611  1.0000</r>
       <r>   1.6611  1.0000</r>
       <r>   1.6611  1.0000</r>
       <r>   1.6611  1.0000</r>
       <r>   1.6611  1.0000</r>
       <r>   3.3447  1.0000</r>
       <r>   3.3447  1.0000</r>
       <r>   3.3448  1.0000</r>
       <r>   3.3448  1.0000</r>
       <r>   3.3448  1.0000</r>
       <r>   3.3448  1.0000</r>
       <r>   3.3449  1.0000</r>
       <r>   3.3449  1.0000</r>
       <r>   4.0147  1.0000</r>
       <r>   4.0147  1.0000</r>
       <r>   4.0148  1.0000</r>
       <r>   4.0148  1.0000</r>
       <r>   4.0148  1.0000</r>
       <r>   4.0148  1.0000</r>
       <r>   4.0148  1.0000</r>
       <r>   4.0148  1.0000</r>
       <r>   4.8766  1.0000</r>
       <r>   4.8766  1.0000</r>
       <r>   4.8766  1.0000</r>
       <r>   4.8766  1.0000</r>
       <r>   5.6690  1.0000</r>
       <r>   5.6690  1.0000</r>
       <r>   5.6690  1.0000</r>
       <r>   5.6690  1.0000</r>
       <r>   6.6039  1.0000</r>
       <r>   6.6039  1.0000</r>
       <r>   6.6039  1.0000</r>
       <r>   6.6039  1.0000</r>
       <r>   7.3171  0.0000</r>
       <r>   7.3171  0.0000</r>
       <r>   7.3171  0.0000</r>
       <r>   7.3171  0.0000</r>
       <r>   7.9718  0.0000</r>
       <r>   7.9718  0.0000</r>
       <r>   7.9718  0.0000</r>
       <r>   7.9718  0.0000</r>
       <r>   8.7923  0.0000</r>
       <r>   8.7923  0.0000</r>
       <r>   8.7924  0.0000</r>
       <r>   8.7924  0.0000</r>
       <r>   8.7924  0.0000</r>
       <r>   8.7924  0.0000</r>
       <r>   8.7925  0.0000</r>
       <r>   8.7925  0.0000</r>
       <r>   9.7362  0.0000</r>
       <r>   9.7363  0.0000</r>
       <r>   9.7364  0.0000</r>
       <r>   9.7364  0.0000</r>
      </set>
      <set comment="kpoint 192">
       <r>  -2.4077  1.0000</r>
       <r>  -2.4076  1.0000</r>
       <r>  -2.4076  1.0000</r>
       <r>  -2.4076  1.0000</r>
       <r>  -1.0241  1.0000</r>
       <r>  -1.0241  1.0000</r>
       <r>  -1.0241  1.0000</r>
       <r>  -1.0241  1.0000</r>
       <r>   0.3474  1.0000</r>
       <r>   0.3474  1.0000</r>
       <r>   0.3474  1.0000</r>
       <r>   0.3474  1.0000</r>
       <r>   1.7034  1.0000</r>
       <r>   1.7034  1.0000</r>
       <r>   1.7034  1.0000</r>
       <r>   1.7034  1.0000</r>
       <r>   1.7034  1.0000</r>
       <r>   1.7034  1.0000</r>
       <r>   1.7034  1.0000</r>
       <r>   1.7034  1.0000</r>
       <r>   3.0514  1.0000</r>
       <r>   3.0514  1.0000</r>
       <r>   3.0515  1.0000</r>
       <r>   3.0515  1.0000</r>
       <r>   3.0515  1.0000</r>
       <r>   3.0515  1.0000</r>
       <r>   3.0516  1.0000</r>
       <r>   3.0516  1.0000</r>
       <r>   4.3358  1.0000</r>
       <r>   4.3358  1.0000</r>
       <r>   4.3358  1.0000</r>
       <r>   4.3358  1.0000</r>
       <r>   4.3895  1.0000</r>
       <r>   4.3895  1.0000</r>
       <r>   4.3895  1.0000</r>
       <r>   4.3895  1.0000</r>
       <r>   4.3895  1.0000</r>
       <r>   4.3895  1.0000</r>
       <r>   4.3895  1.0000</r>
       <r>   4.3895  1.0000</r>
       <r>   5.7106  1.0000</r>
       <r>   5.7106  1.0000</r>
       <r>   5.7106  1.0000</r>
       <r>   5.7106  1.0000</r>
       <r>   7.0299  0.0000</r>
       <r>   7.0299  0.0000</r>
       <r>   7.0299  0.0000</r>
       <r>   7.0299  0.0000</r>
       <r>   7.2205  0.0000</r>
       <r>   7.2206  0.0000</r>
       <r>   7.2206  0.0000</r>
       <r>   7.2206  0.0000</r>
       <r>   8.2725  0.0000</r>
       <r>   8.2725  0.0000</r>
       <r>   8.2726  0.0000</r>
       <r>   8.2726  0.0000</r>
       <r>   8.2726  0.0000</r>
       <r>   8.2726  0.0000</r>
       <r>   8.2726  0.0000</r>
       <r>   8.2726  0.0000</r>
       <r>   8.3388  0.0000</r>
       <r>   8.3388  0.0000</r>
       <r>   8.3388  0.0000</r>
       <r>   8.3388  0.0000</r>
       <r>   9.7782  0.0000</r>
       <r>   9.7783  0.0000</r>
       <r>   9.7783  0.0000</r>
       <r>   9.7785  0.0000</r>
      </set>
      <set comment="kpoint 193">
       <r>  -2.3353  1.0000</r>
       <r>  -2.3353  1.0000</r>
       <r>  -2.3353  1.0000</r>
       <r>  -2.3353  1.0000</r>
       <r>  -1.2970  1.0000</r>
       <r>  -1.2970  1.0000</r>
       <r>  -1.2970  1.0000</r>
       <r>  -1.2970  1.0000</r>
       <r>   0.7591  1.0000</r>
       <r>   0.7591  1.0000</r>
       <r>   0.7591  1.0000</r>
       <r>   0.7591  1.0000</r>
       <r>   1.7738  1.0000</r>
       <r>   1.7738  1.0000</r>
       <r>   1.7738  1.0000</r>
       <r>   1.7739  1.0000</r>
       <r>   1.7739  1.0000</r>
       <r>   1.7739  1.0000</r>
       <r>   1.7739  1.0000</r>
       <r>   1.7739  1.0000</r>
       <r>   2.7855  1.0000</r>
       <r>   2.7855  1.0000</r>
       <r>   2.7856  1.0000</r>
       <r>   2.7856  1.0000</r>
       <r>   2.7856  1.0000</r>
       <r>   2.7856  1.0000</r>
       <r>   2.7856  1.0000</r>
       <r>   2.7856  1.0000</r>
       <r>   3.7675  1.0000</r>
       <r>   3.7675  1.0000</r>
       <r>   3.7675  1.0000</r>
       <r>   3.7675  1.0000</r>
       <r>   4.7911  1.0000</r>
       <r>   4.7911  1.0000</r>
       <r>   4.7911  1.0000</r>
       <r>   4.7911  1.0000</r>
       <r>   4.7911  1.0000</r>
       <r>   4.7911  1.0000</r>
       <r>   4.7911  1.0000</r>
       <r>   4.7911  1.0000</r>
       <r>   5.7796  1.0000</r>
       <r>   5.7796  1.0000</r>
       <r>   5.7796  1.0000</r>
       <r>   5.7796  1.0000</r>
       <r>   6.7695  1.0000</r>
       <r>   6.7695  1.0000</r>
       <r>   6.7695  1.0000</r>
       <r>   6.7695  1.0000</r>
       <r>   7.7220  0.0000</r>
       <r>   7.7220  0.0000</r>
       <r>   7.7220  0.0000</r>
       <r>   7.7220  0.0000</r>
       <r>   7.7220  0.0000</r>
       <r>   7.7220  0.0000</r>
       <r>   7.7221  0.0000</r>
       <r>   7.7221  0.0000</r>
       <r>   7.9155  0.0000</r>
       <r>   7.9155  0.0000</r>
       <r>   7.9155  0.0000</r>
       <r>   7.9156  0.0000</r>
       <r>   8.7318  0.0000</r>
       <r>   8.7318  0.0000</r>
       <r>   8.7318  0.0000</r>
       <r>   8.7318  0.0000</r>
       <r>   9.8462  0.0000</r>
       <r>   9.8463  0.0000</r>
       <r>   9.8463  0.0000</r>
       <r>   9.8464  0.0000</r>
      </set>
      <set comment="kpoint 194">
       <r>  -2.2341  1.0000</r>
       <r>  -2.2340  1.0000</r>
       <r>  -2.2340  1.0000</r>
       <r>  -2.2340  1.0000</r>
       <r>  -1.5415  1.0000</r>
       <r>  -1.5415  1.0000</r>
       <r>  -1.5415  1.0000</r>
       <r>  -1.5415  1.0000</r>
       <r>   1.1977  1.0000</r>
       <r>   1.1977  1.0000</r>
       <r>   1.1977  1.0000</r>
       <r>   1.1977  1.0000</r>
       <r>   1.8725  1.0000</r>
       <r>   1.8725  1.0000</r>
       <r>   1.8725  1.0000</r>
       <r>   1.8725  1.0000</r>
       <r>   1.8725  1.0000</r>
       <r>   1.8725  1.0000</r>
       <r>   1.8725  1.0000</r>
       <r>   1.8725  1.0000</r>
       <r>   2.5472  1.0000</r>
       <r>   2.5472  1.0000</r>
       <r>   2.5472  1.0000</r>
       <r>   2.5472  1.0000</r>
       <r>   2.5472  1.0000</r>
       <r>   2.5472  1.0000</r>
       <r>   2.5472  1.0000</r>
       <r>   2.5472  1.0000</r>
       <r>   3.2089  1.0000</r>
       <r>   3.2089  1.0000</r>
       <r>   3.2089  1.0000</r>
       <r>   3.2090  1.0000</r>
       <r>   5.2189  1.0000</r>
       <r>   5.2189  1.0000</r>
       <r>   5.2189  1.0000</r>
       <r>   5.2189  1.0000</r>
       <r>   5.2189  1.0000</r>
       <r>   5.2189  1.0000</r>
       <r>   5.2190  1.0000</r>
       <r>   5.2190  1.0000</r>
       <r>   5.8761  1.0000</r>
       <r>   5.8761  1.0000</r>
       <r>   5.8761  1.0000</r>
       <r>   5.8761  1.0000</r>
       <r>   6.5363  1.0000</r>
       <r>   6.5363  1.0000</r>
       <r>   6.5363  1.0000</r>
       <r>   6.5363  1.0000</r>
       <r>   7.1791  0.0000</r>
       <r>   7.1791  0.0000</r>
       <r>   7.1791  0.0000</r>
       <r>   7.1791  0.0000</r>
       <r>   7.1791  0.0000</r>
       <r>   7.1791  0.0000</r>
       <r>   7.1792  0.0000</r>
       <r>   7.1792  0.0000</r>
       <r>   8.6512  0.0000</r>
       <r>   8.6512  0.0000</r>
       <r>   8.6512  0.0000</r>
       <r>   8.6512  0.0000</r>
       <r>   9.1504  0.0000</r>
       <r>   9.1504  0.0000</r>
       <r>   9.1504  0.0000</r>
       <r>   9.1504  0.0000</r>
       <r>   9.9409  0.0000</r>
       <r>   9.9409  0.0000</r>
       <r>   9.9409  0.0000</r>
       <r>   9.9410  0.0000</r>
      </set>
      <set comment="kpoint 195">
       <r>  -2.1040  1.0000</r>
       <r>  -2.1040  1.0000</r>
       <r>  -2.1040  1.0000</r>
       <r>  -2.1040  1.0000</r>
       <r>  -1.7576  1.0000</r>
       <r>  -1.7576  1.0000</r>
       <r>  -1.7576  1.0000</r>
       <r>  -1.7576  1.0000</r>
       <r>   1.6628  1.0000</r>
       <r>   1.6629  1.0000</r>
       <r>   1.6629  1.0000</r>
       <r>   1.6629  1.0000</r>
       <r>   1.9991  1.0000</r>
       <r>   1.9991  1.0000</r>
       <r>   1.9991  1.0000</r>
       <r>   1.9992  1.0000</r>
       <r>   1.9992  1.0000</r>
       <r>   1.9992  1.0000</r>
       <r>   1.9992  1.0000</r>
       <r>   1.9992  1.0000</r>
       <r>   2.3366  1.0000</r>
       <r>   2.3366  1.0000</r>
       <r>   2.3366  1.0000</r>
       <r>   2.3366  1.0000</r>
       <r>   2.3366  1.0000</r>
       <r>   2.3367  1.0000</r>
       <r>   2.3367  1.0000</r>
       <r>   2.3367  1.0000</r>
       <r>   2.6698  1.0000</r>
       <r>   2.6698  1.0000</r>
       <r>   2.6698  1.0000</r>
       <r>   2.6699  1.0000</r>
       <r>   5.6726  1.0000</r>
       <r>   5.6726  1.0000</r>
       <r>   5.6726  1.0000</r>
       <r>   5.6726  1.0000</r>
       <r>   5.6726  1.0000</r>
       <r>   5.6726  1.0000</r>
       <r>   5.6727  1.0000</r>
       <r>   5.6727  1.0000</r>
       <r>   6.0000  1.0000</r>
       <r>   6.0000  1.0000</r>
       <r>   6.0000  1.0000</r>
       <r>   6.0000  1.0000</r>
       <r>   6.3302  1.0000</r>
       <r>   6.3302  1.0000</r>
       <r>   6.3302  1.0000</r>
       <r>   6.3302  1.0000</r>
       <r>   6.6542  1.0000</r>
       <r>   6.6542  1.0000</r>
       <r>   6.6542  1.0000</r>
       <r>   6.6542  1.0000</r>
       <r>   6.6542  1.0000</r>
       <r>   6.6543  1.0000</r>
       <r>   6.6543  1.0000</r>
       <r>   6.6543  1.0000</r>
       <r>   9.4174  0.0000</r>
       <r>   9.4174  0.0000</r>
       <r>   9.4174  0.0000</r>
       <r>   9.4174  0.0000</r>
       <r>   9.5942  0.0000</r>
       <r>   9.5942  0.0000</r>
       <r>   9.5942  0.0000</r>
       <r>   9.5942  0.0000</r>
       <r>  10.0622  0.0000</r>
       <r>  10.0622  0.0000</r>
       <r>  10.0623  0.0000</r>
       <r>  10.0623  0.0000</r>
      </set>
      <set comment="kpoint 196">
       <r>  -1.9496  1.0000</r>
       <r>  -1.9456  1.0000</r>
       <r>  -1.9456  1.0000</r>
       <r>  -1.9452  1.0000</r>
       <r>  -1.9451  1.0000</r>
       <r>  -1.9447  1.0000</r>
       <r>  -1.9447  1.0000</r>
       <r>  -1.9407  1.0000</r>
       <r>   2.1439  1.0000</r>
       <r>   2.1502  1.0000</r>
       <r>   2.1502  1.0000</r>
       <r>   2.1533  1.0000</r>
       <r>   2.1535  1.0000</r>
       <r>   2.1535  1.0000</r>
       <r>   2.1539  1.0000</r>
       <r>   2.1539  1.0000</r>
       <r>   2.1539  1.0000</r>
       <r>   2.1539  1.0000</r>
       <r>   2.1539  1.0000</r>
       <r>   2.1539  1.0000</r>
       <r>   2.1539  1.0000</r>
       <r>   2.1540  1.0000</r>
       <r>   2.1540  1.0000</r>
       <r>   2.1540  1.0000</r>
       <r>   2.1540  1.0000</r>
       <r>   2.1540  1.0000</r>
       <r>   2.1544  1.0000</r>
       <r>   2.1544  1.0000</r>
       <r>   2.1546  1.0000</r>
       <r>   2.1576  1.0000</r>
       <r>   2.1576  1.0000</r>
       <r>   2.1639  1.0000</r>
       <r>   6.1459  1.0000</r>
       <r>   6.1459  1.0000</r>
       <r>   6.1474  1.0000</r>
       <r>   6.1496  1.0000</r>
       <r>   6.1508  1.0000</r>
       <r>   6.1512  1.0000</r>
       <r>   6.1512  1.0000</r>
       <r>   6.1512  1.0000</r>
       <r>   6.1514  1.0000</r>
       <r>   6.1514  1.0000</r>
       <r>   6.1514  1.0000</r>
       <r>   6.1514  1.0000</r>
       <r>   6.1515  1.0000</r>
       <r>   6.1515  1.0000</r>
       <r>   6.1515  1.0000</r>
       <r>   6.1515  1.0000</r>
       <r>   6.1517  1.0000</r>
       <r>   6.1517  1.0000</r>
       <r>   6.1517  1.0000</r>
       <r>   6.1521  1.0000</r>
       <r>   6.1533  1.0000</r>
       <r>   6.1555  1.0000</r>
       <r>   6.1570  1.0000</r>
       <r>   6.1570  1.0000</r>
       <r>  10.0610  0.0000</r>
       <r>  10.0610  0.0000</r>
       <r>  10.0612  0.0000</r>
       <r>  10.0617  0.0000</r>
       <r>  10.0630  0.0000</r>
       <r>  10.0637  0.0000</r>
       <r>  10.0638  0.0000</r>
       <r>  10.0638  0.0000</r>
       <r>  10.2073  0.0000</r>
       <r>  10.2086  0.0000</r>
       <r>  10.2098  0.0000</r>
       <r>  10.2104  0.0000</r>
      </set>
     </set>
    </set>
   </array>
  </eigenvalues>
 </calculation>
 <structure name="finalpos" >
  <crystal>
   <varray name="basis" >
    <v>       8.39759725      0.00000000      0.00000000</v>
    <v>       0.00000000      8.39759725      0.00000000</v>
    <v>       0.00000000      0.00000000      8.39759725</v>
   </varray>
   <i name="volume">    592.19553112</i>
   <varray name="rec_basis" >
    <v>       0.11908168      0.00000000      0.00000000</v>
    <v>       0.00000000      0.11908168      0.00000000</v>
    <v>       0.00000000      0.00000000      0.11908168</v>
   </varray>
  </crystal>
  <varray name="positions" >
   <v>       0.25119082      0.25000000      0.00000000</v>
   <v>       0.75000000      0.25000000      0.00000000</v>
   <v>       0.25000000      0.75000000      0.00000000</v>
   <v>       0.75000000      0.75000000      0.00000000</v>
   <v>       0.25000000      0.25000000      0.50000000</v>
   <v>       0.75000000      0.25000000      0.50000000</v>
   <v>       0.25000000      0.75000000      0.50000000</v>
   <v>       0.75000000      0.75000000      0.50000000</v>
   <v>       0.25000000      0.00000000      0.25000000</v>
   <v>       0.75000000      0.00000000      0.25000000</v>
   <v>       0.25000000      0.50000000      0.25000000</v>
   <v>       0.75000000      0.50000000      0.25000000</v>
   <v>       0.25000000      0.00000000      0.75000000</v>
   <v>       0.75000000      0.00000000      0.75000000</v>
   <v>       0.25000000      0.50000000      0.75000000</v>
   <v>       0.75000000      0.50000000      0.75000000</v>
   <v>       0.00000000      0.25000000      0.25000000</v>
   <v>       0.50000000      0.25000000      0.25000000</v>
   <v>       0.00000000      0.75000000      0.25000000</v>
   <v>       0.50000000      0.75000000      0.25000000</v>
   <v>       0.00000000      0.25000000      0.75000000</v>
   <v>       0.50000000      0.25000000      0.75000000</v>
   <v>       0.00000000      0.75000000      0.75000000</v>
   <v>       0.50000000      0.75000000      0.75000000</v>
   <v>       0.00000000      0.00000000      0.00000000</v>
   <v>       0.50000000      0.00000000      0.00000000</v>
   <v>       0.00000000      0.50000000      0.00000000</v>
   <v>       0.50000000      0.50000000      0.00000000</v>
   <v>       0.00000000      0.00000000      0.50000000</v>
   <v>       0.50000000      0.00000000      0.50000000</v>
   <v>       0.00000000      0.50000000      0.50000000</v>
   <v>       0.50000000      0.50000000      0.50000000</v>
  </varray>
 </structure>
</modeling>
