<?xml version="1.0" encoding="ISO-8859-1"?>
<modeling>
 <generator>
  <i name="program" type="string">vasp</i>
  <i name="version" type="string">4.6.28 </i>
  <i name="subversion" type="string">25Jul05 complex  parallel</i>
  <i name="platform" type="string">LinuxIFC</i>
  <i name="date" type="string">2016 10 19</i>
  <i name="time" type="string">17:44:28</i>
 </generator>
 <incar>
  <i type="string" name="PREC">accurate</i>
  <i type="int" name="IALGO">    38</i>
  <i name="EDIFF">      0.00000001</i>
  <i type="int" name="IBRION">    -1</i>
  <i name="ENCUT">    500.00000000</i>
  <i type="logical" name="LREAL"> F  </i>
  <i type="int" name="ISMEAR">     0</i>
  <i name="SIGMA">      0.01000000</i>
  <i type="logical" name="LWAVE"> F  </i>
  <i type="logical" name="LCHARG"> F  </i>
 </incar>
 <kpoints>
  <generation param="Auto">
   <i name="subdivisionlength">     50.00000000</i>
   <v type="int" name="divisions">      13      13      13</v>
   <v name="usershift">      0.00000000      0.00000000      0.00000000</v>
   <v name="genvec1">      0.07692308      0.00000000      0.00000000</v>
   <v name="genvec2">      0.00000000      0.07692308      0.00000000</v>
   <v name="genvec3">      0.00000000      0.00000000      0.07692308</v>
   <v name="shift">      0.00000000      0.00000000      0.00000000</v>
  </generation>
  <varray name="kpointlist" >
   <v>       0.00000000      0.00000000      0.00000000</v>
   <v>       0.07692308      0.00000000      0.00000000</v>
   <v>       0.15384615      0.00000000      0.00000000</v>
   <v>       0.23076923      0.00000000      0.00000000</v>
   <v>       0.30769231      0.00000000      0.00000000</v>
   <v>       0.38461538      0.00000000      0.00000000</v>
   <v>       0.46153846      0.00000000      0.00000000</v>
   <v>       0.07692308      0.07692308      0.00000000</v>
   <v>       0.15384615      0.07692308      0.00000000</v>
   <v>       0.23076923      0.07692308      0.00000000</v>
   <v>       0.30769231      0.07692308      0.00000000</v>
   <v>       0.38461538      0.07692308      0.00000000</v>
   <v>       0.46153846      0.07692308      0.00000000</v>
   <v>       0.15384615      0.15384615      0.00000000</v>
   <v>       0.23076923      0.15384615      0.00000000</v>
   <v>       0.30769231      0.15384615      0.00000000</v>
   <v>       0.38461538      0.15384615      0.00000000</v>
   <v>       0.46153846      0.15384615      0.00000000</v>
   <v>       0.23076923      0.23076923      0.00000000</v>
   <v>       0.30769231      0.23076923      0.00000000</v>
   <v>       0.38461538      0.23076923      0.00000000</v>
   <v>       0.46153846      0.23076923      0.00000000</v>
   <v>       0.30769231      0.30769231      0.00000000</v>
   <v>       0.38461538      0.30769231      0.00000000</v>
   <v>       0.46153846      0.30769231      0.00000000</v>
   <v>       0.38461538      0.38461538      0.00000000</v>
   <v>       0.46153846      0.38461538      0.00000000</v>
   <v>       0.46153846      0.46153846      0.00000000</v>
   <v>       0.07692308      0.07692308      0.07692308</v>
   <v>       0.15384615      0.07692308      0.07692308</v>
   <v>       0.23076923      0.07692308      0.07692308</v>
   <v>       0.30769231      0.07692308      0.07692308</v>
   <v>       0.38461538      0.07692308      0.07692308</v>
   <v>       0.46153846      0.07692308      0.07692308</v>
   <v>       0.15384615      0.15384615      0.07692308</v>
   <v>       0.23076923      0.15384615      0.07692308</v>
   <v>       0.30769231      0.15384615      0.07692308</v>
   <v>       0.38461538      0.15384615      0.07692308</v>
   <v>       0.46153846      0.15384615      0.07692308</v>
   <v>       0.23076923      0.23076923      0.07692308</v>
   <v>       0.30769231      0.23076923      0.07692308</v>
   <v>       0.38461538      0.23076923      0.07692308</v>
   <v>       0.46153846      0.23076923      0.07692308</v>
   <v>       0.30769231      0.30769231      0.07692308</v>
   <v>       0.38461538      0.30769231      0.07692308</v>
   <v>       0.46153846      0.30769231      0.07692308</v>
   <v>       0.38461538      0.38461538      0.07692308</v>
   <v>       0.46153846      0.38461538      0.07692308</v>
   <v>       0.46153846      0.46153846      0.07692308</v>
   <v>       0.15384615      0.15384615      0.15384615</v>
   <v>       0.23076923      0.15384615      0.15384615</v>
   <v>       0.30769231      0.15384615      0.15384615</v>
   <v>       0.38461538      0.15384615      0.15384615</v>
   <v>       0.46153846      0.15384615      0.15384615</v>
   <v>       0.23076923      0.23076923      0.15384615</v>
   <v>       0.30769231      0.23076923      0.15384615</v>
   <v>       0.38461538      0.23076923      0.15384615</v>
   <v>       0.46153846      0.23076923      0.15384615</v>
   <v>       0.30769231      0.30769231      0.15384615</v>
   <v>       0.38461538      0.30769231      0.15384615</v>
   <v>       0.46153846      0.30769231      0.15384615</v>
   <v>       0.38461538      0.38461538      0.15384615</v>
   <v>       0.46153846      0.38461538      0.15384615</v>
   <v>       0.46153846      0.46153846      0.15384615</v>
   <v>       0.23076923      0.23076923      0.23076923</v>
   <v>       0.30769231      0.23076923      0.23076923</v>
   <v>       0.38461538      0.23076923      0.23076923</v>
   <v>       0.46153846      0.23076923      0.23076923</v>
   <v>       0.30769231      0.30769231      0.23076923</v>
   <v>       0.38461538      0.30769231      0.23076923</v>
   <v>       0.46153846      0.30769231      0.23076923</v>
   <v>       0.38461538      0.38461538      0.23076923</v>
   <v>       0.46153846      0.38461538      0.23076923</v>
   <v>       0.46153846      0.46153846      0.23076923</v>
   <v>       0.30769231      0.30769231      0.30769231</v>
   <v>       0.38461538      0.30769231      0.30769231</v>
   <v>       0.46153846      0.30769231      0.30769231</v>
   <v>       0.38461538      0.38461538      0.30769231</v>
   <v>       0.46153846      0.38461538      0.30769231</v>
   <v>       0.46153846      0.46153846      0.30769231</v>
   <v>       0.38461538      0.38461538      0.38461538</v>
   <v>       0.46153846      0.38461538      0.38461538</v>
   <v>       0.46153846      0.46153846      0.38461538</v>
   <v>       0.46153846      0.46153846      0.46153846</v>
  </varray>
  <varray name="weights" >
   <v>       0.00045517</v>
   <v>       0.00273100</v>
   <v>       0.00273100</v>
   <v>       0.00273100</v>
   <v>       0.00273100</v>
   <v>       0.00273100</v>
   <v>       0.00273100</v>
   <v>       0.00546199</v>
   <v>       0.01092399</v>
   <v>       0.01092399</v>
   <v>       0.01092399</v>
   <v>       0.01092399</v>
   <v>       0.01092399</v>
   <v>       0.00546199</v>
   <v>       0.01092399</v>
   <v>       0.01092399</v>
   <v>       0.01092399</v>
   <v>       0.01092399</v>
   <v>       0.00546199</v>
   <v>       0.01092399</v>
   <v>       0.01092399</v>
   <v>       0.01092399</v>
   <v>       0.00546199</v>
   <v>       0.01092399</v>
   <v>       0.01092399</v>
   <v>       0.00546199</v>
   <v>       0.01092399</v>
   <v>       0.00546199</v>
   <v>       0.00364133</v>
   <v>       0.01092399</v>
   <v>       0.01092399</v>
   <v>       0.01092399</v>
   <v>       0.01092399</v>
   <v>       0.01092399</v>
   <v>       0.01092399</v>
   <v>       0.02184797</v>
   <v>       0.02184797</v>
   <v>       0.02184797</v>
   <v>       0.02184797</v>
   <v>       0.01092399</v>
   <v>       0.02184797</v>
   <v>       0.02184797</v>
   <v>       0.02184797</v>
   <v>       0.01092399</v>
   <v>       0.02184797</v>
   <v>       0.02184797</v>
   <v>       0.01092399</v>
   <v>       0.02184797</v>
   <v>       0.01092399</v>
   <v>       0.00364133</v>
   <v>       0.01092399</v>
   <v>       0.01092399</v>
   <v>       0.01092399</v>
   <v>       0.01092399</v>
   <v>       0.01092399</v>
   <v>       0.02184797</v>
   <v>       0.02184797</v>
   <v>       0.02184797</v>
   <v>       0.01092399</v>
   <v>       0.02184797</v>
   <v>       0.02184797</v>
   <v>       0.01092399</v>
   <v>       0.02184797</v>
   <v>       0.01092399</v>
   <v>       0.00364133</v>
   <v>       0.01092399</v>
   <v>       0.01092399</v>
   <v>       0.01092399</v>
   <v>       0.01092399</v>
   <v>       0.02184797</v>
   <v>       0.02184797</v>
   <v>       0.01092399</v>
   <v>       0.02184797</v>
   <v>       0.01092399</v>
   <v>       0.00364133</v>
   <v>       0.01092399</v>
   <v>       0.01092399</v>
   <v>       0.01092399</v>
   <v>       0.02184797</v>
   <v>       0.01092399</v>
   <v>       0.00364133</v>
   <v>       0.01092399</v>
   <v>       0.01092399</v>
   <v>       0.00364133</v>
  </varray>
 </kpoints>
 <parameters>
  <separator name="general" >
   <i type="string" name="SYSTEM">unknown system</i>
   <i type="logical" name="LCOMPAT"> F  </i>
  </separator>
  <separator name="electronic" >
   <i type="string" name="PREC">accura</i>
   <i name="ENMAX">    500.00000000</i>
   <i name="ENAUG">    291.05200000</i>
   <i name="EDIFF">      0.00000001</i>
   <i type="int" name="IALGO">    38</i>
   <i type="int" name="IWAVPR">    10</i>
   <i type="int" name="NBANDS">    10</i>
   <i name="NELECT">     12.00000000</i>
   <separator name="electronic smearing" >
    <i type="int" name="ISMEAR">     0</i>
    <i name="SIGMA">      0.01000000</i>
   </separator>
   <separator name="electronic projectors" >
    <i type="logical" name="LREAL"> F  </i>
    <v name="ROPT">      0.00000000</v>
    <i type="int" name="LMAXPAW">  -100</i>
    <i type="int" name="LMAXMIX">     2</i>
   </separator>
   <separator name="electronic startup" >
    <i type="int" name="ISTART">     0</i>
    <i type="int" name="ICHARG">     2</i>
    <i type="int" name="INIWAV">     1</i>
   </separator>
   <separator name="electronic spin" >
    <i type="int" name="ISPIN">     1</i>
    <i type="logical" name="LNONCOLLINEAR"> F  </i>
    <v name="MAGMOM">      1.00000000      1.00000000      1.00000000      1.00000000</v>
    <i name="NUPDOWN">     -1.00000000</i>
    <i type="logical" name="LSORBIT"> F  </i>
    <v name="SAXIS">      0.00000000      0.00000000      1.00000000</v>
    <i type="logical" name="LSPIRAL"> F  </i>
    <v name="QSPIRAL">      0.00000000      0.00000000      0.00000000</v>
    <i type="logical" name="LZEROZ"> F  </i>
   </separator>
   <separator name="electronic exchange-correlation" >
    <i type="string" name="GGA">--</i>
    <i type="int" name="VOSKOWN">     0</i>
    <i type="logical" name="LASPH"> F  </i>
    <i type="logical" name="LMETAGGA"> F  </i>
    <i type="string" name="GGA2">--</i>
   </separator>
   <separator name="electronic convergence" >
    <i type="int" name="NELM">    60</i>
    <i type="int" name="NELMDL">    -5</i>
    <i type="int" name="NELMIN">     2</i>
    <i name="ENINI">    500.00000000</i>
    <separator name="electronic convergence detail" >
     <i type="logical" name="LDIAG"> T  </i>
     <i name="WEIMIN">      0.00000000</i>
     <i name="EBREAK">      0.00000000</i>
     <i name="DEPER">      0.30000000</i>
     <i type="int" name="NRMM">     4</i>
     <i name="TIME">      0.10000000</i>
    </separator>
   </separator>
   <separator name="electronic mixer" >
    <i name="AMIX">      0.40000000</i>
    <i name="BMIX">      1.00000000</i>
    <i name="AMIN">      0.10000000</i>
    <i name="AMIX_MAG">      1.60000000</i>
    <i name="BMIX_MAG">      1.00000000</i>
    <separator name="electronic mixer details" >
     <i type="int" name="IMIX">     4</i>
     <i type="int" name="MAXMIX">   -45</i>
     <i name="WC">    100.00000000</i>
     <i type="int" name="INIMIX">     1</i>
     <i type="int" name="MIXPRE">     1</i>
     <i type="int" name="MREMOVE">     5</i>
    </separator>
   </separator>
   <separator name="electronic dipolcorrection" >
    <i type="int" name="IDIPOL">     0</i>
    <i type="logical" name="LDIPOL"> F  </i>
    <v name="DIPOL">   -100.00000000</v>
    <i name="EFIELD">      0.00000000</i>
   </separator>
  </separator>
  <separator name="grids" >
   <i type="int" name="NGX">    28</i>
   <i type="int" name="NGY">    28</i>
   <i type="int" name="NGZ">    28</i>
   <i type="int" name="NGXF">    56</i>
   <i type="int" name="NGYF">    56</i>
   <i type="int" name="NGZF">    56</i>
   <i type="logical" name="ADDGRID"> F  </i>
  </separator>
  <separator name="ionic" >
   <i type="int" name="NSW">     0</i>
   <i type="int" name="IBRION">    -1</i>
   <i type="int" name="ISIF">     2</i>
   <i name="PSTRESS">      0.00000000</i>
   <i name="EDIFFG">      0.00000010</i>
   <i type="int" name="NFREE">     0</i>
   <i name="POTIM">      0.50000000</i>
   <i name="SMASS">     -3.00000000</i>
  </separator>
  <separator name="ionic md" >
   <i name="TEBEG">      0.00010000</i>
   <i name="TEEND">      0.00010000</i>
   <i type="int" name="NBLOCK">     1</i>
   <i type="int" name="KBLOCK">     1</i>
   <i type="int" name="NPACO">   256</i>
   <i name="APACO">     16.00000000</i>
  </separator>
  <separator name="symmetry" >
   <i type="int" name="ISYM">     2</i>
   <i name="SYMPREC">      0.00001000</i>
  </separator>
  <separator name="dos" >
   <i type="logical" name="LORBIT"> F  </i>
   <v name="RWIGS">     -1.00000000</v>
   <i type="int" name="NEDOS">   301</i>
   <i name="EMIN">     10.00000000</i>
   <i name="EMAX">    -10.00000000</i>
  </separator>
  <separator name="writing" >
   <i type="int" name="NWRITE">     2</i>
   <i type="logical" name="LWAVE"> F  </i>
   <i type="logical" name="LCHARG"> F  </i>
   <i type="logical" name="LPARD"> F  </i>
   <i type="logical" name="LVTOT"> F  </i>
   <i type="logical" name="LELF"> F  </i>
   <i type="logical" name="LOPTICS"> F  </i>
   <i name="STM">      0.00000000</i>
  </separator>
  <separator name="performance" >
   <i type="int" name="NPAR">     8</i>
   <i type="int" name="NSIM">     4</i>
   <i type="int" name="NBLK">   160</i>
   <i type="logical" name="LPLANE"> T  </i>
   <i type="logical" name="LCRITICAL_MEM"> F  </i>
   <i type="logical" name="LSCALAPACK"> F  </i>
   <i type="logical" name="LSCALU"> F  </i>
   <i type="logical" name="LASYNC"> F  </i>
  </separator>
  <separator name="miscellaneous" >
   <i type="int" name="IDIOT">     3</i>
   <i type="logical" name="LMUSIC"> F  </i>
   <v name="POMASS">     26.98200000</v>
   <i type="logical" name="LCORR"> T  </i>
  </separator>
  <i type="logical" name="LREAL_COMPAT"> F  </i>
  <i type="logical" name="GGA_COMPAT"> T  </i>
  <i type="logical" name="LBERRY"> F  </i>
  <i type="int" name="ICORELEVEL">     0</i>
  <i type="logical" name="LDAU"> F  </i>
  <i type="int" name="I_CONSTRAINED_M">     0</i>
 </parameters>
 <atominfo>
  <atoms>       4</atoms>
  <types>       1</types>
  <array name="atoms" >
   <dimension dim="1">ion</dimension>
   <field type="string">element</field>
   <field type="int">atomtype</field>
   <set>
    <rc><c>Al</c><c>   1</c></rc>
    <rc><c>Al</c><c>   1</c></rc>
    <rc><c>Al</c><c>   1</c></rc>
    <rc><c>Al</c><c>   1</c></rc>
   </set>
  </array>
  <array name="atomtypes" >
   <dimension dim="1">type</dimension>
   <field type="int">atomspertype</field>
   <field type="string">element</field>
   <field>mass</field>
   <field>valence</field>
   <field type="string">pseudopotential</field>
   <set>
    <rc><c>   4</c><c>Al</c><c>     26.98200000</c><c>      3.00000000</c><c> PAW_PBE Al 04Jan2001                   </c></rc>
   </set>
  </array>
 </atominfo>
 <structure name="initialpos" >
  <crystal>
   <varray name="basis" >
    <v>       3.87581411      0.00000000      0.00000000</v>
    <v>       0.00000000      3.87581411      0.00000000</v>
    <v>       0.00000000      0.00000000      3.87581411</v>
   </varray>
   <i name="volume">     58.22222791</i>
   <varray name="rec_basis" >
    <v>       0.25801031      0.00000000      0.00000000</v>
    <v>       0.00000000      0.25801031      0.00000000</v>
    <v>       0.00000000      0.00000000      0.25801031</v>
   </varray>
  </crystal>
  <varray name="positions" >
   <v>       0.50000000      0.50000000      0.00000000</v>
   <v>       0.50000000      0.00000000      0.50000000</v>
   <v>       0.00000000      0.50000000      0.50000000</v>
   <v>       0.00000000      0.00000000      0.00000000</v>
  </varray>
 </structure>
 <calculation>
  <scstep>
   <time name="dav">    0.69    0.70</time>
   <time name="total">    0.71    0.71</time>
   <energy>
    <i name="alphaZ">     -0.92303222</i>
    <i name="ewald">   -306.61395578</i>
    <i name="hartreedc">     -0.27822408</i>
    <i name="XCdc">   -104.03603114</i>
    <i name="pawpsdc">    142.21701965</i>
    <i name="pawaedc">    -14.39593217</i>
    <i name="eentropy">     -0.00013233</i>
    <i name="bandstr">     76.64793948</i>
    <i name="atom">    214.15364153</i>
    <i name="e_fr_energy">      6.77129295</i>
    <i name="e_wo_entrp">      6.77142528</i>
    <i name="e_0_energy">      6.77135911</i>
   </energy>
  </scstep>
  <scstep>
   <time name="dav">    0.85    0.86</time>
   <time name="total">    0.86    0.86</time>
   <energy>
    <i name="e_fr_energy">    -14.18541837</i>
    <i name="e_wo_entrp">    -14.18527902</i>
    <i name="e_0_energy">    -14.18534870</i>
   </energy>
  </scstep>
  <scstep>
   <time name="dav">    0.83    0.83</time>
   <time name="total">    0.83    0.83</time>
   <energy>
    <i name="e_fr_energy">    -14.81033792</i>
    <i name="e_wo_entrp">    -14.81011329</i>
    <i name="e_0_energy">    -14.81022560</i>
   </energy>
  </scstep>
  <scstep>
   <time name="dav">    0.82    0.82</time>
   <time name="total">    0.82    0.82</time>
   <energy>
    <i name="e_fr_energy">    -14.81408941</i>
    <i name="e_wo_entrp">    -14.81386352</i>
    <i name="e_0_energy">    -14.81397646</i>
   </energy>
  </scstep>
  <scstep>
   <time name="dav">    0.84    0.84</time>
   <time name="total">    0.86    0.87</time>
   <energy>
    <i name="e_fr_energy">    -14.81413512</i>
    <i name="e_wo_entrp">    -14.81390921</i>
    <i name="e_0_energy">    -14.81402217</i>
   </energy>
  </scstep>
  <scstep>
   <time name="dav">    0.77    0.77</time>
   <time name="total">    0.82    0.82</time>
   <energy>
    <i name="e_fr_energy">    -14.75441738</i>
    <i name="e_wo_entrp">    -14.75419045</i>
    <i name="e_0_energy">    -14.75430391</i>
   </energy>
  </scstep>
  <scstep>
   <time name="dav">    0.74    0.74</time>
   <time name="total">    0.78    0.78</time>
   <energy>
    <i name="e_fr_energy">    -14.71128335</i>
    <i name="e_wo_entrp">    -14.71107447</i>
    <i name="e_0_energy">    -14.71117891</i>
   </energy>
  </scstep>
  <scstep>
   <time name="dav">    0.89    0.89</time>
   <time name="total">    0.93    0.93</time>
   <energy>
    <i name="e_fr_energy">    -14.71132388</i>
    <i name="e_wo_entrp">    -14.71111678</i>
    <i name="e_0_energy">    -14.71122033</i>
   </energy>
  </scstep>
  <scstep>
   <time name="dav">    0.84    0.84</time>
   <time name="total">    0.89    0.89</time>
   <energy>
    <i name="e_fr_energy">    -14.71132744</i>
    <i name="e_wo_entrp">    -14.71112157</i>
    <i name="e_0_energy">    -14.71122451</i>
   </energy>
  </scstep>
  <scstep>
   <time name="dav">    0.89    0.89</time>
   <time name="total">    0.93    0.94</time>
   <energy>
    <i name="e_fr_energy">    -14.71132710</i>
    <i name="e_wo_entrp">    -14.71112124</i>
    <i name="e_0_energy">    -14.71122417</i>
   </energy>
  </scstep>
  <scstep>
   <time name="dav">    0.67    0.67</time>
   <time name="total">    0.71    0.71</time>
   <energy>
    <i name="e_fr_energy">    -14.71132700</i>
    <i name="e_wo_entrp">    -14.71112116</i>
    <i name="e_0_energy">    -14.71122408</i>
   </energy>
  </scstep>
  <scstep>
   <time name="dav">    0.61    0.61</time>
   <time name="total">    0.63    0.63</time>
   <energy>
    <i name="alphaZ">     -0.92303222</i>
    <i name="ewald">   -306.61395578</i>
    <i name="hartreedc">     -0.53087146</i>
    <i name="XCdc">   -103.48764781</i>
    <i name="pawpsdc">    144.54734900</i>
    <i name="pawaedc">    -16.87441726</i>
    <i name="eentropy">     -0.00020584</i>
    <i name="bandstr">     55.01781284</i>
    <i name="atom">    214.15364153</i>
    <i name="e_fr_energy">    -14.71132700</i>
    <i name="e_wo_entrp">    -14.71112116</i>
    <i name="e_0_energy">    -14.71122408</i>
   </energy>
  </scstep>
  <structure>
   <crystal>
    <varray name="basis" >
     <v>       3.87581411      0.00000000      0.00000000</v>
     <v>       0.00000000      3.87581411      0.00000000</v>
     <v>       0.00000000      0.00000000      3.87581411</v>
    </varray>
    <i name="volume">     58.22222791</i>
    <varray name="rec_basis" >
     <v>       0.25801031      0.00000000      0.00000000</v>
     <v>       0.00000000      0.25801031      0.00000000</v>
     <v>       0.00000000      0.00000000      0.25801031</v>
    </varray>
   </crystal>
   <varray name="positions" >
    <v>       0.50000000      0.50000000      0.00000000</v>
    <v>       0.50000000      0.00000000      0.50000000</v>
    <v>       0.00000000      0.50000000      0.50000000</v>
    <v>       0.00000000      0.00000000      0.00000000</v>
   </varray>
  </structure>
  <varray name="forces" >
   <v>       0.00000000      0.00000000      0.00000000</v>
   <v>       0.00000000      0.00000000      0.00000000</v>
   <v>       0.00000000      0.00000000     -0.00000000</v>
   <v>       0.00000000      0.00000000     -0.00000000</v>
  </varray>
  <varray name="stress" >
   <v>     128.48625825      0.00000000      0.00000000</v>
   <v>       0.00000000    128.48625825     -0.00000000</v>
   <v>       0.00000000      0.00000000    128.48625825</v>
  </varray>
  <energy>
   <i name="e_fr_energy">    -14.71132700</i>
   <i name="e_wo_entrp">    -14.71122408</i>
   <i name="e_0_energy">     -0.00020584</i>
  </energy>
  <eigenvalues>
   <array>
    <dimension dim="1">band</dimension>
    <dimension dim="2">kpoint</dimension>
    <dimension dim="3">spin</dimension>
    <field>eigene</field>
    <field>occ</field>
    <set>
     <set comment="spin 1">
      <set comment="kpoint 1">
       <r>  -2.6572  1.0000</r>
       <r>   6.1455  1.0000</r>
       <r>   6.1455  1.0000</r>
       <r>   6.1455  1.0000</r>
       <r>   7.7203  1.0000</r>
       <r>   7.7203  1.0000</r>
       <r>   7.7203  1.0000</r>
       <r>  14.6541  0.0000</r>
       <r>  14.6541  0.0000</r>
       <r>  14.6541  0.0000</r>
       <r>  15.5905  0.0000</r>
       <r>  15.5905  0.0000</r>
       <r>  15.5905  0.0000</r>
       <r>  15.5905  0.0000</r>
       <r>  15.5905  0.0000</r>
       <r>  15.5905  0.0000</r>
      </set>
      <set comment="kpoint 2">
       <r>  -2.5990  1.0000</r>
       <r>   5.3510  1.0000</r>
       <r>   6.1980  1.0000</r>
       <r>   6.1980  1.0000</r>
       <r>   7.7739  1.0000</r>
       <r>   7.7739  1.0000</r>
       <r>   8.6127  1.0000</r>
       <r>  13.7106  0.0000</r>
       <r>  13.7106  0.0000</r>
       <r>  14.7117  0.0000</r>
       <r>  15.2213  0.0000</r>
       <r>  15.2213  0.0000</r>
       <r>  15.6384  0.0000</r>
       <r>  15.6384  0.0000</r>
       <r>  16.6420  0.0000</r>
       <r>  16.6420  0.0000</r>
      </set>
      <set comment="kpoint 3">
       <r>  -2.4243  1.0000</r>
       <r>   4.1680  1.0000</r>
       <r>   6.3554  1.0000</r>
       <r>   6.3554  1.0000</r>
       <r>   7.9332  1.0000</r>
       <r>   7.9332  1.0000</r>
       <r>  10.0893  0.0000</r>
       <r>  12.5217  0.0000</r>
       <r>  12.5217  0.0000</r>
       <r>  14.4058  0.0000</r>
       <r>  14.4058  0.0000</r>
       <r>  14.8845  0.0000</r>
       <r>  15.7824  0.0000</r>
       <r>  15.7824  0.0000</r>
       <r>  18.1547  0.0000</r>
       <r>  18.1547  0.0000</r>
      </set>
      <set comment="kpoint 4">
       <r>  -2.1338  1.0000</r>
       <r>   3.0260  1.0000</r>
       <r>   6.6179  1.0000</r>
       <r>   6.6179  1.0000</r>
       <r>   8.1925  1.0000</r>
       <r>   8.1925  1.0000</r>
       <r>  11.4166  0.0000</r>
       <r>  11.4166  0.0000</r>
       <r>  11.7202  0.0000</r>
       <r>  13.4789  0.0000</r>
       <r>  13.4789  0.0000</r>
       <r>  15.1722  0.0000</r>
       <r>  16.0224  0.0000</r>
       <r>  16.0224  0.0000</r>
       <r>  19.7980  0.0000</r>
       <r>  19.7980  0.0000</r>
      </set>
      <set comment="kpoint 5">
       <r>  -1.7283  1.0000</r>
       <r>   1.9713  1.0000</r>
       <r>   6.9856  1.0000</r>
       <r>   6.9856  1.0000</r>
       <r>   8.5377  1.0000</r>
       <r>   8.5377  1.0000</r>
       <r>  10.4133  0.0000</r>
       <r>  10.4133  0.0000</r>
       <r>  12.5858  0.0000</r>
       <r>  12.5858  0.0000</r>
       <r>  13.4581  0.0000</r>
       <r>  15.5742  0.0000</r>
       <r>  16.3586  0.0000</r>
       <r>  16.3586  0.0000</r>
       <r>  19.2351  0.0000</r>
       <r>  19.4708  0.0000</r>
      </set>
      <set comment="kpoint 6">
       <r>  -1.2088  1.0000</r>
       <r>   1.0160  1.0000</r>
       <r>   7.4590  1.0000</r>
       <r>   7.4590  1.0000</r>
       <r>   8.9309  1.0000</r>
       <r>   8.9309  1.0000</r>
       <r>   9.5153  0.0000</r>
       <r>   9.5153  0.0000</r>
       <r>  11.8121  0.0000</r>
       <r>  11.8121  0.0000</r>
       <r>  15.2891  0.0000</r>
       <r>  16.0896  0.0000</r>
       <r>  16.7911  0.0000</r>
       <r>  16.7911  0.0000</r>
       <r>  18.2961  0.0000</r>
       <r>  18.6623  0.0000</r>
      </set>
      <set comment="kpoint 7">
       <r>  -0.5770  1.0000</r>
       <r>   0.1654  1.0000</r>
       <r>   8.0382  1.0000</r>
       <r>   8.0382  1.0000</r>
       <r>   8.7236  1.0000</r>
       <r>   8.7236  1.0000</r>
       <r>   9.2544  1.0000</r>
       <r>   9.2544  1.0000</r>
       <r>  11.2948  0.0000</r>
       <r>  11.2948  0.0000</r>
       <r>  16.7170  0.0000</r>
       <r>  17.2041  0.0000</r>
       <r>  17.3198  0.0000</r>
       <r>  17.3198  0.0000</r>
       <r>  17.4540  0.0000</r>
       <r>  17.9440  0.0000</r>
      </set>
      <set comment="kpoint 8">
       <r>  -2.5407  1.0000</r>
       <r>   5.4048  1.0000</r>
       <r>   5.4048  1.0000</r>
       <r>   6.2505  1.0000</r>
       <r>   7.8267  1.0000</r>
       <r>   8.6645  1.0000</r>
       <r>   8.6645  1.0000</r>
       <r>  12.9754  0.0000</r>
       <r>  13.7650  0.0000</r>
       <r>  13.7650  0.0000</r>
       <r>  15.2712  0.0000</r>
       <r>  15.2712  0.0000</r>
       <r>  15.6876  0.0000</r>
       <r>  16.6159  0.0000</r>
       <r>  16.6932  0.0000</r>
       <r>  16.6932  0.0000</r>
      </set>
      <set comment="kpoint 9">
       <r>  -2.3662  1.0000</r>
       <r>   4.2228  1.0000</r>
       <r>   5.5658  1.0000</r>
       <r>   6.4079  1.0000</r>
       <r>   7.9825  1.0000</r>
       <r>   8.8182  1.0000</r>
       <r>  10.1381  0.0000</r>
       <r>  11.8615  0.0000</r>
       <r>  12.5753  0.0000</r>
       <r>  13.9279  0.0000</r>
       <r>  14.4598  0.0000</r>
       <r>  15.1173  0.0000</r>
       <r>  15.4211  0.0000</r>
       <r>  16.8467  0.0000</r>
       <r>  17.7653  0.0000</r>
       <r>  18.2064  0.0000</r>
      </set>
      <set comment="kpoint 10">
       <r>  -2.0758  1.0000</r>
       <r>   3.0814  1.0000</r>
       <r>   5.8335  1.0000</r>
       <r>   6.6704  1.0000</r>
       <r>   8.2305  1.0000</r>
       <r>   9.0673  1.0000</r>
       <r>  10.7964  0.0000</r>
       <r>  11.4699  0.0000</r>
       <r>  11.7638  0.0000</r>
       <r>  13.5395  0.0000</r>
       <r>  14.1990  0.0000</r>
       <r>  14.1992  0.0000</r>
       <r>  15.6721  0.0000</r>
       <r>  17.1027  0.0000</r>
       <r>  19.0277  0.0000</r>
       <r>  19.3384  0.0000</r>
      </set>
      <set comment="kpoint 11">
       <r>  -1.6705  1.0000</r>
       <r>   2.0273  1.0000</r>
       <r>   6.2071  1.0000</r>
       <r>   7.0382  1.0000</r>
       <r>   8.5253  1.0000</r>
       <r>   9.3933  0.0000</r>
       <r>   9.8672  0.0000</r>
       <r>  10.4664  0.0000</r>
       <r>  12.6609  0.0000</r>
       <r>  13.2921  0.0000</r>
       <r>  13.4898  0.0000</r>
       <r>  14.5782  0.0000</r>
       <r>  16.0282  0.0000</r>
       <r>  17.4613  0.0000</r>
       <r>  18.0426  0.0000</r>
       <r>  19.1056  0.0000</r>
      </set>
      <set comment="kpoint 12">
       <r>  -1.1513  1.0000</r>
       <r>   1.0725  1.0000</r>
       <r>   6.6843  1.0000</r>
       <r>   7.5117  1.0000</r>
       <r>   8.5289  1.0000</r>
       <r>   9.4036  0.0000</r>
       <r>   9.5683  0.0000</r>
       <r>   9.7379  0.0000</r>
       <r>  11.9327  0.0000</r>
       <r>  12.4771  0.0000</r>
       <r>  15.0641  0.0000</r>
       <r>  15.2780  0.0000</r>
       <r>  16.5133  0.0000</r>
       <r>  17.1481  0.0000</r>
       <r>  17.9224  0.0000</r>
       <r>  18.2869  0.0000</r>
      </set>
      <set comment="kpoint 13">
       <r>  -0.5197  1.0000</r>
       <r>   0.2224  1.0000</r>
       <r>   7.2602  1.0000</r>
       <r>   7.9170  1.0000</r>
       <r>   8.0910  1.0000</r>
       <r>   8.7765  1.0000</r>
       <r>   9.6734  0.0000</r>
       <r>   9.9027  0.0000</r>
       <r>  11.5776  0.0000</r>
       <r>  11.8352  0.0000</r>
       <r>  15.6557  0.0000</r>
       <r>  16.3512  0.0000</r>
       <r>  16.7738  0.0000</r>
       <r>  17.4728  0.0000</r>
       <r>  17.5399  0.0000</r>
       <r>  18.4852  0.0000</r>
      </set>
      <set comment="kpoint 14">
       <r>  -2.1919  1.0000</r>
       <r>   4.3868  1.0000</r>
       <r>   4.3868  1.0000</r>
       <r>   6.5654  1.0000</r>
       <r>   8.1226  1.0000</r>
       <r>  10.2815  0.0000</r>
       <r>  10.2815  0.0000</r>
       <r>  10.7978  0.0000</r>
       <r>  12.7361  0.0000</r>
       <r>  12.7361  0.0000</r>
       <r>  14.6231  0.0000</r>
       <r>  14.6231  0.0000</r>
       <r>  15.9791  0.0000</r>
       <r>  17.3958  0.0000</r>
       <r>  18.3615  0.0000</r>
       <r>  18.3615  0.0000</r>
      </set>
      <set comment="kpoint 15">
       <r>  -1.9020  1.0000</r>
       <r>   3.2477  1.0000</r>
       <r>   4.6596  1.0000</r>
       <r>   6.8280  1.0000</r>
       <r>   8.3058  1.0000</r>
       <r>   9.8115  0.0000</r>
       <r>  10.5059  0.0000</r>
       <r>  11.6299  0.0000</r>
       <r>  11.8864  0.0000</r>
       <r>  13.0041  0.0000</r>
       <r>  13.7272  0.0000</r>
       <r>  14.9027  0.0000</r>
       <r>  15.4820  0.0000</r>
       <r>  17.8314  0.0000</r>
       <r>  18.5030  0.0000</r>
       <r>  18.6197  0.0000</r>
      </set>
      <set comment="kpoint 16">
       <r>  -1.4972  1.0000</r>
       <r>   2.1953  1.0000</r>
       <r>   5.0401  1.0000</r>
       <r>   7.1961  1.0000</r>
       <r>   8.2188  1.0000</r>
       <r>   9.2764  1.0000</r>
       <r>  10.6259  0.0000</r>
       <r>  10.7637  0.0000</r>
       <r>  12.9132  0.0000</r>
       <r>  13.3788  0.0000</r>
       <r>  13.5539  0.0000</r>
       <r>  14.6228  0.0000</r>
       <r>  15.3287  0.0000</r>
       <r>  16.8344  0.0000</r>
       <r>  18.3052  0.0000</r>
       <r>  18.9806  0.0000</r>
      </set>
      <set comment="kpoint 17">
       <r>  -0.9787  1.0000</r>
       <r>   1.2419  1.0000</r>
       <r>   5.5264  1.0000</r>
       <r>   7.5507  1.0000</r>
       <r>   7.6697  1.0000</r>
       <r>   9.5116  0.0000</r>
       <r>   9.7273  0.0000</r>
       <r>  10.8704  0.0000</r>
       <r>  12.4156  0.0000</r>
       <r>  13.7975  0.0000</r>
       <r>  13.8601  0.0000</r>
       <r>  15.0687  0.0000</r>
       <r>  15.9361  0.0000</r>
       <r>  16.1014  0.0000</r>
       <r>  17.4747  0.0000</r>
       <r>  19.4430  0.0000</r>
      </set>
      <set comment="kpoint 18">
       <r>  -0.3480  1.0000</r>
       <r>   0.3930  1.0000</r>
       <r>   6.1152  1.0000</r>
       <r>   6.7986  1.0000</r>
       <r>   8.2493  1.0000</r>
       <r>   8.9351  1.0000</r>
       <r>  10.0056  0.0000</r>
       <r>  10.5435  0.0000</r>
       <r>  12.5397  0.0000</r>
       <r>  13.0773  0.0000</r>
       <r>  14.4473  0.0000</r>
       <r>  15.1397  0.0000</r>
       <r>  15.9855  0.0000</r>
       <r>  16.7108  0.0000</r>
       <r>  17.6557  0.0000</r>
       <r>  19.5730  0.0000</r>
      </set>
      <set comment="kpoint 19">
       <r>  -1.6127  1.0000</r>
       <r>   3.5242  1.0000</r>
       <r>   3.5242  1.0000</r>
       <r>   7.0909  1.0000</r>
       <r>   8.1127  1.0000</r>
       <r>   9.2051  1.0000</r>
       <r>  11.8964  0.0000</r>
       <r>  11.8964  0.0000</r>
       <r>  12.0458  0.0000</r>
       <r>  12.0458  0.0000</r>
       <r>  14.0755  0.0000</r>
       <r>  14.0755  0.0000</r>
       <r>  16.4659  0.0000</r>
       <r>  16.7284  0.0000</r>
       <r>  18.1112  0.0000</r>
       <r>  18.2868  0.0000</r>
      </set>
      <set comment="kpoint 20">
       <r>  -1.2089  1.0000</r>
       <r>   2.4747  1.0000</r>
       <r>   3.9100  1.0000</r>
       <r>   7.3509  1.0000</r>
       <r>   7.4593  1.0000</r>
       <r>   9.3471  0.6469</r>
       <r>  10.8916  0.0000</r>
       <r>  12.0616  0.0000</r>
       <r>  12.2696  0.0000</r>
       <r>  13.4663  0.0000</r>
       <r>  13.5030  0.0000</r>
       <r>  14.7551  0.0000</r>
       <r>  15.7247  0.0000</r>
       <r>  16.0805  0.0000</r>
       <r>  17.3923  0.0000</r>
       <r>  19.2631  0.0000</r>
      </set>
      <set comment="kpoint 21">
       <r>  -0.6916  1.0000</r>
       <r>   1.5237  1.0000</r>
       <r>   4.4036  1.0000</r>
       <r>   6.4954  1.0000</r>
       <r>   7.9333  1.0000</r>
       <r>   9.7768  0.0000</r>
       <r>   9.9924  0.0000</r>
       <r>  11.6324  0.0000</r>
       <r>  12.7492  0.0000</r>
       <r>  13.5362  0.0000</r>
       <r>  14.3920  0.0000</r>
       <r>  14.8235  0.0000</r>
       <r>  15.3201  0.0000</r>
       <r>  16.1247  0.0000</r>
       <r>  16.5533  0.0000</r>
       <r>  21.0022  0.0000</r>
      </set>
      <set comment="kpoint 22">
       <r>  -0.0624  1.0000</r>
       <r>   0.6769  1.0000</r>
       <r>   5.0027  1.0000</r>
       <r>   5.7031  1.0000</r>
       <r>   8.5133  1.0000</r>
       <r>   9.1996  1.0000</r>
       <r>  10.3359  0.0000</r>
       <r>  10.9783  0.0000</r>
       <r>  13.3350  0.0000</r>
       <r>  13.9762  0.0000</r>
       <r>  14.0266  0.0000</r>
       <r>  14.5950  0.0000</r>
       <r>  15.0797  0.0000</r>
       <r>  15.7838  0.0000</r>
       <r>  17.9145  0.0000</r>
       <r>  19.8530  0.0000</r>
      </set>
      <set comment="kpoint 23">
       <r>  -0.8064  1.0000</r>
       <r>   2.8647  1.0000</r>
       <r>   2.8647  1.0000</r>
       <r>   6.3922  1.0000</r>
       <r>   7.8280  1.0000</r>
       <r>   9.6853  0.0000</r>
       <r>  11.2637  0.0000</r>
       <r>  11.2637  0.0000</r>
       <r>  12.9226  0.0000</r>
       <r>  12.9226  0.0000</r>
       <r>  14.7176  0.0000</r>
       <r>  14.7431  0.0000</r>
       <r>  14.7431  0.0000</r>
       <r>  16.4905  0.0000</r>
       <r>  17.1490  0.0000</r>
       <r>  18.9591  0.0000</r>
      </set>
      <set comment="kpoint 24">
       <r>  -0.2908  1.0000</r>
       <r>   1.9171  1.0000</r>
       <r>   3.3639  1.0000</r>
       <r>   5.4924  1.0000</r>
       <r>   8.3025  1.0000</r>
       <r>  10.1597  0.0000</r>
       <r>  10.3637  0.0000</r>
       <r>  11.7422  0.0000</r>
       <r>  12.1666  0.0000</r>
       <r>  13.5442  0.0000</r>
       <r>  13.8151  0.0000</r>
       <r>  15.0984  0.0000</r>
       <r>  15.6439  0.0000</r>
       <r>  16.4171  0.0000</r>
       <r>  16.8867  0.0000</r>
       <r>  20.1723  0.0000</r>
      </set>
      <set comment="kpoint 25">
       <r>   0.3363  1.0000</r>
       <r>   1.0732  1.0000</r>
       <r>   3.9706  1.0000</r>
       <r>   4.6817  1.0000</r>
       <r>   8.8832  1.0000</r>
       <r>   9.5701  0.0000</r>
       <r>  10.7432  0.0000</r>
       <r>  11.4198  0.0000</r>
       <r>  12.3270  0.0000</r>
       <r>  13.0180  0.0000</r>
       <r>  14.1738  0.0000</r>
       <r>  14.8702  0.0000</r>
       <r>  15.6175  0.0000</r>
       <r>  16.2375  0.0000</r>
       <r>  18.2592  0.0000</r>
       <r>  20.1794  0.0000</r>
      </set>
      <set comment="kpoint 26">
       <r>   0.2226  1.0000</r>
       <r>   2.4209  1.0000</r>
       <r>   2.4209  1.0000</r>
       <r>   4.5740  1.0000</r>
       <r>   8.7777  1.0000</r>
       <r>  10.6512  0.0000</r>
       <r>  10.8412  0.0000</r>
       <r>  10.8412  0.0000</r>
       <r>  12.7077  0.0000</r>
       <r>  12.7077  0.0000</r>
       <r>  12.9122  0.0000</r>
       <r>  14.7908  0.0000</r>
       <r>  16.8432  0.0000</r>
       <r>  16.8432  0.0000</r>
       <r>  18.0298  0.0000</r>
       <r>  19.9821  0.0000</r>
      </set>
      <set comment="kpoint 27">
       <r>   0.8471  1.0000</r>
       <r>   1.5807  1.0000</r>
       <r>   3.0334  1.0000</r>
       <r>   3.7523  1.0000</r>
       <r>   9.3590  0.0937</r>
       <r>  10.0468  0.0000</r>
       <r>  11.2451  0.0000</r>
       <r>  11.4251  0.0000</r>
       <r>  11.9343  0.0000</r>
       <r>  12.1155  0.0000</r>
       <r>  13.3185  0.0000</r>
       <r>  14.0130  0.0000</r>
       <r>  17.3592  0.0000</r>
       <r>  17.8937  0.0000</r>
       <r>  18.6759  0.0000</r>
       <r>  20.4939  0.0000</r>
      </set>
      <set comment="kpoint 28">
       <r>   1.4683  1.0000</r>
       <r>   2.1980  1.0000</r>
       <r>   2.1980  1.0000</r>
       <r>   2.9229  1.0000</r>
       <r>   9.9412  0.0000</r>
       <r>  10.6299  0.0000</r>
       <r>  10.6299  0.0000</r>
       <r>  11.3194  0.0000</r>
       <r>  11.8444  0.0000</r>
       <r>  12.5378  0.0000</r>
       <r>  12.5378  0.0000</r>
       <r>  13.2322  0.0000</r>
       <r>  19.0974  0.0000</r>
       <r>  19.0974  0.0000</r>
       <r>  19.1094  0.0000</r>
       <r>  20.3878  0.0000</r>
      </set>
      <set comment="kpoint 29">
       <r>  -2.4825  1.0000</r>
       <r>   5.4584  1.0000</r>
       <r>   5.4584  1.0000</r>
       <r>   5.4584  1.0000</r>
       <r>   8.7152  1.0000</r>
       <r>   8.7152  1.0000</r>
       <r>   8.7152  1.0000</r>
       <r>  13.0303  0.0000</r>
       <r>  13.0303  0.0000</r>
       <r>  13.0303  0.0000</r>
       <r>  15.7355  0.0000</r>
       <r>  15.7355  0.0000</r>
       <r>  15.7355  0.0000</r>
       <r>  16.6704  0.0000</r>
       <r>  16.6704  0.0000</r>
       <r>  16.6704  0.0000</r>
      </set>
      <set comment="kpoint 30">
       <r>  -2.3081  1.0000</r>
       <r>   4.2775  1.0000</r>
       <r>   5.6192  1.0000</r>
       <r>   5.6192  1.0000</r>
       <r>   8.8639  1.0000</r>
       <r>   8.8639  1.0000</r>
       <r>  10.1843  0.0000</r>
       <r>  11.9191  0.0000</r>
       <r>  11.9191  0.0000</r>
       <r>  13.1958  0.0000</r>
       <r>  15.1689  0.0000</r>
       <r>  15.1689  0.0000</r>
       <r>  15.8795  0.0000</r>
       <r>  16.8339  0.0000</r>
       <r>  17.8186  0.0000</r>
       <r>  17.8186  0.0000</r>
      </set>
      <set comment="kpoint 31">
       <r>  -2.0178  1.0000</r>
       <r>   3.1369  1.0000</r>
       <r>   5.8866  1.0000</r>
       <r>   5.8866  1.0000</r>
       <r>   9.0933  1.0000</r>
       <r>   9.0933  1.0000</r>
       <r>  10.8654  0.0000</r>
       <r>  10.8654  0.0000</r>
       <r>  11.7972  0.0000</r>
       <r>  13.4783  0.0000</r>
       <r>  14.2550  0.0000</r>
       <r>  14.2550  0.0000</r>
       <r>  16.1197  0.0000</r>
       <r>  17.1065  0.0000</r>
       <r>  18.2132  0.0000</r>
       <r>  19.3906  0.0000</r>
      </set>
      <set comment="kpoint 32">
       <r>  -1.6127  1.0000</r>
       <r>   2.0833  1.0000</r>
       <r>   6.2590  1.0000</r>
       <r>   6.2590  1.0000</r>
       <r>   9.2733  1.0000</r>
       <r>   9.2733  1.0000</r>
       <r>  10.0398  0.0000</r>
       <r>  10.0398  0.0000</r>
       <r>  13.3558  0.0000</r>
       <r>  13.3558  0.0000</r>
       <r>  13.4216  0.0000</r>
       <r>  13.9607  0.0000</r>
       <r>  16.4561  0.0000</r>
       <r>  17.2352  0.0000</r>
       <r>  17.4886  0.0000</r>
       <r>  19.5711  0.0000</r>
      </set>
      <set comment="kpoint 33">
       <r>  -1.0937  1.0000</r>
       <r>   1.1290  1.0000</r>
       <r>   6.7323  1.0000</r>
       <r>   6.7323  1.0000</r>
       <r>   8.7816  1.0000</r>
       <r>   8.7816  1.0000</r>
       <r>  10.0511  0.0000</r>
       <r>  10.0511  0.0000</r>
       <r>  12.5619  0.0000</r>
       <r>  12.5619  0.0000</r>
       <r>  14.2476  0.0000</r>
       <r>  15.4337  0.0000</r>
       <r>  16.3470  0.0000</r>
       <r>  16.8889  0.0000</r>
       <r>  17.9838  0.0000</r>
       <r>  18.7616  0.0000</r>
      </set>
      <set comment="kpoint 34">
       <r>  -0.4624  1.0000</r>
       <r>   0.2793  1.0000</r>
       <r>   7.2814  1.0000</r>
       <r>   7.2814  1.0000</r>
       <r>   8.0700  1.0000</r>
       <r>   8.0700  1.0000</r>
       <r>  10.3672  0.0000</r>
       <r>  10.3672  0.0000</r>
       <r>  12.0037  0.0000</r>
       <r>  12.0037  0.0000</r>
       <r>  14.8585  0.0000</r>
       <r>  15.5544  0.0000</r>
       <r>  17.2799  0.0000</r>
       <r>  17.4179  0.0000</r>
       <r>  18.0427  0.0000</r>
       <r>  18.6136  0.0000</r>
      </set>
      <set comment="kpoint 35">
       <r>  -2.1339  1.0000</r>
       <r>   4.4414  1.0000</r>
       <r>   4.4414  1.0000</r>
       <r>   5.7794  1.0000</r>
       <r>   8.9867  1.0000</r>
       <r>  10.3125  0.0000</r>
       <r>  10.3125  0.0000</r>
       <r>  10.8709  0.0000</r>
       <r>  12.0989  0.0000</r>
       <r>  12.0989  0.0000</r>
       <r>  15.3242  0.0000</r>
       <r>  15.3242  0.0000</r>
       <r>  16.0272  0.0000</r>
       <r>  17.4526  0.0000</r>
       <r>  17.9781  0.0000</r>
       <r>  17.9782  0.0000</r>
      </set>
      <set comment="kpoint 36">
       <r>  -1.8441  1.0000</r>
       <r>   3.3030  1.0000</r>
       <r>   4.7139  1.0000</r>
       <r>   6.0449  1.0000</r>
       <r>   9.0564  1.0000</r>
       <r>   9.9947  0.0000</r>
       <r>  10.4180  0.0000</r>
       <r>  11.1543  0.0000</r>
       <r>  11.8087  0.0000</r>
       <r>  12.4885  0.0000</r>
       <r>  14.4253  0.0000</r>
       <r>  15.5338  0.0000</r>
       <r>  15.5851  0.0000</r>
       <r>  17.0888  0.0000</r>
       <r>  18.2438  0.0000</r>
       <r>  18.5569  0.0000</r>
      </set>
      <set comment="kpoint 37">
       <r>  -1.4395  1.0000</r>
       <r>   2.2512  1.0000</r>
       <r>   5.0937  1.0000</r>
       <r>   6.4118  1.0000</r>
       <r>   8.5244  1.0000</r>
       <r>   9.8494  0.0000</r>
       <r>   9.9036  0.0000</r>
       <r>  11.0416  0.0000</r>
       <r>  12.6053  0.0000</r>
       <r>  13.5576  0.0000</r>
       <r>  13.7777  0.0000</r>
       <r>  14.6786  0.0000</r>
       <r>  15.9594  0.0000</r>
       <r>  16.1041  0.0000</r>
       <r>  18.6150  0.0000</r>
       <r>  19.0526  0.0000</r>
      </set>
      <set comment="kpoint 38">
       <r>  -0.9212  1.0000</r>
       <r>   1.2983  1.0000</r>
       <r>   5.5784  1.0000</r>
       <r>   6.8531  1.0000</r>
       <r>   7.7359  1.0000</r>
       <r>   9.0018  1.0000</r>
       <r>  10.2853  0.0000</r>
       <r>  11.2894  0.0000</r>
       <r>  12.8736  0.0000</r>
       <r>  13.1274  0.0000</r>
       <r>  13.8604  0.0000</r>
       <r>  15.2124  0.0000</r>
       <r>  15.4712  0.0000</r>
       <r>  16.5003  0.0000</r>
       <r>  18.2239  0.0000</r>
       <r>  19.0915  0.0000</r>
      </set>
      <set comment="kpoint 39">
       <r>  -0.2908  1.0000</r>
       <r>   0.4498  1.0000</r>
       <r>   6.1616  1.0000</r>
       <r>   6.8049  1.0000</r>
       <r>   7.5873  1.0000</r>
       <r>   8.2263  1.0000</r>
       <r>  10.7830  0.0000</r>
       <r>  11.2352  0.0000</r>
       <r>  12.7154  0.0000</r>
       <r>  13.1611  0.0000</r>
       <r>  13.7244  0.0000</r>
       <r>  14.4186  0.0000</r>
       <r>  16.7209  0.0000</r>
       <r>  17.4651  0.0000</r>
       <r>  17.6896  0.0000</r>
       <r>  19.5134  0.0000</r>
      </set>
      <set comment="kpoint 40">
       <r>  -1.5549  1.0000</r>
       <r>   3.5793  1.0000</r>
       <r>   3.5793  1.0000</r>
       <r>   6.3047  1.0000</r>
       <r>   8.4288  1.0000</r>
       <r>   9.8268  0.0000</r>
       <r>  11.1269  0.0000</r>
       <r>  11.1269  0.0000</r>
       <r>  12.3005  0.0000</r>
       <r>  12.3005  0.0000</r>
       <r>  14.7221  0.0000</r>
       <r>  14.7221  0.0000</r>
       <r>  16.0133  0.0000</r>
       <r>  16.5140  0.0000</r>
       <r>  18.1679  0.0000</r>
       <r>  19.0545  0.0000</r>
      </set>
      <set comment="kpoint 41">
       <r>  -1.1513  1.0000</r>
       <r>   2.5305  1.0000</r>
       <r>   3.9647  1.0000</r>
       <r>   6.6388  1.0000</r>
       <r>   7.5444  1.0000</r>
       <r>  10.1252  0.0000</r>
       <r>  10.1720  0.0000</r>
       <r>  11.5514  0.0000</r>
       <r>  12.4616  0.0000</r>
       <r>  13.8583  0.0000</r>
       <r>  13.9661  0.0000</r>
       <r>  15.0226  0.0000</r>
       <r>  15.2092  0.0000</r>
       <r>  16.1319  0.0000</r>
       <r>  18.1597  0.0000</r>
       <r>  19.3164  0.0000</r>
      </set>
      <set comment="kpoint 42">
       <r>  -0.6343  1.0000</r>
       <r>   1.5800  1.0000</r>
       <r>   4.4576  1.0000</r>
       <r>   6.4978  1.0000</r>
       <r>   7.2787  1.0000</r>
       <r>   9.2843  1.0000</r>
       <r>  10.5782  0.0000</r>
       <r>  12.0459  0.0000</r>
       <r>  12.3174  0.0000</r>
       <r>  13.7077  0.0000</r>
       <r>  14.1273  0.0000</r>
       <r>  15.0942  0.0000</r>
       <r>  15.3751  0.0000</r>
       <r>  16.2483  0.0000</r>
       <r>  17.3207  0.0000</r>
       <r>  20.6290  0.0000</r>
      </set>
      <set comment="kpoint 43">
       <r>  -0.0053  1.0000</r>
       <r>   0.7336  1.0000</r>
       <r>   5.0549  1.0000</r>
       <r>   5.7492  1.0000</r>
       <r>   7.8120  1.0000</r>
       <r>   8.4939  1.0000</r>
       <r>  11.1342  0.0000</r>
       <r>  11.7551  0.0000</r>
       <r>  12.6380  0.0000</r>
       <r>  13.3318  0.0000</r>
       <r>  14.0571  0.0000</r>
       <r>  14.6565  0.0000</r>
       <r>  15.8447  0.0000</r>
       <r>  16.5525  0.0000</r>
       <r>  17.9613  0.0000</r>
       <r>  19.8804  0.0000</r>
      </set>
      <set comment="kpoint 44">
       <r>  -0.7490  1.0000</r>
       <r>   2.9202  1.0000</r>
       <r>   2.9202  1.0000</r>
       <r>   6.3938  1.0000</r>
       <r>   7.1742  1.0000</r>
       <r>  10.4895  0.0000</r>
       <r>  10.5616  0.0000</r>
       <r>  10.5616  0.0000</r>
       <r>  13.6084  0.0000</r>
       <r>  13.6084  0.0000</r>
       <r>  14.0278  0.0000</r>
       <r>  14.9004  0.0000</r>
       <r>  14.9004  0.0000</r>
       <r>  17.1972  0.0000</r>
       <r>  17.2586  0.0000</r>
       <r>  19.0143  0.0000</r>
      </set>
      <set comment="kpoint 45">
       <r>  -0.2336  1.0000</r>
       <r>   1.9732  1.0000</r>
       <r>   3.4190  1.0000</r>
       <r>   5.5386  1.0000</r>
       <r>   7.6014  1.0000</r>
       <r>   9.6649  0.0000</r>
       <r>  10.9661  0.0000</r>
       <r>  11.0490  0.0000</r>
       <r>  12.9357  0.0000</r>
       <r>  13.1299  0.0000</r>
       <r>  14.3086  0.0000</r>
       <r>  15.1742  0.0000</r>
       <r>  16.4128  0.0000</r>
       <r>  16.4836  0.0000</r>
       <r>  16.9376  0.0000</r>
       <r>  20.2240  0.0000</r>
      </set>
      <set comment="kpoint 46">
       <r>   0.3932  1.0000</r>
       <r>   1.1297  1.0000</r>
       <r>   4.0249  1.0000</r>
       <r>   4.7342  1.0000</r>
       <r>   8.1794  1.0000</r>
       <r>   8.8693  1.0000</r>
       <r>  11.5439  0.0000</r>
       <r>  11.6392  0.0000</r>
       <r>  12.2100  0.0000</r>
       <r>  12.3330  0.0000</r>
       <r>  14.9463  0.0000</r>
       <r>  15.6412  0.0000</r>
       <r>  15.6768  0.0000</r>
       <r>  16.2914  0.0000</r>
       <r>  18.3081  0.0000</r>
       <r>  20.2214  0.0000</r>
      </set>
      <set comment="kpoint 47">
       <r>   0.2795  1.0000</r>
       <r>   2.4767  1.0000</r>
       <r>   2.4767  1.0000</r>
       <r>   4.6265  1.0000</r>
       <r>   8.0738  1.0000</r>
       <r>  10.1492  0.0000</r>
       <r>  10.1492  0.0000</r>
       <r>  11.4546  0.0000</r>
       <r>  12.2303  0.0000</r>
       <r>  13.4875  0.0000</r>
       <r>  13.4875  0.0000</r>
       <r>  15.5616  0.0000</r>
       <r>  16.8989  0.0000</r>
       <r>  16.8989  0.0000</r>
       <r>  18.0780  0.0000</r>
       <r>  20.0346  0.0000</r>
      </set>
      <set comment="kpoint 48">
       <r>   0.9037  1.0000</r>
       <r>   1.6370  1.0000</r>
       <r>   3.0887  1.0000</r>
       <r>   3.8068  1.0000</r>
       <r>   8.6590  1.0000</r>
       <r>   9.3516  0.3964</r>
       <r>  10.7385  0.0000</r>
       <r>  11.4325  0.0000</r>
       <r>  12.0422  0.0000</r>
       <r>  12.7234  0.0000</r>
       <r>  14.0966  0.0000</r>
       <r>  14.7872  0.0000</r>
       <r>  17.4113  0.0000</r>
       <r>  17.9438  0.0000</r>
       <r>  18.7250  0.0000</r>
       <r>  20.5399  0.0000</r>
      </set>
      <set comment="kpoint 49">
       <r>   1.5246  1.0000</r>
       <r>   2.2539  1.0000</r>
       <r>   2.2539  1.0000</r>
       <r>   2.9782  1.0000</r>
       <r>   9.2464  1.0000</r>
       <r>   9.9401  0.0000</r>
       <r>   9.9401  0.0000</r>
       <r>  10.6342  0.0000</r>
       <r>  12.6353  0.0000</r>
       <r>  13.3221  0.0000</r>
       <r>  13.3221  0.0000</r>
       <r>  14.0110  0.0000</r>
       <r>  19.1461  0.0000</r>
       <r>  19.1461  0.0000</r>
       <r>  19.1574  0.0000</r>
       <r>  20.4353  0.0000</r>
      </set>
      <set comment="kpoint 50">
       <r>  -1.9599  1.0000</r>
       <r>   4.6048  1.0000</r>
       <r>   4.6048  1.0000</r>
       <r>   4.6048  1.0000</r>
       <r>  10.3099  0.0000</r>
       <r>  10.3099  0.0000</r>
       <r>  10.3099  0.0000</r>
       <r>  11.1753  0.0000</r>
       <r>  11.1753  0.0000</r>
       <r>  11.1753  0.0000</r>
       <r>  16.1713  0.0000</r>
       <r>  16.1713  0.0000</r>
       <r>  16.1713  0.0000</r>
       <r>  17.0501  0.0000</r>
       <r>  17.6228  0.0000</r>
       <r>  17.6228  0.0000</r>
      </set>
      <set comment="kpoint 51">
       <r>  -1.6705  1.0000</r>
       <r>   3.4688  1.0000</r>
       <r>   4.8761  1.0000</r>
       <r>   4.8761  1.0000</r>
       <r>   9.6993  0.0000</r>
       <r>   9.6993  0.0000</r>
       <r>  10.9717  0.0000</r>
       <r>  10.9717  0.0000</r>
       <r>  11.0743  0.0000</r>
       <r>  12.3002  0.0000</r>
       <r>  15.6893  0.0000</r>
       <r>  15.6893  0.0000</r>
       <r>  15.9836  0.0000</r>
       <r>  16.4118  0.0000</r>
       <r>  17.9059  0.0000</r>
       <r>  18.7184  0.0000</r>
      </set>
      <set comment="kpoint 52">
       <r>  -1.2665  1.0000</r>
       <r>   2.4188  1.0000</r>
       <r>   5.2533  1.0000</r>
       <r>   5.2533  1.0000</r>
       <r>   8.7741  1.0000</r>
       <r>   8.7741  1.0000</r>
       <r>  11.2550  0.0000</r>
       <r>  11.2550  0.0000</r>
       <r>  11.5187  0.0000</r>
       <r>  13.9557  0.0000</r>
       <r>  14.8482  0.0000</r>
       <r>  14.8482  0.0000</r>
       <r>  14.9976  0.0000</r>
       <r>  16.7487  0.0000</r>
       <r>  18.3015  0.0000</r>
       <r>  19.8717  0.0000</r>
      </set>
      <set comment="kpoint 53">
       <r>  -0.7490  1.0000</r>
       <r>   1.4674  1.0000</r>
       <r>   5.7301  1.0000</r>
       <r>   5.7301  1.0000</r>
       <r>   7.8998  1.0000</r>
       <r>   7.8998  1.0000</r>
       <r>  11.6592  0.0000</r>
       <r>  11.6592  0.0000</r>
       <r>  12.0195  0.0000</r>
       <r>  14.0601  0.0000</r>
       <r>  14.0601  0.0000</r>
       <r>  14.1044  0.0000</r>
       <r>  15.7442  0.0000</r>
       <r>  17.1822  0.0000</r>
       <r>  18.8114  0.0000</r>
       <r>  19.0593  0.0000</r>
      </set>
      <set comment="kpoint 54">
       <r>  -0.1195  1.0000</r>
       <r>   0.6201  1.0000</r>
       <r>   6.2667  1.0000</r>
       <r>   6.2667  1.0000</r>
       <r>   7.1603  1.0000</r>
       <r>   7.1603  1.0000</r>
       <r>  12.0469  0.0000</r>
       <r>  12.0469  0.0000</r>
       <r>  12.6144  0.0000</r>
       <r>  13.3093  0.0000</r>
       <r>  13.4773  0.0000</r>
       <r>  13.4773  0.0000</r>
       <r>  17.5943  0.0000</r>
       <r>  17.7123  0.0000</r>
       <r>  18.3384  0.0000</r>
       <r>  19.3459  0.0000</r>
      </set>
      <set comment="kpoint 55">
       <r>  -1.3818  1.0000</r>
       <r>   3.7444  1.0000</r>
       <r>   3.7444  1.0000</r>
       <r>   5.1446  1.0000</r>
       <r>   8.6848  1.0000</r>
       <r>  10.0492  0.0000</r>
       <r>  10.0492  0.0000</r>
       <r>  11.1849  0.0000</r>
       <r>  12.5016  0.0000</r>
       <r>  12.5016  0.0000</r>
       <r>  14.9130  0.0000</r>
       <r>  15.9506  0.0000</r>
       <r>  15.9506  0.0000</r>
       <r>  16.6584  0.0000</r>
       <r>  18.3374  0.0000</r>
       <r>  18.9866  0.0000</r>
      </set>
      <set comment="kpoint 56">
       <r>  -0.9787  1.0000</r>
       <r>   2.6976  1.0000</r>
       <r>   4.1285  1.0000</r>
       <r>   5.5135  1.0000</r>
       <r>   7.7106  1.0000</r>
       <r>   9.0664  1.0000</r>
       <r>  10.4479  0.0000</r>
       <r>  11.5366  0.0000</r>
       <r>  12.8098  0.0000</r>
       <r>  13.9230  0.0000</r>
       <r>  14.1831  0.0000</r>
       <r>  15.1440  0.0000</r>
       <r>  16.2866  0.0000</r>
       <r>  16.3256  0.0000</r>
       <r>  19.3607  0.0000</r>
       <r>  19.4146  0.0000</r>
      </set>
      <set comment="kpoint 57">
       <r>  -0.4624  1.0000</r>
       <r>   1.7486  1.0000</r>
       <r>   4.6185  1.0000</r>
       <r>   5.9434  1.0000</r>
       <r>   6.8651  1.0000</r>
       <r>   8.1712  1.0000</r>
       <r>  10.9402  0.0000</r>
       <r>  11.9903  0.0000</r>
       <r>  13.0267  0.0000</r>
       <r>  13.1085  0.0000</r>
       <r>  14.4723  0.0000</r>
       <r>  15.5425  0.0000</r>
       <r>  15.8954  0.0000</r>
       <r>  16.8706  0.0000</r>
       <r>  18.5942  0.0000</r>
       <r>  19.8357  0.0000</r>
      </set>
      <set comment="kpoint 58">
       <r>   0.1656  1.0000</r>
       <r>   0.9035  1.0000</r>
       <r>   5.2074  1.0000</r>
       <r>   5.8514  1.0000</r>
       <r>   6.7439  1.0000</r>
       <r>   7.3815  1.0000</r>
       <r>  11.5335  0.0000</r>
       <r>  12.2293  0.0000</r>
       <r>  12.5178  0.0000</r>
       <r>  13.0182  0.0000</r>
       <r>  14.3645  0.0000</r>
       <r>  14.8514  0.0000</r>
       <r>  17.1060  0.0000</r>
       <r>  17.8392  0.0000</r>
       <r>  18.0901  0.0000</r>
       <r>  19.9053  0.0000</r>
      </set>
      <set comment="kpoint 59">
       <r>  -0.5769  1.0000</r>
       <r>   3.0865  1.0000</r>
       <r>   3.0865  1.0000</r>
       <r>   5.8356  1.0000</r>
       <r>   6.7634  1.0000</r>
       <r>   9.4524  0.0000</r>
       <r>   9.4524  0.0000</r>
       <r>  11.9135  0.0000</r>
       <r>  12.9294  0.0000</r>
       <r>  14.3942  0.0000</r>
       <r>  14.3942  0.0000</r>
       <r>  15.6356  0.0000</r>
       <r>  15.6356  0.0000</r>
       <r>  17.3418  0.0000</r>
       <r>  18.5767  0.0000</r>
       <r>  19.1790  0.0000</r>
      </set>
      <set comment="kpoint 60">
       <r>  -0.0623  1.0000</r>
       <r>   2.1412  1.0000</r>
       <r>   3.5839  1.0000</r>
       <r>   5.6406  1.0000</r>
       <r>   6.5311  1.0000</r>
       <r>   8.5504  1.0000</r>
       <r>   9.9410  0.0000</r>
       <r>  12.0302  0.0000</r>
       <r>  12.3876  0.0000</r>
       <r>  14.1985  0.0000</r>
       <r>  15.4603  0.0000</r>
       <r>  15.5763  0.0000</r>
       <r>  16.7249  0.0000</r>
       <r>  17.0906  0.0000</r>
       <r>  17.7525  0.0000</r>
       <r>  20.3780  0.0000</r>
      </set>
      <set comment="kpoint 61">
       <r>   0.5637  1.0000</r>
       <r>   1.2990  1.0000</r>
       <r>   4.1867  1.0000</r>
       <r>   4.8874  1.0000</r>
       <r>   7.0627  1.0000</r>
       <r>   7.7507  1.0000</r>
       <r>  10.5338  0.0000</r>
       <r>  11.2307  0.0000</r>
       <r>  12.9524  0.0000</r>
       <r>  13.5869  0.0000</r>
       <r>  15.8635  0.0000</r>
       <r>  16.2936  0.0000</r>
       <r>  16.4550  0.0000</r>
       <r>  16.9916  0.0000</r>
       <r>  18.4525  0.0000</r>
       <r>  20.3377  0.0000</r>
      </set>
      <set comment="kpoint 62">
       <r>   0.4501  1.0000</r>
       <r>   2.6437  1.0000</r>
       <r>   2.6437  1.0000</r>
       <r>   4.7800  1.0000</r>
       <r>   6.9556  1.0000</r>
       <r>   9.0367  1.0000</r>
       <r>   9.0367  1.0000</r>
       <r>  11.1285  0.0000</r>
       <r>  12.8743  0.0000</r>
       <r>  14.8532  0.0000</r>
       <r>  14.8532  0.0000</r>
       <r>  16.9239  0.0000</r>
       <r>  17.0718  0.0000</r>
       <r>  17.0718  0.0000</r>
       <r>  18.2226  0.0000</r>
       <r>  20.1903  0.0000</r>
      </set>
      <set comment="kpoint 63">
       <r>   1.0734  1.0000</r>
       <r>   1.8056  1.0000</r>
       <r>   3.2542  1.0000</r>
       <r>   3.9691  1.0000</r>
       <r>   7.5378  1.0000</r>
       <r>   8.2340  1.0000</r>
       <r>   9.6294  0.0000</r>
       <r>  10.3273  0.0000</r>
       <r>  13.4535  0.0000</r>
       <r>  14.1195  0.0000</r>
       <r>  15.4753  0.0000</r>
       <r>  16.1613  0.0000</r>
       <r>  17.5688  0.0000</r>
       <r>  18.0940  0.0000</r>
       <r>  18.8714  0.0000</r>
       <r>  20.6756  0.0000</r>
      </set>
      <set comment="kpoint 64">
       <r>   1.6934  1.0000</r>
       <r>   2.4214  1.0000</r>
       <r>   2.4214  1.0000</r>
       <r>   3.1439  1.0000</r>
       <r>   8.1279  1.0000</r>
       <r>   8.8262  1.0000</r>
       <r>   8.8262  1.0000</r>
       <r>   9.5247  0.0000</r>
       <r>  14.0413  0.0000</r>
       <r>  14.7176  0.0000</r>
       <r>  14.7176  0.0000</r>
       <r>  15.3986  0.0000</r>
       <r>  19.2918  0.0000</r>
       <r>  19.2918  0.0000</r>
       <r>  19.3014  0.0000</r>
       <r>  20.5772  0.0000</r>
      </set>
      <set comment="kpoint 65">
       <r>  -1.0937  1.0000</r>
       <r>   4.0185  1.0000</r>
       <r>   4.0185  1.0000</r>
       <r>   4.0185  1.0000</r>
       <r>   8.9793  1.0000</r>
       <r>   8.9793  1.0000</r>
       <r>   8.9793  1.0000</r>
       <r>  12.7709  0.0000</r>
       <r>  12.7709  0.0000</r>
       <r>  12.7709  0.0000</r>
       <r>  13.8404  0.0000</r>
       <r>  16.8993  0.0000</r>
       <r>  16.8993  0.0000</r>
       <r>  16.8993  0.0000</r>
       <r>  18.6186  0.0000</r>
       <r>  18.6186  0.0000</r>
      </set>
      <set comment="kpoint 66">
       <r>  -0.6916  1.0000</r>
       <r>   2.9754  1.0000</r>
       <r>   4.3995  1.0000</r>
       <r>   4.3995  1.0000</r>
       <r>   7.9833  1.0000</r>
       <r>   7.9833  1.0000</r>
       <r>   9.3667  0.0083</r>
       <r>  12.8473  0.0000</r>
       <r>  13.1274  0.0000</r>
       <r>  13.1274  0.0000</r>
       <r>  14.4771  0.0000</r>
       <r>  16.5461  0.0000</r>
       <r>  16.5461  0.0000</r>
       <r>  17.2369  0.0000</r>
       <r>  19.0094  0.0000</r>
       <r>  19.7396  0.0000</r>
      </set>
      <set comment="kpoint 67">
       <r>  -0.1765  1.0000</r>
       <r>   2.0291  1.0000</r>
       <r>   4.8807  1.0000</r>
       <r>   4.8807  1.0000</r>
       <r>   7.0866  1.0000</r>
       <r>   7.0866  1.0000</r>
       <r>   9.8563  0.0000</r>
       <r>  11.9479  0.0000</r>
       <r>  13.5565  0.0000</r>
       <r>  13.5565  0.0000</r>
       <r>  15.8334  0.0000</r>
       <r>  15.8334  0.0000</r>
       <r>  16.2697  0.0000</r>
       <r>  17.6713  0.0000</r>
       <r>  19.5083  0.0000</r>
       <r>  19.5545  0.0000</r>
      </set>
      <set comment="kpoint 68">
       <r>   0.4501  1.0000</r>
       <r>   1.1862  1.0000</r>
       <r>   5.4197  1.0000</r>
       <r>   5.4197  1.0000</r>
       <r>   6.3386  1.0000</r>
       <r>   6.3386  1.0000</r>
       <r>  10.4502  0.0000</r>
       <r>  11.1479  0.0000</r>
       <r>  13.9686  0.0000</r>
       <r>  13.9686  0.0000</r>
       <r>  15.2536  0.0000</r>
       <r>  15.2536  0.0000</r>
       <r>  18.1125  0.0000</r>
       <r>  18.2027  0.0000</r>
       <r>  18.8308  0.0000</r>
       <r>  19.8686  0.0000</r>
      </set>
      <set comment="kpoint 69">
       <r>  -0.2907  1.0000</r>
       <r>   3.3626  1.0000</r>
       <r>   3.3626  1.0000</r>
       <r>   4.7715  1.0000</r>
       <r>   6.9852  1.0000</r>
       <r>   8.3639  1.0000</r>
       <r>   8.3639  1.0000</r>
       <r>  11.8508  0.0000</r>
       <r>  13.5110  0.0000</r>
       <r>  14.8184  0.0000</r>
       <r>  14.8184  0.0000</r>
       <r>  16.9178  0.0000</r>
       <r>  16.9178  0.0000</r>
       <r>  17.5831  0.0000</r>
       <r>  19.4509  0.0000</r>
       <r>  19.9462  0.0000</r>
      </set>
      <set comment="kpoint 70">
       <r>   0.2227  1.0000</r>
       <r>   2.4205  1.0000</r>
       <r>   3.8567  1.0000</r>
       <r>   5.2036  1.0000</r>
       <r>   6.1288  1.0000</r>
       <r>   7.4571  1.0000</r>
       <r>   8.8517  1.0000</r>
       <r>  10.9482  0.0000</r>
       <r>  13.9769  0.0000</r>
       <r>  15.1417  0.0000</r>
       <r>  16.3159  0.0000</r>
       <r>  16.5285  0.0000</r>
       <r>  17.3469  0.0000</r>
       <r>  17.4565  0.0000</r>
       <r>  19.1736  0.0000</r>
       <r>  20.5633  0.0000</r>
      </set>
      <set comment="kpoint 71">
       <r>   0.8472  1.0000</r>
       <r>   1.5807  1.0000</r>
       <r>   4.4507  1.0000</r>
       <r>   5.1011  1.0000</r>
       <r>   6.0149  1.0000</r>
       <r>   6.6590  1.0000</r>
       <r>   9.4461  0.0000</r>
       <r>  10.1456  0.0000</r>
       <r>  14.5130  0.0000</r>
       <r>  15.0367  0.0000</r>
       <r>  16.2437  0.0000</r>
       <r>  16.7377  0.0000</r>
       <r>  17.7150  0.0000</r>
       <r>  18.4334  0.0000</r>
       <r>  18.6784  0.0000</r>
       <r>  20.4658  0.0000</r>
      </set>
      <set comment="kpoint 72">
       <r>   0.7339  1.0000</r>
       <r>   2.9212  1.0000</r>
       <r>   2.9212  1.0000</r>
       <r>   4.9944  1.0000</r>
       <r>   5.9060  1.0000</r>
       <r>   7.9424  1.0000</r>
       <r>   7.9424  1.0000</r>
       <r>  10.0428  0.0000</r>
       <r>  14.4638  0.0000</r>
       <r>  16.3009  0.0000</r>
       <r>  16.3009  0.0000</r>
       <r>  17.4072  0.0000</r>
       <r>  17.4072  0.0000</r>
       <r>  18.4174  0.0000</r>
       <r>  18.4637  0.0000</r>
       <r>  20.4448  0.0000</r>
      </set>
      <set comment="kpoint 73">
       <r>   1.3557  1.0000</r>
       <r>   2.0858  1.0000</r>
       <r>   3.5282  1.0000</r>
       <r>   4.2340  1.0000</r>
       <r>   6.4431  1.0000</r>
       <r>   7.1365  1.0000</r>
       <r>   8.5369  1.0000</r>
       <r>   9.2379  1.0000</r>
       <r>  15.0310  0.0000</r>
       <r>  15.6670  0.0000</r>
       <r>  16.9961  0.0000</r>
       <r>  17.6793  0.0000</r>
       <r>  17.8373  0.0000</r>
       <r>  18.3450  0.0000</r>
       <r>  19.1115  0.0000</r>
       <r>  20.8887  0.0000</r>
      </set>
      <set comment="kpoint 74">
       <r>   1.9739  1.0000</r>
       <r>   2.6995  1.0000</r>
       <r>   2.6995  1.0000</r>
       <r>   3.4183  1.0000</r>
       <r>   7.0290  1.0000</r>
       <r>   7.7296  1.0000</r>
       <r>   7.7296  1.0000</r>
       <r>   8.4312  1.0000</r>
       <r>  15.6145  0.0000</r>
       <r>  16.2744  0.0000</r>
       <r>  16.2744  0.0000</r>
       <r>  16.9444  0.0000</r>
       <r>  19.5328  0.0000</r>
       <r>  19.5328  0.0000</r>
       <r>  19.5411  0.0000</r>
       <r>  20.8110  0.0000</r>
      </set>
      <set comment="kpoint 75">
       <r>   0.1088  1.0000</r>
       <r>   3.7464  1.0000</r>
       <r>   3.7464  1.0000</r>
       <r>   3.7464  1.0000</r>
       <r>   7.3561  1.0000</r>
       <r>   7.3561  1.0000</r>
       <r>   7.3561  1.0000</r>
       <r>  10.8507  0.0000</r>
       <r>  15.2151  0.0000</r>
       <r>  15.2151  0.0000</r>
       <r>  15.2151  0.0000</r>
       <r>  17.9212  0.0000</r>
       <r>  17.9212  0.0000</r>
       <r>  17.9212  0.0000</r>
       <r>  19.8251  0.0000</r>
       <r>  19.8251  0.0000</r>
      </set>
      <set comment="kpoint 76">
       <r>   0.6205  1.0000</r>
       <r>   2.8100  1.0000</r>
       <r>   4.2316  1.0000</r>
       <r>   4.2316  1.0000</r>
       <r>   6.4507  1.0000</r>
       <r>   6.4507  1.0000</r>
       <r>   7.8420  1.0000</r>
       <r>   9.9446  0.0000</r>
       <r>  15.6610  0.0000</r>
       <r>  15.6610  0.0000</r>
       <r>  16.9980  0.0000</r>
       <r>  17.7126  0.0000</r>
       <r>  17.7126  0.0000</r>
       <r>  18.3563  0.0000</r>
       <r>  20.2437  0.0000</r>
       <r>  20.2940  0.0000</r>
      </set>
      <set comment="kpoint 77">
       <r>   1.2429  1.0000</r>
       <r>   1.9737  1.0000</r>
       <r>   4.7768  1.0000</r>
       <r>   4.7768  1.0000</r>
       <r>   5.6944  1.0000</r>
       <r>   5.6944  1.0000</r>
       <r>   8.4372  1.0000</r>
       <r>   9.1389  1.0000</r>
       <r>  16.0948  0.0000</r>
       <r>  16.0948  0.0000</r>
       <r>  17.1994  0.0000</r>
       <r>  17.1994  0.0000</r>
       <r>  18.8215  0.0000</r>
       <r>  18.8887  0.0000</r>
       <r>  19.5181  0.0000</r>
       <r>  20.5332  0.0000</r>
      </set>
      <set comment="kpoint 78">
       <r>   1.1300  1.0000</r>
       <r>   3.3070  1.0000</r>
       <r>   3.3070  1.0000</r>
       <r>   4.6686  1.0000</r>
       <r>   5.5863  1.0000</r>
       <r>   6.9294  1.0000</r>
       <r>   6.9294  1.0000</r>
       <r>   9.0353  1.0000</r>
       <r>  16.1548  0.0000</r>
       <r>  17.3621  0.0000</r>
       <r>  17.3621  0.0000</r>
       <r>  18.2359  0.0000</r>
       <r>  18.2359  0.0000</r>
       <r>  18.8015  0.0000</r>
       <r>  19.9037  0.0000</r>
       <r>  20.7875  0.0000</r>
      </set>
      <set comment="kpoint 79">
       <r>   1.7495  1.0000</r>
       <r>   2.4766  1.0000</r>
       <r>   3.9050  1.0000</r>
       <r>   4.5623  1.0000</r>
       <r>   5.4747  1.0000</r>
       <r>   6.1258  1.0000</r>
       <r>   7.5239  1.0000</r>
       <r>   8.2271  1.0000</r>
       <r>  16.6983  0.0000</r>
       <r>  17.2395  0.0000</r>
       <r>  18.2574  0.0000</r>
       <r>  18.5255  0.0000</r>
       <r>  18.6999  0.0000</r>
       <r>  19.2175  0.0000</r>
       <r>  19.4325  0.0000</r>
       <r>  21.1194  0.0000</r>
      </set>
      <set comment="kpoint 80">
       <r>   2.3651  1.0000</r>
       <r>   3.0863  1.0000</r>
       <r>   3.0863  1.0000</r>
       <r>   3.7957  1.0000</r>
       <r>   6.0170  1.0000</r>
       <r>   6.7141  1.0000</r>
       <r>   6.7141  1.0000</r>
       <r>   7.4172  1.0000</r>
       <r>  17.2799  0.0000</r>
       <r>  17.9063  0.0000</r>
       <r>  17.9063  0.0000</r>
       <r>  18.5574  0.0000</r>
       <r>  19.8651  0.0000</r>
       <r>  19.8651  0.0000</r>
       <r>  19.8758  0.0000</r>
       <r>  21.1273  0.0000</r>
      </set>
      <set comment="kpoint 81">
       <r>   1.6372  1.0000</r>
       <r>   3.7951  1.0000</r>
       <r>   3.7951  1.0000</r>
       <r>   3.7951  1.0000</r>
       <r>   6.0189  1.0000</r>
       <r>   6.0189  1.0000</r>
       <r>   6.0189  1.0000</r>
       <r>   8.1226  1.0000</r>
       <r>  17.9146  0.0000</r>
       <r>  17.9146  0.0000</r>
       <r>  17.9146  0.0000</r>
       <r>  19.2359  0.0000</r>
       <r>  19.2359  0.0000</r>
       <r>  19.2359  0.0000</r>
       <r>  21.1063  0.0000</r>
       <r>  21.1067  0.0000</r>
      </set>
      <set comment="kpoint 82">
       <r>   2.2534  1.0000</r>
       <r>   2.9754  1.0000</r>
       <r>   4.3459  1.0000</r>
       <r>   4.3459  1.0000</r>
       <r>   5.2559  1.0000</r>
       <r>   5.2559  1.0000</r>
       <r>   6.6081  1.0000</r>
       <r>   7.3119  1.0000</r>
       <r>  18.3783  0.0000</r>
       <r>  18.3783  0.0000</r>
       <r>  19.1918  0.0000</r>
       <r>  19.1918  0.0000</r>
       <r>  19.6903  0.0000</r>
       <r>  19.7666  0.0000</r>
       <r>  20.3919  0.0000</r>
       <r>  21.2112  0.0000</r>
      </set>
      <set comment="kpoint 83">
       <r>   2.8646  1.0000</r>
       <r>   3.5759  1.0000</r>
       <r>   3.5759  1.0000</r>
       <r>   4.2381  1.0000</r>
       <r>   5.1452  1.0000</r>
       <r>   5.8012  1.0000</r>
       <r>   5.8012  1.0000</r>
       <r>   6.5003  1.0000</r>
       <r>  18.9888  0.0000</r>
       <r>  19.5196  0.0000</r>
       <r>  19.5196  0.0000</r>
       <r>  20.1387  0.0000</r>
       <r>  20.2790  0.0000</r>
       <r>  20.2790  0.0000</r>
       <r>  20.3030  0.0000</r>
       <r>  21.4643  0.0000</r>
      </set>
      <set comment="kpoint 84">
       <r>   3.4659  1.0000</r>
       <r>   4.1299  1.0000</r>
       <r>   4.1299  1.0000</r>
       <r>   4.1299  1.0000</r>
       <r>   5.0346  1.0000</r>
       <r>   5.0346  1.0000</r>
       <r>   5.0346  1.0000</r>
       <r>   5.6924  1.0000</r>
       <r>  20.6322  0.0000</r>
       <r>  20.6322  0.0000</r>
       <r>  20.6322  0.0000</r>
       <r>  20.8136  0.0000</r>
       <r>  20.8136  0.0000</r>
       <r>  20.8136  0.0000</r>
       <r>  21.3511  0.0000</r>
       <r>  21.3511  0.0000</r>
      </set>
     </set>
    </set>
   </array>
  </eigenvalues>
 </calculation>
 <structure name="finalpos" >
  <crystal>
   <varray name="basis" >
    <v>       3.87581411      0.00000000      0.00000000</v>
    <v>       0.00000000      3.87581411      0.00000000</v>
    <v>       0.00000000      0.00000000      3.87581411</v>
   </varray>
   <i name="volume">     58.22222791</i>
   <varray name="rec_basis" >
    <v>       0.25801031      0.00000000      0.00000000</v>
    <v>       0.00000000      0.25801031      0.00000000</v>
    <v>       0.00000000      0.00000000      0.25801031</v>
   </varray>
  </crystal>
  <varray name="positions" >
   <v>       0.50000000      0.50000000      0.00000000</v>
   <v>       0.50000000      0.00000000      0.50000000</v>
   <v>       0.00000000      0.50000000      0.50000000</v>
   <v>       0.00000000      0.00000000      0.00000000</v>
  </varray>
 </structure>
</modeling>
