<?xml version="1.0" encoding="ISO-8859-1"?>
<modeling>
 <generator>
  <i name="program" type="string">vasp</i>
  <i name="version" type="string">4.6.28 </i>
  <i name="subversion" type="string">25Jul05 complex  parallel</i>
  <i name="platform" type="string">LinuxIFC</i>
  <i name="date" type="string">2016 10 19</i>
  <i name="time" type="string">17:43:49</i>
 </generator>
 <incar>
  <i type="string" name="PREC">accurate</i>
  <i type="int" name="IALGO">    38</i>
  <i name="EDIFF">      0.00000001</i>
  <i type="int" name="IBRION">    -1</i>
  <i name="ENCUT">    500.00000000</i>
  <i type="logical" name="LREAL"> F  </i>
  <i type="int" name="ISMEAR">     0</i>
  <i name="SIGMA">      0.01000000</i>
  <i type="logical" name="LWAVE"> F  </i>
  <i type="logical" name="LCHARG"> F  </i>
 </incar>
 <kpoints>
  <generation param="Auto">
   <i name="subdivisionlength">     50.00000000</i>
   <v type="int" name="divisions">      13      13      13</v>
   <v name="usershift">      0.00000000      0.00000000      0.00000000</v>
   <v name="genvec1">      0.07692308      0.00000000      0.00000000</v>
   <v name="genvec2">      0.00000000      0.07692308      0.00000000</v>
   <v name="genvec3">      0.00000000      0.00000000      0.07692308</v>
   <v name="shift">      0.00000000      0.00000000      0.00000000</v>
  </generation>
  <varray name="kpointlist" >
   <v>       0.00000000      0.00000000      0.00000000</v>
   <v>       0.07692308      0.00000000      0.00000000</v>
   <v>       0.15384615      0.00000000      0.00000000</v>
   <v>       0.23076923      0.00000000      0.00000000</v>
   <v>       0.30769231      0.00000000      0.00000000</v>
   <v>       0.38461538      0.00000000      0.00000000</v>
   <v>       0.46153846      0.00000000      0.00000000</v>
   <v>       0.07692308      0.07692308      0.00000000</v>
   <v>       0.15384615      0.07692308      0.00000000</v>
   <v>       0.23076923      0.07692308      0.00000000</v>
   <v>       0.30769231      0.07692308      0.00000000</v>
   <v>       0.38461538      0.07692308      0.00000000</v>
   <v>       0.46153846      0.07692308      0.00000000</v>
   <v>       0.15384615      0.15384615      0.00000000</v>
   <v>       0.23076923      0.15384615      0.00000000</v>
   <v>       0.30769231      0.15384615      0.00000000</v>
   <v>       0.38461538      0.15384615      0.00000000</v>
   <v>       0.46153846      0.15384615      0.00000000</v>
   <v>       0.23076923      0.23076923      0.00000000</v>
   <v>       0.30769231      0.23076923      0.00000000</v>
   <v>       0.38461538      0.23076923      0.00000000</v>
   <v>       0.46153846      0.23076923      0.00000000</v>
   <v>       0.30769231      0.30769231      0.00000000</v>
   <v>       0.38461538      0.30769231      0.00000000</v>
   <v>       0.46153846      0.30769231      0.00000000</v>
   <v>       0.38461538      0.38461538      0.00000000</v>
   <v>       0.46153846      0.38461538      0.00000000</v>
   <v>       0.46153846      0.46153846      0.00000000</v>
   <v>       0.07692308      0.07692308      0.07692308</v>
   <v>       0.15384615      0.07692308      0.07692308</v>
   <v>       0.23076923      0.07692308      0.07692308</v>
   <v>       0.30769231      0.07692308      0.07692308</v>
   <v>       0.38461538      0.07692308      0.07692308</v>
   <v>       0.46153846      0.07692308      0.07692308</v>
   <v>       0.15384615      0.15384615      0.07692308</v>
   <v>       0.23076923      0.15384615      0.07692308</v>
   <v>       0.30769231      0.15384615      0.07692308</v>
   <v>       0.38461538      0.15384615      0.07692308</v>
   <v>       0.46153846      0.15384615      0.07692308</v>
   <v>       0.23076923      0.23076923      0.07692308</v>
   <v>       0.30769231      0.23076923      0.07692308</v>
   <v>       0.38461538      0.23076923      0.07692308</v>
   <v>       0.46153846      0.23076923      0.07692308</v>
   <v>       0.30769231      0.30769231      0.07692308</v>
   <v>       0.38461538      0.30769231      0.07692308</v>
   <v>       0.46153846      0.30769231      0.07692308</v>
   <v>       0.38461538      0.38461538      0.07692308</v>
   <v>       0.46153846      0.38461538      0.07692308</v>
   <v>       0.46153846      0.46153846      0.07692308</v>
   <v>       0.15384615      0.15384615      0.15384615</v>
   <v>       0.23076923      0.15384615      0.15384615</v>
   <v>       0.30769231      0.15384615      0.15384615</v>
   <v>       0.38461538      0.15384615      0.15384615</v>
   <v>       0.46153846      0.15384615      0.15384615</v>
   <v>       0.23076923      0.23076923      0.15384615</v>
   <v>       0.30769231      0.23076923      0.15384615</v>
   <v>       0.38461538      0.23076923      0.15384615</v>
   <v>       0.46153846      0.23076923      0.15384615</v>
   <v>       0.30769231      0.30769231      0.15384615</v>
   <v>       0.38461538      0.30769231      0.15384615</v>
   <v>       0.46153846      0.30769231      0.15384615</v>
   <v>       0.38461538      0.38461538      0.15384615</v>
   <v>       0.46153846      0.38461538      0.15384615</v>
   <v>       0.46153846      0.46153846      0.15384615</v>
   <v>       0.23076923      0.23076923      0.23076923</v>
   <v>       0.30769231      0.23076923      0.23076923</v>
   <v>       0.38461538      0.23076923      0.23076923</v>
   <v>       0.46153846      0.23076923      0.23076923</v>
   <v>       0.30769231      0.30769231      0.23076923</v>
   <v>       0.38461538      0.30769231      0.23076923</v>
   <v>       0.46153846      0.30769231      0.23076923</v>
   <v>       0.38461538      0.38461538      0.23076923</v>
   <v>       0.46153846      0.38461538      0.23076923</v>
   <v>       0.46153846      0.46153846      0.23076923</v>
   <v>       0.30769231      0.30769231      0.30769231</v>
   <v>       0.38461538      0.30769231      0.30769231</v>
   <v>       0.46153846      0.30769231      0.30769231</v>
   <v>       0.38461538      0.38461538      0.30769231</v>
   <v>       0.46153846      0.38461538      0.30769231</v>
   <v>       0.46153846      0.46153846      0.30769231</v>
   <v>       0.38461538      0.38461538      0.38461538</v>
   <v>       0.46153846      0.38461538      0.38461538</v>
   <v>       0.46153846      0.46153846      0.38461538</v>
   <v>       0.46153846      0.46153846      0.46153846</v>
  </varray>
  <varray name="weights" >
   <v>       0.00045517</v>
   <v>       0.00273100</v>
   <v>       0.00273100</v>
   <v>       0.00273100</v>
   <v>       0.00273100</v>
   <v>       0.00273100</v>
   <v>       0.00273100</v>
   <v>       0.00546199</v>
   <v>       0.01092399</v>
   <v>       0.01092399</v>
   <v>       0.01092399</v>
   <v>       0.01092399</v>
   <v>       0.01092399</v>
   <v>       0.00546199</v>
   <v>       0.01092399</v>
   <v>       0.01092399</v>
   <v>       0.01092399</v>
   <v>       0.01092399</v>
   <v>       0.00546199</v>
   <v>       0.01092399</v>
   <v>       0.01092399</v>
   <v>       0.01092399</v>
   <v>       0.00546199</v>
   <v>       0.01092399</v>
   <v>       0.01092399</v>
   <v>       0.00546199</v>
   <v>       0.01092399</v>
   <v>       0.00546199</v>
   <v>       0.00364133</v>
   <v>       0.01092399</v>
   <v>       0.01092399</v>
   <v>       0.01092399</v>
   <v>       0.01092399</v>
   <v>       0.01092399</v>
   <v>       0.01092399</v>
   <v>       0.02184797</v>
   <v>       0.02184797</v>
   <v>       0.02184797</v>
   <v>       0.02184797</v>
   <v>       0.01092399</v>
   <v>       0.02184797</v>
   <v>       0.02184797</v>
   <v>       0.02184797</v>
   <v>       0.01092399</v>
   <v>       0.02184797</v>
   <v>       0.02184797</v>
   <v>       0.01092399</v>
   <v>       0.02184797</v>
   <v>       0.01092399</v>
   <v>       0.00364133</v>
   <v>       0.01092399</v>
   <v>       0.01092399</v>
   <v>       0.01092399</v>
   <v>       0.01092399</v>
   <v>       0.01092399</v>
   <v>       0.02184797</v>
   <v>       0.02184797</v>
   <v>       0.02184797</v>
   <v>       0.01092399</v>
   <v>       0.02184797</v>
   <v>       0.02184797</v>
   <v>       0.01092399</v>
   <v>       0.02184797</v>
   <v>       0.01092399</v>
   <v>       0.00364133</v>
   <v>       0.01092399</v>
   <v>       0.01092399</v>
   <v>       0.01092399</v>
   <v>       0.01092399</v>
   <v>       0.02184797</v>
   <v>       0.02184797</v>
   <v>       0.01092399</v>
   <v>       0.02184797</v>
   <v>       0.01092399</v>
   <v>       0.00364133</v>
   <v>       0.01092399</v>
   <v>       0.01092399</v>
   <v>       0.01092399</v>
   <v>       0.02184797</v>
   <v>       0.01092399</v>
   <v>       0.00364133</v>
   <v>       0.01092399</v>
   <v>       0.01092399</v>
   <v>       0.00364133</v>
  </varray>
 </kpoints>
 <parameters>
  <separator name="general" >
   <i type="string" name="SYSTEM">unknown system</i>
   <i type="logical" name="LCOMPAT"> F  </i>
  </separator>
  <separator name="electronic" >
   <i type="string" name="PREC">accura</i>
   <i name="ENMAX">    500.00000000</i>
   <i name="ENAUG">    291.05200000</i>
   <i name="EDIFF">      0.00000001</i>
   <i type="int" name="IALGO">    38</i>
   <i type="int" name="IWAVPR">    10</i>
   <i type="int" name="NBANDS">    10</i>
   <i name="NELECT">     12.00000000</i>
   <separator name="electronic smearing" >
    <i type="int" name="ISMEAR">     0</i>
    <i name="SIGMA">      0.01000000</i>
   </separator>
   <separator name="electronic projectors" >
    <i type="logical" name="LREAL"> F  </i>
    <v name="ROPT">      0.00000000</v>
    <i type="int" name="LMAXPAW">  -100</i>
    <i type="int" name="LMAXMIX">     2</i>
   </separator>
   <separator name="electronic startup" >
    <i type="int" name="ISTART">     0</i>
    <i type="int" name="ICHARG">     2</i>
    <i type="int" name="INIWAV">     1</i>
   </separator>
   <separator name="electronic spin" >
    <i type="int" name="ISPIN">     1</i>
    <i type="logical" name="LNONCOLLINEAR"> F  </i>
    <v name="MAGMOM">      1.00000000      1.00000000      1.00000000      1.00000000</v>
    <i name="NUPDOWN">     -1.00000000</i>
    <i type="logical" name="LSORBIT"> F  </i>
    <v name="SAXIS">      0.00000000      0.00000000      1.00000000</v>
    <i type="logical" name="LSPIRAL"> F  </i>
    <v name="QSPIRAL">      0.00000000      0.00000000      0.00000000</v>
    <i type="logical" name="LZEROZ"> F  </i>
   </separator>
   <separator name="electronic exchange-correlation" >
    <i type="string" name="GGA">--</i>
    <i type="int" name="VOSKOWN">     0</i>
    <i type="logical" name="LASPH"> F  </i>
    <i type="logical" name="LMETAGGA"> F  </i>
    <i type="string" name="GGA2">--</i>
   </separator>
   <separator name="electronic convergence" >
    <i type="int" name="NELM">    60</i>
    <i type="int" name="NELMDL">     0</i>
    <i type="int" name="NELMIN">     2</i>
    <i name="ENINI">    500.00000000</i>
    <separator name="electronic convergence detail" >
     <i type="logical" name="LDIAG"> T  </i>
     <i name="WEIMIN">      0.00000000</i>
     <i name="EBREAK">      0.00000000</i>
     <i name="DEPER">      0.30000000</i>
     <i type="int" name="NRMM">     4</i>
     <i name="TIME">      0.10000000</i>
    </separator>
   </separator>
   <separator name="electronic mixer" >
    <i name="AMIX">      0.40000000</i>
    <i name="BMIX">      1.00000000</i>
    <i name="AMIN">      0.10000000</i>
    <i name="AMIX_MAG">      1.60000000</i>
    <i name="BMIX_MAG">      1.00000000</i>
    <separator name="electronic mixer details" >
     <i type="int" name="IMIX">     4</i>
     <i type="int" name="MAXMIX">   -45</i>
     <i name="WC">    100.00000000</i>
     <i type="int" name="INIMIX">     1</i>
     <i type="int" name="MIXPRE">     1</i>
     <i type="int" name="MREMOVE">     5</i>
    </separator>
   </separator>
   <separator name="electronic dipolcorrection" >
    <i type="int" name="IDIPOL">     0</i>
    <i type="logical" name="LDIPOL"> F  </i>
    <v name="DIPOL">   -100.00000000</v>
    <i name="EFIELD">      0.00000000</i>
   </separator>
  </separator>
  <separator name="grids" >
   <i type="int" name="NGX">    30</i>
   <i type="int" name="NGY">    30</i>
   <i type="int" name="NGZ">    30</i>
   <i type="int" name="NGXF">    60</i>
   <i type="int" name="NGYF">    60</i>
   <i type="int" name="NGZF">    60</i>
   <i type="logical" name="ADDGRID"> F  </i>
  </separator>
  <separator name="ionic" >
   <i type="int" name="NSW">     0</i>
   <i type="int" name="IBRION">    -1</i>
   <i type="int" name="ISIF">     2</i>
   <i name="PSTRESS">      0.00000000</i>
   <i name="EDIFFG">      0.00000010</i>
   <i type="int" name="NFREE">     0</i>
   <i name="POTIM">      0.50000000</i>
   <i name="SMASS">     -3.00000000</i>
  </separator>
  <separator name="ionic md" >
   <i name="TEBEG">      0.00010000</i>
   <i name="TEEND">      0.00010000</i>
   <i type="int" name="NBLOCK">     1</i>
   <i type="int" name="KBLOCK">     1</i>
   <i type="int" name="NPACO">   256</i>
   <i name="APACO">     16.00000000</i>
  </separator>
  <separator name="symmetry" >
   <i type="int" name="ISYM">     2</i>
   <i name="SYMPREC">      0.00001000</i>
  </separator>
  <separator name="dos" >
   <i type="logical" name="LORBIT"> F  </i>
   <v name="RWIGS">     -1.00000000</v>
   <i type="int" name="NEDOS">   301</i>
   <i name="EMIN">     10.00000000</i>
   <i name="EMAX">    -10.00000000</i>
  </separator>
  <separator name="writing" >
   <i type="int" name="NWRITE">     2</i>
   <i type="logical" name="LWAVE"> F  </i>
   <i type="logical" name="LCHARG"> F  </i>
   <i type="logical" name="LPARD"> F  </i>
   <i type="logical" name="LVTOT"> F  </i>
   <i type="logical" name="LELF"> F  </i>
   <i type="logical" name="LOPTICS"> F  </i>
   <i name="STM">      0.00000000</i>
  </separator>
  <separator name="performance" >
   <i type="int" name="NPAR">     8</i>
   <i type="int" name="NSIM">     4</i>
   <i type="int" name="NBLK">   160</i>
   <i type="logical" name="LPLANE"> T  </i>
   <i type="logical" name="LCRITICAL_MEM"> F  </i>
   <i type="logical" name="LSCALAPACK"> F  </i>
   <i type="logical" name="LSCALU"> F  </i>
   <i type="logical" name="LASYNC"> F  </i>
  </separator>
  <separator name="miscellaneous" >
   <i type="int" name="IDIOT">     3</i>
   <i type="logical" name="LMUSIC"> F  </i>
   <v name="POMASS">     26.98200000</v>
   <i type="logical" name="LCORR"> T  </i>
  </separator>
  <i type="logical" name="LREAL_COMPAT"> F  </i>
  <i type="logical" name="GGA_COMPAT"> T  </i>
  <i type="logical" name="LBERRY"> F  </i>
  <i type="int" name="ICORELEVEL">     0</i>
  <i type="logical" name="LDAU"> F  </i>
  <i type="int" name="I_CONSTRAINED_M">     0</i>
 </parameters>
 <atominfo>
  <atoms>       4</atoms>
  <types>       1</types>
  <array name="atoms" >
   <dimension dim="1">ion</dimension>
   <field type="string">element</field>
   <field type="int">atomtype</field>
   <set>
    <rc><c>Al</c><c>   1</c></rc>
    <rc><c>Al</c><c>   1</c></rc>
    <rc><c>Al</c><c>   1</c></rc>
    <rc><c>Al</c><c>   1</c></rc>
   </set>
  </array>
  <array name="atomtypes" >
   <dimension dim="1">type</dimension>
   <field type="int">atomspertype</field>
   <field type="string">element</field>
   <field>mass</field>
   <field>valence</field>
   <field type="string">pseudopotential</field>
   <set>
    <rc><c>   4</c><c>Al</c><c>     26.98200000</c><c>      3.00000000</c><c> PAW_PBE Al 04Jan2001                   </c></rc>
   </set>
  </array>
 </atominfo>
 <structure name="initialpos" >
  <crystal>
   <varray name="basis" >
    <v>       3.95656024      0.00000000      0.00000000</v>
    <v>       0.00000000      3.95656024      0.00000000</v>
    <v>       0.00000000      0.00000000      3.95656024</v>
   </varray>
   <i name="volume">     61.93745381</i>
   <varray name="rec_basis" >
    <v>       0.25274479      0.00000000      0.00000000</v>
    <v>       0.00000000      0.25274479      0.00000000</v>
    <v>       0.00000000      0.00000000      0.25274479</v>
   </varray>
  </crystal>
  <varray name="positions" >
   <v>       0.50000000      0.50000000      0.00000000</v>
   <v>       0.50000000      0.00000000      0.50000000</v>
   <v>       0.00000000      0.50000000      0.50000000</v>
   <v>       0.00000000      0.00000000      0.00000000</v>
  </varray>
 </structure>
 <calculation>
  <scstep>
   <time name="dav">    0.75    0.78</time>
   <time name="total">    0.77    0.80</time>
   <energy>
    <i name="alphaZ">     -0.86766550</i>
    <i name="ewald">   -300.35652811</i>
    <i name="hartreedc">     -0.32679810</i>
    <i name="XCdc">   -104.49609156</i>
    <i name="pawpsdc">    142.21701965</i>
    <i name="pawaedc">    -14.39593217</i>
    <i name="eentropy">     -0.00005151</i>
    <i name="bandstr">     70.79113184</i>
    <i name="atom">    214.15364153</i>
    <i name="e_fr_energy">      6.71872607</i>
    <i name="e_wo_entrp">      6.71877758</i>
    <i name="e_0_energy">      6.71875183</i>
   </energy>
  </scstep>
  <scstep>
   <time name="dav">    0.93    0.93</time>
   <time name="total">    0.93    0.93</time>
   <energy>
    <i name="e_fr_energy">    -14.35109975</i>
    <i name="e_wo_entrp">    -14.35086736</i>
    <i name="e_0_energy">    -14.35098356</i>
   </energy>
  </scstep>
  <scstep>
   <time name="dav">    0.94    0.94</time>
   <time name="total">    0.94    0.94</time>
   <energy>
    <i name="e_fr_energy">    -15.01260864</i>
    <i name="e_wo_entrp">    -15.01254382</i>
    <i name="e_0_energy">    -15.01257623</i>
   </energy>
  </scstep>
  <scstep>
   <time name="dav">    0.93    0.93</time>
   <time name="total">    0.93    1.16</time>
   <energy>
    <i name="e_fr_energy">    -15.01665835</i>
    <i name="e_wo_entrp">    -15.01659390</i>
    <i name="e_0_energy">    -15.01662612</i>
   </energy>
  </scstep>
  <scstep>
   <time name="dav">    0.98    0.98</time>
   <time name="total">    1.02    1.02</time>
   <energy>
    <i name="e_fr_energy">    -15.01670715</i>
    <i name="e_wo_entrp">    -15.01664270</i>
    <i name="e_0_energy">    -15.01667492</i>
   </energy>
  </scstep>
  <scstep>
   <time name="dav">    0.87    0.87</time>
   <time name="total">    0.93    0.93</time>
   <energy>
    <i name="e_fr_energy">    -14.96111261</i>
    <i name="e_wo_entrp">    -14.96101390</i>
    <i name="e_0_energy">    -14.96106325</i>
   </energy>
  </scstep>
  <scstep>
   <time name="dav">    0.86    0.86</time>
   <time name="total">    0.92    0.92</time>
   <energy>
    <i name="e_fr_energy">    -14.92083110</i>
    <i name="e_wo_entrp">    -14.92072458</i>
    <i name="e_0_energy">    -14.92077784</i>
   </energy>
  </scstep>
  <scstep>
   <time name="dav">    1.00    1.00</time>
   <time name="total">    1.05    1.05</time>
   <energy>
    <i name="e_fr_energy">    -14.92086372</i>
    <i name="e_wo_entrp">    -14.92075891</i>
    <i name="e_0_energy">    -14.92081132</i>
   </energy>
  </scstep>
  <scstep>
   <time name="dav">    0.96    0.96</time>
   <time name="total">    1.02    1.02</time>
   <energy>
    <i name="e_fr_energy">    -14.92086571</i>
    <i name="e_wo_entrp">    -14.92076097</i>
    <i name="e_0_energy">    -14.92081334</i>
   </energy>
  </scstep>
  <scstep>
   <time name="dav">    0.99    1.00</time>
   <time name="total">    1.05    1.05</time>
   <energy>
    <i name="e_fr_energy">    -14.92086477</i>
    <i name="e_wo_entrp">    -14.92076003</i>
    <i name="e_0_energy">    -14.92081240</i>
   </energy>
  </scstep>
  <scstep>
   <time name="dav">    0.75    0.75</time>
   <time name="total">    0.80    0.81</time>
   <energy>
    <i name="e_fr_energy">    -14.92086464</i>
    <i name="e_wo_entrp">    -14.92075991</i>
    <i name="e_0_energy">    -14.92081227</i>
   </energy>
  </scstep>
  <scstep>
   <time name="dav">    0.68    0.68</time>
   <time name="total">    0.73    0.73</time>
   <energy>
    <i name="e_fr_energy">    -14.92086466</i>
    <i name="e_wo_entrp">    -14.92075993</i>
    <i name="e_0_energy">    -14.92081230</i>
   </energy>
  </scstep>
  <scstep>
   <time name="dav">    0.62    0.62</time>
   <time name="total">    0.64    0.64</time>
   <energy>
    <i name="alphaZ">     -0.86766550</i>
    <i name="ewald">   -300.35652811</i>
    <i name="hartreedc">     -0.46217780</i>
    <i name="XCdc">   -104.00312188</i>
    <i name="pawpsdc">    143.53072684</i>
    <i name="pawaedc">    -15.80504442</i>
    <i name="eentropy">     -0.00010473</i>
    <i name="bandstr">     48.88940941</i>
    <i name="atom">    214.15364153</i>
    <i name="e_fr_energy">    -14.92086466</i>
    <i name="e_wo_entrp">    -14.92075993</i>
    <i name="e_0_energy">    -14.92081230</i>
   </energy>
  </scstep>
  <structure>
   <crystal>
    <varray name="basis" >
     <v>       3.95656024      0.00000000      0.00000000</v>
     <v>       0.00000000      3.95656024      0.00000000</v>
     <v>       0.00000000      0.00000000      3.95656024</v>
    </varray>
    <i name="volume">     61.93745381</i>
    <varray name="rec_basis" >
     <v>       0.25274479      0.00000000      0.00000000</v>
     <v>       0.00000000      0.25274479      0.00000000</v>
     <v>       0.00000000      0.00000000      0.25274479</v>
    </varray>
   </crystal>
   <varray name="positions" >
    <v>       0.50000000      0.50000000      0.00000000</v>
    <v>       0.50000000      0.00000000      0.50000000</v>
    <v>       0.00000000      0.50000000      0.50000000</v>
    <v>       0.00000000      0.00000000      0.00000000</v>
   </varray>
  </structure>
  <varray name="forces" >
   <v>       0.00000000      0.00000000     -0.00000000</v>
   <v>       0.00000000      0.00000000     -0.00000000</v>
   <v>       0.00000000     -0.00000000     -0.00000000</v>
   <v>       0.00000000     -0.00000000      0.00000000</v>
  </varray>
  <varray name="stress" >
   <v>      56.22967538     -0.00000000     -0.00000000</v>
   <v>       0.00000000     56.22967538     -0.00000000</v>
   <v>       0.00000000     -0.00000000     56.22967538</v>
  </varray>
  <energy>
   <i name="e_fr_energy">    -14.92086466</i>
   <i name="e_wo_entrp">    -14.92081230</i>
   <i name="e_0_energy">     -0.00010473</i>
  </energy>
  <eigenvalues>
   <array>
    <dimension dim="1">band</dimension>
    <dimension dim="2">kpoint</dimension>
    <dimension dim="3">spin</dimension>
    <field>eigene</field>
    <field>occ</field>
    <set>
     <set comment="spin 1">
      <set comment="kpoint 1">
       <r>  -2.9018  1.0000</r>
       <r>   5.6014  1.0000</r>
       <r>   5.6014  1.0000</r>
       <r>   5.6014  1.0000</r>
       <r>   7.0601  1.0000</r>
       <r>   7.0601  1.0000</r>
       <r>   7.0601  1.0000</r>
       <r>  13.9504  0.0000</r>
       <r>  13.9504  0.0000</r>
       <r>  13.9504  0.0000</r>
       <r>  14.5800  0.0000</r>
       <r>  14.5800  0.0000</r>
       <r>  14.5800  0.0000</r>
       <r>  14.5800  0.0000</r>
       <r>  14.5800  0.0000</r>
       <r>  14.5800  0.0000</r>
      </set>
      <set comment="kpoint 2">
       <r>  -2.8459  1.0000</r>
       <r>   4.8185  1.0000</r>
       <r>   5.6522  1.0000</r>
       <r>   5.6522  1.0000</r>
       <r>   7.1130  1.0000</r>
       <r>   7.1130  1.0000</r>
       <r>   7.9386  1.0000</r>
       <r>  12.9417  0.0000</r>
       <r>  12.9417  0.0000</r>
       <r>  14.0057  0.0000</r>
       <r>  14.2050  0.0000</r>
       <r>  14.2050  0.0000</r>
       <r>  14.6267  0.0000</r>
       <r>  14.6267  0.0000</r>
       <r>  15.6923  0.0000</r>
       <r>  15.6923  0.0000</r>
      </set>
      <set comment="kpoint 3">
       <r>  -2.6782  1.0000</r>
       <r>   3.6708  1.0000</r>
       <r>   5.8046  1.0000</r>
       <r>   5.8046  1.0000</r>
       <r>   7.2707  1.0000</r>
       <r>   7.2707  1.0000</r>
       <r>   9.3727  0.0000</r>
       <r>  11.7767  0.0000</r>
       <r>  11.7767  0.0000</r>
       <r>  13.3909  0.0000</r>
       <r>  13.3909  0.0000</r>
       <r>  14.1714  0.0000</r>
       <r>  14.7672  0.0000</r>
       <r>  14.7672  0.0000</r>
       <r>  17.1676  0.0000</r>
       <r>  17.1676  0.0000</r>
      </set>
      <set comment="kpoint 4">
       <r>  -2.3992  1.0000</r>
       <r>   2.5675  1.0000</r>
       <r>   6.0588  1.0000</r>
       <r>   6.0588  1.0000</r>
       <r>   7.5294  1.0000</r>
       <r>   7.5294  1.0000</r>
       <r>  10.7039  0.0000</r>
       <r>  10.7039  0.0000</r>
       <r>  10.9531  0.0000</r>
       <r>  12.4741  0.0000</r>
       <r>  12.4741  0.0000</r>
       <r>  14.4472  0.0000</r>
       <r>  15.0013  0.0000</r>
       <r>  15.0013  0.0000</r>
       <r>  18.7563  0.0000</r>
       <r>  18.7898  0.0000</r>
      </set>
      <set comment="kpoint 5">
       <r>  -2.0097  1.0000</r>
       <r>   1.5502  1.0000</r>
       <r>   6.4148  1.0000</r>
       <r>   6.4148  1.0000</r>
       <r>   7.8795  1.0000</r>
       <r>   7.8795  1.0000</r>
       <r>   9.7321  0.0000</r>
       <r>   9.7321  0.0000</r>
       <r>  11.5876  0.0000</r>
       <r>  11.5876  0.0000</r>
       <r>  12.6373  0.0000</r>
       <r>  14.8326  0.0000</r>
       <r>  15.3292  0.0000</r>
       <r>  15.3292  0.0000</r>
       <r>  18.3420  0.0000</r>
       <r>  18.3676  0.0000</r>
      </set>
      <set comment="kpoint 6">
       <r>  -1.5105  1.0000</r>
       <r>   0.6299  1.0000</r>
       <r>   6.8730  1.0000</r>
       <r>   6.8730  1.0000</r>
       <r>   8.2936  1.0000</r>
       <r>   8.2936  1.0000</r>
       <r>   8.8630  0.0000</r>
       <r>   8.8630  0.0000</r>
       <r>  10.8022  0.0000</r>
       <r>  10.8022  0.0000</r>
       <r>  14.4128  0.0000</r>
       <r>  15.3267  0.0000</r>
       <r>  15.7510  0.0000</r>
       <r>  15.7510  0.0000</r>
       <r>  17.4414  0.0000</r>
       <r>  17.5769  0.0000</r>
      </set>
      <set comment="kpoint 7">
       <r>  -0.9030  1.0000</r>
       <r>  -0.1889  1.0000</r>
       <r>   7.4336  1.0000</r>
       <r>   7.4336  1.0000</r>
       <r>   8.0968  1.0000</r>
       <r>   8.0968  1.0000</r>
       <r>   8.6656  0.3426</r>
       <r>   8.6656  0.3426</r>
       <r>  10.2416  0.0000</r>
       <r>  10.2416  0.0000</r>
       <r>  15.9282  0.0000</r>
       <r>  16.2667  0.0000</r>
       <r>  16.2667  0.0000</r>
       <r>  16.2722  0.0000</r>
       <r>  16.6345  0.0000</r>
       <r>  16.8757  0.0000</r>
      </set>
      <set comment="kpoint 8">
       <r>  -2.7900  1.0000</r>
       <r>   4.8705  1.0000</r>
       <r>   4.8705  1.0000</r>
       <r>   5.7030  1.0000</r>
       <r>   7.1654  1.0000</r>
       <r>   7.9899  1.0000</r>
       <r>   7.9899  1.0000</r>
       <r>  12.1871  0.0000</r>
       <r>  12.9937  0.0000</r>
       <r>  12.9937  0.0000</r>
       <r>  14.2533  0.0000</r>
       <r>  14.2533  0.0000</r>
       <r>  14.6745  0.0000</r>
       <r>  15.6648  0.0000</r>
       <r>  15.7423  0.0000</r>
       <r>  15.7423  0.0000</r>
      </set>
      <set comment="kpoint 9">
       <r>  -2.6224  1.0000</r>
       <r>   3.7238  1.0000</r>
       <r>   5.0266  1.0000</r>
       <r>   5.8554  1.0000</r>
       <r>   7.3210  1.0000</r>
       <r>   8.1426  1.0000</r>
       <r>   9.4219  0.0000</r>
       <r>  11.0919  0.0000</r>
       <r>  11.8282  0.0000</r>
       <r>  13.1497  0.0000</r>
       <r>  13.4422  0.0000</r>
       <r>  14.1188  0.0000</r>
       <r>  14.3982  0.0000</r>
       <r>  15.8922  0.0000</r>
       <r>  16.7623  0.0000</r>
       <r>  17.2179  0.0000</r>
      </set>
      <set comment="kpoint 10">
       <r>  -2.3435  1.0000</r>
       <r>   2.6210  1.0000</r>
       <r>   5.2863  1.0000</r>
       <r>   6.1096  1.0000</r>
       <r>   7.5730  1.0000</r>
       <r>   8.3925  1.0000</r>
       <r>  10.0500  0.0000</r>
       <r>  10.7553  0.0000</r>
       <r>  10.9988  0.0000</r>
       <r>  12.5298  0.0000</r>
       <r>  13.2166  0.0000</r>
       <r>  13.4094  0.0000</r>
       <r>  14.6404  0.0000</r>
       <r>  16.1421  0.0000</r>
       <r>  18.0422  0.0000</r>
       <r>  18.2775  0.0000</r>
      </set>
      <set comment="kpoint 11">
       <r>  -1.9541  1.0000</r>
       <r>   1.6043  1.0000</r>
       <r>   5.6489  1.0000</r>
       <r>   6.4657  1.0000</r>
       <r>   7.8911  1.0000</r>
       <r>   8.7268  0.0000</r>
       <r>   9.1265  0.0000</r>
       <r>   9.7834  0.0000</r>
       <r>  11.6534  0.0000</r>
       <r>  12.3239  0.0000</r>
       <r>  12.6749  0.0000</r>
       <r>  13.7723  0.0000</r>
       <r>  14.9825  0.0000</r>
       <r>  16.4920  0.0000</r>
       <r>  17.0945  0.0000</r>
       <r>  18.0061  0.0000</r>
      </set>
      <set comment="kpoint 12">
       <r>  -1.4552  1.0000</r>
       <r>   0.6843  1.0000</r>
       <r>   6.1129  1.0000</r>
       <r>   6.9239  1.0000</r>
       <r>   7.9494  1.0000</r>
       <r>   8.6440  0.9960</r>
       <r>   8.9142  0.0000</r>
       <r>   9.0995  0.0000</r>
       <r>  10.9043  0.0000</r>
       <r>  11.5114  0.0000</r>
       <r>  14.2376  0.0000</r>
       <r>  14.4198  0.0000</r>
       <r>  15.4423  0.0000</r>
       <r>  16.2356  0.0000</r>
       <r>  16.9417  0.0000</r>
       <r>  17.2111  0.0000</r>
      </set>
      <set comment="kpoint 13">
       <r>  -0.8479  1.0000</r>
       <r>  -0.1341  1.0000</r>
       <r>   6.6749  1.0000</r>
       <r>   7.3227  1.0000</r>
       <r>   7.4846  1.0000</r>
       <r>   8.1479  1.0000</r>
       <r>   8.9875  0.0000</r>
       <r>   9.2885  0.0000</r>
       <r>  10.5251  0.0000</r>
       <r>  10.8410  0.0000</r>
       <r>  14.8044  0.0000</r>
       <r>  15.4711  0.0000</r>
       <r>  15.8086  0.0000</r>
       <r>  16.4363  0.0000</r>
       <r>  16.4940  0.0000</r>
       <r>  17.4905  0.0000</r>
      </set>
      <set comment="kpoint 14">
       <r>  -2.4550  1.0000</r>
       <r>   3.8825  1.0000</r>
       <r>   3.8825  1.0000</r>
       <r>   6.0079  1.0000</r>
       <r>   7.4673  1.0000</r>
       <r>   9.5673  0.0000</r>
       <r>   9.5673  0.0000</r>
       <r>  10.0319  0.0000</r>
       <r>  11.9829  0.0000</r>
       <r>  11.9829  0.0000</r>
       <r>  13.5967  0.0000</r>
       <r>  13.5967  0.0000</r>
       <r>  14.9583  0.0000</r>
       <r>  16.3862  0.0000</r>
       <r>  17.3685  0.0000</r>
       <r>  17.3685  0.0000</r>
      </set>
      <set comment="kpoint 15">
       <r>  -2.1765  1.0000</r>
       <r>   2.7816  1.0000</r>
       <r>   4.1466  1.0000</r>
       <r>   6.2622  1.0000</r>
       <r>   7.6784  1.0000</r>
       <r>   9.0387  0.0000</r>
       <r>   9.7995  0.0000</r>
       <r>  10.9095  0.0000</r>
       <r>  11.1300  0.0000</r>
       <r>  12.2406  0.0000</r>
       <r>  12.7012  0.0000</r>
       <r>  13.8589  0.0000</r>
       <r>  14.4793  0.0000</r>
       <r>  16.8873  0.0000</r>
       <r>  17.4418  0.0000</r>
       <r>  17.6194  0.0000</r>
      </set>
      <set comment="kpoint 16">
       <r>  -1.7876  1.0000</r>
       <r>   1.7663  1.0000</r>
       <r>   4.5151  1.0000</r>
       <r>   6.6184  1.0000</r>
       <r>   7.6561  1.0000</r>
       <r>   8.4607  1.0000</r>
       <r>   9.9372  0.0000</r>
       <r>  10.0820  0.0000</r>
       <r>  11.8731  0.0000</r>
       <r>  12.6011  0.0000</r>
       <r>  12.7639  0.0000</r>
       <r>  13.6420  0.0000</r>
       <r>  14.2517  0.0000</r>
       <r>  15.9268  0.0000</r>
       <r>  17.2215  0.0000</r>
       <r>  17.9700  0.0000</r>
      </set>
      <set comment="kpoint 17">
       <r>  -1.2893  1.0000</r>
       <r>   0.8475  1.0000</r>
       <r>   4.9869  1.0000</r>
       <r>   6.9727  1.0000</r>
       <r>   7.0768  1.0000</r>
       <r>   8.7334  0.0000</r>
       <r>   9.0677  0.0000</r>
       <r>  10.2165  0.0000</r>
       <r>  11.3555  0.0000</r>
       <r>  12.8327  0.0000</r>
       <r>  13.0641  0.0000</r>
       <r>  14.2327  0.0000</r>
       <r>  14.9974  0.0000</r>
       <r>  15.0618  0.0000</r>
       <r>  16.4197  0.0000</r>
       <r>  18.4192  0.0000</r>
      </set>
      <set comment="kpoint 18">
       <r>  -0.6828  1.0000</r>
       <r>   0.0302  1.0000</r>
       <r>   5.5595  1.0000</r>
       <r>   6.2275  1.0000</r>
       <r>   7.6377  1.0000</r>
       <r>   8.3012  1.0000</r>
       <r>   9.2495  0.0000</r>
       <r>   9.8265  0.0000</r>
       <r>  11.5448  0.0000</r>
       <r>  12.1145  0.0000</r>
       <r>  13.6290  0.0000</r>
       <r>  14.2953  0.0000</r>
       <r>  15.0203  0.0000</r>
       <r>  15.6903  0.0000</r>
       <r>  16.6022  0.0000</r>
       <r>  18.4909  0.0000</r>
      </set>
      <set comment="kpoint 19">
       <r>  -1.8986  1.0000</r>
       <r>   3.0487  1.0000</r>
       <r>   3.0487  1.0000</r>
       <r>   6.5166  1.0000</r>
       <r>   7.5548  1.0000</r>
       <r>   8.3798  1.0000</r>
       <r>  11.1664  0.0000</r>
       <r>  11.1664  0.0000</r>
       <r>  11.3143  0.0000</r>
       <r>  11.3143  0.0000</r>
       <r>  13.0140  0.0000</r>
       <r>  13.0140  0.0000</r>
       <r>  15.4319  0.0000</r>
       <r>  15.8235  0.0000</r>
       <r>  17.0543  0.0000</r>
       <r>  17.2001  0.0000</r>
      </set>
      <set comment="kpoint 20">
       <r>  -1.5105  1.0000</r>
       <r>   2.0358  1.0000</r>
       <r>   3.4217  1.0000</r>
       <r>   6.7809  1.0000</r>
       <r>   6.8731  1.0000</r>
       <r>   8.5517  1.0000</r>
       <r>  10.1936  0.0000</r>
       <r>  11.3599  0.0000</r>
       <r>  11.5260  0.0000</r>
       <r>  12.4218  0.0000</r>
       <r>  12.7062  0.0000</r>
       <r>  13.6533  0.0000</r>
       <r>  14.8559  0.0000</r>
       <r>  15.0614  0.0000</r>
       <r>  16.3333  0.0000</r>
       <r>  18.1577  0.0000</r>
      </set>
      <set comment="kpoint 21">
       <r>  -1.0132  1.0000</r>
       <r>   1.1191  1.0000</r>
       <r>   3.8993  1.0000</r>
       <r>   5.9343  1.0000</r>
       <r>   7.3318  1.0000</r>
       <r>   8.9888  0.0000</r>
       <r>   9.3237  0.0000</r>
       <r>  10.8720  0.0000</r>
       <r>  11.9881  0.0000</r>
       <r>  12.5221  0.0000</r>
       <r>  13.5083  0.0000</r>
       <r>  13.9873  0.0000</r>
       <r>  14.3222  0.0000</r>
       <r>  15.0704  0.0000</r>
       <r>  15.5244  0.0000</r>
       <r>  19.8064  0.0000</r>
      </set>
      <set comment="kpoint 22">
       <r>  -0.4080  1.0000</r>
       <r>   0.3035  1.0000</r>
       <r>   4.4799  1.0000</r>
       <r>   5.1604  1.0000</r>
       <r>   7.8929  1.0000</r>
       <r>   8.5568  1.0000</r>
       <r>   9.5453  0.0000</r>
       <r>  10.1896  0.0000</r>
       <r>  12.5527  0.0000</r>
       <r>  12.9943  0.0000</r>
       <r>  13.2192  0.0000</r>
       <r>  13.6121  0.0000</r>
       <r>  14.1255  0.0000</r>
       <r>  14.7882  0.0000</r>
       <r>  16.8481  0.0000</r>
       <r>  18.7386  0.0000</r>
      </set>
      <set comment="kpoint 23">
       <r>  -1.1236  1.0000</r>
       <r>   2.4122  1.0000</r>
       <r>   2.4122  1.0000</r>
       <r>   5.8345  1.0000</r>
       <r>   7.2298  1.0000</r>
       <r>   8.8928  0.0000</r>
       <r>  10.5527  0.0000</r>
       <r>  10.5527  0.0000</r>
       <r>  12.1072  0.0000</r>
       <r>  12.1072  0.0000</r>
       <r>  13.7058  0.0000</r>
       <r>  13.7058  0.0000</r>
       <r>  13.8844  0.0000</r>
       <r>  15.4600  0.0000</r>
       <r>  16.0962  0.0000</r>
       <r>  17.8587  0.0000</r>
      </set>
      <set comment="kpoint 24">
       <r>  -0.6277  1.0000</r>
       <r>   1.4983  1.0000</r>
       <r>   2.8944  1.0000</r>
       <r>   4.9566  1.0000</r>
       <r>   7.6889  1.0000</r>
       <r>   9.3582  0.0000</r>
       <r>   9.6822  0.0000</r>
       <r>  11.0143  0.0000</r>
       <r>  11.3318  0.0000</r>
       <r>  12.6536  0.0000</r>
       <r>  13.0139  0.0000</r>
       <r>  14.0888  0.0000</r>
       <r>  14.6436  0.0000</r>
       <r>  15.3774  0.0000</r>
       <r>  15.8437  0.0000</r>
       <r>  19.0249  0.0000</r>
      </set>
      <set comment="kpoint 25">
       <r>  -0.0243  1.0000</r>
       <r>   0.6851  1.0000</r>
       <r>   3.4809  1.0000</r>
       <r>   4.1696  1.0000</r>
       <r>   8.2505  1.0000</r>
       <r>   8.9148  0.0000</r>
       <r>   9.9280  0.0000</r>
       <r>  10.5912  0.0000</r>
       <r>  11.5784  0.0000</r>
       <r>  12.2450  0.0000</r>
       <r>  13.2393  0.0000</r>
       <r>  13.9013  0.0000</r>
       <r>  14.6064  0.0000</r>
       <r>  15.2130  0.0000</r>
       <r>  17.1791  0.0000</r>
       <r>  19.0428  0.0000</r>
      </set>
      <set comment="kpoint 26">
       <r>  -0.1337  1.0000</r>
       <r>   1.9842  1.0000</r>
       <r>   1.9842  1.0000</r>
       <r>   4.0654  1.0000</r>
       <r>   8.1484  1.0000</r>
       <r>   9.8326  0.0000</r>
       <r>  10.1433  0.0000</r>
       <r>  10.1433  0.0000</r>
       <r>  11.8300  0.0000</r>
       <r>  11.8300  0.0000</r>
       <r>  12.1424  0.0000</r>
       <r>  13.8200  0.0000</r>
       <r>  15.7988  0.0000</r>
       <r>  15.7988  0.0000</r>
       <r>  16.9519  0.0000</r>
       <r>  18.8368  0.0000</r>
      </set>
      <set comment="kpoint 27">
       <r>   0.4675  1.0000</r>
       <r>   1.1742  1.0000</r>
       <r>   2.5755  1.0000</r>
       <r>   3.2701  1.0000</r>
       <r>   8.7105  0.0000</r>
       <r>   9.3754  0.0000</r>
       <r>  10.4072  0.0000</r>
       <r>  10.7070  0.0000</r>
       <r>  11.0758  0.0000</r>
       <r>  11.3734  0.0000</r>
       <r>  12.4077  0.0000</r>
       <r>  13.0719  0.0000</r>
       <r>  16.3016  0.0000</r>
       <r>  16.8204  0.0000</r>
       <r>  17.5806  0.0000</r>
       <r>  19.3414  0.0000</r>
      </set>
      <set comment="kpoint 28">
       <r>   1.0659  1.0000</r>
       <r>   1.7693  1.0000</r>
       <r>   1.7693  1.0000</r>
       <r>   2.4688  1.0000</r>
       <r>   9.2731  0.0000</r>
       <r>   9.9386  0.0000</r>
       <r>   9.9386  0.0000</r>
       <r>  10.6046  0.0000</r>
       <r>  10.9829  0.0000</r>
       <r>  11.6519  0.0000</r>
       <r>  11.6519  0.0000</r>
       <r>  12.3188  0.0000</r>
       <r>  17.9877  0.0000</r>
       <r>  17.9877  0.0000</r>
       <r>  17.9996  0.0000</r>
       <r>  19.2383  0.0000</r>
      </set>
      <set comment="kpoint 29">
       <r>  -2.7341  1.0000</r>
       <r>   4.9226  1.0000</r>
       <r>   4.9226  1.0000</r>
       <r>   4.9226  1.0000</r>
       <r>   8.0405  1.0000</r>
       <r>   8.0405  1.0000</r>
       <r>   8.0405  1.0000</r>
       <r>  12.2394  0.0000</r>
       <r>  12.2394  0.0000</r>
       <r>  12.2394  0.0000</r>
       <r>  14.7213  0.0000</r>
       <r>  14.7213  0.0000</r>
       <r>  14.7213  0.0000</r>
       <r>  15.7174  0.0000</r>
       <r>  15.7174  0.0000</r>
       <r>  15.7174  0.0000</r>
      </set>
      <set comment="kpoint 30">
       <r>  -2.5666  1.0000</r>
       <r>   3.7767  1.0000</r>
       <r>   5.0785  1.0000</r>
       <r>   5.0785  1.0000</r>
       <r>   8.1903  1.0000</r>
       <r>   8.1903  1.0000</r>
       <r>   9.4694  0.0000</r>
       <r>  11.1460  0.0000</r>
       <r>  11.1460  0.0000</r>
       <r>  12.3969  0.0000</r>
       <r>  14.1683  0.0000</r>
       <r>  14.1683  0.0000</r>
       <r>  14.8618  0.0000</r>
       <r>  15.8749  0.0000</r>
       <r>  16.8137  0.0000</r>
       <r>  16.8137  0.0000</r>
      </set>
      <set comment="kpoint 31">
       <r>  -2.2878  1.0000</r>
       <r>   2.6746  1.0000</r>
       <r>   5.3379  1.0000</r>
       <r>   5.3379  1.0000</r>
       <r>   8.4280  1.0000</r>
       <r>   8.4280  1.0000</r>
       <r>  10.1116  0.0000</r>
       <r>  10.1116  0.0000</r>
       <r>  11.0381  0.0000</r>
       <r>  12.6635  0.0000</r>
       <r>  13.2691  0.0000</r>
       <r>  13.2691  0.0000</r>
       <r>  15.0960  0.0000</r>
       <r>  16.1371  0.0000</r>
       <r>  17.2310  0.0000</r>
       <r>  18.3279  0.0000</r>
      </set>
      <set comment="kpoint 32">
       <r>  -1.8986  1.0000</r>
       <r>   1.6583  1.0000</r>
       <r>   5.6998  1.0000</r>
       <r>   5.6998  1.0000</r>
       <r>   8.6534  0.9060</r>
       <r>   8.6534  0.9060</r>
       <r>   9.2709  0.0000</r>
       <r>   9.2709  0.0000</r>
       <r>  12.3813  0.0000</r>
       <r>  12.3813  0.0000</r>
       <r>  12.6425  0.0000</r>
       <r>  13.0992  0.0000</r>
       <r>  15.4241  0.0000</r>
       <r>  16.2896  0.0000</r>
       <r>  16.5038  0.0000</r>
       <r>  18.4649  0.0000</r>
      </set>
      <set comment="kpoint 33">
       <r>  -1.3998  1.0000</r>
       <r>   0.7387  1.0000</r>
       <r>   6.1614  1.0000</r>
       <r>   6.1614  1.0000</r>
       <r>   8.1549  1.0000</r>
       <r>   8.1549  1.0000</r>
       <r>   9.3282  0.0000</r>
       <r>   9.3282  0.0000</r>
       <r>  11.5830  0.0000</r>
       <r>  11.5830  0.0000</r>
       <r>  13.4289  0.0000</r>
       <r>  14.5422  0.0000</r>
       <r>  15.4356  0.0000</r>
       <r>  15.8462  0.0000</r>
       <r>  16.9759  0.0000</r>
       <r>  17.6734  0.0000</r>
      </set>
      <set comment="kpoint 34">
       <r>  -0.7929  1.0000</r>
       <r>  -0.0793  1.0000</r>
       <r>   6.7064  1.0000</r>
       <r>   6.7064  1.0000</r>
       <r>   7.4379  1.0000</r>
       <r>   7.4379  1.0000</r>
       <r>   9.7076  0.0000</r>
       <r>   9.7076  0.0000</r>
       <r>  10.9828  0.0000</r>
       <r>  10.9828  0.0000</r>
       <r>  14.0083  0.0000</r>
       <r>  14.6747  0.0000</r>
       <r>  16.3597  0.0000</r>
       <r>  16.3622  0.0000</r>
       <r>  16.9716  0.0000</r>
       <r>  17.5641  0.0000</r>
      </set>
      <set comment="kpoint 35">
       <r>  -2.3992  1.0000</r>
       <r>   3.9353  1.0000</r>
       <r>   3.9353  1.0000</r>
       <r>   5.2340  1.0000</r>
       <r>   8.3242  1.0000</r>
       <r>   9.6054  0.0000</r>
       <r>   9.6054  0.0000</r>
       <r>  10.0959  0.0000</r>
       <r>  11.3129  0.0000</r>
       <r>  11.3129  0.0000</r>
       <r>  14.3171  0.0000</r>
       <r>  14.3171  0.0000</r>
       <r>  15.0051  0.0000</r>
       <r>  16.4401  0.0000</r>
       <r>  16.9676  0.0000</r>
       <r>  16.9676  0.0000</r>
      </set>
      <set comment="kpoint 36">
       <r>  -2.1209  1.0000</r>
       <r>   2.8350  1.0000</r>
       <r>   4.1992  1.0000</r>
       <r>   5.4923  1.0000</r>
       <r>   8.4445  1.0000</r>
       <r>   9.1892  0.0000</r>
       <r>   9.7515  0.0000</r>
       <r>  10.3599  0.0000</r>
       <r>  11.0899  0.0000</r>
       <r>  11.6577  0.0000</r>
       <r>  13.4280  0.0000</r>
       <r>  14.5289  0.0000</r>
       <r>  14.5662  0.0000</r>
       <r>  16.1418  0.0000</r>
       <r>  17.2235  0.0000</r>
       <r>  17.4933  0.0000</r>
      </set>
      <set comment="kpoint 37">
       <r>  -1.7321  1.0000</r>
       <r>   1.8202  1.0000</r>
       <r>   4.5673  1.0000</r>
       <r>   5.8508  1.0000</r>
       <r>   7.9097  1.0000</r>
       <r>   9.1200  0.0000</r>
       <r>   9.1857  0.0000</r>
       <r>  10.2859  0.0000</r>
       <r>  11.8438  0.0000</r>
       <r>  12.5609  0.0000</r>
       <r>  12.9308  0.0000</r>
       <r>  13.6943  0.0000</r>
       <r>  14.9203  0.0000</r>
       <r>  15.1931  0.0000</r>
       <r>  17.5807  0.0000</r>
       <r>  17.9681  0.0000</r>
      </set>
      <set comment="kpoint 38">
       <r>  -1.2340  1.0000</r>
       <r>   0.9019  1.0000</r>
       <r>   5.0381  1.0000</r>
       <r>   6.2924  1.0000</r>
       <r>   7.1078  1.0000</r>
       <r>   8.3482  1.0000</r>
       <r>   9.5244  0.0000</r>
       <r>  10.5902  0.0000</r>
       <r>  11.8464  0.0000</r>
       <r>  12.3336  0.0000</r>
       <r>  12.8895  0.0000</r>
       <r>  14.3347  0.0000</r>
       <r>  14.6110  0.0000</r>
       <r>  15.4194  0.0000</r>
       <r>  17.1659  0.0000</r>
       <r>  18.0378  0.0000</r>
      </set>
      <set comment="kpoint 39">
       <r>  -0.6278  1.0000</r>
       <r>   0.0849  1.0000</r>
       <r>   5.6074  1.0000</r>
       <r>   6.2498  1.0000</r>
       <r>   6.9525  1.0000</r>
       <r>   7.5894  1.0000</r>
       <r>  10.0405  0.0000</r>
       <r>  10.5423  0.0000</r>
       <r>  11.6909  0.0000</r>
       <r>  12.1848  0.0000</r>
       <r>  12.9045  0.0000</r>
       <r>  13.5712  0.0000</r>
       <r>  15.7623  0.0000</r>
       <r>  16.4398  0.0000</r>
       <r>  16.6412  0.0000</r>
       <r>  18.4845  0.0000</r>
      </set>
      <set comment="kpoint 40">
       <r>  -1.8431  1.0000</r>
       <r>   3.1020  1.0000</r>
       <r>   3.1020  1.0000</r>
       <r>   5.7471  1.0000</r>
       <r>   7.8182  1.0000</r>
       <r>   9.0332  0.0000</r>
       <r>  10.4182  0.0000</r>
       <r>  10.4182  0.0000</r>
       <r>  11.5024  0.0000</r>
       <r>  11.5024  0.0000</r>
       <r>  13.7009  0.0000</r>
       <r>  13.7009  0.0000</r>
       <r>  15.1040  0.0000</r>
       <r>  15.4789  0.0000</r>
       <r>  17.1078  0.0000</r>
       <r>  17.9699  0.0000</r>
      </set>
      <set comment="kpoint 41">
       <r>  -1.4552  1.0000</r>
       <r>   2.0896  1.0000</r>
       <r>   3.4747  1.0000</r>
       <r>   6.0852  1.0000</r>
       <r>   6.9209  1.0000</r>
       <r>   9.3467  0.0000</r>
       <r>   9.4797  0.0000</r>
       <r>  10.8119  0.0000</r>
       <r>  11.7172  0.0000</r>
       <r>  12.9169  0.0000</r>
       <r>  13.0606  0.0000</r>
       <r>  14.1370  0.0000</r>
       <r>  14.1489  0.0000</r>
       <r>  15.1108  0.0000</r>
       <r>  17.1023  0.0000</r>
       <r>  18.2086  0.0000</r>
      </set>
      <set comment="kpoint 42">
       <r>  -0.9581  1.0000</r>
       <r>   1.1733  1.0000</r>
       <r>   3.9519  1.0000</r>
       <r>   5.9543  1.0000</r>
       <r>   6.6490  1.0000</r>
       <r>   8.6159  1.0000</r>
       <r>   9.7973  0.0000</r>
       <r>  11.2839  0.0000</r>
       <r>  11.5817  0.0000</r>
       <r>  12.6633  0.0000</r>
       <r>  13.2863  0.0000</r>
       <r>  14.2343  0.0000</r>
       <r>  14.3740  0.0000</r>
       <r>  15.1690  0.0000</r>
       <r>  16.2929  0.0000</r>
       <r>  19.5217  0.0000</r>
      </set>
      <set comment="kpoint 43">
       <r>  -0.3531  1.0000</r>
       <r>   0.3581  1.0000</r>
       <r>   4.5314  1.0000</r>
       <r>   5.2083  1.0000</r>
       <r>   7.1835  1.0000</r>
       <r>   7.8480  1.0000</r>
       <r>  10.3487  0.0000</r>
       <r>  10.9761  0.0000</r>
       <r>  11.8525  0.0000</r>
       <r>  12.5201  0.0000</r>
       <r>  13.0624  0.0000</r>
       <r>  13.6678  0.0000</r>
       <r>  14.8942  0.0000</r>
       <r>  15.5577  0.0000</r>
       <r>  16.8948  0.0000</r>
       <r>  18.7762  0.0000</r>
      </set>
      <set comment="kpoint 44">
       <r>  -1.0684  1.0000</r>
       <r>   2.4658  1.0000</r>
       <r>   2.4658  1.0000</r>
       <r>   5.8541  1.0000</r>
       <r>   6.5468  1.0000</r>
       <r>   9.7036  0.0000</r>
       <r>   9.8505  0.0000</r>
       <r>   9.8505  0.0000</r>
       <r>  12.8185  0.0000</r>
       <r>  12.8185  0.0000</r>
       <r>  13.1893  0.0000</r>
       <r>  13.8331  0.0000</r>
       <r>  13.8331  0.0000</r>
       <r>  16.1433  0.0000</r>
       <r>  16.2301  0.0000</r>
       <r>  17.9108  0.0000</r>
      </set>
      <set comment="kpoint 45">
       <r>  -0.5727  1.0000</r>
       <r>   1.5524  1.0000</r>
       <r>   2.9478  1.0000</r>
       <r>   5.0047  1.0000</r>
       <r>   6.9783  1.0000</r>
       <r>   8.9813  0.0000</r>
       <r>  10.1677  0.0000</r>
       <r>  10.3185  0.0000</r>
       <r>  12.1095  0.0000</r>
       <r>  12.3235  0.0000</r>
       <r>  13.4251  0.0000</r>
       <r>  14.1532  0.0000</r>
       <r>  15.4143  0.0000</r>
       <r>  15.4356  0.0000</r>
       <r>  15.8927  0.0000</r>
       <r>  19.0741  0.0000</r>
      </set>
      <set comment="kpoint 46">
       <r>   0.0305  1.0000</r>
       <r>   0.7396  1.0000</r>
       <r>   3.5338  1.0000</r>
       <r>   4.2213  1.0000</r>
       <r>   7.5415  1.0000</r>
       <r>   8.2106  1.0000</r>
       <r>  10.7310  0.0000</r>
       <r>  10.8867  0.0000</r>
       <r>  11.3847  0.0000</r>
       <r>  11.5553  0.0000</r>
       <r>  14.0141  0.0000</r>
       <r>  14.6607  0.0000</r>
       <r>  14.6739  0.0000</r>
       <r>  15.2640  0.0000</r>
       <r>  17.2269  0.0000</r>
       <r>  19.0870  0.0000</r>
      </set>
      <set comment="kpoint 47">
       <r>  -0.0789  1.0000</r>
       <r>   2.0381  1.0000</r>
       <r>   2.0381  1.0000</r>
       <r>   4.1172  1.0000</r>
       <r>   7.4388  1.0000</r>
       <r>   9.4479  0.0000</r>
       <r>   9.4479  0.0000</r>
       <r>  10.6377  0.0000</r>
       <r>  11.4554  0.0000</r>
       <r>  12.6126  0.0000</r>
       <r>  12.6126  0.0000</r>
       <r>  14.5926  0.0000</r>
       <r>  15.8506  0.0000</r>
       <r>  15.8506  0.0000</r>
       <r>  16.9991  0.0000</r>
       <r>  18.8863  0.0000</r>
      </set>
      <set comment="kpoint 48">
       <r>   0.5220  1.0000</r>
       <r>   1.2284  1.0000</r>
       <r>   2.6290  1.0000</r>
       <r>   3.3231  1.0000</r>
       <r>   8.0060  1.0000</r>
       <r>   8.6763  0.0274</r>
       <r>  10.0161  0.0000</r>
       <r>  10.6856  0.0000</r>
       <r>  11.2055  0.0000</r>
       <r>  11.8665  0.0000</r>
       <r>  13.1874  0.0000</r>
       <r>  13.8476  0.0000</r>
       <r>  16.3514  0.0000</r>
       <r>  16.8688  0.0000</r>
       <r>  17.6284  0.0000</r>
       <r>  19.3877  0.0000</r>
      </set>
      <set comment="kpoint 49">
       <r>   1.1202  1.0000</r>
       <r>   1.8233  1.0000</r>
       <r>   1.8233  1.0000</r>
       <r>   2.5224  1.0000</r>
       <r>   8.5741  1.0000</r>
       <r>   9.2446  0.0000</r>
       <r>   9.2446  0.0000</r>
       <r>   9.9147  0.0000</r>
       <r>  11.7750  0.0000</r>
       <r>  12.4375  0.0000</r>
       <r>  12.4375  0.0000</r>
       <r>  13.0991  0.0000</r>
       <r>  18.0353  0.0000</r>
       <r>  18.0353  0.0000</r>
       <r>  18.0469  0.0000</r>
       <r>  19.2857  0.0000</r>
      </set>
      <set comment="kpoint 50">
       <r>  -2.2322  1.0000</r>
       <r>   4.0936  1.0000</r>
       <r>   4.0936  1.0000</r>
       <r>   4.0936  1.0000</r>
       <r>   9.6474  0.0000</r>
       <r>   9.6474  0.0000</r>
       <r>   9.6474  0.0000</r>
       <r>  10.3536  0.0000</r>
       <r>  10.3536  0.0000</r>
       <r>  10.3536  0.0000</r>
       <r>  15.1458  0.0000</r>
       <r>  15.1458  0.0000</r>
       <r>  15.1458  0.0000</r>
       <r>  16.0966  0.0000</r>
       <r>  16.6016  0.0000</r>
       <r>  16.6016  0.0000</r>
      </set>
      <set comment="kpoint 51">
       <r>  -1.9541  1.0000</r>
       <r>   2.9953  1.0000</r>
       <r>   4.3567  1.0000</r>
       <r>   4.3567  1.0000</r>
       <r>   9.0431  0.0000</r>
       <r>   9.0431  0.0000</r>
       <r>  10.1656  0.0000</r>
       <r>  10.1656  0.0000</r>
       <r>  10.3682  0.0000</r>
       <r>  11.4639  0.0000</r>
       <r>  14.6779  0.0000</r>
       <r>  14.6779  0.0000</r>
       <r>  15.0662  0.0000</r>
       <r>  15.3804  0.0000</r>
       <r>  16.8698  0.0000</r>
       <r>  17.6477  0.0000</r>
      </set>
      <set comment="kpoint 52">
       <r>  -1.5659  1.0000</r>
       <r>   1.9819  1.0000</r>
       <r>   4.7233  1.0000</r>
       <r>   4.7233  1.0000</r>
       <r>   8.1222  1.0000</r>
       <r>   8.1222  1.0000</r>
       <r>  10.4694  0.0000</r>
       <r>  10.4694  0.0000</r>
       <r>  10.7750  0.0000</r>
       <r>  13.0930  0.0000</r>
       <r>  13.8525  0.0000</r>
       <r>  13.8525  0.0000</r>
       <r>  14.1153  0.0000</r>
       <r>  15.7090  0.0000</r>
       <r>  17.2431  0.0000</r>
       <r>  18.7567  0.0000</r>
      </set>
      <set comment="kpoint 53">
       <r>  -1.0684  1.0000</r>
       <r>   1.0648  1.0000</r>
       <r>   5.1894  1.0000</r>
       <r>   5.1894  1.0000</r>
       <r>   7.2637  1.0000</r>
       <r>   7.2637  1.0000</r>
       <r>  10.8882  0.0000</r>
       <r>  10.8882  0.0000</r>
       <r>  11.2507  0.0000</r>
       <r>  13.0669  0.0000</r>
       <r>  13.0669  0.0000</r>
       <r>  13.2546  0.0000</r>
       <r>  14.8408  0.0000</r>
       <r>  16.1318  0.0000</r>
       <r>  17.7204  0.0000</r>
       <r>  17.9629  0.0000</r>
      </set>
      <set comment="kpoint 54">
       <r>  -0.4629  1.0000</r>
       <r>   0.2489  1.0000</r>
       <r>   5.7295  1.0000</r>
       <r>   5.7295  1.0000</r>
       <r>   6.5246  1.0000</r>
       <r>   6.5246  1.0000</r>
       <r>  11.3185  0.0000</r>
       <r>  11.3185  0.0000</r>
       <r>  11.8210  0.0000</r>
       <r>  12.4492  0.0000</r>
       <r>  12.4492  0.0000</r>
       <r>  12.4891  0.0000</r>
       <r>  16.6487  0.0000</r>
       <r>  16.6597  0.0000</r>
       <r>  17.2594  0.0000</r>
       <r>  18.3067  0.0000</r>
      </set>
      <set comment="kpoint 55">
       <r>  -1.6767  1.0000</r>
       <r>   3.2618  1.0000</r>
       <r>   3.2618  1.0000</r>
       <r>   4.6181  1.0000</r>
       <r>   8.0348  1.0000</r>
       <r>   9.3550  0.0000</r>
       <r>   9.3550  0.0000</r>
       <r>  10.3868  0.0000</r>
       <r>  11.6785  0.0000</r>
       <r>  11.6785  0.0000</r>
       <r>  14.0310  0.0000</r>
       <r>  14.9271  0.0000</r>
       <r>  14.9271  0.0000</r>
       <r>  15.6198  0.0000</r>
       <r>  17.2678  0.0000</r>
       <r>  17.9039  0.0000</r>
      </set>
      <set comment="kpoint 56">
       <r>  -1.2893  1.0000</r>
       <r>   2.2510  1.0000</r>
       <r>   3.6336  1.0000</r>
       <r>   4.9798  1.0000</r>
       <r>   7.0782  1.0000</r>
       <r>   8.3960  1.0000</r>
       <r>   9.7315  0.0000</r>
       <r>  10.7351  0.0000</r>
       <r>  11.9992  0.0000</r>
       <r>  13.0755  0.0000</r>
       <r>  13.3253  0.0000</r>
       <r>  14.1241  0.0000</r>
       <r>  15.2590  0.0000</r>
       <r>  15.2812  0.0000</r>
       <r>  18.2597  0.0000</r>
       <r>  18.3218  0.0000</r>
      </set>
      <set comment="kpoint 57">
       <r>  -0.7928  1.0000</r>
       <r>   1.3359  1.0000</r>
       <r>   4.1091  1.0000</r>
       <r>   5.4169  1.0000</r>
       <r>   6.2351  1.0000</r>
       <r>   7.5250  1.0000</r>
       <r>  10.2026  0.0000</r>
       <r>  11.1839  0.0000</r>
       <r>  12.2112  0.0000</r>
       <r>  12.3388  0.0000</r>
       <r>  13.4229  0.0000</r>
       <r>  14.5305  0.0000</r>
       <r>  15.0178  0.0000</r>
       <r>  15.7813  0.0000</r>
       <r>  17.5287  0.0000</r>
       <r>  18.7114  0.0000</r>
      </set>
      <set comment="kpoint 58">
       <r>  -0.1886  1.0000</r>
       <r>   0.5217  1.0000</r>
       <r>   4.6836  1.0000</r>
       <r>   5.3293  1.0000</r>
       <r>   6.1150  1.0000</r>
       <r>   6.7546  1.0000</r>
       <r>  10.7730  0.0000</r>
       <r>  11.4429  0.0000</r>
       <r>  11.7147  0.0000</r>
       <r>  12.2512  0.0000</r>
       <r>  13.3183  0.0000</r>
       <r>  13.8415  0.0000</r>
       <r>  16.1351  0.0000</r>
       <r>  16.8061  0.0000</r>
       <r>  17.0281  0.0000</r>
       <r>  18.8596  0.0000</r>
      </set>
      <set comment="kpoint 59">
       <r>  -0.9029  1.0000</r>
       <r>   2.6266  1.0000</r>
       <r>   2.6266  1.0000</r>
       <r>   5.3126  1.0000</r>
       <r>   6.1358  1.0000</r>
       <r>   8.7651  0.0000</r>
       <r>   8.7651  0.0000</r>
       <r>  11.0979  0.0000</r>
       <r>  12.1161  0.0000</r>
       <r>  13.5750  0.0000</r>
       <r>  13.5750  0.0000</r>
       <r>  14.5609  0.0000</r>
       <r>  14.5609  0.0000</r>
       <r>  16.2846  0.0000</r>
       <r>  17.5137  0.0000</r>
       <r>  18.0661  0.0000</r>
      </set>
      <set comment="kpoint 60">
       <r>  -0.4079  1.0000</r>
       <r>   1.7145  1.0000</r>
       <r>   3.1076  1.0000</r>
       <r>   5.1260  1.0000</r>
       <r>   5.9072  1.0000</r>
       <r>   7.8905  1.0000</r>
       <r>   9.2347  0.0000</r>
       <r>  11.2484  0.0000</r>
       <r>  11.5579  0.0000</r>
       <r>  13.3821  0.0000</r>
       <r>  14.3910  0.0000</r>
       <r>  14.6960  0.0000</r>
       <r>  15.6392  0.0000</r>
       <r>  16.0398  0.0000</r>
       <r>  16.7193  0.0000</r>
       <r>  19.2208  0.0000</r>
      </set>
      <set comment="kpoint 61">
       <r>   0.1945  1.0000</r>
       <r>   0.9028  1.0000</r>
       <r>   3.6918  1.0000</r>
       <r>   4.3743  1.0000</r>
       <r>   6.4442  1.0000</r>
       <r>   7.1148  1.0000</r>
       <r>   9.8057  0.0000</r>
       <r>  10.4774  0.0000</r>
       <r>  12.1104  0.0000</r>
       <r>  12.7413  0.0000</r>
       <r>  14.8286  0.0000</r>
       <r>  15.3333  0.0000</r>
       <r>  15.4178  0.0000</r>
       <r>  15.9904  0.0000</r>
       <r>  17.3689  0.0000</r>
       <r>  19.2151  0.0000</r>
      </set>
      <set comment="kpoint 62">
       <r>   0.0853  1.0000</r>
       <r>   2.1995  1.0000</r>
       <r>   2.1995  1.0000</r>
       <r>   4.2704  1.0000</r>
       <r>   6.3401  1.0000</r>
       <r>   8.3596  1.0000</r>
       <r>   8.3596  1.0000</r>
       <r>  10.3779  0.0000</r>
       <r>  12.0244  0.0000</r>
       <r>  13.9554  0.0000</r>
       <r>  13.9554  0.0000</r>
       <r>  15.9207  0.0000</r>
       <r>  16.0093  0.0000</r>
       <r>  16.0093  0.0000</r>
       <r>  17.1408  0.0000</r>
       <r>  19.0333  0.0000</r>
      </set>
      <set comment="kpoint 63">
       <r>   0.6855  1.0000</r>
       <r>   1.3910  1.0000</r>
       <r>   2.7894  1.0000</r>
       <r>   3.4815  1.0000</r>
       <r>   6.9079  1.0000</r>
       <r>   7.5828  1.0000</r>
       <r>   8.9313  0.0000</r>
       <r>   9.6046  0.0000</r>
       <r>  12.5841  0.0000</r>
       <r>  13.2323  0.0000</r>
       <r>  14.5346  0.0000</r>
       <r>  15.1881  0.0000</r>
       <r>  16.5011  0.0000</r>
       <r>  17.0141  0.0000</r>
       <r>  17.7713  0.0000</r>
       <r>  19.5254  0.0000</r>
      </set>
      <set comment="kpoint 64">
       <r>   1.2829  1.0000</r>
       <r>   1.9850  1.0000</r>
       <r>   1.9850  1.0000</r>
       <r>   2.6829  1.0000</r>
       <r>   7.4797  1.0000</r>
       <r>   8.1550  1.0000</r>
       <r>   8.1550  1.0000</r>
       <r>   8.8296  0.0000</r>
       <r>  13.1473  0.0000</r>
       <r>  13.7998  0.0000</r>
       <r>  13.7998  0.0000</r>
       <r>  14.4529  0.0000</r>
       <r>  18.1779  0.0000</r>
       <r>  18.1779  0.0000</r>
       <r>  18.1887  0.0000</r>
       <r>  19.4275  0.0000</r>
      </set>
      <set comment="kpoint 65">
       <r>  -1.3998  1.0000</r>
       <r>   3.5273  1.0000</r>
       <r>   3.5273  1.0000</r>
       <r>   3.5273  1.0000</r>
       <r>   8.3099  1.0000</r>
       <r>   8.3099  1.0000</r>
       <r>   8.3099  1.0000</r>
       <r>  11.9363  0.0000</r>
       <r>  11.9363  0.0000</r>
       <r>  11.9363  0.0000</r>
       <r>  12.9928  0.0000</r>
       <r>  15.8549  0.0000</r>
       <r>  15.8549  0.0000</r>
       <r>  15.8549  0.0000</r>
       <r>  17.5327  0.0000</r>
       <r>  17.5327  0.0000</r>
      </set>
      <set comment="kpoint 66">
       <r>  -1.0132  1.0000</r>
       <r>   2.5194  1.0000</r>
       <r>   3.8973  1.0000</r>
       <r>   3.8973  1.0000</r>
       <r>   7.3404  1.0000</r>
       <r>   7.3404  1.0000</r>
       <r>   8.6799  0.0075</r>
       <r>  12.0337  0.0000</r>
       <r>  12.2860  0.0000</r>
       <r>  12.2860  0.0000</r>
       <r>  13.5970  0.0000</r>
       <r>  15.5070  0.0000</r>
       <r>  15.5070  0.0000</r>
       <r>  16.1843  0.0000</r>
       <r>  17.8995  0.0000</r>
       <r>  18.6116  0.0000</r>
      </set>
      <set comment="kpoint 67">
       <r>  -0.5178  1.0000</r>
       <r>   1.6065  1.0000</r>
       <r>   4.3676  1.0000</r>
       <r>   4.3676  1.0000</r>
       <r>   6.4660  1.0000</r>
       <r>   6.4660  1.0000</r>
       <r>   9.1504  0.0000</r>
       <r>  11.1659  0.0000</r>
       <r>  12.7175  0.0000</r>
       <r>  12.7175  0.0000</r>
       <r>  14.7984  0.0000</r>
       <r>  14.7984  0.0000</r>
       <r>  15.3442  0.0000</r>
       <r>  16.6081  0.0000</r>
       <r>  18.3639  0.0000</r>
       <r>  18.4450  0.0000</r>
      </set>
      <set comment="kpoint 68">
       <r>   0.0852  1.0000</r>
       <r>   0.7940  1.0000</r>
       <r>   4.9117  1.0000</r>
       <r>   4.9117  1.0000</r>
       <r>   5.7188  1.0000</r>
       <r>   5.7188  1.0000</r>
       <r>   9.7221  0.0000</r>
       <r>  10.3944  0.0000</r>
       <r>  13.1641  0.0000</r>
       <r>  13.1641  0.0000</r>
       <r>  14.1883  0.0000</r>
       <r>  14.1883  0.0000</r>
       <r>  17.1264  0.0000</r>
       <r>  17.1539  0.0000</r>
       <r>  17.7389  0.0000</r>
       <r>  18.9248  0.0000</r>
      </set>
      <set comment="kpoint 69">
       <r>  -0.6277  1.0000</r>
       <r>   2.8939  1.0000</r>
       <r>   2.8939  1.0000</r>
       <r>   4.2620  1.0000</r>
       <r>   6.3672  1.0000</r>
       <r>   7.7070  1.0000</r>
       <r>   7.7070  1.0000</r>
       <r>  11.0708  0.0000</r>
       <r>  12.6509  0.0000</r>
       <r>  13.9357  0.0000</r>
       <r>  13.9357  0.0000</r>
       <r>  15.8586  0.0000</r>
       <r>  15.8586  0.0000</r>
       <r>  16.5202  0.0000</r>
       <r>  18.3220  0.0000</r>
       <r>  18.8374  0.0000</r>
      </set>
      <set comment="kpoint 70">
       <r>  -0.1337  1.0000</r>
       <r>   1.9842  1.0000</r>
       <r>   3.3728  1.0000</r>
       <r>   4.7026  1.0000</r>
       <r>   5.5149  1.0000</r>
       <r>   6.8275  1.0000</r>
       <r>   8.1773  1.0000</r>
       <r>  10.1995  0.0000</r>
       <r>  13.1036  0.0000</r>
       <r>  14.2917  0.0000</r>
       <r>  15.2263  0.0000</r>
       <r>  15.6241  0.0000</r>
       <r>  16.2855  0.0000</r>
       <r>  16.3523  0.0000</r>
       <r>  18.0916  0.0000</r>
       <r>  19.3925  0.0000</r>
      </set>
      <set comment="kpoint 71">
       <r>   0.4676  1.0000</r>
       <r>   1.1743  1.0000</r>
       <r>   3.9518  1.0000</r>
       <r>   4.6040  1.0000</r>
       <r>   5.4039  1.0000</r>
       <r>   6.0503  1.0000</r>
       <r>   8.7504  0.0000</r>
       <r>   9.4251  0.0000</r>
       <r>  13.6356  0.0000</r>
       <r>  14.1870  0.0000</r>
       <r>  15.1570  0.0000</r>
       <r>  15.6798  0.0000</r>
       <r>  16.7217  0.0000</r>
       <r>  17.3822  0.0000</r>
       <r>  17.5968  0.0000</r>
       <r>  19.3973  0.0000</r>
      </set>
      <set comment="kpoint 72">
       <r>   0.3585  1.0000</r>
       <r>   2.4679  1.0000</r>
       <r>   2.4679  1.0000</r>
       <r>   4.5009  1.0000</r>
       <r>   5.2982  1.0000</r>
       <r>   7.2972  1.0000</r>
       <r>   7.2972  1.0000</r>
       <r>   9.3251  0.0000</r>
       <r>  13.5674  0.0000</r>
       <r>  15.3921  0.0000</r>
       <r>  15.3921  0.0000</r>
       <r>  16.3041  0.0000</r>
       <r>  16.3041  0.0000</r>
       <r>  17.3658  0.0000</r>
       <r>  17.3769  0.0000</r>
       <r>  19.2730  0.0000</r>
      </set>
      <set comment="kpoint 73">
       <r>   0.9575  1.0000</r>
       <r>   1.6614  1.0000</r>
       <r>   3.0555  1.0000</r>
       <r>   3.7423  1.0000</r>
       <r>   5.8409  1.0000</r>
       <r>   6.5163  1.0000</r>
       <r>   7.8713  1.0000</r>
       <r>   8.5480  1.0000</r>
       <r>  14.1164  0.0000</r>
       <r>  14.7416  0.0000</r>
       <r>  16.0129  0.0000</r>
       <r>  16.6581  0.0000</r>
       <r>  16.7535  0.0000</r>
       <r>  17.2563  0.0000</r>
       <r>  18.0067  0.0000</r>
       <r>  19.7488  0.0000</r>
      </set>
      <set comment="kpoint 74">
       <r>   1.5536  1.0000</r>
       <r>   2.2539  1.0000</r>
       <r>   2.2539  1.0000</r>
       <r>   2.9494  1.0000</r>
       <r>   6.4121  1.0000</r>
       <r>   7.0906  1.0000</r>
       <r>   7.0906  1.0000</r>
       <r>   7.7688  1.0000</r>
       <r>  14.6731  0.0000</r>
       <r>  15.3101  0.0000</r>
       <r>  15.3101  0.0000</r>
       <r>  15.9505  0.0000</r>
       <r>  18.4141  0.0000</r>
       <r>  18.4141  0.0000</r>
       <r>  18.4251  0.0000</r>
       <r>  19.6635  0.0000</r>
      </set>
      <set comment="kpoint 75">
       <r>  -0.2433  1.0000</r>
       <r>   3.2662  1.0000</r>
       <r>   3.2662  1.0000</r>
       <r>   3.2662  1.0000</r>
       <r>   6.7291  1.0000</r>
       <r>   6.7291  1.0000</r>
       <r>   6.7291  1.0000</r>
       <r>  10.1040  0.0000</r>
       <r>  14.3061  0.0000</r>
       <r>  14.3061  0.0000</r>
       <r>  14.3061  0.0000</r>
       <r>  16.8504  0.0000</r>
       <r>  16.8504  0.0000</r>
       <r>  16.8504  0.0000</r>
       <r>  18.6729  0.0000</r>
       <r>  18.6729  0.0000</r>
      </set>
      <set comment="kpoint 76">
       <r>   0.2493  1.0000</r>
       <r>   2.3605  1.0000</r>
       <r>   3.7400  1.0000</r>
       <r>   3.7400  1.0000</r>
       <r>   5.8479  1.0000</r>
       <r>   5.8479  1.0000</r>
       <r>   7.1993  1.0000</r>
       <r>   9.2290  0.0000</r>
       <r>  14.7437  0.0000</r>
       <r>  14.7437  0.0000</r>
       <r>  16.0411  0.0000</r>
       <r>  16.6328  0.0000</r>
       <r>  16.6328  0.0000</r>
       <r>  17.2754  0.0000</r>
       <r>  19.1087  0.0000</r>
       <r>  19.1190  0.0000</r>
      </set>
      <set comment="kpoint 77">
       <r>   0.8488  1.0000</r>
       <r>   1.5533  1.0000</r>
       <r>   4.2901  1.0000</r>
       <r>   4.2901  1.0000</r>
       <r>   5.0932  1.0000</r>
       <r>   5.0932  1.0000</r>
       <r>   7.7740  1.0000</r>
       <r>   8.4513  1.0000</r>
       <r>  15.2037  0.0000</r>
       <r>  15.2037  0.0000</r>
       <r>  16.0903  0.0000</r>
       <r>  16.0903  0.0000</r>
       <r>  17.7953  0.0000</r>
       <r>  17.8296  0.0000</r>
       <r>  18.4100  0.0000</r>
       <r>  19.5654  0.0000</r>
      </set>
      <set comment="kpoint 78">
       <r>   0.7401  1.0000</r>
       <r>   2.8419  1.0000</r>
       <r>   2.8419  1.0000</r>
       <r>   4.1853  1.0000</r>
       <r>   4.9887  1.0000</r>
       <r>   6.3151  1.0000</r>
       <r>   6.3151  1.0000</r>
       <r>   8.3506  1.0000</r>
       <r>  15.2078  0.0000</r>
       <r>  16.4212  0.0000</r>
       <r>  16.4212  0.0000</r>
       <r>  17.1132  0.0000</r>
       <r>  17.1132  0.0000</r>
       <r>  17.7078  0.0000</r>
       <r>  18.8018  0.0000</r>
       <r>  19.5946  0.0000</r>
      </set>
      <set comment="kpoint 79">
       <r>   1.3372  1.0000</r>
       <r>   2.0388  1.0000</r>
       <r>   3.4242  1.0000</r>
       <r>   4.0826  1.0000</r>
       <r>   4.8807  1.0000</r>
       <r>   5.5333  1.0000</r>
       <r>   6.8906  1.0000</r>
       <r>   7.5700  1.0000</r>
       <r>  15.7373  0.0000</r>
       <r>  16.2941  0.0000</r>
       <r>  17.1329  0.0000</r>
       <r>  17.5034  0.0000</r>
       <r>  17.5964  0.0000</r>
       <r>  18.1436  0.0000</r>
       <r>  18.3261  0.0000</r>
       <r>  20.0312  0.0000</r>
      </set>
      <set comment="kpoint 80">
       <r>   1.9314  1.0000</r>
       <r>   2.6288  1.0000</r>
       <r>   2.6288  1.0000</r>
       <r>   3.3186  1.0000</r>
       <r>   5.4281  1.0000</r>
       <r>   6.1066  1.0000</r>
       <r>   6.1066  1.0000</r>
       <r>   6.7872  1.0000</r>
       <r>  16.2865  0.0000</r>
       <r>  16.8927  0.0000</r>
       <r>  16.8927  0.0000</r>
       <r>  17.5109  0.0000</r>
       <r>  18.7409  0.0000</r>
       <r>  18.7409  0.0000</r>
       <r>  18.7561  0.0000</r>
       <r>  19.9917  0.0000</r>
      </set>
      <set comment="kpoint 81">
       <r>   1.2290  1.0000</r>
       <r>   3.3180  1.0000</r>
       <r>   3.3180  1.0000</r>
       <r>   3.3180  1.0000</r>
       <r>   5.4299  1.0000</r>
       <r>   5.4299  1.0000</r>
       <r>   5.4299  1.0000</r>
       <r>   7.4686  1.0000</r>
       <r>  16.9179  0.0000</r>
       <r>  16.9179  0.0000</r>
       <r>  16.9179  0.0000</r>
       <r>  18.1337  0.0000</r>
       <r>  18.1337  0.0000</r>
       <r>  18.1337  0.0000</r>
       <r>  19.9742  0.0000</r>
       <r>  19.9758  0.0000</r>
      </set>
      <set comment="kpoint 82">
       <r>   1.8236  1.0000</r>
       <r>   2.5217  1.0000</r>
       <r>   3.8730  1.0000</r>
       <r>   3.8730  1.0000</r>
       <r>   4.6695  1.0000</r>
       <r>   4.6695  1.0000</r>
       <r>   6.0038  1.0000</r>
       <r>   6.6851  1.0000</r>
       <r>  17.3894  0.0000</r>
       <r>  17.3894  0.0000</r>
       <r>  18.0528  0.0000</r>
       <r>  18.0528  0.0000</r>
       <r>  18.6546  0.0000</r>
       <r>  18.6579  0.0000</r>
       <r>  19.2704  0.0000</r>
       <r>  20.2292  0.0000</r>
      </set>
      <set comment="kpoint 83">
       <r>   2.4147  1.0000</r>
       <r>   3.1061  1.0000</r>
       <r>   3.1061  1.0000</r>
       <r>   3.7686  1.0000</r>
       <r>   4.5627  1.0000</r>
       <r>   5.2195  1.0000</r>
       <r>   5.2195  1.0000</r>
       <r>   5.8996  1.0000</r>
       <r>  17.9448  0.0000</r>
       <r>  18.4661  0.0000</r>
       <r>  18.4661  0.0000</r>
       <r>  19.0447  0.0000</r>
       <r>  19.1499  0.0000</r>
       <r>  19.1499  0.0000</r>
       <r>  19.1813  0.0000</r>
       <r>  20.3942  0.0000</r>
      </set>
      <set comment="kpoint 84">
       <r>   2.9998  1.0000</r>
       <r>   3.6638  1.0000</r>
       <r>   3.6638  1.0000</r>
       <r>   3.6638  1.0000</r>
       <r>   4.4561  1.0000</r>
       <r>   4.4561  1.0000</r>
       <r>   4.4561  1.0000</r>
       <r>   5.1144  1.0000</r>
       <r>  19.5610  0.0000</r>
       <r>  19.5610  0.0000</r>
       <r>  19.5610  0.0000</r>
       <r>  19.6988  0.0000</r>
       <r>  19.6988  0.0000</r>
       <r>  19.6988  0.0000</r>
       <r>  20.2915  0.0000</r>
       <r>  20.2915  0.0000</r>
      </set>
     </set>
    </set>
   </array>
  </eigenvalues>
 </calculation>
 <structure name="finalpos" >
  <crystal>
   <varray name="basis" >
    <v>       3.95656024      0.00000000      0.00000000</v>
    <v>       0.00000000      3.95656024      0.00000000</v>
    <v>       0.00000000      0.00000000      3.95656024</v>
   </varray>
   <i name="volume">     61.93745381</i>
   <varray name="rec_basis" >
    <v>       0.25274479      0.00000000      0.00000000</v>
    <v>       0.00000000      0.25274479      0.00000000</v>
    <v>       0.00000000      0.00000000      0.25274479</v>
   </varray>
  </crystal>
  <varray name="positions" >
   <v>       0.50000000      0.50000000      0.00000000</v>
   <v>       0.50000000      0.00000000      0.50000000</v>
   <v>       0.00000000      0.50000000      0.50000000</v>
   <v>       0.00000000      0.00000000      0.00000000</v>
  </varray>
 </structure>
</modeling>
