       N       E                     dE             d eps       ncg     rms          rms(c)
DAV:   1     0.112532023210E+03    0.11253E+03   -0.32207E+04  5760   0.103E+03
DAV:   2    -0.107296776770E+03   -0.21983E+03   -0.20388E+03  6800   0.134E+02
DAV:   3    -0.119825088006E+03   -0.12528E+02   -0.11943E+02  7232   0.255E+01
DAV:   4    -0.120059694026E+03   -0.23461E+00   -0.23263E+00  6720   0.377E+00
DAV:   5    -0.120062563176E+03   -0.28692E-02   -0.28677E-02  6784   0.491E-01    0.513E+00
DAV:   6    -0.119655366681E+03    0.40720E+00   -0.59765E-02  6616   0.750E-01    0.318E+00
DAV:   7    -0.119360688059E+03    0.29468E+00   -0.17616E-01  6320   0.120E+00    0.139E-01
DAV:   8    -0.119360680533E+03    0.75256E-05   -0.13688E-03  6856   0.134E-01    0.429E-02
DAV:   9    -0.119360702003E+03   -0.21470E-04   -0.48249E-05  6752   0.195E-02    0.347E-03
DAV:  10    -0.119360701322E+03    0.68155E-06   -0.20758E-06  6856   0.448E-03    0.195E-03
DAV:  11    -0.119360697754E+03    0.35675E-05   -0.18158E-07  6752   0.118E-03    0.695E-04
DAV:  12    -0.119360696729E+03    0.10251E-05   -0.20614E-08  4456   0.426E-04    0.144E-04
DAV:  13    -0.119360696489E+03    0.23947E-06   -0.33498E-09  3736   0.187E-04    0.283E-05
DAV:  14    -0.119360696492E+03   -0.25416E-08   -0.46492E-10  3672   0.738E-05
   1 F= -.11936070E+03 E0= -.11935967E+03  d E =-.205891E-02
