 vasp.4.6.28 25Jul05 complex 
 executed on             LinuxIFC date 2016.10.19  17:30:01
 running on    8 nodes
 distr:  one band on    1 nodes,    8 groups


--------------------------------------------------------------------------------------------------------


 INCAR:
 POTCAR:   PAW_PBE Al 04Jan2001                   
 POTCAR:   PAW_PBE Al 04Jan2001                   
   VRHFIN =Al: s2p1                                                             
   LEXCH  = PE                                                                  
   EATOM  =    53.5387 eV,    3.9350 Ry                                         
                                                                                
   TITEL  = PAW_PBE Al 04Jan2001                                                
   LULTRA =        F    use ultrasoft PP ?                                      
   IUNSCR =        1    unscreen: 0-lin 1-nonlin 2-no                           
   RPACOR =    1.500    partial core radius                                     
   POMASS =   26.982; ZVAL   =    3.000    mass and valenz                      
   RCORE  =    1.900    outmost cutoff radius                                   
   RWIGS  =    2.650; RWIGS  =    1.402    wigner-seitz radius (au A)           
   ENMAX  =  240.300; ENMIN  =  180.225 eV                                      
   ICORE  =        2    local potential                                         
   LCOR   =        T    correct aug charges                                     
   LPAW   =        T    paw PP                                                  
   EAUG   =  291.052                                                            
   DEXC   =    -.041                                                            
   RMAX   =    2.974    core radius for proj-oper                               
   RAUG   =    1.300    factor for augmentation sphere                          
   RDEP   =    1.966    radius for radial grids                                 
   QCUT   =   -4.203; QGAM   =    8.405    optimization parameters              
                                                                                
   Description                                                                  
     l     E      TYP  RCUT    TYP  RCUT                                        
     0   .000     23  1.900                                                     
     0   .000     23  1.900                                                     
     1   .000     23  1.900                                                     
     1  1.000     23  1.900                                                     
     2   .000      7  1.900                                                     
  local pseudopotential read in
  partial core-charges read in
  atomic valenz-charges read in
  non local Contribution for L=           0  read in
    real space projection operators read in
  non local Contribution for L=           0  read in
    real space projection operators read in
  non local Contribution for L=           1  read in
    real space projection operators read in
  non local Contribution for L=           1  read in
    real space projection operators read in
    PAW grid and wavefunctions read in
 
   number of l-projection  operators is LMAX  =           4
   number of lm-projection operators is LMMAX =           8
 

 ----------------------------------------------------------------------------- 
|                                                                             |
|  ADVICE TO THIS USER RUNNING 'VASP/VAMP'   (HEAR YOUR MASTER'S VOICE ...):  |
|                                                                             |
|      You have a (more or less) 'large supercell' and for larger cells       |
|      it might be more efficient to use real space projection operators      |
|      So try LREAL= Auto  in the INCAR   file.                               |
|      Mind: If you want to do an extremely accurate calculations keep the    |
|      reciprocal projection scheme          (i.e. LREAL=.FALSE.)             |
|                                                                             |
 ----------------------------------------------------------------------------- 

 PAW_PBE Al 04Jan2001                   :
 energy of atom  1       EATOM=  -53.5387
 kinetic energy error for atom=    0.0003 (will be added to EATOM!!)
 
 EXHCAR: internal setup
 exchange correlation table for  LEXCH =        8
   RHO(1)=    0.500       N(1)  =     2000
   RHO(2)=  100.500       N(2)  =     4000
 
 POSCAR: Al                                      
  positions in direct lattice
  No initial velocities read in
 


--------------------------------------------------------------------------------------------------------


 ion  position               nearest neighbor table
   1  0.251  0.250  0.000-  18 2.90  22 2.90  26 2.90  28 2.90   9 2.91  11 2.91  13 2.91  15 2.91
                            25 2.92  21 2.92  27 2.92  17 2.92
   2  0.750  0.250  0.000-  10 2.91  12 2.91  14 2.91  16 2.91  17 2.91  18 2.91  21 2.91  22 2.91
                            25 2.91  26 2.91  27 2.91  28 2.91
   3  0.250  0.750  0.000-   9 2.91  11 2.91  13 2.91  15 2.91  19 2.91  20 2.91  23 2.91  24 2.91
                            25 2.91  26 2.91  27 2.91  28 2.91
   4  0.750  0.750  0.000-  10 2.91  12 2.91  14 2.91  16 2.91  19 2.91  20 2.91  23 2.91  24 2.91
                            25 2.91  26 2.91  27 2.91  28 2.91
   5  0.250  0.250  0.500-   9 2.91  11 2.91  13 2.91  15 2.91  17 2.91  18 2.91  21 2.91  22 2.91
                            29 2.91  30 2.91  31 2.91  32 2.91
   6  0.750  0.250  0.500-  10 2.91  12 2.91  14 2.91  16 2.91  17 2.91  18 2.91  21 2.91  22 2.91
                            29 2.91  30 2.91  31 2.91  32 2.91
   7  0.250  0.750  0.500-   9 2.91  11 2.91  13 2.91  15 2.91  19 2.91  20 2.91  23 2.91  24 2.91
                            29 2.91  30 2.91  31 2.91  32 2.91
   8  0.750  0.750  0.500-  10 2.91  12 2.91  14 2.91  16 2.91  19 2.91  20 2.91  23 2.91  24 2.91
                            29 2.91  30 2.91  31 2.91  32 2.91
   9  0.250  0.000  0.250-   3 2.91   5 2.91   7 2.91  17 2.91  18 2.91  19 2.91  20 2.91  25 2.91
                            26 2.91  29 2.91  30 2.91   1 2.91
  10  0.750  0.000  0.250-   2 2.91   4 2.91   6 2.91   8 2.91  17 2.91  18 2.91  19 2.91  20 2.91
                            25 2.91  26 2.91  29 2.91  30 2.91
  11  0.250  0.500  0.250-   3 2.91   5 2.91   7 2.91  17 2.91  18 2.91  19 2.91  20 2.91  27 2.91
                            28 2.91  31 2.91  32 2.91   1 2.91
  12  0.750  0.500  0.250-   2 2.91   4 2.91   6 2.91   8 2.91  17 2.91  18 2.91  19 2.91  20 2.91
                            27 2.91  28 2.91  31 2.91  32 2.91
  13  0.250  0.000  0.750-   3 2.91   5 2.91   7 2.91  21 2.91  22 2.91  23 2.91  24 2.91  25 2.91
                            26 2.91  29 2.91  30 2.91   1 2.91
  14  0.750  0.000  0.750-   2 2.91   4 2.91   6 2.91   8 2.91  21 2.91  22 2.91  23 2.91  24 2.91
                            25 2.91  26 2.91  29 2.91  30 2.91
  15  0.250  0.500  0.750-   3 2.91   5 2.91   7 2.91  21 2.91  22 2.91  23 2.91  24 2.91  27 2.91
                            28 2.91  31 2.91  32 2.91   1 2.91
  16  0.750  0.500  0.750-   2 2.91   4 2.91   6 2.91   8 2.91  21 2.91  22 2.91  23 2.91  24 2.91
                            27 2.91  28 2.91  31 2.91  32 2.91
  17  0.000  0.250  0.250-   2 2.91   5 2.91   6 2.91   9 2.91  10 2.91  11 2.91  12 2.91  25 2.91
                            27 2.91  29 2.91  31 2.91   1 2.92
  18  0.500  0.250  0.250-   1 2.90   2 2.91   5 2.91   6 2.91   9 2.91  10 2.91  11 2.91  12 2.91
                            26 2.91  28 2.91  30 2.91  32 2.91
  19  0.000  0.750  0.250-   3 2.91   4 2.91   7 2.91   8 2.91   9 2.91  10 2.91  11 2.91  12 2.91
                            25 2.91  27 2.91  29 2.91  31 2.91
  20  0.500  0.750  0.250-   3 2.91   4 2.91   7 2.91   8 2.91   9 2.91  10 2.91  11 2.91  12 2.91
                            26 2.91  28 2.91  30 2.91  32 2.91
  21  0.000  0.250  0.750-   2 2.91   5 2.91   6 2.91  13 2.91  14 2.91  15 2.91  16 2.91  25 2.91
                            27 2.91  29 2.91  31 2.91   1 2.92
  22  0.500  0.250  0.750-   1 2.90   2 2.91   5 2.91   6 2.91  13 2.91  14 2.91  15 2.91  16 2.91
                            26 2.91  28 2.91  30 2.91  32 2.91
  23  0.000  0.750  0.750-   3 2.91   4 2.91   7 2.91   8 2.91  13 2.91  14 2.91  15 2.91  16 2.91
                            25 2.91  27 2.91  29 2.91  31 2.91
  24  0.500  0.750  0.750-   3 2.91   4 2.91   7 2.91   8 2.91  13 2.91  14 2.91  15 2.91  16 2.91
                            26 2.91  28 2.91  30 2.91  32 2.91
  25  0.000  0.000  0.000-   2 2.91   3 2.91   4 2.91   9 2.91  10 2.91  13 2.91  14 2.91  17 2.91
                            19 2.91  21 2.91  23 2.91   1 2.92
  26  0.500  0.000  0.000-   1 2.90   2 2.91   3 2.91   4 2.91   9 2.91  10 2.91  13 2.91  14 2.91
                            18 2.91  20 2.91  22 2.91  24 2.91
  27  0.000  0.500  0.000-   2 2.91   3 2.91   4 2.91  11 2.91  12 2.91  15 2.91  16 2.91  17 2.91
                            19 2.91  21 2.91  23 2.91   1 2.92
  28  0.500  0.500  0.000-   1 2.90   2 2.91   3 2.91   4 2.91  11 2.91  12 2.91  15 2.91  16 2.91
                            18 2.91  20 2.91  22 2.91  24 2.91
  29  0.000  0.000  0.500-   5 2.91   6 2.91   7 2.91   8 2.91   9 2.91  10 2.91  13 2.91  14 2.91
                            17 2.91  19 2.91  21 2.91  23 2.91
  30  0.500  0.000  0.500-   5 2.91   6 2.91   7 2.91   8 2.91   9 2.91  10 2.91  13 2.91  14 2.91
                            18 2.91  20 2.91  22 2.91  24 2.91
  31  0.000  0.500  0.500-   5 2.91   6 2.91   7 2.91   8 2.91  11 2.91  12 2.91  15 2.91  16 2.91
                            17 2.91  19 2.91  21 2.91  23 2.91
  32  0.500  0.500  0.500-   5 2.91   6 2.91   7 2.91   8 2.91  11 2.91  12 2.91  15 2.91  16 2.91
                            18 2.91  20 2.91  22 2.91  24 2.91
 
  LATTYP: Found a simple cubic cell.
 ALAT       =     8.2361049941
  
  Lattice vectors:
  
 A1 = (   8.2361049941,   0.0000000000,   0.0000000000)
 A2 = (   0.0000000000,   8.2361049941,   0.0000000000)
 A3 = (   0.0000000000,   0.0000000000,   8.2361049941)
 Subroutine PRICEL returns:
 Original cell was already a primitive cell.
 

Analysis of symmetry for initial positions (statically):

 Routine SETGRP: Setting up the symmetry group for a 
 simple cubic supercell.


 Subroutine GETGRP returns: Found  8 space group operations
 (whereof  2 operations were pure point group operations)
 out of a pool of 48 trial point group operations.


The static configuration has the point symmetry C_1h.
 The point group associated with its full space group is C_4v.

Analysis of symmetry for dynamics (positions and initial velocities):

 Subroutine DYNSYM returns: Found  8 space group operations
 (whereof  2 operations were pure point group operations)
 out of a pool of  8 trial space group operations
 (whereof  2 operations were pure point group operations)
 and found also     1 'primitive' translations


The dynamic configuration has the point symmetry C_1h.
 The point group associated with its full space group is C_4v.
 
 
 KPOINTS: Automatic mesh                          

Automatic generation of k-mesh.
 generate k-points for:   6   6   6
 
 Subroutine IBZKPT returns following result:
 ===========================================
 
 Found     40 irreducible k-points:
 
 Following reciprocal coordinates:
            Coordinates               Weight
  0.000000  0.000000  0.000000      1.000000
  0.166667  0.000000  0.000000      2.000000
  0.333333  0.000000  0.000000      2.000000
  0.500000  0.000000  0.000000      1.000000
  0.000000  0.166667  0.000000      4.000000
  0.166667  0.166667  0.000000      8.000000
  0.333333  0.166667  0.000000      8.000000
  0.500000  0.166667  0.000000      4.000000
  0.000000  0.333333  0.000000      4.000000
  0.166667  0.333333  0.000000      8.000000
  0.333333  0.333333  0.000000      8.000000
  0.500000  0.333333  0.000000      4.000000
  0.000000  0.500000  0.000000      2.000000
  0.166667  0.500000  0.000000      4.000000
  0.333333  0.500000  0.000000      4.000000
  0.500000  0.500000  0.000000      2.000000
  0.000000  0.166667  0.166667      4.000000
  0.166667  0.166667  0.166667      8.000000
  0.333333  0.166667  0.166667      8.000000
  0.500000  0.166667  0.166667      4.000000
  0.000000  0.333333  0.166667      8.000000
  0.166667  0.333333  0.166667     16.000000
  0.333333  0.333333  0.166667     16.000000
  0.500000  0.333333  0.166667      8.000000
  0.000000  0.500000  0.166667      4.000000
  0.166667  0.500000  0.166667      8.000000
  0.333333  0.500000  0.166667      8.000000
  0.500000  0.500000  0.166667      4.000000
  0.000000  0.333333  0.333333      4.000000
  0.166667  0.333333  0.333333      8.000000
  0.333333  0.333333  0.333333      8.000000
  0.500000  0.333333  0.333333      4.000000
  0.000000  0.500000  0.333333      4.000000
  0.166667  0.500000  0.333333      8.000000
  0.333333  0.500000  0.333333      8.000000
  0.500000  0.500000  0.333333      4.000000
  0.000000  0.500000  0.500000      1.000000
  0.166667  0.500000  0.500000      2.000000
  0.333333  0.500000  0.500000      2.000000
  0.500000  0.500000  0.500000      1.000000
 
 Following cartesian coordinates:
            Coordinates               Weight
  0.000000  0.000000  0.000000      1.000000
  0.020236  0.000000  0.000000      2.000000
  0.040472  0.000000  0.000000      2.000000
  0.060708  0.000000  0.000000      1.000000
  0.000000  0.020236  0.000000      4.000000
  0.020236  0.020236  0.000000      8.000000
  0.040472  0.020236  0.000000      8.000000
  0.060708  0.020236  0.000000      4.000000
  0.000000  0.040472  0.000000      4.000000
  0.020236  0.040472  0.000000      8.000000
  0.040472  0.040472  0.000000      8.000000
  0.060708  0.040472  0.000000      4.000000
  0.000000  0.060708  0.000000      2.000000
  0.020236  0.060708  0.000000      4.000000
  0.040472  0.060708  0.000000      4.000000
  0.060708  0.060708  0.000000      2.000000
  0.000000  0.020236  0.020236      4.000000
  0.020236  0.020236  0.020236      8.000000
  0.040472  0.020236  0.020236      8.000000
  0.060708  0.020236  0.020236      4.000000
  0.000000  0.040472  0.020236      8.000000
  0.020236  0.040472  0.020236     16.000000
  0.040472  0.040472  0.020236     16.000000
  0.060708  0.040472  0.020236      8.000000
  0.000000  0.060708  0.020236      4.000000
  0.020236  0.060708  0.020236      8.000000
  0.040472  0.060708  0.020236      8.000000
  0.060708  0.060708  0.020236      4.000000
  0.000000  0.040472  0.040472      4.000000
  0.020236  0.040472  0.040472      8.000000
  0.040472  0.040472  0.040472      8.000000
  0.060708  0.040472  0.040472      4.000000
  0.000000  0.060708  0.040472      4.000000
  0.020236  0.060708  0.040472      8.000000
  0.040472  0.060708  0.040472      8.000000
  0.060708  0.060708  0.040472      4.000000
  0.000000  0.060708  0.060708      1.000000
  0.020236  0.060708  0.060708      2.000000
  0.040472  0.060708  0.060708      2.000000
  0.060708  0.060708  0.060708      1.000000
 


--------------------------------------------------------------------------------------------------------




 Dimension of arrays:
   k-Points           NKPTS =     40   number of bands    NBANDS=     72
   number of dos      NEDOS =    301   number of ions     NIONS =     32
   non local maximal  LDIM  =      4   non local SUM 2l+1 LMDIM =      8
   total plane-waves  NPLWV = 216000
   max r-space proj   IRMAX =      1   max aug-charges    IRDMAX=  15245
   dimension x,y,z NGX =    60 NGY =   60 NGZ =   60
   dimension x,y,z NGXF=   120 NGYF=  120 NGZF=  120
   support grid    NGXF=   120 NGYF=  120 NGZF=  120
   ions per type =              32
 NGX,Y,Z   is equivalent  to a cutoff of  12.11, 12.11, 12.11 a.u.
 NGXF,Y,Z  is equivalent  to a cutoff of  24.22, 24.22, 24.22 a.u.


 I would recommend the setting:
   dimension x,y,z NGX =    60 NGY =   60 NGZ =   60
 SYSTEM =  unknown system                          
 POSCAR =  Al                                      

 Startparameter for this run:
   NWRITE =      2    write-flag & timer
   PREC   = accura    medium, high low
   ISTART =      0    job   : 0-new  1-cont  2-samecut
   ICHARG =      2    charge: 1-file 2-atom 10-const
   ISPIN  =      1    spin polarized calculation?
   LNONCOLLINEAR =      F non collinear calculations
   LSORBIT =      F    spin-orbit coupling
   INIWAV =      1    electr: 0-lowe 1-rand  2-diag
   LASPH  =      F    aspherical Exc in radial PAW
   METAGGA=      F    non-selfconsistent MetaGGA calc.

 Electronic Relaxation 1
   ENCUT  =  500.0 eV  36.75 Ry    6.06 a.u.  15.02 15.02 15.02*2*pi/ulx,y,z
   ENINI  =  500.0     initial cutoff
   ENAUG  =  291.1 eV  augmentation charge cutoff
   NELM   =     60;   NELMIN=  2; NELMDL=  0     # of ELM steps 
   EDIFF  = 0.1E-07   stopping-criterion for ELM
   LREAL  =      F    real-space projection
   LCOMPAT=      F    compatible to vasp.4.4
   LREAL_COMPAT= F    compatible to vasp.4.5.1-3
   GGA_COMPAT  = T    GGA compatible to vasp.4.4-vasp.4.6
   LMAXPAW     = -100 max onsite density
   LMAXMIX     =    2 max onsite mixed and CHGCAR
   VOSKOWN=      0    Vosko Wilk Nusair interpolation
   ROPT   =    0.00000
 Ionic relaxation
   EDIFFG = 0.1E-06   stopping-criterion for IOM
   NSW    =      0    number of steps for IOM
   NBLOCK =      1;   KBLOCK =      1    inner block; outer block 
   IBRION =     -1    ionic relax: 0-MD 1-quasi-New 2-CG
   NFREE  =      0    steps in history (QN), initial steepest desc. (CG)
   ISIF   =      2    stress and relaxation
   IWAVPR =     10    prediction:  0-non 1-charg 2-wave 3-comb
   ISYM   =      2    0-nonsym 1-usesym 2-fastsym
   LCORR  =      T    Harris-Foulkes like correction to forces

   POTIM  =   0.50    time-step for ionic-motion
   TEIN   =    0.0    initial temperature
   TEBEG  =    0.0;   TEEND  =   0.0 temperature during run
   SMASS  =  -3.00    Nose mass-parameter (am)
   estimated Nose-frequenzy (Omega)   =  0.10E-29 period in steps =****** mass=  -0.155E-26a.u.
   NPACO  =    256;   APACO  = 16.0  distance and # of slots for P.C.
   PSTRESS=    0.0 pullay stress

  Mass of Ions in am
   POMASS =  26.98
  Ionic Valenz
   ZVAL   =   3.00
  Atomic Wigner-Seitz radii
   RWIGS  =  -1.00
   NELECT =      96.0000    total number of electrons
   NUPDOWN=      -1.0000    fix difference up-down

 DOS related values:
   EMIN   =  10.00;   EMAX   =-10.00  energy-range for DOS
   ISMEAR =     0;   SIGMA  =   0.01  broadening in eV -4-tet -1-fermi 0-gaus

 Electronic relaxation 2 (details)
   IALGO  =     38    algorithm
   LDIAG  =      T    sub-space diagonalisation
   IMIX   =      4    mixing-type and parameters
     AMIX     =   0.40;   BMIX     =  1.00
     AMIX_MAG =   1.60;   BMIX_MAG =  1.00
     AMIN     =   0.10
     WC   =   100.;   INIMIX=   1;  MIXPRE=   1

 Intra band minimization:
   WEIMIN = 0.0000     energy-eigenvalue tresh-hold
   EBREAK =  0.38E-10  absolut break condition
   DEPER  =   0.30     relativ break condition  

   TIME   =   0.10     timestep for ELM

  volume/ion in A,a.u.               =      17.46       117.82
  Fermi-wavevector in a.u.,eV,Ry     =   0.910144 11.270547  0.828362

 Second variation
   LSECVAR=     F    do a second variation
 
 Write flags
   LWAVE  =      F    write WAVECAR
   LCHARG =      F    write CHGCAR
   LVTOT  =      F    write LOCPOT, local potential
   LELF   =      F    write electronic localiz. function (ELF)
   LORBIT =      0    0 simple, 1 ext, 2 COOP (PROOUT)


 Dipole corrections
   IDIPOL =      0    1-x, 2-y, 3-z
   LDIPOL =      F    correct potential



--------------------------------------------------------------------------------------------------------


 Static calculation
 charge density will be updated during run
 non-spin polarized calculation
 Variant of blocked Davidson
 Davidson routine will perform the subspace rotation
 performe sub-space diagonalisation
    after iterative eigenvector-optimisation
 modified Broyden-mixing scheme, WC =      100.0
 initial mixing is a Kerker type mixing with AMIX =  0.4000 and BMIX =      1.0000
 Hartree-type preconditioning will be used
 using additional bands           24
 reciprocal scheme for non local part
 use partial core corrections
 calculate Harris-corrections to forces 
   (improved forces if not selfconsistent)
 use gradient corrections 
 use of overlap-Matrix (Vanderbilt PP)
 Gauss-broadening in eV      SIGMA  =   0.01


--------------------------------------------------------------------------------------------------------


  energy-cutoff  :      500.00
  volume of cell :      558.68
      direct lattice vectors                 reciprocal lattice vectors
     8.236104994  0.000000000  0.000000000     0.121416616  0.000000000  0.000000000
     0.000000000  8.236104994  0.000000000     0.000000000  0.121416616  0.000000000
     0.000000000  0.000000000  8.236104994     0.000000000  0.000000000  0.121416616

  length of vectors
     8.236104994  8.236104994  8.236104994     0.121416616  0.121416616  0.121416616


 
 k-points in units of 2pi/SCALE and weight: Automatic mesh                          
   0.00000000  0.00000000  0.00000000       0.005
   0.02023610  0.00000000  0.00000000       0.009
   0.04047221  0.00000000  0.00000000       0.009
   0.06070831  0.00000000  0.00000000       0.005
   0.00000000  0.02023610  0.00000000       0.019
   0.02023610  0.02023610  0.00000000       0.037
   0.04047221  0.02023610  0.00000000       0.037
   0.06070831  0.02023610  0.00000000       0.019
   0.00000000  0.04047221  0.00000000       0.019
   0.02023610  0.04047221  0.00000000       0.037
   0.04047221  0.04047221  0.00000000       0.037
   0.06070831  0.04047221  0.00000000       0.019
   0.00000000  0.06070831  0.00000000       0.009
   0.02023610  0.06070831  0.00000000       0.019
   0.04047221  0.06070831  0.00000000       0.019
   0.06070831  0.06070831  0.00000000       0.009
   0.00000000  0.02023610  0.02023610       0.019
   0.02023610  0.02023610  0.02023610       0.037
   0.04047221  0.02023610  0.02023610       0.037
   0.06070831  0.02023610  0.02023610       0.019
   0.00000000  0.04047221  0.02023610       0.037
   0.02023610  0.04047221  0.02023610       0.074
   0.04047221  0.04047221  0.02023610       0.074
   0.06070831  0.04047221  0.02023610       0.037
   0.00000000  0.06070831  0.02023610       0.019
   0.02023610  0.06070831  0.02023610       0.037
   0.04047221  0.06070831  0.02023610       0.037
   0.06070831  0.06070831  0.02023610       0.019
   0.00000000  0.04047221  0.04047221       0.019
   0.02023610  0.04047221  0.04047221       0.037
   0.04047221  0.04047221  0.04047221       0.037
   0.06070831  0.04047221  0.04047221       0.019
   0.00000000  0.06070831  0.04047221       0.019
   0.02023610  0.06070831  0.04047221       0.037
   0.04047221  0.06070831  0.04047221       0.037
   0.06070831  0.06070831  0.04047221       0.019
   0.00000000  0.06070831  0.06070831       0.005
   0.02023610  0.06070831  0.06070831       0.009
   0.04047221  0.06070831  0.06070831       0.009
   0.06070831  0.06070831  0.06070831       0.005
 
 k-points in reciprocal lattice and weights: Automatic mesh                          
   0.00000000  0.00000000  0.00000000       0.005
   0.16666667  0.00000000  0.00000000       0.009
   0.33333333  0.00000000  0.00000000       0.009
   0.50000000  0.00000000  0.00000000       0.005
   0.00000000  0.16666667  0.00000000       0.019
   0.16666667  0.16666667  0.00000000       0.037
   0.33333333  0.16666667  0.00000000       0.037
   0.50000000  0.16666667  0.00000000       0.019
   0.00000000  0.33333333  0.00000000       0.019
   0.16666667  0.33333333  0.00000000       0.037
   0.33333333  0.33333333  0.00000000       0.037
   0.50000000  0.33333333  0.00000000       0.019
   0.00000000  0.50000000  0.00000000       0.009
   0.16666667  0.50000000  0.00000000       0.019
   0.33333333  0.50000000  0.00000000       0.019
   0.50000000  0.50000000  0.00000000       0.009
   0.00000000  0.16666667  0.16666667       0.019
   0.16666667  0.16666667  0.16666667       0.037
   0.33333333  0.16666667  0.16666667       0.037
   0.50000000  0.16666667  0.16666667       0.019
   0.00000000  0.33333333  0.16666667       0.037
   0.16666667  0.33333333  0.16666667       0.074
   0.33333333  0.33333333  0.16666667       0.074
   0.50000000  0.33333333  0.16666667       0.037
   0.00000000  0.50000000  0.16666667       0.019
   0.16666667  0.50000000  0.16666667       0.037
   0.33333333  0.50000000  0.16666667       0.037
   0.50000000  0.50000000  0.16666667       0.019
   0.00000000  0.33333333  0.33333333       0.019
   0.16666667  0.33333333  0.33333333       0.037
   0.33333333  0.33333333  0.33333333       0.037
   0.50000000  0.33333333  0.33333333       0.019
   0.00000000  0.50000000  0.33333333       0.019
   0.16666667  0.50000000  0.33333333       0.037
   0.33333333  0.50000000  0.33333333       0.037
   0.50000000  0.50000000  0.33333333       0.019
   0.00000000  0.50000000  0.50000000       0.005
   0.16666667  0.50000000  0.50000000       0.009
   0.33333333  0.50000000  0.50000000       0.009
   0.50000000  0.50000000  0.50000000       0.005
 
 position of ions in fractional coordinates (direct lattice) 
   0.25121417  0.25000000  0.00000000
   0.75000000  0.25000000  0.00000000
   0.25000000  0.75000000  0.00000000
   0.75000000  0.75000000  0.00000000
   0.25000000  0.25000000  0.50000000
   0.75000000  0.25000000  0.50000000
   0.25000000  0.75000000  0.50000000
   0.75000000  0.75000000  0.50000000
   0.25000000  0.00000000  0.25000000
   0.75000000  0.00000000  0.25000000
   0.25000000  0.50000000  0.25000000
   0.75000000  0.50000000  0.25000000
   0.25000000  0.00000000  0.75000000
   0.75000000  0.00000000  0.75000000
   0.25000000  0.50000000  0.75000000
   0.75000000  0.50000000  0.75000000
   0.00000000  0.25000000  0.25000000
   0.50000000  0.25000000  0.25000000
   0.00000000  0.75000000  0.25000000
   0.50000000  0.75000000  0.25000000
   0.00000000  0.25000000  0.75000000
   0.50000000  0.25000000  0.75000000
   0.00000000  0.75000000  0.75000000
   0.50000000  0.75000000  0.75000000
   0.00000000  0.00000000  0.00000000
   0.50000000  0.00000000  0.00000000
   0.00000000  0.50000000  0.00000000
   0.50000000  0.50000000  0.00000000
   0.00000000  0.00000000  0.50000000
   0.50000000  0.00000000  0.50000000
   0.00000000  0.50000000  0.50000000
   0.50000000  0.50000000  0.50000000
 
 position of ions in cartesian coordinates  (Angst):
   2.06902625  2.05902625  0.00000000
   6.17707875  2.05902625  0.00000000
   2.05902625  6.17707875  0.00000000
   6.17707875  6.17707875  0.00000000
   2.05902625  2.05902625  4.11805250
   6.17707875  2.05902625  4.11805250
   2.05902625  6.17707875  4.11805250
   6.17707875  6.17707875  4.11805250
   2.05902625  0.00000000  2.05902625
   6.17707875  0.00000000  2.05902625
   2.05902625  4.11805250  2.05902625
   6.17707875  4.11805250  2.05902625
   2.05902625  0.00000000  6.17707875
   6.17707875  0.00000000  6.17707875
   2.05902625  4.11805250  6.17707875
   6.17707875  4.11805250  6.17707875
   0.00000000  2.05902625  2.05902625
   4.11805250  2.05902625  2.05902625
   0.00000000  6.17707875  2.05902625
   4.11805250  6.17707875  2.05902625
   0.00000000  2.05902625  6.17707875
   4.11805250  2.05902625  6.17707875
   0.00000000  6.17707875  6.17707875
   4.11805250  6.17707875  6.17707875
   0.00000000  0.00000000  0.00000000
   4.11805250  0.00000000  0.00000000
   0.00000000  4.11805250  0.00000000
   4.11805250  4.11805250  0.00000000
   0.00000000  0.00000000  4.11805250
   4.11805250  0.00000000  4.11805250
   0.00000000  4.11805250  4.11805250
   4.11805250  4.11805250  4.11805250
 


--------------------------------------------------------------------------------------------------------


 k-point  1 :  0.00000.00000.0000  plane waves:  14147
 k-point  2 :  0.16670.00000.0000  plane waves:  14154
 k-point  3 :  0.33330.00000.0000  plane waves:  14226
 k-point  4 :  0.50000.00000.0000  plane waves:  14190
 k-point  5 :  0.00000.16670.0000  plane waves:  14154
 k-point  6 :  0.16670.16670.0000  plane waves:  14167
 k-point  7 :  0.33330.16670.0000  plane waves:  14179
 k-point  8 :  0.50000.16670.0000  plane waves:  14176
 k-point  9 :  0.00000.33330.0000  plane waves:  14226
 k-point 10 :  0.16670.33330.0000  plane waves:  14179
 k-point 11 :  0.33330.33330.0000  plane waves:  14163
 k-point 12 :  0.50000.33330.0000  plane waves:  14156
 k-point 13 :  0.00000.50000.0000  plane waves:  14190
 k-point 14 :  0.16670.50000.0000  plane waves:  14176
 k-point 15 :  0.33330.50000.0000  plane waves:  14156
 k-point 16 :  0.50000.50000.0000  plane waves:  14108
 k-point 17 :  0.00000.16670.1667  plane waves:  14167
 k-point 18 :  0.16670.16670.1667  plane waves:  14192
 k-point 19 :  0.33330.16670.1667  plane waves:  14175
 k-point 20 :  0.50000.16670.1667  plane waves:  14180
 k-point 21 :  0.00000.33330.1667  plane waves:  14179
 k-point 22 :  0.16670.33330.1667  plane waves:  14175
 k-point 23 :  0.33330.33330.1667  plane waves:  14203
 k-point 24 :  0.50000.33330.1667  plane waves:  14190
 k-point 25 :  0.00000.50000.1667  plane waves:  14176
 k-point 26 :  0.16670.50000.1667  plane waves:  14180
 k-point 27 :  0.33330.50000.1667  plane waves:  14190
 k-point 28 :  0.50000.50000.1667  plane waves:  14200
 k-point 29 :  0.00000.33330.3333  plane waves:  14163
 k-point 30 :  0.16670.33330.3333  plane waves:  14203
 k-point 31 :  0.33330.33330.3333  plane waves:  14205
 k-point 32 :  0.50000.33330.3333  plane waves:  14212
 k-point 33 :  0.00000.50000.3333  plane waves:  14156
 k-point 34 :  0.16670.50000.3333  plane waves:  14190
 k-point 35 :  0.33330.50000.3333  plane waves:  14212
 k-point 36 :  0.50000.50000.3333  plane waves:  14188
 k-point 37 :  0.00000.50000.5000  plane waves:  14108
 k-point 38 :  0.16670.50000.5000  plane waves:  14200
 k-point 39 :  0.33330.50000.5000  plane waves:  14188
 k-point 40 :  0.50000.50000.5000  plane waves:  14328

 maximum and minimum number of plane-waves per node :  14328 14108

 maximum number of plane-waves:  14328
 maximal index in each direction: 
   IXMAX= 15   IYMAX= 15   IZMAX= 15
   IXMIN=-15   IYMIN=-15   IZMIN=-15

 WARNING: wrap around error must be expected set NGX to  62
 WARNING: wrap around error must be expected set NGY to  62
 WARNING: wrap around error must be expected set NGZ to  62

 parallel 3dFFT wavefunction:
    minimum data exchange during FFTs selected (reduces bandwidth)
 parallel 3dFFT charge:
    minimum data exchange during FFTs selected (reduces bandwidth)

 For storing wavefunctions  653.54 MBYTES are necessary
 For predicting wavefunctions   36.30 MBYTES are necessary
Broyden mixing: mesh for mixing (old mesh)
   NGX = 31   NGY = 31   NGZ = 31
  (NGX  =120   NGY  =120   NGZ  =120)
 gives a total of  29791 points
 initial charge density was supplied:
 charge density of overlapping atoms calculated
 number of electron   96.0000000 magnetization 
 keeping initial charge density in first step


--------------------------------------------------------------------------------------------------------


 Maximum index for augmentation-charges         1900 (set IRDMAX)


--------------------------------------------------------------------------------------------------------


 First call to EWALD:  gamma=   0.215
 Maximum number of real-space cells 3x 3x 3
 Maximum number of reciprocal cells 3x 3x 3

    FEWALD:  VPU time    0.00: CPU time    0.00


----------------------------------------- Iteration    1(   1)  ---------------------------------------


    POTLOK:  VPU time    0.14: CPU time    0.14
    SETDIJ:  VPU time    0.01: CPU time    0.01
    EDDAV :  VPU time   16.02: CPU time   16.03
    DOS   :  VPU time    0.00: CPU time   -0.00
    ------------------------------------------
      LOOP:  VPU time   16.17: CPU time   16.19

 eigenvalue-minimisations  :  5760
 total energy-change (2. order) : 0.1125320E+03  (-0.3220699E+04)
 number of electron   96.0000000 magnetization 
 augmentation part    96.0000000 magnetization 

 Free energy of the ion-electron system (eV)
  ---------------------------------------------------
  alpha Z        PSCENC =        -6.15630361
  Ewald energy   TEWEN  =     -2308.62146778
  -1/2 Hartree   DENC   =        -4.03024973
  -V(xc)+E(xc)   XCENC  =      -842.89020552
  PAW double counting   =      1137.73615723     -115.16745734
  entropy T*S    EENTRO =        -0.00030446
  eigenvalues    EBANDS =       538.43272223
  atomic energy  EATOM  =      1713.22913220
  ---------------------------------------------------
  free energy    TOTEN  =       112.53202321 eV

  energy without entropy =      112.53232767  energy(sigma->0) =      112.53217544


--------------------------------------------------------------------------------------------------------




----------------------------------------- Iteration    1(   2)  ---------------------------------------


    EDDAV :  VPU time   19.13: CPU time   19.12
    DOS   :  VPU time    0.00: CPU time   -0.00
    ------------------------------------------
      LOOP:  VPU time   19.13: CPU time   19.13

 eigenvalue-minimisations  :  6800
 total energy-change (2. order) :-0.2198288E+03  (-0.2038760E+03)
 number of electron   96.0000000 magnetization 
 augmentation part    96.0000000 magnetization 

 Free energy of the ion-electron system (eV)
  ---------------------------------------------------
  alpha Z        PSCENC =        -6.15630361
  Ewald energy   TEWEN  =     -2308.62146778
  -1/2 Hartree   DENC   =        -4.03024973
  -V(xc)+E(xc)   XCENC  =      -842.89020552
  PAW double counting   =      1137.73615723     -115.16745734
  entropy T*S    EENTRO =        -0.00114535
  eigenvalues    EBANDS =       318.60476314
  atomic energy  EATOM  =      1713.22913220
  ---------------------------------------------------
  free energy    TOTEN  =      -107.29677677 eV

  energy without entropy =     -107.29563142  energy(sigma->0) =     -107.29620409


--------------------------------------------------------------------------------------------------------




----------------------------------------- Iteration    1(   3)  ---------------------------------------


    EDDAV :  VPU time   22.54: CPU time   22.53
    DOS   :  VPU time    0.00: CPU time   -0.00
    ------------------------------------------
      LOOP:  VPU time   22.54: CPU time   22.54

 eigenvalue-minimisations  :  7232
 total energy-change (2. order) :-0.1252831E+02  (-0.1194263E+02)
 number of electron   96.0000000 magnetization 
 augmentation part    96.0000000 magnetization 

 Free energy of the ion-electron system (eV)
  ---------------------------------------------------
  alpha Z        PSCENC =        -6.15630361
  Ewald energy   TEWEN  =     -2308.62146778
  -1/2 Hartree   DENC   =        -4.03024973
  -V(xc)+E(xc)   XCENC  =      -842.89020552
  PAW double counting   =      1137.73615723     -115.16745734
  entropy T*S    EENTRO =        -0.00155466
  eigenvalues    EBANDS =       306.07686121
  atomic energy  EATOM  =      1713.22913220
  ---------------------------------------------------
  free energy    TOTEN  =      -119.82508801 eV

  energy without entropy =     -119.82353335  energy(sigma->0) =     -119.82431068


--------------------------------------------------------------------------------------------------------




----------------------------------------- Iteration    1(   4)  ---------------------------------------


    EDDAV :  VPU time   21.25: CPU time   21.24
    DOS   :  VPU time    0.00: CPU time   -0.00
    ------------------------------------------
      LOOP:  VPU time   21.25: CPU time   21.25

 eigenvalue-minimisations  :  6720
 total energy-change (2. order) :-0.2346060E+00  (-0.2326312E+00)
 number of electron   96.0000000 magnetization 
 augmentation part    96.0000000 magnetization 

 Free energy of the ion-electron system (eV)
  ---------------------------------------------------
  alpha Z        PSCENC =        -6.15630361
  Ewald energy   TEWEN  =     -2308.62146778
  -1/2 Hartree   DENC   =        -4.03024973
  -V(xc)+E(xc)   XCENC  =      -842.89020552
  PAW double counting   =      1137.73615723     -115.16745734
  entropy T*S    EENTRO =        -0.00194213
  eigenvalues    EBANDS =       305.84264266
  atomic energy  EATOM  =      1713.22913220
  ---------------------------------------------------
  free energy    TOTEN  =      -120.05969403 eV

  energy without entropy =     -120.05775190  energy(sigma->0) =     -120.05872296


--------------------------------------------------------------------------------------------------------




----------------------------------------- Iteration    1(   5)  ---------------------------------------


    EDDAV :  VPU time   23.28: CPU time   23.27
    DOS   :  VPU time    0.00: CPU time   -0.00
    CHARGE:  VPU time    0.98: CPU time    0.98
    MIXING:  VPU time    0.00: CPU time    0.00
    ------------------------------------------
      LOOP:  VPU time   24.27: CPU time   24.26

 eigenvalue-minimisations  :  6784
 total energy-change (2. order) :-0.2869150E-02  (-0.2867668E-02)
 number of electron   95.9999996 magnetization 
 augmentation part    -1.2313245 magnetization 

 Broyden mixing:
  rms(total) = 0.51316E+00    rms(broyden)= 0.51316E+00
  rms(prec ) = 0.74642E+00
  weight for this iteration     100.00

 Free energy of the ion-electron system (eV)
  ---------------------------------------------------
  alpha Z        PSCENC =        -6.15630361
  Ewald energy   TEWEN  =     -2308.62146778
  -1/2 Hartree   DENC   =        -4.03024973
  -V(xc)+E(xc)   XCENC  =      -842.89020552
  PAW double counting   =      1137.73615723     -115.16745734
  entropy T*S    EENTRO =        -0.00194413
  eigenvalues    EBANDS =       305.83977551
  atomic energy  EATOM  =      1713.22913220
  ---------------------------------------------------
  free energy    TOTEN  =      -120.06256318 eV

  energy without entropy =     -120.06061904  energy(sigma->0) =     -120.06159111


--------------------------------------------------------------------------------------------------------




----------------------------------------- Iteration    1(   6)  ---------------------------------------


    POTLOK:  VPU time    0.35: CPU time    0.35
    SETDIJ:  VPU time    0.01: CPU time    0.01
    EDDAV :  VPU time   32.56: CPU time   32.55
    DOS   :  VPU time    0.00: CPU time   -0.00
    CHARGE:  VPU time    1.15: CPU time    1.15
    MIXING:  VPU time    0.00: CPU time    0.00
    ------------------------------------------
      LOOP:  VPU time   34.08: CPU time   34.07

 eigenvalue-minimisations  :  6616
 total energy-change (2. order) : 0.4071965E+00  (-0.5976500E-02)
 number of electron   95.9999996 magnetization 
 augmentation part    -1.2498774 magnetization 

 Broyden mixing:
  rms(total) = 0.31845E+00    rms(broyden)= 0.31845E+00
  rms(prec ) = 0.46481E+00
  weight for this iteration     100.00

 eigenvalues of (default mixing * dielectric matrix)
  average eigenvalue GAMMA=   2.6256
  2.6256

 Free energy of the ion-electron system (eV)
  ---------------------------------------------------
  alpha Z        PSCENC =        -6.15630361
  Ewald energy   TEWEN  =     -2308.62146778
  -1/2 Hartree   DENC   =        -3.13222150
  -V(xc)+E(xc)   XCENC  =      -841.91582946
  PAW double counting   =      1136.64118641     -114.06600701
  entropy T*S    EENTRO =        -0.00208769
  eigenvalues    EBANDS =       304.36823176
  atomic energy  EATOM  =      1713.22913220
  ---------------------------------------------------
  free energy    TOTEN  =      -119.65536668 eV

  energy without entropy =     -119.65327899  energy(sigma->0) =     -119.65432284


--------------------------------------------------------------------------------------------------------




----------------------------------------- Iteration    1(   7)  ---------------------------------------


    POTLOK:  VPU time    0.26: CPU time    0.26
    SETDIJ:  VPU time    0.02: CPU time    0.02
    EDDAV :  VPU time   30.78: CPU time   30.77
    DOS   :  VPU time    0.00: CPU time   -0.00
    CHARGE:  VPU time    1.37: CPU time    1.37
    MIXING:  VPU time    0.00: CPU time    0.00
    ------------------------------------------
      LOOP:  VPU time   32.45: CPU time   32.44

 eigenvalue-minimisations  :  6320
 total energy-change (2. order) : 0.2946786E+00  (-0.1761610E-01)
 number of electron   95.9999996 magnetization 
 augmentation part    -1.2848199 magnetization 

 Broyden mixing:
  rms(total) = 0.13867E-01    rms(broyden)= 0.13867E-01
  rms(prec ) = 0.16864E-01
  weight for this iteration     100.00

 eigenvalues of (default mixing * dielectric matrix)
  average eigenvalue GAMMA=   2.4990
  2.4990  2.4990

 Free energy of the ion-electron system (eV)
  ---------------------------------------------------
  alpha Z        PSCENC =        -6.15630361
  Ewald energy   TEWEN  =     -2308.62146778
  -1/2 Hartree   DENC   =        -3.04021080
  -V(xc)+E(xc)   XCENC  =      -839.88829640
  PAW double counting   =      1134.95443763     -112.42518207
  entropy T*S    EENTRO =        -0.00205010
  eigenvalues    EBANDS =       302.58925287
  atomic energy  EATOM  =      1713.22913220
  ---------------------------------------------------
  free energy    TOTEN  =      -119.36068806 eV

  energy without entropy =     -119.35863795  energy(sigma->0) =     -119.35966301


--------------------------------------------------------------------------------------------------------




----------------------------------------- Iteration    1(   8)  ---------------------------------------


    POTLOK:  VPU time    0.24: CPU time    0.25
    SETDIJ:  VPU time    0.02: CPU time    0.02
    EDDAV :  VPU time   32.49: CPU time   32.48
    DOS   :  VPU time    0.00: CPU time   -0.00
    CHARGE:  VPU time    1.17: CPU time    1.17
    MIXING:  VPU time    0.00: CPU time    0.01
    ------------------------------------------
      LOOP:  VPU time   33.93: CPU time   33.94

 eigenvalue-minimisations  :  6856
 total energy-change (2. order) : 0.7525583E-05  (-0.1368782E-03)
 number of electron   95.9999996 magnetization 
 augmentation part    -1.2868732 magnetization 

 Broyden mixing:
  rms(total) = 0.42854E-02    rms(broyden)= 0.42854E-02
  rms(prec ) = 0.57607E-02
  weight for this iteration     100.00

 eigenvalues of (default mixing * dielectric matrix)
  average eigenvalue GAMMA=   2.0755
  0.9883  2.6883  2.5499

 Free energy of the ion-electron system (eV)
  ---------------------------------------------------
  alpha Z        PSCENC =        -6.15630361
  Ewald energy   TEWEN  =     -2308.62146778
  -1/2 Hartree   DENC   =        -3.09453894
  -V(xc)+E(xc)   XCENC  =      -839.84463928
  PAW double counting   =      1136.07114951     -113.61332855
  entropy T*S    EENTRO =        -0.00205471
  eigenvalues    EBANDS =       302.67137062
  atomic energy  EATOM  =      1713.22913220
  ---------------------------------------------------
  free energy    TOTEN  =      -119.36068053 eV

  energy without entropy =     -119.35862583  energy(sigma->0) =     -119.35965318


--------------------------------------------------------------------------------------------------------




----------------------------------------- Iteration    1(   9)  ---------------------------------------


    POTLOK:  VPU time    0.45: CPU time    0.45
    SETDIJ:  VPU time    0.03: CPU time    0.03
    EDDAV :  VPU time   39.13: CPU time   39.12
    DOS   :  VPU time    0.00: CPU time   -0.00
    CHARGE:  VPU time    1.32: CPU time    1.32
    MIXING:  VPU time    0.00: CPU time    0.00
    ------------------------------------------
      LOOP:  VPU time   40.93: CPU time   40.92

 eigenvalue-minimisations  :  6752
 total energy-change (2. order) :-0.2146987E-04  (-0.4824897E-05)
 number of electron   95.9999996 magnetization 
 augmentation part    -1.2877421 magnetization 

 Broyden mixing:
  rms(total) = 0.34731E-03    rms(broyden)= 0.34730E-03
  rms(prec ) = 0.52001E-03
  weight for this iteration     100.00

 eigenvalues of (default mixing * dielectric matrix)
  average eigenvalue GAMMA=   1.9228
  2.6759  2.5612  0.9935  1.4605

 Free energy of the ion-electron system (eV)
  ---------------------------------------------------
  alpha Z        PSCENC =        -6.15630361
  Ewald energy   TEWEN  =     -2308.62146778
  -1/2 Hartree   DENC   =        -3.12521862
  -V(xc)+E(xc)   XCENC  =      -839.80556906
  PAW double counting   =      1136.43276352     -114.00305153
  entropy T*S    EENTRO =        -0.00205824
  eigenvalues    EBANDS =       302.69107112
  atomic energy  EATOM  =      1713.22913220
  ---------------------------------------------------
  free energy    TOTEN  =      -119.36070200 eV

  energy without entropy =     -119.35864376  energy(sigma->0) =     -119.35967288


--------------------------------------------------------------------------------------------------------




----------------------------------------- Iteration    1(  10)  ---------------------------------------


    POTLOK:  VPU time    0.30: CPU time    0.30
    SETDIJ:  VPU time    0.02: CPU time    0.02
    EDDAV :  VPU time   39.68: CPU time   39.67
    DOS   :  VPU time    0.00: CPU time   -0.00
    CHARGE:  VPU time    1.31: CPU time    1.31
    MIXING:  VPU time    0.01: CPU time    0.01
    ------------------------------------------
      LOOP:  VPU time   41.32: CPU time   41.31

 eigenvalue-minimisations  :  6856
 total energy-change (2. order) : 0.6815451E-06  (-0.2075793E-06)
 number of electron   95.9999996 magnetization 
 augmentation part    -1.2878295 magnetization 

 Broyden mixing:
  rms(total) = 0.19536E-03    rms(broyden)= 0.19536E-03
  rms(prec ) = 0.26113E-03
  weight for this iteration     100.00

 eigenvalues of (default mixing * dielectric matrix)
  average eigenvalue GAMMA=   1.8925
  2.6376  2.6376  2.3024  1.0352  0.8495

 Free energy of the ion-electron system (eV)
  ---------------------------------------------------
  alpha Z        PSCENC =        -6.15630361
  Ewald energy   TEWEN  =     -2308.62146778
  -1/2 Hartree   DENC   =        -3.12662395
  -V(xc)+E(xc)   XCENC  =      -839.80406537
  PAW double counting   =      1136.39179221     -113.96135967
  entropy T*S    EENTRO =        -0.00205868
  eigenvalues    EBANDS =       302.69025332
  atomic energy  EATOM  =      1713.22913220
  ---------------------------------------------------
  free energy    TOTEN  =      -119.36070132 eV

  energy without entropy =     -119.35864264  energy(sigma->0) =     -119.35967198


--------------------------------------------------------------------------------------------------------




----------------------------------------- Iteration    1(  11)  ---------------------------------------


    POTLOK:  VPU time    0.24: CPU time    0.24
    SETDIJ:  VPU time    0.04: CPU time    0.04
    EDDAV :  VPU time   46.15: CPU time   46.14
    DOS   :  VPU time    0.00: CPU time   -0.00
    CHARGE:  VPU time    1.31: CPU time    1.31
    MIXING:  VPU time    0.00: CPU time    0.00
    ------------------------------------------
      LOOP:  VPU time   47.74: CPU time   47.73

 eigenvalue-minimisations  :  6752
 total energy-change (2. order) : 0.3567537E-05  (-0.1815753E-07)
 number of electron   95.9999996 magnetization 
 augmentation part    -1.2878445 magnetization 

 Broyden mixing:
  rms(total) = 0.69488E-04    rms(broyden)= 0.69488E-04
  rms(prec ) = 0.90466E-04
  weight for this iteration     100.00

 eigenvalues of (default mixing * dielectric matrix)
  average eigenvalue GAMMA=   1.8294
  2.6958  2.6958  2.4986  1.2569  1.0081  0.8213

 Free energy of the ion-electron system (eV)
  ---------------------------------------------------
  alpha Z        PSCENC =        -6.15630361
  Ewald energy   TEWEN  =     -2308.62146778
  -1/2 Hartree   DENC   =        -3.12675679
  -V(xc)+E(xc)   XCENC  =      -839.80455593
  PAW double counting   =      1136.33419949     -113.90192809
  entropy T*S    EENTRO =        -0.00205891
  eigenvalues    EBANDS =       302.68904166
  atomic energy  EATOM  =      1713.22913220
  ---------------------------------------------------
  free energy    TOTEN  =      -119.36069775 eV

  energy without entropy =     -119.35863885  energy(sigma->0) =     -119.35966830


--------------------------------------------------------------------------------------------------------




----------------------------------------- Iteration    1(  12)  ---------------------------------------


    POTLOK:  VPU time    0.52: CPU time    0.52
    SETDIJ:  VPU time    0.02: CPU time    0.02
    EDDAV :  VPU time   31.43: CPU time   31.42
    DOS   :  VPU time    0.00: CPU time   -0.00
    CHARGE:  VPU time    1.15: CPU time    1.15
    MIXING:  VPU time    0.01: CPU time    0.01
    ------------------------------------------
      LOOP:  VPU time   33.13: CPU time   33.13

 eigenvalue-minimisations  :  4456
 total energy-change (2. order) : 0.1025113E-05  (-0.2061429E-08)
 number of electron   95.9999996 magnetization 
 augmentation part    -1.2878519 magnetization 

 Broyden mixing:
  rms(total) = 0.14403E-04    rms(broyden)= 0.14403E-04
  rms(prec ) = 0.22345E-04
  weight for this iteration     100.00

 eigenvalues of (default mixing * dielectric matrix)
  average eigenvalue GAMMA=   1.7634
  2.6888  2.6888  2.4720  1.5946  1.0316  1.0658  0.8025

 Free energy of the ion-electron system (eV)
  ---------------------------------------------------
  alpha Z        PSCENC =        -6.15630361
  Ewald energy   TEWEN  =     -2308.62146778
  -1/2 Hartree   DENC   =        -3.12702788
  -V(xc)+E(xc)   XCENC  =      -839.80431556
  PAW double counting   =      1136.31518762     -113.88240360
  entropy T*S    EENTRO =        -0.00205893
  eigenvalues    EBANDS =       302.68856081
  atomic energy  EATOM  =      1713.22913220
  ---------------------------------------------------
  free energy    TOTEN  =      -119.36069673 eV

  energy without entropy =     -119.35863780  energy(sigma->0) =     -119.35966727


--------------------------------------------------------------------------------------------------------




----------------------------------------- Iteration    1(  13)  ---------------------------------------


    POTLOK:  VPU time    0.38: CPU time    0.38
    SETDIJ:  VPU time    0.02: CPU time    0.02
    EDDAV :  VPU time   27.64: CPU time   27.63
    DOS   :  VPU time   -0.00: CPU time   -0.00
    CHARGE:  VPU time    1.07: CPU time    1.07
    MIXING:  VPU time    0.00: CPU time    0.01
    ------------------------------------------
      LOOP:  VPU time   29.11: CPU time   29.11

 eigenvalue-minimisations  :  3736
 total energy-change (2. order) : 0.2394686E-06  (-0.3349764E-09)
 number of electron   95.9999996 magnetization 
 augmentation part    -1.2878517 magnetization 

 Broyden mixing:
  rms(total) = 0.28305E-05    rms(broyden)= 0.28305E-05
  rms(prec ) = 0.46814E-05
  weight for this iteration     100.00

 eigenvalues of (default mixing * dielectric matrix)
  average eigenvalue GAMMA=   1.7150
  2.7093  2.7093  2.4975  1.6169  1.3855  1.0526  0.9455  0.8035

 Free energy of the ion-electron system (eV)
  ---------------------------------------------------
  alpha Z        PSCENC =        -6.15630361
  Ewald energy   TEWEN  =     -2308.62146778
  -1/2 Hartree   DENC   =        -3.12701613
  -V(xc)+E(xc)   XCENC  =      -839.80439548
  PAW double counting   =      1136.31211275     -113.87922262
  entropy T*S    EENTRO =        -0.00205891
  eigenvalues    EBANDS =       302.68852308
  atomic energy  EATOM  =      1713.22913220
  ---------------------------------------------------
  free energy    TOTEN  =      -119.36069649 eV

  energy without entropy =     -119.35863758  energy(sigma->0) =     -119.35966704


--------------------------------------------------------------------------------------------------------




----------------------------------------- Iteration    1(  14)  ---------------------------------------


    POTLOK:  VPU time    0.34: CPU time    0.34
    SETDIJ:  VPU time    0.01: CPU time    0.01
    EDDAV :  VPU time   23.50: CPU time   23.50
    DOS   :  VPU time    0.00: CPU time   -0.00
    ------------------------------------------
      LOOP:  VPU time   23.85: CPU time   23.85

 eigenvalue-minimisations  :  3672
 total energy-change (2. order) :-0.2541583E-08  (-0.4649223E-10)
 number of electron   95.9999996 magnetization 
 augmentation part    -1.2878517 magnetization 

 Free energy of the ion-electron system (eV)
  ---------------------------------------------------
  alpha Z        PSCENC =        -6.15630361
  Ewald energy   TEWEN  =     -2308.62146778
  -1/2 Hartree   DENC   =        -3.12702566
  -V(xc)+E(xc)   XCENC  =      -839.80438900
  PAW double counting   =      1136.31221415     -113.87933115
  entropy T*S    EENTRO =        -0.00205891
  eigenvalues    EBANDS =       302.68853327
  atomic energy  EATOM  =      1713.22913220
  ---------------------------------------------------
  free energy    TOTEN  =      -119.36069649 eV

  energy without entropy =     -119.35863758  energy(sigma->0) =     -119.35966704


--------------------------------------------------------------------------------------------------------




 average (electrostatic) potential at core
  the test charge radii are     1.0406
  (the norm of the test charge is              1.0000)
       1 -73.2836       2 -73.2836       3 -73.2836       4 -73.2836       5 -73.2836
       6 -73.2836       7 -73.2836       8 -73.2836       9 -73.2836      10 -73.2836
      11 -73.2836      12 -73.2836      13 -73.2836      14 -73.2836      15 -73.2836
      16 -73.2836      17 -73.2844      18 -73.2827      19 -73.2833      20 -73.2839
      21 -73.2844      22 -73.2827      23 -73.2833      24 -73.2839      25 -73.2844
      26 -73.2827      27 -73.2844      28 -73.2827      29 -73.2833      30 -73.2839
      31 -73.2833      32 -73.2839
 
 
 
 E-fermi :   7.4334     XC(G=0):  -9.9943     alpha+bet :-14.0593
   add alpha+bet to get absolut eigen values

 k-point   1 :       0.0000    0.0000    0.0000
  band No.  band energies     occupation 
      1      -3.3269      2.00000
      2      -1.1635      2.00000
      3      -1.1600      2.00000
      4      -1.1600      2.00000
      5      -1.1600      2.00000
      6      -1.1600      2.00000
      7      -1.1566      2.00000
      8       0.9702      2.00000
      9       0.9745      2.00000
     10       0.9745      2.00000
     11       0.9760      2.00000
     12       0.9762      2.00000
     13       0.9762      2.00000
     14       0.9762      2.00000
     15       0.9762      2.00000
     16       0.9763      2.00000
     17       0.9778      2.00000
     18       0.9778      2.00000
     19       0.9822      2.00000
     20       3.0533      2.00000
     21       3.0534      2.00000
     22       3.0534      2.00000
     23       3.0534      2.00000
     24       3.1170      2.00000
     25       3.1170      2.00000
     26       3.1170      2.00000
     27       3.1171      2.00000
     28       4.6356      2.00000
     29       4.6356      2.00000
     30       4.6356      2.00000
     31       5.8260      2.00000
     32       5.8260      2.00000
     33       5.8260      2.00000
     34       6.6443      2.00000
     35       6.6443      2.00000
     36       6.6484      2.00000
     37       6.6484      2.00000
     38       6.6485      2.00000
     39       6.6485      2.00000
     40       6.6485      2.00000
     41       6.6485      2.00000
     42       6.6485      2.00000
     43       6.6485      2.00000
     44       6.6527      2.00000
     45       6.6527      2.00000
     46       7.6860      0.00000
     47       7.6899      0.00000
     48       7.6899      0.00000
     49       7.6899      0.00000
     50       7.6899      0.00000
     51       7.6938      0.00000
     52       8.2222      0.00000
     53       8.2230      0.00000
     54       8.2230      0.00000
     55       8.2230      0.00000
     56       8.2230      0.00000
     57       8.2238      0.00000
     58       8.6613      0.00000
     59       8.6613      0.00000
     60       8.6630      0.00000
     61       8.6651      0.00000
     62       8.6653      0.00000
     63       8.6653      0.00000
     64       8.6653      0.00000
     65       8.6653      0.00000
     66       8.6654      0.00000
     67       8.6675      0.00000
     68       8.6692      0.00000
     69       8.6692      0.00000
     70      10.0016      0.00000
     71      10.0041      0.00000
     72      10.0047      0.00000

 k-point   2 :       0.1667    0.0000    0.0000
  band No.  band energies     occupation 
      1      -3.2663      2.00000
      2      -1.8187      2.00000
      3      -1.1003      2.00000
      4      -1.1003      2.00000
      5      -1.1003      2.00000
      6      -1.1003      2.00000
      7      -0.3855      2.00000
      8       0.3267      2.00000
      9       0.3267      2.00000
     10       0.3267      2.00000
     11       0.3267      2.00000
     12       1.0351      2.00000
     13       1.0351      2.00000
     14       1.0351      2.00000
     15       1.0351      2.00000
     16       1.7399      2.00000
     17       1.7399      2.00000
     18       1.7399      2.00000
     19       1.7399      2.00000
     20       2.4430      2.00000
     21       2.4430      2.00000
     22       2.4430      2.00000
     23       2.4430      2.00000
     24       3.7705      2.00000
     25       3.8404      2.00000
     26       3.8404      2.00000
     27       3.8404      2.00000
     28       3.8404      2.00000
     29       4.6914      2.00000
     30       4.6914      2.00000
     31       5.8231      2.00000
     32       5.8232      2.00000
     33       5.8232      2.00000
     34       5.8232      2.00000
     35       5.8853      2.00000
     36       5.8854      2.00000
     37       6.0327      2.00000
     38       6.0327      2.00000
     39       6.7044      2.00000
     40       6.7044      2.00000
     41       6.7044      2.00000
     42       6.7044      2.00000
     43       6.7969      2.00000
     44       7.2678      2.00000
     45       7.2679      2.00000
     46       7.3768      2.00000
     47       7.3768      2.00000
     48       7.8718      0.00000
     49       7.8719      0.00000
     50       7.8719      0.00000
     51       7.8719      0.00000
     52       7.9646      0.00000
     53       7.9646      0.00000
     54       7.9646      0.00000
     55       7.9647      0.00000
     56       8.0487      0.00000
     57       8.0487      0.00000
     58       8.0487      0.00000
     59       8.0487      0.00000
     60       8.7499      0.00000
     61       8.7499      0.00000
     62       8.9348      0.00000
     63       8.9348      0.00000
     64       8.9348      0.00000
     65       8.9348      0.00000
     66       9.3843      0.00000
     67       9.3844      0.00000
     68       9.3846      0.00000
     69       9.3886      0.00000
     70       9.3942      0.00000
     71       9.3943      0.00000
     72       9.3945      0.00000

 k-point   3 :       0.3333    0.0000    0.0000
  band No.  band energies     occupation 
      1      -3.0846      2.00000
      2      -2.3599      2.00000
      3      -0.9212      2.00000
      4      -0.9212      2.00000
      5      -0.9212      2.00000
      6      -0.9212      2.00000
      7      -0.2069      2.00000
      8      -0.2069      2.00000
      9      -0.2069      2.00000
     10      -0.2069      2.00000
     11       0.5024      2.00000
     12       1.2118      2.00000
     13       1.2118      2.00000
     14       1.2118      2.00000
     15       1.2118      2.00000
     16       1.9166      2.00000
     17       1.9166      2.00000
     18       1.9166      2.00000
     19       1.9166      2.00000
     20       2.5992      2.00000
     21       2.6153      2.00000
     22       2.6153      2.00000
     23       2.6153      2.00000
     24       2.6153      2.00000
     25       4.6790      2.00000
     26       4.6790      2.00000
     27       4.6790      2.00000
     28       4.6790      2.00000
     29       4.7050      2.00000
     30       4.7050      2.00000
     31       4.7050      2.00000
     32       4.7050      2.00000
     33       4.8589      2.00000
     34       4.8589      2.00000
     35       5.5294      2.00000
     36       5.5294      2.00000
     37       6.0628      2.00000
     38       6.0628      2.00000
     39       6.7441      2.00000
     40       6.7443      2.00000
     41       6.7443      2.00000
     42       6.7443      2.00000
     43       6.7632      2.00000
     44       6.7634      2.00000
     45       6.8724      2.00000
     46       6.8724      2.00000
     47       6.8724      2.00000
     48       6.8724      2.00000
     49       7.5444      0.00000
     50       7.5444      0.00000
     51       7.5444      0.00000
     52       7.5444      0.00000
     53       8.1719      0.00000
     54       8.1719      0.00000
     55       8.1720      0.00000
     56       8.1720      0.00000
     57       8.2181      0.00000
     58       8.2181      0.00000
     59       8.2857      0.00000
     60       8.8712      0.00000
     61       8.8712      0.00000
     62       8.8712      0.00000
     63       8.8712      0.00000
     64       9.5659      0.00000
     65       9.5659      0.00000
     66      10.2350      0.00000
     67      10.2351      0.00000
     68      10.2355      0.00000
     69      10.2355      0.00000
     70      10.2399      0.00000
     71      10.2400      0.00000
     72      10.3535      0.00000

 k-point   4 :       0.5000    0.0000    0.0000
  band No.  band energies     occupation 
      1      -2.7836      2.00000
      2      -2.7808      2.00000
      3      -0.6271      2.00000
      4      -0.6240      2.00000
      5      -0.6240      2.00000
      6      -0.6232      2.00000
      7      -0.6232      2.00000
      8      -0.6223      2.00000
      9      -0.6223      2.00000
     10      -0.6193      2.00000
     11       1.4976      2.00000
     12       1.5001      2.00000
     13       1.5044      2.00000
     14       1.5046      2.00000
     15       1.5046      2.00000
     16       1.5054      2.00000
     17       1.5063      2.00000
     18       1.5071      2.00000
     19       1.5071      2.00000
     20       1.5095      2.00000
     21       3.5970      2.00000
     22       3.5973      2.00000
     23       3.5973      2.00000
     24       3.5980      2.00000
     25       3.5982      2.00000
     26       3.5989      2.00000
     27       3.5989      2.00000
     28       3.5992      2.00000
     29       5.1367      2.00000
     30       5.1367      2.00000
     31       5.1396      2.00000
     32       5.1396      2.00000
     33       5.6752      2.00000
     34       5.6752      2.00000
     35       5.6758      2.00000
     36       5.6760      2.00000
     37       5.6765      2.00000
     38       5.6767      2.00000
     39       5.6773      2.00000
     40       5.6773      2.00000
     41       6.3551      2.00000
     42       6.3560      2.00000
     43       6.3578      2.00000
     44       6.3587      2.00000
     45       7.1501      2.00000
     46       7.1501      2.00000
     47       7.1510      2.00000
     48       7.1523      2.00000
     49       7.1524      2.00000
     50       7.1537      2.00000
     51       7.1546      2.00000
     52       7.1546      2.00000
     53       8.4649      0.00000
     54       8.4660      0.00000
     55       8.4660      0.00000
     56       8.4662      0.00000
     57       8.4681      0.00000
     58       8.4683      0.00000
     59       8.4683      0.00000
     60       8.4694      0.00000
     61       9.1711      0.00000
     62       9.1711      0.00000
     63       9.1734      0.00000
     64       9.1734      0.00000
     65       9.9126      0.00000
     66       9.9141      0.00000
     67      10.4763      0.00000
     68      10.4769      0.00000
     69      10.4781      0.00000
     70      10.4786      0.00000
     71      11.1880      0.00000
     72      11.1890      0.00000

 k-point   5 :       0.0000    0.1667    0.0000
  band No.  band energies     occupation 
      1      -3.2663      2.00000
      2      -1.8187      2.00000
      3      -1.1030      2.00000
      4      -1.1003      2.00000
      5      -1.1003      2.00000
      6      -1.0976      2.00000
      7      -0.3855      2.00000
      8       0.3240      2.00000
      9       0.3267      2.00000
     10       0.3267      2.00000
     11       0.3294      2.00000
     12       1.0330      2.00000
     13       1.0340      2.00000
     14       1.0362      2.00000
     15       1.0372      2.00000
     16       1.7372      2.00000
     17       1.7399      2.00000
     18       1.7399      2.00000
     19       1.7426      2.00000
     20       2.4409      2.00000
     21       2.4419      2.00000
     22       2.4442      2.00000
     23       2.4452      2.00000
     24       3.7705      2.00000
     25       3.8382      2.00000
     26       3.8392      2.00000
     27       3.8415      2.00000
     28       3.8425      2.00000
     29       4.6914      2.00000
     30       4.6914      2.00000
     31       5.8203      2.00000
     32       5.8232      2.00000
     33       5.8232      2.00000
     34       5.8261      2.00000
     35       5.8853      2.00000
     36       5.8853      2.00000
     37       6.0327      2.00000
     38       6.0328      2.00000
     39       6.7018      2.00000
     40       6.7044      2.00000
     41       6.7044      2.00000
     42       6.7070      2.00000
     43       6.7969      2.00000
     44       7.2678      2.00000
     45       7.2679      2.00000
     46       7.3768      2.00000
     47       7.3769      2.00000
     48       7.8694      0.00000
     49       7.8708      0.00000
     50       7.8730      0.00000
     51       7.8743      0.00000
     52       7.9624      0.00000
     53       7.9646      0.00000
     54       7.9646      0.00000
     55       7.9668      0.00000
     56       8.0461      0.00000
     57       8.0487      0.00000
     58       8.0488      0.00000
     59       8.0513      0.00000
     60       8.7499      0.00000
     61       8.7499      0.00000
     62       8.9327      0.00000
     63       8.9348      0.00000
     64       8.9348      0.00000
     65       8.9368      0.00000
     66       9.3832      0.00000
     67       9.3846      0.00000
     68       9.3849      0.00000
     69       9.3873      0.00000
     70       9.3929      0.00000
     71       9.3942      0.00000
     72       9.3948      0.00000

 k-point   6 :       0.1667    0.1667    0.0000
  band No.  band energies     occupation 
      1      -3.2057      2.00000
      2      -1.7598      2.00000
      3      -1.7577      2.00000
      4      -1.0406      2.00000
      5      -1.0406      2.00000
      6      -0.3277      2.00000
      7      -0.3259      2.00000
      8      -0.3242      2.00000
      9       0.3843      2.00000
     10       0.3852      2.00000
     11       0.3865      2.00000
     12       0.3874      2.00000
     13       1.0931      2.00000
     14       1.0941      2.00000
     15       1.7965      2.00000
     16       1.7977      2.00000
     17       1.7988      2.00000
     18       1.7990      2.00000
     19       1.8002      2.00000
     20       1.8012      2.00000
     21       2.4998      2.00000
     22       3.1660      2.00000
     23       3.1660      2.00000
     24       3.2361      2.00000
     25       3.2361      2.00000
     26       3.8274      2.00000
     27       3.8283      2.00000
     28       4.5911      2.00000
     29       4.5911      2.00000
     30       4.7472      2.00000
     31       5.1981      2.00000
     32       5.2003      2.00000
     33       5.8219      2.00000
     34       5.8219      2.00000
     35       5.9439      2.00000
     36       5.9454      2.00000
     37       5.9460      2.00000
     38       6.0875      2.00000
     39       6.0899      2.00000
     40       6.5477      2.00000
     41       6.5492      2.00000
     42       6.8541      2.00000
     43       6.8551      2.00000
     44       7.2481      2.00000
     45       7.2490      2.00000
     46       7.2503      2.00000
     47       7.2513      2.00000
     48       7.3729      2.00000
     49       7.3744      2.00000
     50       7.4305      1.31578
     51       7.4326      1.08349
     52       7.4348      0.84306
     53       8.1623      0.00000
     54       8.1644      0.00000
     55       8.6038      0.00000
     56       8.6049      0.00000
     57       8.6050      0.00000
     58       8.6060      0.00000
     59       8.7425      0.00000
     60       8.7425      0.00000
     61       8.7599      0.00000
     62       8.7767      0.00000
     63       8.7786      0.00000
     64       8.8493      0.00000
     65       8.8501      0.00000
     66       9.1343      0.00000
     67       9.1343      0.00000
     68       9.6313      0.00000
     69       9.6334      0.00000
     70      10.1118      0.00000
     71      10.1119      0.00000
     72      10.1229      0.00000

 k-point   7 :       0.3333    0.1667    0.0000
  band No.  band energies     occupation 
      1      -3.0241      2.00000
      2      -2.2997      2.00000
      3      -1.5789      2.00000
      4      -0.8629      2.00000
      5      -0.8615      2.00000
      6      -0.8601      2.00000
      7      -0.1491      2.00000
      8      -0.1475      2.00000
      9      -0.1464      2.00000
     10       0.5602      2.00000
     11       0.5628      2.00000
     12       0.5632      2.00000
     13       0.5645      2.00000
     14       1.2709      2.00000
     15       1.2709      2.00000
     16       1.9726      2.00000
     17       1.9744      2.00000
     18       1.9746      2.00000
     19       2.6573      2.00000
     20       2.6728      2.00000
     21       2.6733      2.00000
     22       2.6759      2.00000
     23       2.6765      2.00000
     24       3.3706      2.00000
     25       3.9998      2.00000
     26       4.0468      2.00000
     27       4.0703      2.00000
     28       4.0704      2.00000
     29       4.6862      2.00000
     30       4.7355      2.00000
     31       4.7355      2.00000
     32       4.9147      2.00000
     33       5.4210      2.00000
     34       5.4522      2.00000
     35       5.4522      2.00000
     36       5.5853      2.00000
     37       6.0590      2.00000
     38       6.0590      2.00000
     39       6.1170      2.00000
     40       6.1171      2.00000
     41       6.1217      2.00000
     42       6.2565      2.00000
     43       6.7395      2.00000
     44       6.7395      2.00000
     45       6.8048      2.00000
     46       6.9282      2.00000
     47       7.0272      2.00000
     48       7.4465      0.06452
     49       7.4826      0.00000
     50       7.4827      0.00000
     51       7.5472      0.00000
     52       7.6009      0.00000
     53       7.7062      0.00000
     54       8.2431      0.00000
     55       8.2720      0.00000
     56       8.2753      0.00000
     57       8.3421      0.00000
     58       8.8786      0.00000
     59       9.0829      0.00000
     60       9.0830      0.00000
     61       9.4343      0.00000
     62       9.4470      0.00000
     63       9.4471      0.00000
     64       9.6019      0.00000
     65       9.6191      0.00000
     66       9.6277      0.00000
     67       9.7707      0.00000
     68       9.7782      0.00000
     69       9.7782      0.00000
     70      10.2955      0.00000
     71      10.4160      0.00000
     72      10.4258      0.00000

 k-point   8 :       0.5000    0.1667    0.0000
  band No.  band energies     occupation 
      1      -2.7232      2.00000
      2      -2.7204      2.00000
      3      -1.2809      2.00000
      4      -1.2782      2.00000
      5      -0.5656      2.00000
      6      -0.5645      2.00000
      7      -0.5628      2.00000
      8      -0.5617      2.00000
      9       0.1472      2.00000
     10       0.1500      2.00000
     11       0.8565      2.00000
     12       0.8576      2.00000
     13       0.8593      2.00000
     14       0.8604      2.00000
     15       1.5579      2.00000
     16       1.5593      2.00000
     17       2.2650      2.00000
     18       2.2661      2.00000
     19       2.2679      2.00000
     20       2.2690      2.00000
     21       2.9594      2.00000
     22       2.9608      2.00000
     23       3.6551      2.00000
     24       3.6553      2.00000
     25       3.6565      2.00000
     26       3.6567      2.00000
     27       4.2847      2.00000
     28       4.2876      2.00000
     29       4.3472      2.00000
     30       4.3486      2.00000
     31       5.0441      2.00000
     32       5.0442      2.00000
     33       5.0456      2.00000
     34       5.0457      2.00000
     35       5.1926      2.00000
     36       5.1955      2.00000
     37       6.3401      2.00000
     38       6.3413      2.00000
     39       6.3430      2.00000
     40       6.3442      2.00000
     41       6.4120      2.00000
     42       6.4146      2.00000
     43       6.4185      2.00000
     44       6.4189      2.00000
     45       6.4201      2.00000
     46       6.4203      2.00000
     47       6.5348      2.00000
     48       6.5378      2.00000
     49       7.3115      2.00000
     50       7.3143      2.00000
     51       7.8366      0.00000
     52       7.8393      0.00000
     53       7.8795      0.00000
     54       7.8825      0.00000
     55       8.3818      0.00000
     56       8.3836      0.00000
     57       9.1959      0.00000
     58       9.1987      0.00000
     59       9.2271      0.00000
     60       9.2294      0.00000
     61       9.3773      0.00000
     62       9.3781      0.00000
     63       9.3802      0.00000
     64       9.3810      0.00000
     65       9.9675      0.00000
     66       9.9690      0.00000
     67      10.3939      0.00000
     68      10.3941      0.00000
     69      10.3958      0.00000
     70      10.3960      0.00000
     71      10.5349      0.00000
     72      10.5391      0.00000

 k-point   9 :       0.0000    0.3333    0.0000
  band No.  band energies     occupation 
      1      -3.0846      2.00000
      2      -2.3599      2.00000
      3      -0.9239      2.00000
      4      -0.9212      2.00000
      5      -0.9212      2.00000
      6      -0.9185      2.00000
      7      -0.2096      2.00000
      8      -0.2069      2.00000
      9      -0.2069      2.00000
     10      -0.2042      2.00000
     11       0.5024      2.00000
     12       1.2097      2.00000
     13       1.2107      2.00000
     14       1.2129      2.00000
     15       1.2139      2.00000
     16       1.9145      2.00000
     17       1.9155      2.00000
     18       1.9178      2.00000
     19       1.9188      2.00000
     20       2.5993      2.00000
     21       2.6125      2.00000
     22       2.6153      2.00000
     23       2.6153      2.00000
     24       2.6180      2.00000
     25       4.6762      2.00000
     26       4.6790      2.00000
     27       4.6790      2.00000
     28       4.6818      2.00000
     29       4.7028      2.00000
     30       4.7038      2.00000
     31       4.7061      2.00000
     32       4.7072      2.00000
     33       4.8589      2.00000
     34       4.8589      2.00000
     35       5.5294      2.00000
     36       5.5294      2.00000
     37       6.0628      2.00000
     38       6.0629      2.00000
     39       6.7420      2.00000
     40       6.7432      2.00000
     41       6.7455      2.00000
     42       6.7465      2.00000
     43       6.7632      2.00000
     44       6.7634      2.00000
     45       6.8698      2.00000
     46       6.8724      2.00000
     47       6.8724      2.00000
     48       6.8750      2.00000
     49       7.5418      0.00000
     50       7.5444      0.00000
     51       7.5444      0.00000
     52       7.5470      0.00000
     53       8.1699      0.00000
     54       8.1720      0.00000
     55       8.1720      0.00000
     56       8.1740      0.00000
     57       8.2180      0.00000
     58       8.2180      0.00000
     59       8.2857      0.00000
     60       8.8691      0.00000
     61       8.8712      0.00000
     62       8.8712      0.00000
     63       8.8732      0.00000
     64       9.5659      0.00000
     65       9.5659      0.00000
     66      10.2327      0.00000
     67      10.2354      0.00000
     68      10.2355      0.00000
     69      10.2380      0.00000
     70      10.2395      0.00000
     71      10.2397      0.00000
     72      10.3537      0.00000

 k-point  10 :       0.1667    0.3333    0.0000
  band No.  band energies     occupation 
      1      -3.0241      2.00000
      2      -2.2997      2.00000
      3      -1.5789      2.00000
      4      -0.8629      2.00000
      5      -0.8615      2.00000
      6      -0.8601      2.00000
      7      -0.1491      2.00000
      8      -0.1475      2.00000
      9      -0.1463      2.00000
     10       0.5604      2.00000
     11       0.5623      2.00000
     12       0.5632      2.00000
     13       0.5648      2.00000
     14       1.2709      2.00000
     15       1.2709      2.00000
     16       1.9720      2.00000
     17       1.9744      2.00000
     18       1.9752      2.00000
     19       2.6573      2.00000
     20       2.6733      2.00000
     21       2.6735      2.00000
     22       2.6756      2.00000
     23       2.6759      2.00000
     24       3.3706      2.00000
     25       3.9998      2.00000
     26       4.0467      2.00000
     27       4.0703      2.00000
     28       4.0704      2.00000
     29       4.6862      2.00000
     30       4.7355      2.00000
     31       4.7355      2.00000
     32       4.9147      2.00000
     33       5.4211      2.00000
     34       5.4522      2.00000
     35       5.4522      2.00000
     36       5.5853      2.00000
     37       6.0590      2.00000
     38       6.0591      2.00000
     39       6.1171      2.00000
     40       6.1171      2.00000
     41       6.1216      2.00000
     42       6.2565      2.00000
     43       6.7395      2.00000
     44       6.7395      2.00000
     45       6.8048      2.00000
     46       6.9282      2.00000
     47       7.0272      2.00000
     48       7.4465      0.06462
     49       7.4827      0.00000
     50       7.4827      0.00000
     51       7.5472      0.00000
     52       7.6009      0.00000
     53       7.7062      0.00000
     54       8.2431      0.00000
     55       8.2728      0.00000
     56       8.2745      0.00000
     57       8.3421      0.00000
     58       8.8786      0.00000
     59       9.0829      0.00000
     60       9.0830      0.00000
     61       9.4344      0.00000
     62       9.4470      0.00000
     63       9.4470      0.00000
     64       9.6020      0.00000
     65       9.6191      0.00000
     66       9.6277      0.00000
     67       9.7707      0.00000
     68       9.7782      0.00000
     69       9.7782      0.00000
     70      10.2955      0.00000
     71      10.4160      0.00000
     72      10.4226      0.00000

 k-point  11 :       0.3333    0.3333    0.0000
[...]
      6      -0.7423      2.00000
      7      -0.7423      2.00000
      8      -0.7423      2.00000
      9       0.6809      2.00000
     10       0.6809      2.00000
     11       0.6809      2.00000
     12       0.6809      2.00000
     13       2.0856      2.00000
     14       2.0856      2.00000
     15       2.0856      2.00000
     16       2.0856      2.00000
     17       2.0856      2.00000
     18       2.0856      2.00000
     19       2.0856      2.00000
     20       2.0856      2.00000
     21       3.4819      2.00000
     22       3.4819      2.00000
     23       3.4819      2.00000
     24       3.4819      2.00000
     25       3.4819      2.00000
     26       3.4820      2.00000
     27       3.4820      2.00000
     28       3.4820      2.00000
     29       4.7993      2.00000
     30       4.7993      2.00000
     31       4.7993      2.00000
     32       4.7993      2.00000
     33       4.8723      2.00000
     34       4.8723      2.00000
     35       4.8725      2.00000
     36       4.8725      2.00000
     37       4.8725      2.00000
     38       4.8725      2.00000
     39       4.8727      2.00000
     40       4.8727      2.00000
     41       6.2334      2.00000
     42       6.2334      2.00000
     43       6.2334      2.00000
     44       6.2334      2.00000
     45       7.6054      0.00000
     46       7.6054      0.00000
     47       7.6054      0.00000
     48       7.6054      0.00000
     49       7.8528      0.00000
     50       7.8529      0.00000
     51       7.8529      0.00000
     52       7.8529      0.00000
     53       8.8744      0.00000
     54       8.8744      0.00000
     55       8.8746      0.00000
     56       8.8747      0.00000
     57       8.8747      0.00000
     58       8.8747      0.00000
     59       8.8749      0.00000
     60       8.8749      0.00000
     61       8.9622      0.00000
     62       8.9622      0.00000
     63       8.9622      0.00000
     64       8.9622      0.00000
     65      10.4746      0.00000
     66      10.4746      0.00000
     67      10.4750      0.00000
     68      10.4751      0.00000
     69      10.4751      0.00000
     70      10.4751      0.00000
     71      10.4756      0.00000
     72      10.4756      0.00000

 k-point  39 :       0.3333    0.5000    0.5000
  band No.  band energies     occupation 
      1      -1.9990      2.00000
      2      -1.9990      2.00000
      3      -1.9990      2.00000
      4      -1.9990      2.00000
      5      -1.2796      2.00000
      6      -1.2796      2.00000
      7      -1.2796      2.00000
      8      -1.2796      2.00000
      9       1.5625      2.00000
     10       1.5625      2.00000
     11       1.5625      2.00000
     12       1.5625      2.00000
     13       2.2609      2.00000
     14       2.2609      2.00000
     15       2.2609      2.00000
     16       2.2609      2.00000
     17       2.2609      2.00000
     18       2.2609      2.00000
     19       2.2609      2.00000
     20       2.2609      2.00000
     21       2.9601      2.00000
     22       2.9601      2.00000
     23       2.9601      2.00000
     24       2.9601      2.00000
     25       2.9602      2.00000
     26       2.9602      2.00000
     27       2.9602      2.00000
     28       2.9602      2.00000
     29       3.6427      2.00000
     30       3.6427      2.00000
     31       3.6427      2.00000
     32       3.6427      2.00000
     33       5.7301      2.00000
     34       5.7301      2.00000
     35       5.7303      2.00000
     36       5.7303      2.00000
     37       5.7303      2.00000
     38       5.7303      2.00000
     39       5.7304      2.00000
     40       5.7304      2.00000
     41       6.4081      2.00000
     42       6.4081      2.00000
     43       6.4081      2.00000
     44       6.4082      2.00000
     45       7.0936      2.00000
     46       7.0936      2.00000
     47       7.0936      2.00000
     48       7.0936      2.00000
     49       7.7544      0.00000
     50       7.7544      0.00000
     51       7.7546      0.00000
     52       7.7546      0.00000
     53       7.7546      0.00000
     54       7.7546      0.00000
     55       7.7548      0.00000
     56       7.7548      0.00000
     57       9.3207      0.00000
     58       9.3207      0.00000
     59       9.3207      0.00000
     60       9.3207      0.00000
     61       9.8033      0.00000
     62       9.8033      0.00000
     63       9.8033      0.00000
     64       9.8033      0.00000
     65      10.6513      0.00000
     66      10.6513      0.00000
     67      10.6516      0.00000
     68      10.6516      0.00000
     69      10.6516      0.00000
     70      10.6516      0.00000
     71      10.6519      0.00000
     72      10.6519      0.00000

 k-point  40 :       0.5000    0.5000    0.5000
  band No.  band energies     occupation 
      1      -1.7034      2.00000
      2      -1.6993      2.00000
      3      -1.6993      2.00000
      4      -1.6990      2.00000
      5      -1.6986      2.00000
      6      -1.6984      2.00000
      7      -1.6984      2.00000
      8      -1.6943      2.00000
      9       2.5427      2.00000
     10       2.5488      2.00000
     11       2.5488      2.00000
     12       2.5519      2.00000
     13       2.5521      2.00000
     14       2.5522      2.00000
     15       2.5524      2.00000
     16       2.5524      2.00000
     17       2.5526      2.00000
     18       2.5526      2.00000
     19       2.5526      2.00000
     20       2.5526      2.00000
     21       2.5527      2.00000
     22       2.5527      2.00000
     23       2.5527      2.00000
     24       2.5527      2.00000
     25       2.5529      2.00000
     26       2.5529      2.00000
     27       2.5531      2.00000
     28       2.5532      2.00000
     29       2.5535      2.00000
     30       2.5565      2.00000
     31       2.5565      2.00000
     32       2.5626      2.00000
     33       6.6887      2.00000
     34       6.6887      2.00000
     35       6.6906      2.00000
     36       6.6924      2.00000
     37       6.6937      2.00000
     38       6.6940      2.00000
     39       6.6941      2.00000
     40       6.6941      2.00000
     41       6.6943      2.00000
     42       6.6943      2.00000
     43       6.6943      2.00000
     44       6.6943      2.00000
     45       6.6944      2.00000
     46       6.6944      2.00000
     47       6.6944      2.00000
     48       6.6945      2.00000
     49       6.6947      2.00000
     50       6.6947      2.00000
     51       6.6947      2.00000
     52       6.6950      2.00000
     53       6.6963      2.00000
     54       6.6982      2.00000
     55       6.7000      2.00000
     56       6.7000      2.00000
     57      10.7465      0.00000
     58      10.7465      0.00000
     59      10.7465      0.00000
     60      10.7470      0.00000
     61      10.7485      0.00000
     62      10.7492      0.00000
     63      10.7492      0.00000
     64      10.7493      0.00000
     65      10.9290      0.00000
     66      10.9299      0.00000
     67      10.9304      0.00000
     68      10.9319      0.00000
     69      10.9320      0.00000
     70      10.9324      0.00000
     71      10.9326      0.00000
     72      10.9331      0.00000


--------------------------------------------------------------------------------------------------------


 soft charge-density along one line, spin component           1
         0         1         2         3         4         5         6         7         8         9
 total charge-density along one line
 
 pseudopotential strength for first ion, spin component:           1
  8.462  -0.005  -0.000   0.000  -0.000  -0.000   0.000  -0.000
 -0.005   0.000  -0.000   0.000  -0.000   0.000  -0.000   0.000
 -0.000  -0.000   1.985  -0.000  -0.000  -0.025   0.000   0.000
  0.000   0.000  -0.000   1.985   0.000   0.000  -0.025  -0.000
 -0.000  -0.000  -0.000   0.000   1.985   0.000  -0.000  -0.025
 -0.000   0.000  -0.025   0.000   0.000  -0.012   0.000   0.000
  0.000  -0.000   0.000  -0.025  -0.000   0.000  -0.012  -0.000
 -0.000   0.000   0.000  -0.000  -0.025   0.000  -0.000  -0.012
 total augmentation occupancy for first ion, spin component:           1
  1.355  -0.412  -0.000   0.000   0.002   0.000  -0.000  -0.001
 -0.412   0.417  -0.000   0.000  -0.003   0.000  -0.000   0.001
 -0.000  -0.000   0.686   0.006   0.012  -0.135  -0.001  -0.002
  0.000   0.000   0.006   0.689   0.000  -0.001  -0.132  -0.001
  0.002  -0.003   0.012   0.000   0.688  -0.002  -0.001  -0.133
  0.000   0.000  -0.135  -0.001  -0.002   0.030   0.000   0.000
 -0.000  -0.000  -0.001  -0.132  -0.001   0.000   0.030   0.000
 -0.001   0.001  -0.002  -0.001  -0.133   0.000   0.000   0.030


------------------------ aborting loop because EDIFF is reached ----------------------------------------




--------------------------------------------------------------------------------------------------------


    CHARGE:  VPU time    1.03: CPU time    1.03
    FORLOC:  VPU time    0.03: CPU time    0.03
    FORNL :  VPU time    8.25: CPU time    8.25
    STRESS:  VPU time   17.85: CPU time   17.84
    FORCOR:  VPU time    0.40: CPU time    0.41
    FORHAR:  VPU time    0.15: CPU time    0.15
    MIXING:  VPU time    0.02: CPU time    0.02


--------------------------------------------------------------------------------------------------------



  FREE ENERGIE OF THE ION-ELECTRON SYSTEM (eV)
  ---------------------------------------------------
  free  energy   TOTEN  =      -119.360696 eV

  energy  without entropy=     -119.358638  energy(sigma->0) =     -119.359667
 

  FORCE on cell =-STRESS in cart. coord.  units (eV/reduce length):
  Direction    X        Y        Z        XY       YZ       ZX
  --------------------------------------------------------------------------------------
  Alpha Z     -6.16     -6.16     -6.16
  Ewald     -769.55   -769.54   -769.54      0.00      0.00      0.00
  Hartree      1.04      1.04      1.04     -0.00     -0.00     -0.00
  E(xc)     -269.33   -269.33   -269.33      0.00      0.00      0.00
  Local        3.03      3.02      3.02     -0.00      0.00      0.00
  n-local    598.48    599.22    597.75     -0.55     -0.13      0.28
  augment    -34.38    -34.38    -34.38      0.00      0.00      0.00
  Kinetic    463.41    457.26    469.56      8.64      3.47     -1.71
  -------------------------------------------------------------------------------------
  Total      -13.46    -13.45    -13.45     -0.00      0.00      0.00
  in kB      -38.59    -38.58    -38.58     -0.00      0.00      0.00
  external pressure =      -38.58 kB  Pullay stress =        0.00 kB


 VOLUME and BASIS-vectors are now :
 -----------------------------------------------------------------------------
  energy-cutoff  :      500.00
  volume of cell :      558.68
      direct lattice vectors                 reciprocal lattice vectors
     8.236104994  0.000000000  0.000000000     0.121416616  0.000000000  0.000000000
     0.000000000  8.236104994  0.000000000     0.000000000  0.121416616  0.000000000
     0.000000000  0.000000000  8.236104994     0.000000000  0.000000000  0.121416616

  length of vectors
     8.236104994  8.236104994  8.236104994     0.121416616  0.121416616  0.121416616


 FORCES acting on ions
    electron-ion (+dipol)            ewald-force                    non-local-force                 convergence-correction
 -----------------------------------------------------------------------------------------------
   0.369E+00 -.624E-13 -.160E-07   -.301E+00 0.622E-14 0.795E-14   -.100E+00 -.187E-19 -.328E-19   0.175E-05 0.497E-14 -.228E-13
   -.787E-01 0.179E-12 -.853E-13   0.795E-01 -.888E-15 0.330E-14   0.273E-02 0.852E-19 0.186E-19   0.188E-05 0.725E-14 -.303E-13
   0.278E-01 0.628E-13 -.169E-13   -.252E-01 0.266E-14 0.507E-14   -.148E-02 -.176E-19 -.115E-19   -.689E-06 -.549E-14 -.204E-13
   -.199E-01 -.332E-12 -.205E-13   0.198E-01 0.266E-14 0.863E-14   0.264E-03 -.992E-19 0.977E-21   0.209E-06 -.795E-14 -.257E-13
   0.278E-01 0.159E-13 -.716E-13   -.252E-01 -.178E-14 0.540E-14   -.148E-02 -.687E-19 0.126E-19   -.681E-06 0.241E-14 0.231E-13
   -.199E-01 -.480E-13 -.255E-13   0.198E-01 -.178E-14 0.540E-14   0.264E-03 0.110E-19 -.403E-19   0.204E-06 0.252E-14 0.306E-13
   0.814E-02 -.260E-13 -.414E-13   -.104E-01 0.178E-14 0.107E-13   -.101E-04 0.284E-19 -.548E-20   -.129E-05 -.291E-14 0.207E-13
   -.102E-01 0.137E-12 0.390E-12   0.972E-02 0.178E-14 0.717E-14   -.685E-03 -.547E-21 -.735E-20   0.134E-05 -.321E-14 0.260E-13
   0.438E-01 -.227E-03 0.227E-03   -.475E-01 0.181E-03 -.181E-03   0.105E-02 0.464E-04 -.464E-04   -.162E-05 -.152E-06 0.152E-06
   -.284E-01 0.995E-04 -.995E-04   0.267E-01 -.543E-04 0.543E-04   0.114E-02 -.238E-04 0.238E-04   0.150E-05 -.523E-07 0.523E-07
   0.438E-01 0.227E-03 0.227E-03   -.475E-01 -.181E-03 -.181E-03   0.105E-02 -.464E-04 -.464E-04   -.162E-05 0.152E-06 0.152E-06
   -.284E-01 -.995E-04 -.995E-04   0.267E-01 0.543E-04 0.543E-04   0.114E-02 0.238E-04 0.238E-04   0.150E-05 0.523E-07 0.523E-07
   0.438E-01 -.227E-03 -.227E-03   -.475E-01 0.181E-03 0.181E-03   0.105E-02 0.464E-04 0.464E-04   -.162E-05 -.152E-06 -.152E-06
   -.284E-01 0.995E-04 0.995E-04   0.267E-01 -.543E-04 -.543E-04   0.114E-02 -.238E-04 -.238E-04   0.150E-05 -.523E-07 -.523E-07
   0.438E-01 0.227E-03 -.227E-03   -.475E-01 -.181E-03 0.181E-03   0.105E-02 -.464E-04 0.464E-04   -.162E-05 0.152E-06 -.152E-06
   -.284E-01 -.995E-04 0.995E-04   0.267E-01 0.543E-04 -.543E-04   0.114E-02 0.238E-04 -.238E-04   0.150E-05 0.523E-07 -.523E-07
   -.463E-01 -.243E-15 0.794E-01   0.384E-01 -.400E-14 -.728E-01   0.121E-01 0.576E-19 -.117E-01   -.591E-06 0.386E-14 0.356E-06
   -.461E-01 -.307E-12 -.801E-01   0.382E-01 0.000E+00 0.734E-01   0.123E-01 0.863E-19 0.121E-01   -.594E-06 0.266E-14 -.649E-07
   0.525E-03 -.118E-13 0.736E-02   0.128E-02 0.266E-14 -.602E-02   -.713E-03 -.435E-19 -.266E-03   0.418E-06 -.448E-14 0.448E-06
   0.634E-03 -.385E-13 -.741E-02   0.116E-02 0.178E-14 0.603E-02   -.743E-03 -.316E-19 0.264E-03   0.206E-06 -.324E-14 -.403E-06
   -.463E-01 -.119E-14 -.794E-01   0.384E-01 -.888E-15 0.728E-01   0.121E-01 0.264E-19 0.117E-01   -.591E-06 0.550E-14 -.356E-06
   -.461E-01 0.937E-13 0.801E-01   0.382E-01 -.178E-14 -.734E-01   0.123E-01 0.471E-19 -.121E-01   -.594E-06 0.522E-14 0.649E-07
   0.525E-03 -.144E-13 -.736E-02   0.128E-02 -.266E-14 0.602E-02   -.713E-03 -.155E-19 0.266E-03   0.418E-06 -.606E-14 -.448E-06
   0.634E-03 0.143E-12 0.741E-02   0.116E-02 0.178E-14 -.603E-02   -.743E-03 0.194E-19 -.264E-03   0.206E-06 -.574E-14 0.403E-06
   -.463E-01 -.794E-01 0.669E-14   0.384E-01 0.728E-01 -.101E-13   0.121E-01 0.117E-01 0.344E-20   -.590E-06 -.359E-06 -.247E-13
   -.461E-01 0.801E-01 0.176E-13   0.382E-01 -.734E-01 -.919E-14   0.123E-01 -.121E-01 -.389E-20   -.593E-06 0.683E-07 -.227E-13
   -.463E-01 0.794E-01 0.444E-15   0.384E-01 -.728E-01 -.830E-14   0.121E-01 -.117E-01 -.130E-19   -.590E-06 0.359E-06 -.264E-13
   -.461E-01 -.801E-01 0.283E-13   0.382E-01 0.734E-01 -.740E-14   0.123E-01 0.121E-01 -.667E-20   -.593E-06 -.683E-07 -.252E-13
   0.525E-03 -.736E-02 -.661E-14   0.128E-02 0.602E-02 -.236E-14   -.713E-03 0.266E-03 -.318E-19   0.417E-06 -.451E-06 0.250E-13
   0.634E-03 0.741E-02 -.122E-12   0.116E-02 -.603E-02 -.324E-14   -.743E-03 -.264E-03 0.236E-21   0.206E-06 0.406E-06 0.230E-13
   0.525E-03 0.736E-02 -.266E-14   0.128E-02 -.602E-02 -.768E-14   -.713E-03 -.266E-03 -.228E-19   0.417E-06 0.451E-06 0.266E-13
   0.634E-03 -.741E-02 0.108E-12   0.116E-02 0.603E-02 -.856E-14   -.743E-03 0.264E-03 -.376E-19   0.206E-06 -.406E-06 0.255E-13
 -----------------------------------------------------------------------------------------------
   -.372E-05 0.277E-12 -.160E-07   0.517E-14 -.859E-15 -.673E-14   0.798E-05 0.108E-18 0.238E-17   0.739E-08 0.562E-16 0.152E-16
 
 
 POSITION                                       TOTAL-FORCE (eV/Angst)
 -----------------------------------------------------------------------------------
      2.06903      2.05903      0.00000        -0.032574      0.000000      0.000000
      6.17708      2.05903      0.00000         0.003565      0.000000      0.000000
      2.05903      6.17708      0.00000         0.001124     -0.000000      0.000000
      6.17708      6.17708      0.00000         0.000085     -0.000000     -0.000000
      2.05903      2.05903      4.11805         0.001124      0.000000     -0.000000
      6.17708      2.05903      4.11805         0.000085     -0.000000     -0.000000
      2.05903      6.17708      4.11805        -0.002263     -0.000000     -0.000000
      6.17708      6.17708      4.11805        -0.001193      0.000000      0.000000
      2.05903      0.00000      2.05903        -0.002619      0.000000     -0.000000
      6.17708      0.00000      2.05903        -0.000598      0.000021     -0.000021
      2.05903      4.11805      2.05903        -0.002619     -0.000000     -0.000000
      6.17708      4.11805      2.05903        -0.000598     -0.000021     -0.000021
      2.05903      0.00000      6.17708        -0.002619      0.000000      0.000000
      6.17708      0.00000      6.17708        -0.000598      0.000021      0.000021
      2.05903      4.11805      6.17708        -0.002619     -0.000000      0.000000
      6.17708      4.11805      6.17708        -0.000598     -0.000021      0.000021
      0.00000      2.05903      2.05903         0.004215      0.000000     -0.005131
      4.11805      2.05903      2.05903         0.004366      0.000000      0.005365
      0.00000      6.17708      2.05903         0.001093     -0.000000      0.001070
      4.11805      6.17708      2.05903         0.001055     -0.000000     -0.001110
      0.00000      2.05903      6.17708         0.004215     -0.000000      0.005131
      4.11805      2.05903      6.17708         0.004366      0.000000     -0.005365
      0.00000      6.17708      6.17708         0.001093     -0.000000     -0.001070
      4.11805      6.17708      6.17708         0.001055     -0.000000      0.001110
      0.00000      0.00000      0.00000         0.004215      0.005131      0.000000
      4.11805      0.00000      0.00000         0.004366     -0.005365     -0.000000
      0.00000      4.11805      0.00000         0.004215     -0.005131     -0.000000
      4.11805      4.11805      0.00000         0.004366      0.005365     -0.000000
      0.00000      0.00000      4.11805         0.001093     -0.001070      0.000000
      4.11805      0.00000      4.11805         0.001055      0.001110      0.000000
      0.00000      4.11805      4.11805         0.001093      0.001070      0.000000
      4.11805      4.11805      4.11805         0.001055     -0.001110     -0.000000
 -----------------------------------------------------------------------------------
    total drift:                                0.000004      0.000000     -0.000000


--------------------------------------------------------------------------------------------------------



 mean value of Nose-termostat <S>:     1.000 mean value of <T> :     0.000
 mean temperature <T/S>/<1/S>  :     0.000

     LOOP+:  VPU time  447.66: CPU time  447.61
  
  
 General timing and accounting informations for this job:
 ========================================================
  
                  Total CPU time used (sec):      454.851
                            User time (sec):      350.619
                          System time (sec):      104.232
                         Elapsed time (sec):      454.794
  
                   Maximum memory used (kb):      995644.
                   Average memory used (kb):           0.
  
                          Minor page faults:       226681
                          Major page faults:            0
                 Voluntary context switches:          870
