<?xml version="1.0" encoding="ISO-8859-1"?>
<modeling>
 <generator>
  <i name="program" type="string">vasp</i>
  <i name="version" type="string">4.6.28 </i>
  <i name="subversion" type="string">25Jul05 complex  parallel</i>
  <i name="platform" type="string">LinuxIFC</i>
  <i name="date" type="string">2016 10 19</i>
  <i name="time" type="string">17:30:01</i>
 </generator>
 <incar>
  <i type="string" name="PREC">accurate</i>
  <i type="int" name="IALGO">    38</i>
  <i name="EDIFF">      0.00000001</i>
  <i type="int" name="IBRION">    -1</i>
  <i name="ENCUT">    500.00000000</i>
  <i type="logical" name="LREAL"> F  </i>
  <i type="int" name="ISMEAR">     0</i>
  <i name="SIGMA">      0.01000000</i>
  <i type="logical" name="LWAVE"> F  </i>
  <i type="logical" name="LCHARG"> F  </i>
 </incar>
 <kpoints>
  <generation param="Auto">
   <i name="subdivisionlength">     50.00000000</i>
   <v type="int" name="divisions">       6       6       6</v>
   <v name="usershift">      0.00000000      0.00000000      0.00000000</v>
   <v name="genvec1">      0.16666667      0.00000000      0.00000000</v>
   <v name="genvec2">      0.00000000      0.16666667      0.00000000</v>
   <v name="genvec3">      0.00000000      0.00000000      0.16666667</v>
   <v name="shift">      0.00000000      0.00000000      0.00000000</v>
  </generation>
  <varray name="kpointlist" >
   <v>       0.00000000      0.00000000      0.00000000</v>
   <v>       0.16666667      0.00000000      0.00000000</v>
   <v>       0.33333333      0.00000000      0.00000000</v>
   <v>       0.50000000      0.00000000      0.00000000</v>
   <v>       0.00000000      0.16666667      0.00000000</v>
   <v>       0.16666667      0.16666667      0.00000000</v>
   <v>       0.33333333      0.16666667      0.00000000</v>
   <v>       0.50000000      0.16666667      0.00000000</v>
   <v>       0.00000000      0.33333333      0.00000000</v>
   <v>       0.16666667      0.33333333      0.00000000</v>
   <v>       0.33333333      0.33333333      0.00000000</v>
   <v>       0.50000000      0.33333333      0.00000000</v>
   <v>       0.00000000      0.50000000      0.00000000</v>
   <v>       0.16666667      0.50000000      0.00000000</v>
   <v>       0.33333333      0.50000000      0.00000000</v>
   <v>       0.50000000      0.50000000      0.00000000</v>
   <v>       0.00000000      0.16666667      0.16666667</v>
   <v>       0.16666667      0.16666667      0.16666667</v>
   <v>       0.33333333      0.16666667      0.16666667</v>
   <v>       0.50000000      0.16666667      0.16666667</v>
   <v>       0.00000000      0.33333333      0.16666667</v>
   <v>       0.16666667      0.33333333      0.16666667</v>
   <v>       0.33333333      0.33333333      0.16666667</v>
   <v>       0.50000000      0.33333333      0.16666667</v>
   <v>       0.00000000      0.50000000      0.16666667</v>
   <v>       0.16666667      0.50000000      0.16666667</v>
   <v>       0.33333333      0.50000000      0.16666667</v>
   <v>       0.50000000      0.50000000      0.16666667</v>
   <v>       0.00000000      0.33333333      0.33333333</v>
   <v>       0.16666667      0.33333333      0.33333333</v>
   <v>       0.33333333      0.33333333      0.33333333</v>
   <v>       0.50000000      0.33333333      0.33333333</v>
   <v>       0.00000000      0.50000000      0.33333333</v>
   <v>       0.16666667      0.50000000      0.33333333</v>
   <v>       0.33333333      0.50000000      0.33333333</v>
   <v>       0.50000000      0.50000000      0.33333333</v>
   <v>       0.00000000      0.50000000      0.50000000</v>
   <v>       0.16666667      0.50000000      0.50000000</v>
   <v>       0.33333333      0.50000000      0.50000000</v>
   <v>       0.50000000      0.50000000      0.50000000</v>
  </varray>
  <varray name="weights" >
   <v>       0.00462963</v>
   <v>       0.00925926</v>
   <v>       0.00925926</v>
   <v>       0.00462963</v>
   <v>       0.01851852</v>
   <v>       0.03703704</v>
   <v>       0.03703704</v>
   <v>       0.01851852</v>
   <v>       0.01851852</v>
   <v>       0.03703704</v>
   <v>       0.03703704</v>
   <v>       0.01851852</v>
   <v>       0.00925926</v>
   <v>       0.01851852</v>
   <v>       0.01851852</v>
   <v>       0.00925926</v>
   <v>       0.01851852</v>
   <v>       0.03703704</v>
   <v>       0.03703704</v>
   <v>       0.01851852</v>
   <v>       0.03703704</v>
   <v>       0.07407407</v>
   <v>       0.07407407</v>
   <v>       0.03703704</v>
   <v>       0.01851852</v>
   <v>       0.03703704</v>
   <v>       0.03703704</v>
   <v>       0.01851852</v>
   <v>       0.01851852</v>
   <v>       0.03703704</v>
   <v>       0.03703704</v>
   <v>       0.01851852</v>
   <v>       0.01851852</v>
   <v>       0.03703704</v>
   <v>       0.03703704</v>
   <v>       0.01851852</v>
   <v>       0.00462963</v>
   <v>       0.00925926</v>
   <v>       0.00925926</v>
   <v>       0.00462963</v>
  </varray>
 </kpoints>
 <parameters>
  <separator name="general" >
   <i type="string" name="SYSTEM">unknown system</i>
   <i type="logical" name="LCOMPAT"> F  </i>
  </separator>
  <separator name="electronic" >
   <i type="string" name="PREC">accura</i>
   <i name="ENMAX">    500.00000000</i>
   <i name="ENAUG">    291.05200000</i>
   <i name="EDIFF">      0.00000001</i>
   <i type="int" name="IALGO">    38</i>
   <i type="int" name="IWAVPR">    10</i>
   <i type="int" name="NBANDS">    65</i>
   <i name="NELECT">     96.00000000</i>
   <separator name="electronic smearing" >
    <i type="int" name="ISMEAR">     0</i>
    <i name="SIGMA">      0.01000000</i>
   </separator>
   <separator name="electronic projectors" >
    <i type="logical" name="LREAL"> F  </i>
    <v name="ROPT">      0.00000000</v>
    <i type="int" name="LMAXPAW">  -100</i>
    <i type="int" name="LMAXMIX">     2</i>
   </separator>
   <separator name="electronic startup" >
    <i type="int" name="ISTART">     0</i>
    <i type="int" name="ICHARG">     2</i>
    <i type="int" name="INIWAV">     1</i>
   </separator>
   <separator name="electronic spin" >
    <i type="int" name="ISPIN">     1</i>
    <i type="logical" name="LNONCOLLINEAR"> F  </i>
    <v name="MAGMOM">      1.00000000      1.00000000      1.00000000      1.00000000      1.00000000      1.00000000      1.00000000      1.00000000      1.00000000      1.00000000      1.00000000      1.00000000      1.00000000      1.00000000      1.00000000      1.00000000      1.00000000      1.00000000      1.00000000      1.00000000
      1.00000000      1.00000000      1.00000000      1.00000000      1.00000000      1.00000000      1.00000000      1.00000000      1.00000000      1.00000000      1.00000000      1.00000000</v>
    <i name="NUPDOWN">     -1.00000000</i>
    <i type="logical" name="LSORBIT"> F  </i>
    <v name="SAXIS">      0.00000000      0.00000000      1.00000000</v>
    <i type="logical" name="LSPIRAL"> F  </i>
    <v name="QSPIRAL">      0.00000000      0.00000000      0.00000000</v>
    <i type="logical" name="LZEROZ"> F  </i>
   </separator>
   <separator name="electronic exchange-correlation" >
    <i type="string" name="GGA">--</i>
    <i type="int" name="VOSKOWN">     0</i>
    <i type="logical" name="LASPH"> F  </i>
    <i type="logical" name="LMETAGGA"> F  </i>
    <i type="string" name="GGA2">--</i>
   </separator>
   <separator name="electronic convergence" >
    <i type="int" name="NELM">    60</i>
    <i type="int" name="NELMDL">     0</i>
    <i type="int" name="NELMIN">     2</i>
    <i name="ENINI">    500.00000000</i>
    <separator name="electronic convergence detail" >
     <i type="logical" name="LDIAG"> T  </i>
     <i name="WEIMIN">      0.00000000</i>
     <i name="EBREAK">      0.00000000</i>
     <i name="DEPER">      0.30000000</i>
     <i type="int" name="NRMM">     4</i>
     <i name="TIME">      0.10000000</i>
    </separator>
   </separator>
   <separator name="electronic mixer" >
    <i name="AMIX">      0.40000000</i>
    <i name="BMIX">      1.00000000</i>
    <i name="AMIN">      0.10000000</i>
    <i name="AMIX_MAG">      1.60000000</i>
    <i name="BMIX_MAG">      1.00000000</i>
    <separator name="electronic mixer details" >
     <i type="int" name="IMIX">     4</i>
     <i type="int" name="MAXMIX">   -45</i>
     <i name="WC">    100.00000000</i>
     <i type="int" name="INIMIX">     1</i>
     <i type="int" name="MIXPRE">     1</i>
     <i type="int" name="MREMOVE">     5</i>
    </separator>
   </separator>
   <separator name="electronic dipolcorrection" >
    <i type="int" name="IDIPOL">     0</i>
    <i type="logical" name="LDIPOL"> F  </i>
    <v name="DIPOL">   -100.00000000</v>
    <i name="EFIELD">      0.00000000</i>
   </separator>
  </separator>
  <separator name="grids" >
   <i type="int" name="NGX">    60</i>
   <i type="int" name="NGY">    60</i>
   <i type="int" name="NGZ">    60</i>
   <i type="int" name="NGXF">   120</i>
   <i type="int" name="NGYF">   120</i>
   <i type="int" name="NGZF">   120</i>
   <i type="logical" name="ADDGRID"> F  </i>
  </separator>
  <separator name="ionic" >
   <i type="int" name="NSW">     0</i>
   <i type="int" name="IBRION">    -1</i>
   <i type="int" name="ISIF">     2</i>
   <i name="PSTRESS">      0.00000000</i>
   <i name="EDIFFG">      0.00000010</i>
   <i type="int" name="NFREE">     0</i>
   <i name="POTIM">      0.50000000</i>
   <i name="SMASS">     -3.00000000</i>
  </separator>
  <separator name="ionic md" >
   <i name="TEBEG">      0.00010000</i>
   <i name="TEEND">      0.00010000</i>
   <i type="int" name="NBLOCK">     1</i>
   <i type="int" name="KBLOCK">     1</i>
   <i type="int" name="NPACO">   256</i>
   <i name="APACO">     16.00000000</i>
  </separator>
  <separator name="symmetry" >
   <i type="int" name="ISYM">     2</i>
   <i name="SYMPREC">      0.00001000</i>
  </separator>
  <separator name="dos" >
   <i type="logical" name="LORBIT"> F  </i>
   <v name="RWIGS">     -1.00000000</v>
   <i type="int" name="NEDOS">   301</i>
   <i name="EMIN">     10.00000000</i>
   <i name="EMAX">    -10.00000000</i>
  </separator>
  <separator name="writing" >
   <i type="int" name="NWRITE">     2</i>
   <i type="logical" name="LWAVE"> F  </i>
   <i type="logical" name="LCHARG"> F  </i>
   <i type="logical" name="LPARD"> F  </i>
   <i type="logical" name="LVTOT"> F  </i>
   <i type="logical" name="LELF"> F  </i>
   <i type="logical" name="LOPTICS"> F  </i>
   <i name="STM">      0.00000000</i>
  </separator>
  <separator name="performance" >
   <i type="int" name="NPAR">     8</i>
   <i type="int" name="NSIM">     4</i>
   <i type="int" name="NBLK">   256</i>
   <i type="logical" name="LPLANE"> T  </i>
   <i type="logical" name="LCRITICAL_MEM"> F  </i>
   <i type="logical" name="LSCALAPACK"> F  </i>
   <i type="logical" name="LSCALU"> F  </i>
   <i type="logical" name="LASYNC"> F  </i>
  </separator>
  <separator name="miscellaneous" >
   <i type="int" name="IDIOT">     3</i>
   <i type="logical" name="LMUSIC"> F  </i>
   <v name="POMASS">     26.98200000</v>
   <i type="logical" name="LCORR"> T  </i>
  </separator>
  <i type="logical" name="LREAL_COMPAT"> F  </i>
  <i type="logical" name="GGA_COMPAT"> T  </i>
  <i type="logical" name="LBERRY"> F  </i>
  <i type="int" name="ICORELEVEL">     0</i>
  <i type="logical" name="LDAU"> F  </i>
  <i type="int" name="I_CONSTRAINED_M">     0</i>
 </parameters>
 <atominfo>
  <atoms>      32</atoms>
  <types>       1</types>
  <array name="atoms" >
   <dimension dim="1">ion</dimension>
   <field type="string">element</field>
   <field type="int">atomtype</field>
   <set>
    <rc><c>Al</c><c>   1</c></rc>
    <rc><c>Al</c><c>   1</c></rc>
    <rc><c>Al</c><c>   1</c></rc>
    <rc><c>Al</c><c>   1</c></rc>
    <rc><c>Al</c><c>   1</c></rc>
    <rc><c>Al</c><c>   1</c></rc>
    <rc><c>Al</c><c>   1</c></rc>
    <rc><c>Al</c><c>   1</c></rc>
    <rc><c>Al</c><c>   1</c></rc>
    <rc><c>Al</c><c>   1</c></rc>
    <rc><c>Al</c><c>   1</c></rc>
    <rc><c>Al</c><c>   1</c></rc>
    <rc><c>Al</c><c>   1</c></rc>
    <rc><c>Al</c><c>   1</c></rc>
    <rc><c>Al</c><c>   1</c></rc>
    <rc><c>Al</c><c>   1</c></rc>
    <rc><c>Al</c><c>   1</c></rc>
    <rc><c>Al</c><c>   1</c></rc>
    <rc><c>Al</c><c>   1</c></rc>
    <rc><c>Al</c><c>   1</c></rc>
    <rc><c>Al</c><c>   1</c></rc>
    <rc><c>Al</c><c>   1</c></rc>
    <rc><c>Al</c><c>   1</c></rc>
    <rc><c>Al</c><c>   1</c></rc>
    <rc><c>Al</c><c>   1</c></rc>
    <rc><c>Al</c><c>   1</c></rc>
    <rc><c>Al</c><c>   1</c></rc>
    <rc><c>Al</c><c>   1</c></rc>
    <rc><c>Al</c><c>   1</c></rc>
    <rc><c>Al</c><c>   1</c></rc>
    <rc><c>Al</c><c>   1</c></rc>
    <rc><c>Al</c><c>   1</c></rc>
   </set>
  </array>
  <array name="atomtypes" >
   <dimension dim="1">type</dimension>
   <field type="int">atomspertype</field>
   <field type="string">element</field>
   <field>mass</field>
   <field>valence</field>
   <field type="string">pseudopotential</field>
   <set>
    <rc><c>  32</c><c>Al</c><c>     26.98200000</c><c>      3.00000000</c><c> PAW_PBE Al 04Jan2001                   </c></rc>
   </set>
  </array>
 </atominfo>
 <structure name="initialpos" >
  <crystal>
   <varray name="basis" >
    <v>       8.23610499      0.00000000      0.00000000</v>
    <v>       0.00000000      8.23610499      0.00000000</v>
    <v>       0.00000000      0.00000000      8.23610499</v>
   </varray>
   <i name="volume">    558.68321432</i>
   <varray name="rec_basis" >
    <v>       0.12141662      0.00000000      0.00000000</v>
    <v>       0.00000000      0.12141662      0.00000000</v>
    <v>       0.00000000      0.00000000      0.12141662</v>
   </varray>
  </crystal>
  <varray name="positions" >
   <v>       0.25121417      0.25000000      0.00000000</v>
   <v>       0.75000000      0.25000000      0.00000000</v>
   <v>       0.25000000      0.75000000      0.00000000</v>
   <v>       0.75000000      0.75000000      0.00000000</v>
   <v>       0.25000000      0.25000000      0.50000000</v>
   <v>       0.75000000      0.25000000      0.50000000</v>
   <v>       0.25000000      0.75000000      0.50000000</v>
   <v>       0.75000000      0.75000000      0.50000000</v>
   <v>       0.25000000      0.00000000      0.25000000</v>
   <v>       0.75000000      0.00000000      0.25000000</v>
   <v>       0.25000000      0.50000000      0.25000000</v>
   <v>       0.75000000      0.50000000      0.25000000</v>
   <v>       0.25000000      0.00000000      0.75000000</v>
   <v>       0.75000000      0.00000000      0.75000000</v>
   <v>       0.25000000      0.50000000      0.75000000</v>
   <v>       0.75000000      0.50000000      0.75000000</v>
   <v>       0.00000000      0.25000000      0.25000000</v>
   <v>       0.50000000      0.25000000      0.25000000</v>
   <v>       0.00000000      0.75000000      0.25000000</v>
   <v>       0.50000000      0.75000000      0.25000000</v>
   <v>       0.00000000      0.25000000      0.75000000</v>
   <v>       0.50000000      0.25000000      0.75000000</v>
   <v>       0.00000000      0.75000000      0.75000000</v>
   <v>       0.50000000      0.75000000      0.75000000</v>
   <v>       0.00000000      0.00000000      0.00000000</v>
   <v>       0.50000000      0.00000000      0.00000000</v>
   <v>       0.00000000      0.50000000      0.00000000</v>
   <v>       0.50000000      0.50000000      0.00000000</v>
   <v>       0.00000000      0.00000000      0.50000000</v>
   <v>       0.50000000      0.00000000      0.50000000</v>
   <v>       0.00000000      0.50000000      0.50000000</v>
   <v>       0.50000000      0.50000000      0.50000000</v>
  </varray>
 </structure>
 <calculation>
  <scstep>
   <time name="dav">   16.02   16.03</time>
   <time name="total">   16.17   16.19</time>
   <energy>
    <i name="alphaZ">     -6.15630361</i>
    <i name="ewald">  -2308.62146778</i>
    <i name="hartreedc">     -4.03024973</i>
    <i name="XCdc">   -842.89020552</i>
    <i name="pawpsdc">   1137.73615723</i>
    <i name="pawaedc">   -115.16745734</i>
    <i name="eentropy">     -0.00030446</i>
    <i name="bandstr">    538.43272223</i>
    <i name="atom">   1713.22913220</i>
    <i name="e_fr_energy">    112.53202321</i>
    <i name="e_wo_entrp">    112.53232767</i>
    <i name="e_0_energy">    112.53217544</i>
   </energy>
  </scstep>
  <scstep>
   <time name="dav">   19.13   19.12</time>
   <time name="total">   19.13   19.13</time>
   <energy>
    <i name="e_fr_energy">   -107.29677677</i>
    <i name="e_wo_entrp">   -107.29563142</i>
    <i name="e_0_energy">   -107.29620409</i>
   </energy>
  </scstep>
  <scstep>
   <time name="dav">   22.54   22.53</time>
   <time name="total">   22.54   22.54</time>
   <energy>
    <i name="e_fr_energy">   -119.82508801</i>
    <i name="e_wo_entrp">   -119.82353335</i>
    <i name="e_0_energy">   -119.82431068</i>
   </energy>
  </scstep>
  <scstep>
   <time name="dav">   21.25   21.24</time>
   <time name="total">   21.25   21.25</time>
   <energy>
    <i name="e_fr_energy">   -120.05969403</i>
    <i name="e_wo_entrp">   -120.05775190</i>
    <i name="e_0_energy">   -120.05872296</i>
   </energy>
  </scstep>
  <scstep>
   <time name="dav">   23.28   23.27</time>
   <time name="total">   24.27   24.26</time>
   <energy>
    <i name="e_fr_energy">   -120.06256318</i>
    <i name="e_wo_entrp">   -120.06061904</i>
    <i name="e_0_energy">   -120.06159111</i>
   </energy>
  </scstep>
  <scstep>
   <time name="dav">   32.56   32.55</time>
   <time name="total">   34.08   34.07</time>
   <energy>
    <i name="e_fr_energy">   -119.65536668</i>
    <i name="e_wo_entrp">   -119.65327899</i>
    <i name="e_0_energy">   -119.65432284</i>
   </energy>
  </scstep>
  <scstep>
   <time name="dav">   30.78   30.77</time>
   <time name="total">   32.45   32.44</time>
   <energy>
    <i name="e_fr_energy">   -119.36068806</i>
    <i name="e_wo_entrp">   -119.35863795</i>
    <i name="e_0_energy">   -119.35966301</i>
   </energy>
  </scstep>
  <scstep>
   <time name="dav">   32.49   32.48</time>
   <time name="total">   33.93   33.94</time>
   <energy>
    <i name="e_fr_energy">   -119.36068053</i>
    <i name="e_wo_entrp">   -119.35862583</i>
    <i name="e_0_energy">   -119.35965318</i>
   </energy>
  </scstep>
  <scstep>
   <time name="dav">   39.13   39.12</time>
   <time name="total">   40.93   40.92</time>
   <energy>
    <i name="e_fr_energy">   -119.36070200</i>
    <i name="e_wo_entrp">   -119.35864376</i>
    <i name="e_0_energy">   -119.35967288</i>
   </energy>
  </scstep>
  <scstep>
   <time name="dav">   39.68   39.67</time>
   <time name="total">   41.32   41.31</time>
   <energy>
    <i name="e_fr_energy">   -119.36070132</i>
    <i name="e_wo_entrp">   -119.35864264</i>
    <i name="e_0_energy">   -119.35967198</i>
   </energy>
  </scstep>
  <scstep>
   <time name="dav">   46.15   46.14</time>
   <time name="total">   47.74   47.73</time>
   <energy>
    <i name="e_fr_energy">   -119.36069775</i>
    <i name="e_wo_entrp">   -119.35863885</i>
    <i name="e_0_energy">   -119.35966830</i>
   </energy>
  </scstep>
  <scstep>
   <time name="dav">   31.43   31.42</time>
   <time name="total">   33.13   33.13</time>
   <energy>
    <i name="e_fr_energy">   -119.36069673</i>
    <i name="e_wo_entrp">   -119.35863780</i>
    <i name="e_0_energy">   -119.35966727</i>
   </energy>
  </scstep>
  <scstep>
   <time name="dav">   27.64   27.63</time>
   <time name="total">   29.11   29.11</time>
   <energy>
    <i name="e_fr_energy">   -119.36069649</i>
    <i name="e_wo_entrp">   -119.35863758</i>
    <i name="e_0_energy">   -119.35966704</i>
   </energy>
  </scstep>
  <scstep>
   <time name="dav">   23.50   23.50</time>
   <time name="total">   23.85   23.85</time>
   <energy>
    <i name="alphaZ">     -6.15630361</i>
    <i name="ewald">  -2308.62146778</i>
    <i name="hartreedc">     -3.12702566</i>
    <i name="XCdc">   -839.80438900</i>
    <i name="pawpsdc">   1136.31221415</i>
    <i name="pawaedc">   -113.87933115</i>
    <i name="eentropy">     -0.00205891</i>
    <i name="bandstr">    302.68853327</i>
    <i name="atom">   1713.22913220</i>
    <i name="e_fr_energy">   -119.36069649</i>
    <i name="e_wo_entrp">   -119.35863758</i>
    <i name="e_0_energy">   -119.35966704</i>
   </energy>
  </scstep>
  <structure>
   <crystal>
    <varray name="basis" >
     <v>       8.23610499      0.00000000      0.00000000</v>
     <v>       0.00000000      8.23610499      0.00000000</v>
     <v>       0.00000000      0.00000000      8.23610499</v>
    </varray>
    <i name="volume">    558.68321432</i>
    <varray name="rec_basis" >
     <v>       0.12141662      0.00000000      0.00000000</v>
     <v>       0.00000000      0.12141662      0.00000000</v>
     <v>       0.00000000      0.00000000      0.12141662</v>
    </varray>
   </crystal>
   <varray name="positions" >
    <v>       0.25121417      0.25000000      0.00000000</v>
    <v>       0.75000000      0.25000000      0.00000000</v>
    <v>       0.25000000      0.75000000      0.00000000</v>
    <v>       0.75000000      0.75000000      0.00000000</v>
    <v>       0.25000000      0.25000000      0.50000000</v>
    <v>       0.75000000      0.25000000      0.50000000</v>
    <v>       0.25000000      0.75000000      0.50000000</v>
    <v>       0.75000000      0.75000000      0.50000000</v>
    <v>       0.25000000      0.00000000      0.25000000</v>
    <v>       0.75000000      0.00000000      0.25000000</v>
    <v>       0.25000000      0.50000000      0.25000000</v>
    <v>       0.75000000      0.50000000      0.25000000</v>
    <v>       0.25000000      0.00000000      0.75000000</v>
    <v>       0.75000000      0.00000000      0.75000000</v>
    <v>       0.25000000      0.50000000      0.75000000</v>
    <v>       0.75000000      0.50000000      0.75000000</v>
    <v>       0.00000000      0.25000000      0.25000000</v>
    <v>       0.50000000      0.25000000      0.25000000</v>
    <v>       0.00000000      0.75000000      0.25000000</v>
    <v>       0.50000000      0.75000000      0.25000000</v>
    <v>       0.00000000      0.25000000      0.75000000</v>
    <v>       0.50000000      0.25000000      0.75000000</v>
    <v>       0.00000000      0.75000000      0.75000000</v>
    <v>       0.50000000      0.75000000      0.75000000</v>
    <v>       0.00000000      0.00000000      0.00000000</v>
    <v>       0.50000000      0.00000000      0.00000000</v>
    <v>       0.00000000      0.50000000      0.00000000</v>
    <v>       0.50000000      0.50000000      0.00000000</v>
    <v>       0.00000000      0.00000000      0.50000000</v>
    <v>       0.50000000      0.00000000      0.50000000</v>
    <v>       0.00000000      0.50000000      0.50000000</v>
    <v>       0.50000000      0.50000000      0.50000000</v>
   </varray>
  </structure>
  <varray name="forces" >
   <v>      -0.03257428      0.00000000      0.00000000</v>
   <v>       0.00356451      0.00000000      0.00000000</v>
   <v>       0.00112417     -0.00000000      0.00000000</v>
   <v>       0.00008484     -0.00000000     -0.00000000</v>
   <v>       0.00112417      0.00000000     -0.00000000</v>
   <v>       0.00008484     -0.00000000     -0.00000000</v>
   <v>      -0.00226277     -0.00000000     -0.00000000</v>
   <v>      -0.00119340      0.00000000      0.00000000</v>
   <v>      -0.00261917      0.00000028     -0.00000028</v>
   <v>      -0.00059752      0.00002133     -0.00002133</v>
   <v>      -0.00261917     -0.00000028     -0.00000028</v>
   <v>      -0.00059752     -0.00002133     -0.00002133</v>
   <v>      -0.00261917      0.00000028      0.00000028</v>
   <v>      -0.00059752      0.00002133      0.00002133</v>
   <v>      -0.00261917     -0.00000028      0.00000028</v>
   <v>      -0.00059752     -0.00002133      0.00002133</v>
   <v>       0.00421515      0.00000000     -0.00513095</v>
   <v>       0.00436550      0.00000000      0.00536522</v>
   <v>       0.00109323     -0.00000000      0.00106994</v>
   <v>       0.00105479     -0.00000000     -0.00110993</v>
   <v>       0.00421515     -0.00000000      0.00513095</v>
   <v>       0.00436550      0.00000000     -0.00536522</v>
   <v>       0.00109323     -0.00000000     -0.00106994</v>
   <v>       0.00105479     -0.00000000      0.00110993</v>
   <v>       0.00421515      0.00513095      0.00000000</v>
   <v>       0.00436550     -0.00536522     -0.00000000</v>
   <v>       0.00421515     -0.00513095     -0.00000000</v>
   <v>       0.00436550      0.00536522     -0.00000000</v>
   <v>       0.00109323     -0.00106994      0.00000000</v>
   <v>       0.00105479      0.00110993      0.00000000</v>
   <v>       0.00109323      0.00106994      0.00000000</v>
   <v>       0.00105479     -0.00110993     -0.00000000</v>
  </varray>
  <varray name="stress" >
   <v>     -38.58726327     -0.00000000      0.00000000</v>
   <v>      -0.00000000    -38.58231095      0.00000000</v>
   <v>       0.00000000      0.00000000    -38.58231095</v>
  </varray>
  <energy>
   <i name="e_fr_energy">   -119.36069649</i>
   <i name="e_wo_entrp">   -119.35966704</i>
   <i name="e_0_energy">     -0.00205891</i>
  </energy>
  <eigenvalues>
   <array>
    <dimension dim="1">band</dimension>
    <dimension dim="2">kpoint</dimension>
    <dimension dim="3">spin</dimension>
    <field>eigene</field>
    <field>occ</field>
    <set>
     <set comment="spin 1">
      <set comment="kpoint 1">
       <r>  -3.3269  1.0000</r>
       <r>  -1.1635  1.0000</r>
       <r>  -1.1600  1.0000</r>
       <r>  -1.1600  1.0000</r>
       <r>  -1.1600  1.0000</r>
       <r>  -1.1600  1.0000</r>
       <r>  -1.1566  1.0000</r>
       <r>   0.9702  1.0000</r>
       <r>   0.9745  1.0000</r>
       <r>   0.9745  1.0000</r>
       <r>   0.9760  1.0000</r>
       <r>   0.9762  1.0000</r>
       <r>   0.9762  1.0000</r>
       <r>   0.9762  1.0000</r>
       <r>   0.9762  1.0000</r>
       <r>   0.9763  1.0000</r>
       <r>   0.9778  1.0000</r>
       <r>   0.9778  1.0000</r>
       <r>   0.9822  1.0000</r>
       <r>   3.0533  1.0000</r>
       <r>   3.0534  1.0000</r>
       <r>   3.0534  1.0000</r>
       <r>   3.0534  1.0000</r>
       <r>   3.1170  1.0000</r>
       <r>   3.1170  1.0000</r>
       <r>   3.1170  1.0000</r>
       <r>   3.1171  1.0000</r>
       <r>   4.6356  1.0000</r>
       <r>   4.6356  1.0000</r>
       <r>   4.6356  1.0000</r>
       <r>   5.8260  1.0000</r>
       <r>   5.8260  1.0000</r>
       <r>   5.8260  1.0000</r>
       <r>   6.6443  1.0000</r>
       <r>   6.6443  1.0000</r>
       <r>   6.6484  1.0000</r>
       <r>   6.6484  1.0000</r>
       <r>   6.6485  1.0000</r>
       <r>   6.6485  1.0000</r>
       <r>   6.6485  1.0000</r>
       <r>   6.6485  1.0000</r>
       <r>   6.6485  1.0000</r>
       <r>   6.6485  1.0000</r>
       <r>   6.6527  1.0000</r>
       <r>   6.6527  1.0000</r>
       <r>   7.6860  0.0000</r>
       <r>   7.6899  0.0000</r>
       <r>   7.6899  0.0000</r>
       <r>   7.6899  0.0000</r>
       <r>   7.6899  0.0000</r>
       <r>   7.6938  0.0000</r>
       <r>   8.2222  0.0000</r>
       <r>   8.2230  0.0000</r>
       <r>   8.2230  0.0000</r>
       <r>   8.2230  0.0000</r>
       <r>   8.2230  0.0000</r>
       <r>   8.2238  0.0000</r>
       <r>   8.6613  0.0000</r>
       <r>   8.6613  0.0000</r>
       <r>   8.6630  0.0000</r>
       <r>   8.6651  0.0000</r>
       <r>   8.6653  0.0000</r>
       <r>   8.6653  0.0000</r>
       <r>   8.6653  0.0000</r>
       <r>   8.6653  0.0000</r>
       <r>   8.6654  0.0000</r>
       <r>   8.6675  0.0000</r>
       <r>   8.6692  0.0000</r>
       <r>   8.6692  0.0000</r>
       <r>  10.0016  0.0000</r>
       <r>  10.0041  0.0000</r>
       <r>  10.0047  0.0000</r>
      </set>
      <set comment="kpoint 2">
       <r>  -3.2663  1.0000</r>
       <r>  -1.8187  1.0000</r>
       <r>  -1.1003  1.0000</r>
       <r>  -1.1003  1.0000</r>
       <r>  -1.1003  1.0000</r>
       <r>  -1.1003  1.0000</r>
       <r>  -0.3855  1.0000</r>
       <r>   0.3267  1.0000</r>
       <r>   0.3267  1.0000</r>
       <r>   0.3267  1.0000</r>
       <r>   0.3267  1.0000</r>
       <r>   1.0351  1.0000</r>
       <r>   1.0351  1.0000</r>
       <r>   1.0351  1.0000</r>
       <r>   1.0351  1.0000</r>
       <r>   1.7399  1.0000</r>
       <r>   1.7399  1.0000</r>
       <r>   1.7399  1.0000</r>
       <r>   1.7399  1.0000</r>
       <r>   2.4430  1.0000</r>
       <r>   2.4430  1.0000</r>
       <r>   2.4430  1.0000</r>
       <r>   2.4430  1.0000</r>
       <r>   3.7705  1.0000</r>
       <r>   3.8404  1.0000</r>
       <r>   3.8404  1.0000</r>
       <r>   3.8404  1.0000</r>
       <r>   3.8404  1.0000</r>
       <r>   4.6914  1.0000</r>
       <r>   4.6914  1.0000</r>
       <r>   5.8231  1.0000</r>
       <r>   5.8232  1.0000</r>
       <r>   5.8232  1.0000</r>
       <r>   5.8232  1.0000</r>
       <r>   5.8853  1.0000</r>
       <r>   5.8854  1.0000</r>
       <r>   6.0327  1.0000</r>
       <r>   6.0327  1.0000</r>
       <r>   6.7044  1.0000</r>
       <r>   6.7044  1.0000</r>
       <r>   6.7044  1.0000</r>
       <r>   6.7044  1.0000</r>
       <r>   6.7969  1.0000</r>
       <r>   7.2678  1.0000</r>
       <r>   7.2679  1.0000</r>
       <r>   7.3768  1.0000</r>
       <r>   7.3768  1.0000</r>
       <r>   7.8718  0.0000</r>
       <r>   7.8719  0.0000</r>
       <r>   7.8719  0.0000</r>
       <r>   7.8719  0.0000</r>
       <r>   7.9646  0.0000</r>
       <r>   7.9646  0.0000</r>
       <r>   7.9646  0.0000</r>
       <r>   7.9647  0.0000</r>
       <r>   8.0487  0.0000</r>
       <r>   8.0487  0.0000</r>
       <r>   8.0487  0.0000</r>
       <r>   8.0487  0.0000</r>
       <r>   8.7499  0.0000</r>
       <r>   8.7499  0.0000</r>
       <r>   8.9348  0.0000</r>
       <r>   8.9348  0.0000</r>
       <r>   8.9348  0.0000</r>
       <r>   8.9348  0.0000</r>
       <r>   9.3843  0.0000</r>
       <r>   9.3844  0.0000</r>
       <r>   9.3846  0.0000</r>
       <r>   9.3886  0.0000</r>
       <r>   9.3942  0.0000</r>
       <r>   9.3943  0.0000</r>
       <r>   9.3945  0.0000</r>
      </set>
      <set comment="kpoint 3">
       <r>  -3.0846  1.0000</r>
       <r>  -2.3599  1.0000</r>
       <r>  -0.9212  1.0000</r>
       <r>  -0.9212  1.0000</r>
       <r>  -0.9212  1.0000</r>
       <r>  -0.9212  1.0000</r>
       <r>  -0.2069  1.0000</r>
       <r>  -0.2069  1.0000</r>
       <r>  -0.2069  1.0000</r>
       <r>  -0.2069  1.0000</r>
       <r>   0.5024  1.0000</r>
       <r>   1.2118  1.0000</r>
       <r>   1.2118  1.0000</r>
       <r>   1.2118  1.0000</r>
       <r>   1.2118  1.0000</r>
       <r>   1.9166  1.0000</r>
       <r>   1.9166  1.0000</r>
       <r>   1.9166  1.0000</r>
       <r>   1.9166  1.0000</r>
       <r>   2.5992  1.0000</r>
       <r>   2.6153  1.0000</r>
       <r>   2.6153  1.0000</r>
       <r>   2.6153  1.0000</r>
       <r>   2.6153  1.0000</r>
       <r>   4.6790  1.0000</r>
       <r>   4.6790  1.0000</r>
       <r>   4.6790  1.0000</r>
       <r>   4.6790  1.0000</r>
       <r>   4.7050  1.0000</r>
       <r>   4.7050  1.0000</r>
       <r>   4.7050  1.0000</r>
       <r>   4.7050  1.0000</r>
       <r>   4.8589  1.0000</r>
       <r>   4.8589  1.0000</r>
       <r>   5.5294  1.0000</r>
       <r>   5.5294  1.0000</r>
       <r>   6.0628  1.0000</r>
       <r>   6.0628  1.0000</r>
       <r>   6.7441  1.0000</r>
       <r>   6.7443  1.0000</r>
       <r>   6.7443  1.0000</r>
       <r>   6.7443  1.0000</r>
       <r>   6.7632  1.0000</r>
       <r>   6.7634  1.0000</r>
       <r>   6.8724  1.0000</r>
       <r>   6.8724  1.0000</r>
       <r>   6.8724  1.0000</r>
       <r>   6.8724  1.0000</r>
       <r>   7.5444  0.0000</r>
       <r>   7.5444  0.0000</r>
       <r>   7.5444  0.0000</r>
       <r>   7.5444  0.0000</r>
       <r>   8.1719  0.0000</r>
       <r>   8.1719  0.0000</r>
       <r>   8.1720  0.0000</r>
       <r>   8.1720  0.0000</r>
       <r>   8.2181  0.0000</r>
       <r>   8.2181  0.0000</r>
       <r>   8.2857  0.0000</r>
       <r>   8.8712  0.0000</r>
       <r>   8.8712  0.0000</r>
       <r>   8.8712  0.0000</r>
       <r>   8.8712  0.0000</r>
       <r>   9.5659  0.0000</r>
       <r>   9.5659  0.0000</r>
       <r>  10.2350  0.0000</r>
       <r>  10.2351  0.0000</r>
       <r>  10.2355  0.0000</r>
       <r>  10.2355  0.0000</r>
       <r>  10.2399  0.0000</r>
       <r>  10.2400  0.0000</r>
       <r>  10.3535  0.0000</r>
      </set>
      <set comment="kpoint 4">
       <r>  -2.7836  1.0000</r>
       <r>  -2.7808  1.0000</r>
       <r>  -0.6271  1.0000</r>
       <r>  -0.6240  1.0000</r>
       <r>  -0.6240  1.0000</r>
       <r>  -0.6232  1.0000</r>
       <r>  -0.6232  1.0000</r>
       <r>  -0.6223  1.0000</r>
       <r>  -0.6223  1.0000</r>
       <r>  -0.6193  1.0000</r>
       <r>   1.4976  1.0000</r>
       <r>   1.5001  1.0000</r>
       <r>   1.5044  1.0000</r>
       <r>   1.5046  1.0000</r>
       <r>   1.5046  1.0000</r>
       <r>   1.5054  1.0000</r>
       <r>   1.5063  1.0000</r>
       <r>   1.5071  1.0000</r>
       <r>   1.5071  1.0000</r>
       <r>   1.5095  1.0000</r>
       <r>   3.5970  1.0000</r>
       <r>   3.5973  1.0000</r>
       <r>   3.5973  1.0000</r>
       <r>   3.5980  1.0000</r>
       <r>   3.5982  1.0000</r>
       <r>   3.5989  1.0000</r>
       <r>   3.5989  1.0000</r>
       <r>   3.5992  1.0000</r>
       <r>   5.1367  1.0000</r>
       <r>   5.1367  1.0000</r>
       <r>   5.1396  1.0000</r>
       <r>   5.1396  1.0000</r>
       <r>   5.6752  1.0000</r>
       <r>   5.6752  1.0000</r>
       <r>   5.6758  1.0000</r>
       <r>   5.6760  1.0000</r>
       <r>   5.6765  1.0000</r>
       <r>   5.6767  1.0000</r>
       <r>   5.6773  1.0000</r>
       <r>   5.6773  1.0000</r>
       <r>   6.3551  1.0000</r>
       <r>   6.3560  1.0000</r>
       <r>   6.3578  1.0000</r>
       <r>   6.3587  1.0000</r>
       <r>   7.1501  1.0000</r>
       <r>   7.1501  1.0000</r>
       <r>   7.1510  1.0000</r>
       <r>   7.1523  1.0000</r>
       <r>   7.1524  1.0000</r>
       <r>   7.1537  1.0000</r>
       <r>   7.1546  1.0000</r>
       <r>   7.1546  1.0000</r>
       <r>   8.4649  0.0000</r>
       <r>   8.4660  0.0000</r>
       <r>   8.4660  0.0000</r>
       <r>   8.4662  0.0000</r>
       <r>   8.4681  0.0000</r>
       <r>   8.4683  0.0000</r>
       <r>   8.4683  0.0000</r>
       <r>   8.4694  0.0000</r>
       <r>   9.1711  0.0000</r>
       <r>   9.1711  0.0000</r>
       <r>   9.1734  0.0000</r>
       <r>   9.1734  0.0000</r>
       <r>   9.9126  0.0000</r>
       <r>   9.9141  0.0000</r>
       <r>  10.4763  0.0000</r>
       <r>  10.4769  0.0000</r>
       <r>  10.4781  0.0000</r>
       <r>  10.4786  0.0000</r>
       <r>  11.1880  0.0000</r>
       <r>  11.1890  0.0000</r>
      </set>
      <set comment="kpoint 5">
       <r>  -3.2663  1.0000</r>
       <r>  -1.8187  1.0000</r>
       <r>  -1.1030  1.0000</r>
       <r>  -1.1003  1.0000</r>
       <r>  -1.1003  1.0000</r>
       <r>  -1.0976  1.0000</r>
       <r>  -0.3855  1.0000</r>
       <r>   0.3240  1.0000</r>
       <r>   0.3267  1.0000</r>
       <r>   0.3267  1.0000</r>
       <r>   0.3294  1.0000</r>
       <r>   1.0330  1.0000</r>
       <r>   1.0340  1.0000</r>
       <r>   1.0362  1.0000</r>
       <r>   1.0372  1.0000</r>
       <r>   1.7372  1.0000</r>
       <r>   1.7399  1.0000</r>
       <r>   1.7399  1.0000</r>
       <r>   1.7426  1.0000</r>
       <r>   2.4409  1.0000</r>
       <r>   2.4419  1.0000</r>
       <r>   2.4442  1.0000</r>
       <r>   2.4452  1.0000</r>
       <r>   3.7705  1.0000</r>
       <r>   3.8382  1.0000</r>
       <r>   3.8392  1.0000</r>
       <r>   3.8415  1.0000</r>
       <r>   3.8425  1.0000</r>
       <r>   4.6914  1.0000</r>
       <r>   4.6914  1.0000</r>
       <r>   5.8203  1.0000</r>
       <r>   5.8232  1.0000</r>
       <r>   5.8232  1.0000</r>
       <r>   5.8261  1.0000</r>
       <r>   5.8853  1.0000</r>
       <r>   5.8853  1.0000</r>
       <r>   6.0327  1.0000</r>
       <r>   6.0328  1.0000</r>
       <r>   6.7018  1.0000</r>
       <r>   6.7044  1.0000</r>
       <r>   6.7044  1.0000</r>
       <r>   6.7070  1.0000</r>
       <r>   6.7969  1.0000</r>
       <r>   7.2678  1.0000</r>
       <r>   7.2679  1.0000</r>
       <r>   7.3768  1.0000</r>
       <r>   7.3769  1.0000</r>
       <r>   7.8694  0.0000</r>
       <r>   7.8708  0.0000</r>
       <r>   7.8730  0.0000</r>
       <r>   7.8743  0.0000</r>
       <r>   7.9624  0.0000</r>
       <r>   7.9646  0.0000</r>
       <r>   7.9646  0.0000</r>
       <r>   7.9668  0.0000</r>
       <r>   8.0461  0.0000</r>
       <r>   8.0487  0.0000</r>
       <r>   8.0488  0.0000</r>
       <r>   8.0513  0.0000</r>
       <r>   8.7499  0.0000</r>
       <r>   8.7499  0.0000</r>
       <r>   8.9327  0.0000</r>
       <r>   8.9348  0.0000</r>
       <r>   8.9348  0.0000</r>
       <r>   8.9368  0.0000</r>
       <r>   9.3832  0.0000</r>
       <r>   9.3846  0.0000</r>
       <r>   9.3849  0.0000</r>
       <r>   9.3873  0.0000</r>
       <r>   9.3929  0.0000</r>
       <r>   9.3942  0.0000</r>
       <r>   9.3948  0.0000</r>
      </set>
      <set comment="kpoint 6">
       <r>  -3.2057  1.0000</r>
       <r>  -1.7598  1.0000</r>
       <r>  -1.7577  1.0000</r>
       <r>  -1.0406  1.0000</r>
       <r>  -1.0406  1.0000</r>
       <r>  -0.3277  1.0000</r>
       <r>  -0.3259  1.0000</r>
       <r>  -0.3242  1.0000</r>
       <r>   0.3843  1.0000</r>
       <r>   0.3852  1.0000</r>
       <r>   0.3865  1.0000</r>
       <r>   0.3874  1.0000</r>
       <r>   1.0931  1.0000</r>
       <r>   1.0941  1.0000</r>
       <r>   1.7965  1.0000</r>
       <r>   1.7977  1.0000</r>
       <r>   1.7988  1.0000</r>
       <r>   1.7990  1.0000</r>
       <r>   1.8002  1.0000</r>
       <r>   1.8012  1.0000</r>
       <r>   2.4998  1.0000</r>
       <r>   3.1660  1.0000</r>
       <r>   3.1660  1.0000</r>
       <r>   3.2361  1.0000</r>
       <r>   3.2361  1.0000</r>
       <r>   3.8274  1.0000</r>
       <r>   3.8283  1.0000</r>
       <r>   4.5911  1.0000</r>
       <r>   4.5911  1.0000</r>
       <r>   4.7472  1.0000</r>
       <r>   5.1981  1.0000</r>
       <r>   5.2003  1.0000</r>
       <r>   5.8219  1.0000</r>
       <r>   5.8219  1.0000</r>
       <r>   5.9439  1.0000</r>
       <r>   5.9454  1.0000</r>
       <r>   5.9460  1.0000</r>
       <r>   6.0875  1.0000</r>
       <r>   6.0899  1.0000</r>
       <r>   6.5477  1.0000</r>
       <r>   6.5492  1.0000</r>
       <r>   6.8541  1.0000</r>
       <r>   6.8551  1.0000</r>
       <r>   7.2481  1.0000</r>
       <r>   7.2490  1.0000</r>
       <r>   7.2503  1.0000</r>
       <r>   7.2513  1.0000</r>
       <r>   7.3729  1.0000</r>
       <r>   7.3744  1.0000</r>
       <r>   7.4305  0.6579</r>
       <r>   7.4326  0.5417</r>
       <r>   7.4348  0.4215</r>
       <r>   8.1623  0.0000</r>
       <r>   8.1644  0.0000</r>
       <r>   8.6038  0.0000</r>
       <r>   8.6049  0.0000</r>
       <r>   8.6050  0.0000</r>
       <r>   8.6060  0.0000</r>
       <r>   8.7425  0.0000</r>
       <r>   8.7425  0.0000</r>
       <r>   8.7599  0.0000</r>
       <r>   8.7767  0.0000</r>
       <r>   8.7786  0.0000</r>
       <r>   8.8493  0.0000</r>
       <r>   8.8501  0.0000</r>
       <r>   9.1343  0.0000</r>
       <r>   9.1343  0.0000</r>
       <r>   9.6313  0.0000</r>
       <r>   9.6334  0.0000</r>
       <r>  10.1118  0.0000</r>
       <r>  10.1119  0.0000</r>
       <r>  10.1229  0.0000</r>
      </set>
      <set comment="kpoint 7">
       <r>  -3.0241  1.0000</r>
       <r>  -2.2997  1.0000</r>
       <r>  -1.5789  1.0000</r>
       <r>  -0.8629  1.0000</r>
       <r>  -0.8615  1.0000</r>
       <r>  -0.8601  1.0000</r>
       <r>  -0.1491  1.0000</r>
       <r>  -0.1475  1.0000</r>
       <r>  -0.1464  1.0000</r>
       <r>   0.5602  1.0000</r>
       <r>   0.5628  1.0000</r>
       <r>   0.5632  1.0000</r>
       <r>   0.5645  1.0000</r>
       <r>   1.2709  1.0000</r>
       <r>   1.2709  1.0000</r>
       <r>   1.9726  1.0000</r>
       <r>   1.9744  1.0000</r>
       <r>   1.9746  1.0000</r>
       <r>   2.6573  1.0000</r>
       <r>   2.6728  1.0000</r>
       <r>   2.6733  1.0000</r>
       <r>   2.6759  1.0000</r>
       <r>   2.6765  1.0000</r>
       <r>   3.3706  1.0000</r>
       <r>   3.9998  1.0000</r>
       <r>   4.0468  1.0000</r>
       <r>   4.0703  1.0000</r>
       <r>   4.0704  1.0000</r>
       <r>   4.6862  1.0000</r>
       <r>   4.7355  1.0000</r>
       <r>   4.7355  1.0000</r>
       <r>   4.9147  1.0000</r>
       <r>   5.4210  1.0000</r>
       <r>   5.4522  1.0000</r>
       <r>   5.4522  1.0000</r>
       <r>   5.5853  1.0000</r>
       <r>   6.0590  1.0000</r>
       <r>   6.0590  1.0000</r>
       <r>   6.1170  1.0000</r>
       <r>   6.1171  1.0000</r>
       <r>   6.1217  1.0000</r>
       <r>   6.2565  1.0000</r>
       <r>   6.7395  1.0000</r>
       <r>   6.7395  1.0000</r>
       <r>   6.8048  1.0000</r>
       <r>   6.9282  1.0000</r>
       <r>   7.0272  1.0000</r>
       <r>   7.4465  0.0323</r>
       <r>   7.4826  0.0000</r>
       <r>   7.4827  0.0000</r>
       <r>   7.5472  0.0000</r>
       <r>   7.6009  0.0000</r>
       <r>   7.7062  0.0000</r>
       <r>   8.2431  0.0000</r>
       <r>   8.2720  0.0000</r>
       <r>   8.2753  0.0000</r>
       <r>   8.3421  0.0000</r>
       <r>   8.8786  0.0000</r>
       <r>   9.0829  0.0000</r>
       <r>   9.0830  0.0000</r>
       <r>   9.4343  0.0000</r>
       <r>   9.4470  0.0000</r>
       <r>   9.4471  0.0000</r>
       <r>   9.6019  0.0000</r>
       <r>   9.6191  0.0000</r>
       <r>   9.6277  0.0000</r>
       <r>   9.7707  0.0000</r>
       <r>   9.7782  0.0000</r>
       <r>   9.7782  0.0000</r>
       <r>  10.2955  0.0000</r>
       <r>  10.4160  0.0000</r>
       <r>  10.4258  0.0000</r>
      </set>
      <set comment="kpoint 8">
       <r>  -2.7232  1.0000</r>
       <r>  -2.7204  1.0000</r>
       <r>  -1.2809  1.0000</r>
       <r>  -1.2782  1.0000</r>
       <r>  -0.5656  1.0000</r>
       <r>  -0.5645  1.0000</r>
       <r>  -0.5628  1.0000</r>
       <r>  -0.5617  1.0000</r>
       <r>   0.1472  1.0000</r>
       <r>   0.1500  1.0000</r>
       <r>   0.8565  1.0000</r>
       <r>   0.8576  1.0000</r>
       <r>   0.8593  1.0000</r>
       <r>   0.8604  1.0000</r>
       <r>   1.5579  1.0000</r>
       <r>   1.5593  1.0000</r>
       <r>   2.2650  1.0000</r>
       <r>   2.2661  1.0000</r>
       <r>   2.2679  1.0000</r>
       <r>   2.2690  1.0000</r>
       <r>   2.9594  1.0000</r>
       <r>   2.9608  1.0000</r>
       <r>   3.6551  1.0000</r>
       <r>   3.6553  1.0000</r>
       <r>   3.6565  1.0000</r>
       <r>   3.6567  1.0000</r>
       <r>   4.2847  1.0000</r>
       <r>   4.2876  1.0000</r>
       <r>   4.3472  1.0000</r>
       <r>   4.3486  1.0000</r>
       <r>   5.0441  1.0000</r>
       <r>   5.0442  1.0000</r>
       <r>   5.0456  1.0000</r>
       <r>   5.0457  1.0000</r>
       <r>   5.1926  1.0000</r>
       <r>   5.1955  1.0000</r>
       <r>   6.3401  1.0000</r>
       <r>   6.3413  1.0000</r>
       <r>   6.3430  1.0000</r>
       <r>   6.3442  1.0000</r>
       <r>   6.4120  1.0000</r>
       <r>   6.4146  1.0000</r>
       <r>   6.4185  1.0000</r>
       <r>   6.4189  1.0000</r>
       <r>   6.4201  1.0000</r>
       <r>   6.4203  1.0000</r>
       <r>   6.5348  1.0000</r>
       <r>   6.5378  1.0000</r>
       <r>   7.3115  1.0000</r>
       <r>   7.3143  1.0000</r>
       <r>   7.8366  0.0000</r>
       <r>   7.8393  0.0000</r>
       <r>   7.8795  0.0000</r>
       <r>   7.8825  0.0000</r>
       <r>   8.3818  0.0000</r>
       <r>   8.3836  0.0000</r>
       <r>   9.1959  0.0000</r>
       <r>   9.1987  0.0000</r>
       <r>   9.2271  0.0000</r>
       <r>   9.2294  0.0000</r>
       <r>   9.3773  0.0000</r>
       <r>   9.3781  0.0000</r>
       <r>   9.3802  0.0000</r>
       <r>   9.3810  0.0000</r>
       <r>   9.9675  0.0000</r>
       <r>   9.9690  0.0000</r>
       <r>  10.3939  0.0000</r>
       <r>  10.3941  0.0000</r>
       <r>  10.3958  0.0000</r>
       <r>  10.3960  0.0000</r>
       <r>  10.5349  0.0000</r>
       <r>  10.5391  0.0000</r>
      </set>
      <set comment="kpoint 9">
       <r>  -3.0846  1.0000</r>
       <r>  -2.3599  1.0000</r>
       <r>  -0.9239  1.0000</r>
       <r>  -0.9212  1.0000</r>
       <r>  -0.9212  1.0000</r>
       <r>  -0.9185  1.0000</r>
       <r>  -0.2096  1.0000</r>
       <r>  -0.2069  1.0000</r>
       <r>  -0.2069  1.0000</r>
       <r>  -0.2042  1.0000</r>
       <r>   0.5024  1.0000</r>
       <r>   1.2097  1.0000</r>
       <r>   1.2107  1.0000</r>
       <r>   1.2129  1.0000</r>
       <r>   1.2139  1.0000</r>
       <r>   1.9145  1.0000</r>
       <r>   1.9155  1.0000</r>
       <r>   1.9178  1.0000</r>
       <r>   1.9188  1.0000</r>
       <r>   2.5993  1.0000</r>
       <r>   2.6125  1.0000</r>
       <r>   2.6153  1.0000</r>
       <r>   2.6153  1.0000</r>
       <r>   2.6180  1.0000</r>
       <r>   4.6762  1.0000</r>
       <r>   4.6790  1.0000</r>
       <r>   4.6790  1.0000</r>
       <r>   4.6818  1.0000</r>
       <r>   4.7028  1.0000</r>
       <r>   4.7038  1.0000</r>
       <r>   4.7061  1.0000</r>
       <r>   4.7072  1.0000</r>
       <r>   4.8589  1.0000</r>
       <r>   4.8589  1.0000</r>
       <r>   5.5294  1.0000</r>
       <r>   5.5294  1.0000</r>
       <r>   6.0628  1.0000</r>
       <r>   6.0629  1.0000</r>
       <r>   6.7420  1.0000</r>
       <r>   6.7432  1.0000</r>
       <r>   6.7455  1.0000</r>
       <r>   6.7465  1.0000</r>
       <r>   6.7632  1.0000</r>
       <r>   6.7634  1.0000</r>
       <r>   6.8698  1.0000</r>
       <r>   6.8724  1.0000</r>
       <r>   6.8724  1.0000</r>
       <r>   6.8750  1.0000</r>
       <r>   7.5418  0.0000</r>
       <r>   7.5444  0.0000</r>
       <r>   7.5444  0.0000</r>
       <r>   7.5470  0.0000</r>
       <r>   8.1699  0.0000</r>
       <r>   8.1720  0.0000</r>
       <r>   8.1720  0.0000</r>
       <r>   8.1740  0.0000</r>
       <r>   8.2180  0.0000</r>
       <r>   8.2180  0.0000</r>
       <r>   8.2857  0.0000</r>
       <r>   8.8691  0.0000</r>
       <r>   8.8712  0.0000</r>
       <r>   8.8712  0.0000</r>
       <r>   8.8732  0.0000</r>
       <r>   9.5659  0.0000</r>
       <r>   9.5659  0.0000</r>
       <r>  10.2327  0.0000</r>
       <r>  10.2354  0.0000</r>
       <r>  10.2355  0.0000</r>
       <r>  10.2380  0.0000</r>
       <r>  10.2395  0.0000</r>
       <r>  10.2397  0.0000</r>
       <r>  10.3537  0.0000</r>
      </set>
      <set comment="kpoint 10">
       <r>  -3.0241  1.0000</r>
       <r>  -2.2997  1.0000</r>
       <r>  -1.5789  1.0000</r>
       <r>  -0.8629  1.0000</r>
       <r>  -0.8615  1.0000</r>
       <r>  -0.8601  1.0000</r>
       <r>  -0.1491  1.0000</r>
       <r>  -0.1475  1.0000</r>
       <r>  -0.1463  1.0000</r>
       <r>   0.5604  1.0000</r>
       <r>   0.5623  1.0000</r>
       <r>   0.5632  1.0000</r>
       <r>   0.5648  1.0000</r>
       <r>   1.2709  1.0000</r>
       <r>   1.2709  1.0000</r>
       <r>   1.9720  1.0000</r>
       <r>   1.9744  1.0000</r>
       <r>   1.9752  1.0000</r>
       <r>   2.6573  1.0000</r>
       <r>   2.6733  1.0000</r>
       <r>   2.6735  1.0000</r>
       <r>   2.6756  1.0000</r>
       <r>   2.6759  1.0000</r>
       <r>   3.3706  1.0000</r>
       <r>   3.9998  1.0000</r>
       <r>   4.0467  1.0000</r>
       <r>   4.0703  1.0000</r>
       <r>   4.0704  1.0000</r>
       <r>   4.6862  1.0000</r>
       <r>   4.7355  1.0000</r>
       <r>   4.7355  1.0000</r>
       <r>   4.9147  1.0000</r>
       <r>   5.4211  1.0000</r>
       <r>   5.4522  1.0000</r>
       <r>   5.4522  1.0000</r>
       <r>   5.5853  1.0000</r>
       <r>   6.0590  1.0000</r>
       <r>   6.0591  1.0000</r>
       <r>   6.1171  1.0000</r>
       <r>   6.1171  1.0000</r>
       <r>   6.1216  1.0000</r>
       <r>   6.2565  1.0000</r>
       <r>   6.7395  1.0000</r>
       <r>   6.7395  1.0000</r>
       <r>   6.8048  1.0000</r>
       <r>   6.9282  1.0000</r>
       <r>   7.0272  1.0000</r>
       <r>   7.4465  0.0323</r>
       <r>   7.4827  0.0000</r>
       <r>   7.4827  0.0000</r>
       <r>   7.5472  0.0000</r>
       <r>   7.6009  0.0000</r>
       <r>   7.7062  0.0000</r>
       <r>   8.2431  0.0000</r>
       <r>   8.2728  0.0000</r>
       <r>   8.2745  0.0000</r>
       <r>   8.3421  0.0000</r>
       <r>   8.8786  0.0000</r>
       <r>   9.0829  0.0000</r>
       <r>   9.0830  0.0000</r>
       <r>   9.4344  0.0000</r>
       <r>   9.4470  0.0000</r>
       <r>   9.4470  0.0000</r>
       <r>   9.6020  0.0000</r>
       <r>   9.6191  0.0000</r>
       <r>   9.6277  0.0000</r>
       <r>   9.7707  0.0000</r>
       <r>   9.7782  0.0000</r>
       <r>   9.7782  0.0000</r>
       <r>  10.2955  0.0000</r>
       <r>  10.4160  0.0000</r>
       <r>  10.4226  0.0000</r>
      </set>
      <set comment="kpoint 11">
       <r>  -2.8427  1.0000</r>
       <r>  -2.1203  1.0000</r>
       <r>  -2.1181  1.0000</r>
       <r>  -1.3992  1.0000</r>
       <r>  -0.6828  1.0000</r>
       <r>  -0.6827  1.0000</r>
       <r>   0.0289  1.0000</r>
       <r>   0.0299  1.0000</r>
       <r>   0.0311  1.0000</r>
       <r>   0.0320  1.0000</r>
       <r>   0.7370  1.0000</r>
       <r>   0.7391  1.0000</r>
       <r>   0.7405  1.0000</r>
       <r>   0.7415  1.0000</r>
       <r>   1.4445  1.0000</r>
       <r>   1.4455  1.0000</r>
       <r>   2.8312  1.0000</r>
       <r>   2.8321  1.0000</r>
       <r>   2.8469  1.0000</r>
       <r>   2.8477  1.0000</r>
       <r>   2.8490  1.0000</r>
       <r>   2.8500  1.0000</r>
       <r>   3.5033  1.0000</r>
       <r>   3.5034  1.0000</r>
       <r>   3.5261  1.0000</r>
       <r>   3.5283  1.0000</r>
       <r>   3.5917  1.0000</r>
       <r>   3.5918  1.0000</r>
       <r>   4.2359  1.0000</r>
       <r>   4.8447  1.0000</r>
       <r>   4.8447  1.0000</r>
       <r>   4.9795  1.0000</r>
       <r>   4.9795  1.0000</r>
       <r>   5.0823  1.0000</r>
       <r>   5.6009  1.0000</r>
       <r>   5.6019  1.0000</r>
       <r>   5.6031  1.0000</r>
       <r>   5.6041  1.0000</r>
       <r>   5.7518  1.0000</r>
       <r>   5.7542  1.0000</r>
       <r>   6.2577  1.0000</r>
       <r>   6.2593  1.0000</r>
       <r>   6.2959  1.0000</r>
       <r>   6.3091  1.0000</r>
       <r>   6.3092  1.0000</r>
       <r>   6.4243  1.0000</r>
       <r>   7.0416  1.0000</r>
       <r>   7.0429  1.0000</r>
       <r>   7.7240  0.0000</r>
       <r>   8.3177  0.0000</r>
       <r>   8.3287  0.0000</r>
       <r>   8.3297  0.0000</r>
       <r>   8.3298  0.0000</r>
       <r>   8.3309  0.0000</r>
       <r>   8.4410  0.0000</r>
       <r>   8.4435  0.0000</r>
       <r>   8.5100  0.0000</r>
       <r>   8.5111  0.0000</r>
       <r>   9.1138  0.0000</r>
       <r>   9.1157  0.0000</r>
       <r>   9.1363  0.0000</r>
       <r>   9.1383  0.0000</r>
       <r>   9.8391  0.0000</r>
       <r>   9.8399  0.0000</r>
       <r>  10.3296  0.0000</r>
       <r>  10.3296  0.0000</r>
       <r>  10.3955  0.0000</r>
       <r>  10.3955  0.0000</r>
       <r>  10.4249  0.0000</r>
       <r>  10.4251  0.0000</r>
       <r>  10.4628  0.0000</r>
       <r>  10.4647  0.0000</r>
      </set>
      <set comment="kpoint 12">
       <r>  -2.5422  1.0000</r>
       <r>  -2.5394  1.0000</r>
       <r>  -1.8202  1.0000</r>
       <r>  -1.8174  1.0000</r>
       <r>  -0.3871  1.0000</r>
       <r>  -0.3860  1.0000</r>
       <r>  -0.3843  1.0000</r>
       <r>  -0.3832  1.0000</r>
       <r>   0.3248  1.0000</r>
       <r>   0.3259  1.0000</r>
       <r>   0.3276  1.0000</r>
       <r>   0.3286  1.0000</r>
       <r>   1.0319  1.0000</r>
       <r>   1.0347  1.0000</r>
       <r>   1.7337  1.0000</r>
       <r>   1.7352  1.0000</r>
       <r>   2.4353  1.0000</r>
       <r>   2.4367  1.0000</r>
       <r>   3.1205  1.0000</r>
       <r>   3.1233  1.0000</r>
       <r>   3.1369  1.0000</r>
       <r>   3.1380  1.0000</r>
       <r>   3.1397  1.0000</r>
       <r>   3.1409  1.0000</r>
       <r>   3.8279  1.0000</r>
       <r>   3.8282  1.0000</r>
       <r>   3.8293  1.0000</r>
       <r>   3.8295  1.0000</r>
       <r>   4.5266  1.0000</r>
       <r>   4.5267  1.0000</r>
       <r>   4.5281  1.0000</r>
       <r>   4.5281  1.0000</r>
       <r>   5.2006  1.0000</r>
       <r>   5.2016  1.0000</r>
       <r>   5.2034  1.0000</r>
       <r>   5.2044  1.0000</r>
       <r>   5.2049  1.0000</r>
       <r>   5.2063  1.0000</r>
       <r>   5.3602  1.0000</r>
       <r>   5.3631  1.0000</r>
       <r>   6.0311  1.0000</r>
       <r>   6.0341  1.0000</r>
       <r>   6.5695  1.0000</r>
       <r>   6.5721  1.0000</r>
       <r>   7.2707  1.0000</r>
       <r>   7.2708  1.0000</r>
       <r>   7.2722  1.0000</r>
       <r>   7.2723  1.0000</r>
       <r>   7.2796  1.0000</r>
       <r>   7.2812  1.0000</r>
       <r>   7.3180  1.0000</r>
       <r>   7.3206  1.0000</r>
       <r>   8.7209  0.0000</r>
       <r>   8.7239  0.0000</r>
       <r>   8.7855  0.0000</r>
       <r>   8.7883  0.0000</r>
       <r>   9.2809  0.0000</r>
       <r>   9.2809  0.0000</r>
       <r>   9.2825  0.0000</r>
       <r>   9.2825  0.0000</r>
       <r>   9.3953  0.0000</r>
       <r>   9.3976  0.0000</r>
       <r>  10.0004  0.0000</r>
       <r>  10.0034  0.0000</r>
       <r>  10.0679  0.0000</r>
       <r>  10.0702  0.0000</r>
       <r>  10.1295  0.0000</r>
       <r>  10.1309  0.0000</r>
       <r>  10.7078  0.0000</r>
       <r>  10.7081  0.0000</r>
       <r>  10.7437  0.0000</r>
       <r>  10.7606  0.0000</r>
      </set>
      <set comment="kpoint 13">
       <r>  -2.7822  1.0000</r>
       <r>  -2.7822  1.0000</r>
       <r>  -0.6282  1.0000</r>
       <r>  -0.6237  1.0000</r>
       <r>  -0.6232  1.0000</r>
       <r>  -0.6232  1.0000</r>
       <r>  -0.6232  1.0000</r>
       <r>  -0.6232  1.0000</r>
       <r>  -0.6227  1.0000</r>
       <r>  -0.6182  1.0000</r>
       <r>   1.4985  1.0000</r>
       <r>   1.4997  1.0000</r>
       <r>   1.5032  1.0000</r>
       <r>   1.5039  1.0000</r>
       <r>   1.5054  1.0000</r>
       <r>   1.5056  1.0000</r>
       <r>   1.5061  1.0000</r>
       <r>   1.5065  1.0000</r>
       <r>   1.5078  1.0000</r>
       <r>   1.5100  1.0000</r>
       <r>   3.5951  1.0000</r>
       <r>   3.5955  1.0000</r>
       <r>   3.5981  1.0000</r>
       <r>   3.5981  1.0000</r>
       <r>   3.5981  1.0000</r>
       <r>   3.5981  1.0000</r>
       <r>   3.6006  1.0000</r>
       <r>   3.6010  1.0000</r>
       <r>   5.1381  1.0000</r>
       <r>   5.1382  1.0000</r>
       <r>   5.1382  1.0000</r>
       <r>   5.1382  1.0000</r>
       <r>   5.6734  1.0000</r>
       <r>   5.6747  1.0000</r>
       <r>   5.6749  1.0000</r>
       <r>   5.6753  1.0000</r>
       <r>   5.6772  1.0000</r>
       <r>   5.6776  1.0000</r>
       <r>   5.6778  1.0000</r>
       <r>   5.6791  1.0000</r>
       <r>   6.3568  1.0000</r>
       <r>   6.3569  1.0000</r>
       <r>   6.3569  1.0000</r>
       <r>   6.3569  1.0000</r>
       <r>   7.1476  1.0000</r>
       <r>   7.1519  1.0000</r>
       <r>   7.1523  1.0000</r>
       <r>   7.1523  1.0000</r>
       <r>   7.1523  1.0000</r>
       <r>   7.1524  1.0000</r>
       <r>   7.1528  1.0000</r>
       <r>   7.1571  1.0000</r>
       <r>   8.4634  0.0000</r>
       <r>   8.4667  0.0000</r>
       <r>   8.4671  0.0000</r>
       <r>   8.4671  0.0000</r>
       <r>   8.4672  0.0000</r>
       <r>   8.4672  0.0000</r>
       <r>   8.4676  0.0000</r>
       <r>   8.4709  0.0000</r>
       <r>   9.1722  0.0000</r>
       <r>   9.1722  0.0000</r>
       <r>   9.1722  0.0000</r>
       <r>   9.1722  0.0000</r>
       <r>   9.9134  0.0000</r>
       <r>   9.9134  0.0000</r>
       <r>  10.4775  0.0000</r>
       <r>  10.4775  0.0000</r>
       <r>  10.4775  0.0000</r>
       <r>  10.4775  0.0000</r>
       <r>  11.1887  0.0000</r>
       <r>  11.1893  0.0000</r>
      </set>
      <set comment="kpoint 14">
       <r>  -2.7218  1.0000</r>
       <r>  -2.7218  1.0000</r>
       <r>  -1.2796  1.0000</r>
       <r>  -1.2795  1.0000</r>
       <r>  -0.5637  1.0000</r>
       <r>  -0.5636  1.0000</r>
       <r>  -0.5636  1.0000</r>
       <r>  -0.5636  1.0000</r>
       <r>   0.1486  1.0000</r>
       <r>   0.1486  1.0000</r>
       <r>   0.8585  1.0000</r>
       <r>   0.8585  1.0000</r>
       <r>   0.8585  1.0000</r>
       <r>   0.8585  1.0000</r>
       <r>   1.5586  1.0000</r>
       <r>   1.5586  1.0000</r>
       <r>   2.2670  1.0000</r>
       <r>   2.2670  1.0000</r>
       <r>   2.2670  1.0000</r>
       <r>   2.2670  1.0000</r>
       <r>   2.9601  1.0000</r>
       <r>   2.9601  1.0000</r>
       <r>   3.6559  1.0000</r>
       <r>   3.6559  1.0000</r>
       <r>   3.6559  1.0000</r>
       <r>   3.6559  1.0000</r>
       <r>   4.2861  1.0000</r>
       <r>   4.2862  1.0000</r>
       <r>   4.3479  1.0000</r>
       <r>   4.3479  1.0000</r>
       <r>   5.0449  1.0000</r>
       <r>   5.0449  1.0000</r>
       <r>   5.0449  1.0000</r>
       <r>   5.0449  1.0000</r>
       <r>   5.1940  1.0000</r>
       <r>   5.1940  1.0000</r>
       <r>   6.3421  1.0000</r>
       <r>   6.3422  1.0000</r>
       <r>   6.3422  1.0000</r>
       <r>   6.3422  1.0000</r>
       <r>   6.4134  1.0000</r>
       <r>   6.4135  1.0000</r>
       <r>   6.4193  1.0000</r>
       <r>   6.4193  1.0000</r>
       <r>   6.4194  1.0000</r>
       <r>   6.4196  1.0000</r>
       <r>   6.5363  1.0000</r>
       <r>   6.5363  1.0000</r>
       <r>   7.3129  1.0000</r>
       <r>   7.3129  1.0000</r>
       <r>   7.8380  0.0000</r>
       <r>   7.8380  0.0000</r>
       <r>   7.8810  0.0000</r>
       <r>   7.8810  0.0000</r>
       <r>   8.3827  0.0000</r>
       <r>   8.3827  0.0000</r>
       <r>   9.1973  0.0000</r>
       <r>   9.1973  0.0000</r>
       <r>   9.2283  0.0000</r>
       <r>   9.2283  0.0000</r>
       <r>   9.3792  0.0000</r>
       <r>   9.3792  0.0000</r>
       <r>   9.3792  0.0000</r>
       <r>   9.3792  0.0000</r>
       <r>   9.9682  0.0000</r>
       <r>   9.9682  0.0000</r>
       <r>  10.3949  0.0000</r>
       <r>  10.3949  0.0000</r>
       <r>  10.3950  0.0000</r>
       <r>  10.3950  0.0000</r>
       <r>  10.5363  0.0000</r>
       <r>  10.5659  0.0000</r>
      </set>
      <set comment="kpoint 15">
       <r>  -2.5408  1.0000</r>
       <r>  -2.5408  1.0000</r>
       <r>  -1.8188  1.0000</r>
       <r>  -1.8188  1.0000</r>
       <r>  -0.3852  1.0000</r>
       <r>  -0.3852  1.0000</r>
       <r>  -0.3852  1.0000</r>
       <r>  -0.3852  1.0000</r>
       <r>   0.3267  1.0000</r>
       <r>   0.3267  1.0000</r>
       <r>   0.3267  1.0000</r>
       <r>   0.3267  1.0000</r>
       <r>   1.0333  1.0000</r>
       <r>   1.0333  1.0000</r>
       <r>   1.7344  1.0000</r>
       <r>   1.7344  1.0000</r>
       <r>   2.4360  1.0000</r>
       <r>   2.4360  1.0000</r>
       <r>   3.1218  1.0000</r>
       <r>   3.1219  1.0000</r>
       <r>   3.1389  1.0000</r>
       <r>   3.1389  1.0000</r>
       <r>   3.1389  1.0000</r>
       <r>   3.1389  1.0000</r>
       <r>   3.8287  1.0000</r>
       <r>   3.8287  1.0000</r>
       <r>   3.8287  1.0000</r>
       <r>   3.8287  1.0000</r>
       <r>   4.5274  1.0000</r>
       <r>   4.5274  1.0000</r>
       <r>   4.5274  1.0000</r>
       <r>   4.5274  1.0000</r>
       <r>   5.2024  1.0000</r>
       <r>   5.2025  1.0000</r>
       <r>   5.2025  1.0000</r>
       <r>   5.2026  1.0000</r>
       <r>   5.2055  1.0000</r>
       <r>   5.2056  1.0000</r>
       <r>   5.3617  1.0000</r>
       <r>   5.3617  1.0000</r>
       <r>   6.0326  1.0000</r>
       <r>   6.0326  1.0000</r>
       <r>   6.5708  1.0000</r>
       <r>   6.5708  1.0000</r>
       <r>   7.2713  1.0000</r>
       <r>   7.2715  1.0000</r>
       <r>   7.2715  1.0000</r>
       <r>   7.2715  1.0000</r>
       <r>   7.2804  1.0000</r>
       <r>   7.2806  1.0000</r>
       <r>   7.3193  1.0000</r>
       <r>   7.3193  1.0000</r>
       <r>   8.7224  0.0000</r>
       <r>   8.7224  0.0000</r>
       <r>   8.7869  0.0000</r>
       <r>   8.7869  0.0000</r>
       <r>   9.2817  0.0000</r>
       <r>   9.2817  0.0000</r>
       <r>   9.2817  0.0000</r>
       <r>   9.2817  0.0000</r>
       <r>   9.3965  0.0000</r>
       <r>   9.3965  0.0000</r>
       <r>  10.0019  0.0000</r>
       <r>  10.0019  0.0000</r>
       <r>  10.0690  0.0000</r>
       <r>  10.0690  0.0000</r>
       <r>  10.1302  0.0000</r>
       <r>  10.1302  0.0000</r>
       <r>  10.7077  0.0000</r>
       <r>  10.7091  0.0000</r>
       <r>  10.7443  0.0000</r>
       <r>  10.7533  0.0000</r>
      </set>
      <set comment="kpoint 16">
       <r>  -2.2420  1.0000</r>
       <r>  -2.2399  1.0000</r>
       <r>  -2.2392  1.0000</r>
       <r>  -2.2371  1.0000</r>
       <r>  -0.0917  1.0000</r>
       <r>  -0.0896  1.0000</r>
       <r>  -0.0886  1.0000</r>
       <r>  -0.0884  1.0000</r>
       <r>  -0.0879  1.0000</r>
       <r>  -0.0878  1.0000</r>
       <r>  -0.0867  1.0000</r>
       <r>  -0.0847  1.0000</r>
       <r>   2.0233  1.0000</r>
       <r>   2.0252  1.0000</r>
       <r>   2.0268  1.0000</r>
       <r>   2.0271  1.0000</r>
       <r>   2.0272  1.0000</r>
       <r>   2.0275  1.0000</r>
       <r>   2.0290  1.0000</r>
       <r>   2.0309  1.0000</r>
       <r>   4.0617  1.0000</r>
       <r>   4.0632  1.0000</r>
       <r>   4.0639  1.0000</r>
       <r>   4.0644  1.0000</r>
       <r>   4.0644  1.0000</r>
       <r>   4.0649  1.0000</r>
       <r>   4.0656  1.0000</r>
       <r>   4.0670  1.0000</r>
       <r>   4.1760  1.0000</r>
       <r>   4.1760  1.0000</r>
       <r>   4.1770  1.0000</r>
       <r>   4.1778  1.0000</r>
       <r>   4.1778  1.0000</r>
       <r>   4.1786  1.0000</r>
       <r>   4.1796  1.0000</r>
       <r>   4.1797  1.0000</r>
       <r>   5.6384  1.0000</r>
       <r>   5.6409  1.0000</r>
       <r>   5.6414  1.0000</r>
       <r>   5.6438  1.0000</r>
       <r>   6.1529  1.0000</r>
       <r>   6.1541  1.0000</r>
       <r>   6.1545  1.0000</r>
       <r>   6.1557  1.0000</r>
       <r>   6.9261  1.0000</r>
       <r>   6.9274  1.0000</r>
       <r>   6.9284  1.0000</r>
       <r>   6.9298  1.0000</r>
       <r>   8.2270  0.0000</r>
       <r>   8.2280  0.0000</r>
       <r>   8.2280  0.0000</r>
       <r>   8.2284  0.0000</r>
       <r>   8.2291  0.0000</r>
       <r>   8.2296  0.0000</r>
       <r>   8.2296  0.0000</r>
       <r>   8.2306  0.0000</r>
       <r>   9.6714  0.0000</r>
       <r>   9.6751  0.0000</r>
       <r>   9.6765  0.0000</r>
       <r>   9.6767  0.0000</r>
       <r>   9.6768  0.0000</r>
       <r>   9.6771  0.0000</r>
       <r>   9.6784  0.0000</r>
       <r>   9.6821  0.0000</r>
       <r>  10.3662  0.0000</r>
       <r>  10.3675  0.0000</r>
       <r>  10.3689  0.0000</r>
       <r>  10.3692  0.0000</r>
       <r>  10.3695  0.0000</r>
       <r>  10.3698  0.0000</r>
       <r>  10.3711  0.0000</r>
       <r>  10.3724  0.0000</r>
      </set>
      <set comment="kpoint 17">
       <r>  -3.2057  1.0000</r>
       <r>  -1.7588  1.0000</r>
       <r>  -1.7587  1.0000</r>
       <r>  -1.0422  1.0000</r>
       <r>  -1.0389  1.0000</r>
       <r>  -0.3261  1.0000</r>
       <r>  -0.3261  1.0000</r>
       <r>  -0.3256  1.0000</r>
       <r>   0.3832  1.0000</r>
       <r>   0.3852  1.0000</r>
       <r>   0.3865  1.0000</r>
       <r>   0.3885  1.0000</r>
       <r>   1.0936  1.0000</r>
       <r>   1.0936  1.0000</r>
       <r>   1.7958  1.0000</r>
       <r>   1.7979  1.0000</r>
       <r>   1.7981  1.0000</r>
       <r>   1.7992  1.0000</r>
       <r>   1.8007  1.0000</r>
       <r>   1.8017  1.0000</r>
       <r>   2.4998  1.0000</r>
       <r>   3.1659  1.0000</r>
       <r>   3.1659  1.0000</r>
       <r>   3.2361  1.0000</r>
       <r>   3.2362  1.0000</r>
       <r>   3.8279  1.0000</r>
       <r>   3.8279  1.0000</r>
       <r>   4.5894  1.0000</r>
       <r>   4.5927  1.0000</r>
       <r>   4.7472  1.0000</r>
       <r>   5.1992  1.0000</r>
       <r>   5.1992  1.0000</r>
       <r>   5.8219  1.0000</r>
       <r>   5.8219  1.0000</r>
       <r>   5.9445  1.0000</r>
       <r>   5.9454  1.0000</r>
       <r>   5.9455  1.0000</r>
       <r>   6.0887  1.0000</r>
       <r>   6.0887  1.0000</r>
       <r>   6.5485  1.0000</r>
       <r>   6.5485  1.0000</r>
       <r>   6.8546  1.0000</r>
       <r>   6.8546  1.0000</r>
       <r>   7.2469  1.0000</r>
       <r>   7.2489  1.0000</r>
       <r>   7.2504  1.0000</r>
       <r>   7.2524  1.0000</r>
       <r>   7.3735  1.0000</r>
       <r>   7.3736  1.0000</r>
       <r>   7.4323  0.5619</r>
       <r>   7.4328  0.5304</r>
       <r>   7.4329  0.5264</r>
       <r>   8.1633  0.0000</r>
       <r>   8.1633  0.0000</r>
       <r>   8.6027  0.0000</r>
       <r>   8.6035  0.0000</r>
       <r>   8.6063  0.0000</r>
       <r>   8.6071  0.0000</r>
       <r>   8.7424  0.0000</r>
       <r>   8.7425  0.0000</r>
       <r>   8.7598  0.0000</r>
       <r>   8.7777  0.0000</r>
       <r>   8.7777  0.0000</r>
       <r>   8.8497  0.0000</r>
       <r>   8.8497  0.0000</r>
       <r>   9.1343  0.0000</r>
       <r>   9.1343  0.0000</r>
       <r>   9.6323  0.0000</r>
       <r>   9.6323  0.0000</r>
       <r>  10.1117  0.0000</r>
       <r>  10.1118  0.0000</r>
       <r>  10.1230  0.0000</r>
      </set>
      <set comment="kpoint 18">
       <r>  -3.1451  1.0000</r>
       <r>  -1.7003  1.0000</r>
       <r>  -1.6988  1.0000</r>
       <r>  -1.6972  1.0000</r>
       <r>  -0.2697  1.0000</r>
       <r>  -0.2669  1.0000</r>
       <r>  -0.2667  1.0000</r>
       <r>  -0.2662  1.0000</r>
       <r>  -0.2660  1.0000</r>
       <r>  -0.2632  1.0000</r>
       <r>   1.1494  1.0000</r>
       <r>   1.1515  1.0000</r>
       <r>   1.1523  1.0000</r>
       <r>   1.1525  1.0000</r>
       <r>   1.1533  1.0000</r>
       <r>   1.1535  1.0000</r>
       <r>   1.1559  1.0000</r>
       <r>   2.5560  1.0000</r>
       <r>   2.5577  1.0000</r>
       <r>   2.5584  1.0000</r>
       <r>   2.5592  1.0000</r>
       <r>   2.5597  1.0000</r>
       <r>   2.5610  1.0000</r>
       <r>   3.8845  1.0000</r>
       <r>   3.8852  1.0000</r>
       <r>   3.8858  1.0000</r>
       <r>   3.9551  1.0000</r>
       <r>   3.9558  1.0000</r>
       <r>   3.9565  1.0000</r>
       <r>   5.2526  1.0000</r>
       <r>   5.2541  1.0000</r>
       <r>   5.2553  1.0000</r>
       <r>   5.2553  1.0000</r>
       <r>   5.2566  1.0000</r>
       <r>   5.2580  1.0000</r>
       <r>   5.3389  1.0000</r>
       <r>   6.6196  1.0000</r>
       <r>   6.6198  1.0000</r>
       <r>   6.6213  1.0000</r>
       <r>   6.6215  1.0000</r>
       <r>   6.6224  1.0000</r>
       <r>   6.6229  1.0000</r>
       <r>   6.6251  1.0000</r>
       <r>   6.6266  1.0000</r>
       <r>   6.6282  1.0000</r>
       <r>   6.9114  1.0000</r>
       <r>   6.9121  1.0000</r>
       <r>   6.9128  1.0000</r>
       <r>   7.9824  0.0000</r>
       <r>   7.9832  0.0000</r>
       <r>   7.9842  0.0000</r>
       <r>   7.9843  0.0000</r>
       <r>   7.9853  0.0000</r>
       <r>   7.9861  0.0000</r>
       <r>   8.2863  0.0000</r>
       <r>   8.2869  0.0000</r>
       <r>   8.2879  0.0000</r>
       <r>   8.2879  0.0000</r>
       <r>   8.2890  0.0000</r>
       <r>   8.2896  0.0000</r>
       <r>   9.3352  0.0000</r>
       <r>   9.3361  0.0000</r>
       <r>   9.3369  0.0000</r>
       <r>   9.6678  0.0000</r>
       <r>   9.6685  0.0000</r>
       <r>   9.6693  0.0000</r>
       <r>   9.6938  0.0000</r>
       <r>   9.6952  0.0000</r>
       <r>   9.6960  0.0000</r>
       <r>   9.6960  0.0000</r>
       <r>   9.6968  0.0000</r>
       <r>   9.6981  0.0000</r>
      </set>
      <set comment="kpoint 19">
       <r>  -2.9636  1.0000</r>
       <r>  -2.2395  1.0000</r>
       <r>  -1.5190  1.0000</r>
       <r>  -1.5190  1.0000</r>
       <r>  -0.8018  1.0000</r>
       <r>  -0.8018  1.0000</r>
       <r>  -0.0886  1.0000</r>
       <r>  -0.0886  1.0000</r>
       <r>  -0.0881  1.0000</r>
       <r>   0.6191  1.0000</r>
       <r>   0.6218  1.0000</r>
       <r>   0.6223  1.0000</r>
       <r>   0.6234  1.0000</r>
       <r>   1.3290  1.0000</r>
       <r>   1.3290  1.0000</r>
       <r>   2.0305  1.0000</r>
       <r>   2.0310  1.0000</r>
       <r>   2.0336  1.0000</r>
       <r>   2.0342  1.0000</r>
       <r>   2.7155  1.0000</r>
       <r>   2.7331  1.0000</r>
       <r>   3.3909  1.0000</r>
       <r>   3.4286  1.0000</r>
       <r>   3.4286  1.0000</r>
       <r>   3.4735  1.0000</r>
       <r>   4.0571  1.0000</r>
       <r>   4.0571  1.0000</r>
       <r>   4.1043  1.0000</r>
       <r>   4.1043  1.0000</r>
       <r>   4.7432  1.0000</r>
       <r>   4.7432  1.0000</r>
       <r>   4.8197  1.0000</r>
       <r>   4.8197  1.0000</r>
       <r>   5.3853  1.0000</r>
       <r>   5.3853  1.0000</r>
       <r>   5.4882  1.0000</r>
       <r>   5.5275  1.0000</r>
       <r>   5.5275  1.0000</r>
       <r>   6.1153  1.0000</r>
       <r>   6.1153  1.0000</r>
       <r>   6.1965  1.0000</r>
       <r>   6.7941  1.0000</r>
       <r>   6.7941  1.0000</r>
       <r>   6.8575  1.0000</r>
       <r>   6.8575  1.0000</r>
       <r>   7.0839  1.0000</r>
       <r>   7.0839  1.0000</r>
       <r>   7.4378  0.2677</r>
       <r>   7.4378  0.2654</r>
       <r>   7.4752  0.0000</r>
       <r>   7.4752  0.0000</r>
       <r>   7.8155  0.0000</r>
       <r>   7.8155  0.0000</r>
       <r>   8.2185  0.0000</r>
       <r>   8.3980  0.0000</r>
       <r>   8.4722  0.0000</r>
       <r>   8.4722  0.0000</r>
       <r>   8.8282  0.0000</r>
       <r>   8.8282  0.0000</r>
       <r>   9.1595  0.0000</r>
       <r>   9.1595  0.0000</r>
       <r>   9.4914  0.0000</r>
       <r>   9.4914  0.0000</r>
       <r>   9.6243  0.0000</r>
       <r>   9.6243  0.0000</r>
       <r>   9.9894  0.0000</r>
       <r>   9.9894  0.0000</r>
       <r>  10.1758  0.0000</r>
       <r>  10.1758  0.0000</r>
       <r>  10.4994  0.0000</r>
       <r>  10.5050  0.0000</r>
       <r>  10.5097  0.0000</r>
      </set>
      <set comment="kpoint 20">
       <r>  -2.6629  1.0000</r>
       <r>  -2.6601  1.0000</r>
       <r>  -1.2221  1.0000</r>
       <r>  -1.2202  1.0000</r>
       <r>  -1.2193  1.0000</r>
       <r>  -1.2174  1.0000</r>
       <r>   0.2052  1.0000</r>
       <r>   0.2072  1.0000</r>
       <r>   0.2074  1.0000</r>
       <r>   0.2082  1.0000</r>
       <r>   0.2093  1.0000</r>
       <r>   0.2107  1.0000</r>
       <r>   1.6157  1.0000</r>
       <r>   1.6175  1.0000</r>
       <r>   1.6216  1.0000</r>
       <r>   1.6219  1.0000</r>
       <r>   1.6241  1.0000</r>
       <r>   1.6250  1.0000</r>
       <r>   3.0172  1.0000</r>
       <r>   3.0178  1.0000</r>
       <r>   3.0187  1.0000</r>
       <r>   3.0190  1.0000</r>
       <r>   3.0227  1.0000</r>
       <r>   3.0254  1.0000</r>
       <r>   4.3417  1.0000</r>
       <r>   4.3420  1.0000</r>
       <r>   4.3446  1.0000</r>
       <r>   4.3448  1.0000</r>
       <r>   4.4037  1.0000</r>
       <r>   4.4042  1.0000</r>
       <r>   4.4051  1.0000</r>
       <r>   4.4056  1.0000</r>
       <r>   4.4114  1.0000</r>
       <r>   4.4129  1.0000</r>
       <r>   5.7160  1.0000</r>
       <r>   5.7179  1.0000</r>
       <r>   5.7189  1.0000</r>
       <r>   5.7208  1.0000</r>
       <r>   5.7891  1.0000</r>
       <r>   5.7898  1.0000</r>
       <r>   5.7906  1.0000</r>
       <r>   5.7913  1.0000</r>
       <r>   7.0766  1.0000</r>
       <r>   7.0772  1.0000</r>
       <r>   7.0795  1.0000</r>
       <r>   7.0801  1.0000</r>
       <r>   7.1588  1.0000</r>
       <r>   7.1603  1.0000</r>
       <r>   7.3633  1.0000</r>
       <r>   7.3639  1.0000</r>
       <r>   7.3661  1.0000</r>
       <r>   7.3667  1.0000</r>
       <r>   8.4423  0.0000</r>
       <r>   8.4428  0.0000</r>
       <r>   8.4441  0.0000</r>
       <r>   8.4446  0.0000</r>
       <r>   8.7588  0.0000</r>
       <r>   8.7595  0.0000</r>
       <r>   8.7616  0.0000</r>
       <r>   8.7623  0.0000</r>
       <r>   9.7770  0.0000</r>
       <r>   9.7777  0.0000</r>
       <r>   9.7788  0.0000</r>
       <r>   9.7795  0.0000</r>
       <r>  10.0197  0.0000</r>
       <r>  10.0211  0.0000</r>
       <r>  10.0928  0.0000</r>
       <r>  10.0949  0.0000</r>
       <r>  10.0958  0.0000</r>
       <r>  10.0979  0.0000</r>
       <r>  11.0681  0.0000</r>
       <r>  11.0943  0.0000</r>
      </set>
      <set comment="kpoint 21">
       <r>  -3.0241  1.0000</r>
       <r>  -2.2997  1.0000</r>
       <r>  -1.5789  1.0000</r>
       <r>  -0.8637  1.0000</r>
       <r>  -0.8615  1.0000</r>
       <r>  -0.8594  1.0000</r>
       <r>  -0.1497  1.0000</r>
       <r>  -0.1478  1.0000</r>
       <r>  -0.1455  1.0000</r>
       <r>   0.5604  1.0000</r>
       <r>   0.5622  1.0000</r>
       <r>   0.5628  1.0000</r>
       <r>   0.5652  1.0000</r>
       <r>   1.2693  1.0000</r>
       <r>   1.2725  1.0000</r>
       <r>   1.9723  1.0000</r>
       <r>   1.9732  1.0000</r>
       <r>   1.9761  1.0000</r>
       <r>   2.6573  1.0000</r>
       <r>   2.6719  1.0000</r>
       <r>   2.6741  1.0000</r>
       <r>   2.6751  1.0000</r>
       <r>   2.6773  1.0000</r>
       <r>   3.3706  1.0000</r>
       <r>   3.9998  1.0000</r>
       <r>   4.0467  1.0000</r>
       <r>   4.0687  1.0000</r>
       <r>   4.0720  1.0000</r>
       <r>   4.6862  1.0000</r>
       <r>   4.7338  1.0000</r>
       <r>   4.7371  1.0000</r>
       <r>   4.9147  1.0000</r>
       <r>   5.4210  1.0000</r>
       <r>   5.4505  1.0000</r>
       <r>   5.4539  1.0000</r>
       <r>   5.5853  1.0000</r>
       <r>   6.0573  1.0000</r>
       <r>   6.0608  1.0000</r>
       <r>   6.1153  1.0000</r>
       <r>   6.1187  1.0000</r>
       <r>   6.1216  1.0000</r>
       <r>   6.2565  1.0000</r>
       <r>   6.7377  1.0000</r>
       <r>   6.7412  1.0000</r>
       <r>   6.8048  1.0000</r>
       <r>   6.9282  1.0000</r>
       <r>   7.0272  1.0000</r>
       <r>   7.4464  0.0324</r>
       <r>   7.4809  0.0000</r>
       <r>   7.4844  0.0000</r>
       <r>   7.5472  0.0000</r>
       <r>   7.6009  0.0000</r>
       <r>   7.7062  0.0000</r>
       <r>   8.2430  0.0000</r>
       <r>   8.2733  0.0000</r>
       <r>   8.2741  0.0000</r>
       <r>   8.3421  0.0000</r>
       <r>   8.8786  0.0000</r>
       <r>   9.0815  0.0000</r>
       <r>   9.0844  0.0000</r>
       <r>   9.4344  0.0000</r>
       <r>   9.4452  0.0000</r>
       <r>   9.4488  0.0000</r>
       <r>   9.6019  0.0000</r>
       <r>   9.6191  0.0000</r>
       <r>   9.6278  0.0000</r>
       <r>   9.7707  0.0000</r>
       <r>   9.7767  0.0000</r>
       <r>   9.7798  0.0000</r>
       <r>  10.2955  0.0000</r>
       <r>  10.4149  0.0000</r>
       <r>  10.4228  0.0000</r>
      </set>
      <set comment="kpoint 22">
       <r>  -2.9636  1.0000</r>
       <r>  -2.2395  1.0000</r>
       <r>  -1.5200  1.0000</r>
       <r>  -1.5179  1.0000</r>
       <r>  -0.8029  1.0000</r>
       <r>  -0.8008  1.0000</r>
       <r>  -0.0902  1.0000</r>
       <r>  -0.0884  1.0000</r>
       <r>  -0.0867  1.0000</r>
       <r>   0.6199  1.0000</r>
       <r>   0.6208  1.0000</r>
       <r>   0.6221  1.0000</r>
       <r>   0.6239  1.0000</r>
       <r>   1.3285  1.0000</r>
       <r>   1.3295  1.0000</r>
       <r>   2.0302  1.0000</r>
       <r>   2.0322  1.0000</r>
       <r>   2.0329  1.0000</r>
       <r>   2.0339  1.0000</r>
       <r>   2.7155  1.0000</r>
       <r>   2.7331  1.0000</r>
       <r>   3.3909  1.0000</r>
       <r>   3.4275  1.0000</r>
       <r>   3.4297  1.0000</r>
       <r>   3.4735  1.0000</r>
       <r>   4.0567  1.0000</r>
       <r>   4.0576  1.0000</r>
       <r>   4.1031  1.0000</r>
       <r>   4.1054  1.0000</r>
       <r>   4.7427  1.0000</r>
       <r>   4.7436  1.0000</r>
       <r>   4.8192  1.0000</r>
       <r>   4.8202  1.0000</r>
       <r>   5.3842  1.0000</r>
       <r>   5.3864  1.0000</r>
       <r>   5.4882  1.0000</r>
       <r>   5.5263  1.0000</r>
       <r>   5.5287  1.0000</r>
       <r>   6.1142  1.0000</r>
       <r>   6.1164  1.0000</r>
       <r>   6.1965  1.0000</r>
       <r>   6.7935  1.0000</r>
       <r>   6.7947  1.0000</r>
       <r>   6.8569  1.0000</r>
       <r>   6.8580  1.0000</r>
       <r>   7.0834  1.0000</r>
       <r>   7.0843  1.0000</r>
       <r>   7.4371  0.2987</r>
       <r>   7.4385  0.2336</r>
       <r>   7.4746  0.0000</r>
       <r>   7.4757  0.0000</r>
       <r>   7.8153  0.0000</r>
       <r>   7.8157  0.0000</r>
       <r>   8.2185  0.0000</r>
       <r>   8.3980  0.0000</r>
       <r>   8.4716  0.0000</r>
       <r>   8.4728  0.0000</r>
       <r>   8.8270  0.0000</r>
       <r>   8.8293  0.0000</r>
       <r>   9.1590  0.0000</r>
       <r>   9.1600  0.0000</r>
       <r>   9.4909  0.0000</r>
       <r>   9.4919  0.0000</r>
       <r>   9.6231  0.0000</r>
       <r>   9.6255  0.0000</r>
       <r>   9.9886  0.0000</r>
       <r>   9.9903  0.0000</r>
       <r>  10.1752  0.0000</r>
       <r>  10.1764  0.0000</r>
       <r>  10.4993  0.0000</r>
       <r>  10.5019  0.0000</r>
       <r>  10.5095  0.0000</r>
      </set>
      <set comment="kpoint 23">
       <r>  -2.7822  1.0000</r>
       <r>  -2.0601  1.0000</r>
       <r>  -2.0580  1.0000</r>
       <r>  -1.3403  1.0000</r>
       <r>  -1.3384  1.0000</r>
       <r>  -0.6242  1.0000</r>
       <r>  -0.6220  1.0000</r>
       <r>   0.0891  1.0000</r>
       <r>   0.0901  1.0000</r>
       <r>   0.7957  1.0000</r>
       <r>   0.7979  1.0000</r>
       <r>   0.7986  1.0000</r>
       <r>   0.8008  1.0000</r>
       <r>   1.5029  1.0000</r>
       <r>   1.5040  1.0000</r>
       <r>   1.5061  1.0000</r>
       <r>   2.2058  1.0000</r>
       <r>   2.2079  1.0000</r>
       <r>   2.8893  1.0000</r>
       <r>   2.8902  1.0000</r>
       <r>   2.9062  1.0000</r>
       <r>   2.9072  1.0000</r>
       <r>   3.5839  1.0000</r>
       <r>   3.5861  1.0000</r>
       <r>   3.6008  1.0000</r>
       <r>   3.6030  1.0000</r>
       <r>   4.2288  1.0000</r>
       <r>   4.2756  1.0000</r>
       <r>   4.2766  1.0000</r>
       <r>   4.2926  1.0000</r>
       <r>   4.3007  1.0000</r>
       <r>   4.3017  1.0000</r>
       <r>   4.9122  1.0000</r>
       <r>   4.9145  1.0000</r>
       <r>   4.9720  1.0000</r>
       <r>   4.9742  1.0000</r>
       <r>   5.6046  1.0000</r>
       <r>   5.6592  1.0000</r>
       <r>   5.6602  1.0000</r>
       <r>   5.6795  1.0000</r>
       <r>   6.3361  1.0000</r>
       <r>   6.3372  1.0000</r>
       <r>   6.3434  1.0000</r>
       <r>   6.3456  1.0000</r>
       <r>   7.0500  1.0000</r>
       <r>   7.2500  1.0000</r>
       <r>   7.6370  0.0000</r>
       <r>   7.6394  0.0000</r>
       <r>   7.7064  0.0000</r>
       <r>   7.7075  0.0000</r>
       <r>   7.9643  0.0000</r>
       <r>   7.9661  0.0000</r>
       <r>   8.3197  0.0000</r>
       <r>   8.3210  0.0000</r>
       <r>   8.3792  0.0000</r>
       <r>   8.5621  0.0000</r>
       <r>   8.5633  0.0000</r>
       <r>   8.6489  0.0000</r>
       <r>   9.0620  0.0000</r>
       <r>   9.0632  0.0000</r>
       <r>   9.2488  0.0000</r>
       <r>   9.2501  0.0000</r>
       <r>   9.6640  0.0000</r>
       <r>   9.6652  0.0000</r>
       <r>   9.7126  0.0000</r>
       <r>   9.9252  0.0000</r>
       <r>   9.9262  0.0000</r>
       <r>  10.3200  0.0000</r>
       <r>  10.3225  0.0000</r>
       <r>  10.6116  0.0000</r>
       <r>  10.6127  0.0000</r>
       <r>  10.6844  0.0000</r>
      </set>
      <set comment="kpoint 24">
       <r>  -2.4819  1.0000</r>
       <r>  -2.4791  1.0000</r>
       <r>  -1.7602  1.0000</r>
       <r>  -1.7574  1.0000</r>
       <r>  -1.0419  1.0000</r>
       <r>  -1.0391  1.0000</r>
       <r>  -0.3270  1.0000</r>
       <r>  -0.3242  1.0000</r>
       <r>   0.3840  1.0000</r>
       <r>   0.3868  1.0000</r>
       <r>   1.0906  1.0000</r>
       <r>   1.0924  1.0000</r>
       <r>   1.0934  1.0000</r>
       <r>   1.0952  1.0000</r>
       <r>   1.7923  1.0000</r>
       <r>   1.7937  1.0000</r>
[...]
       <r>   6.5708  1.0000</r>
       <r>   7.2696  1.0000</r>
       <r>   7.2700  1.0000</r>
       <r>   7.2729  1.0000</r>
       <r>   7.2734  1.0000</r>
       <r>   7.2804  1.0000</r>
       <r>   7.2805  1.0000</r>
       <r>   7.3193  1.0000</r>
       <r>   7.3193  1.0000</r>
       <r>   8.7223  0.0000</r>
       <r>   8.7224  0.0000</r>
       <r>   8.7869  0.0000</r>
       <r>   8.7871  0.0000</r>
       <r>   9.2798  0.0000</r>
       <r>   9.2801  0.0000</r>
       <r>   9.2833  0.0000</r>
       <r>   9.2836  0.0000</r>
       <r>   9.3965  0.0000</r>
       <r>   9.3965  0.0000</r>
       <r>  10.0018  0.0000</r>
       <r>  10.0019  0.0000</r>
       <r>  10.0690  0.0000</r>
       <r>  10.0691  0.0000</r>
       <r>  10.1302  0.0000</r>
       <r>  10.1303  0.0000</r>
       <r>  10.7074  0.0000</r>
       <r>  10.7082  0.0000</r>
       <r>  10.7440  0.0000</r>
       <r>  10.7449  0.0000</r>
      </set>
      <set comment="kpoint 34">
       <r>  -2.4805  1.0000</r>
       <r>  -2.4805  1.0000</r>
       <r>  -1.7588  1.0000</r>
       <r>  -1.7588  1.0000</r>
       <r>  -1.0405  1.0000</r>
       <r>  -1.0405  1.0000</r>
       <r>  -0.3256  1.0000</r>
       <r>  -0.3256  1.0000</r>
       <r>   0.3854  1.0000</r>
       <r>   0.3854  1.0000</r>
       <r>   1.0917  1.0000</r>
       <r>   1.0922  1.0000</r>
       <r>   1.0937  1.0000</r>
       <r>   1.0942  1.0000</r>
       <r>   1.7930  1.0000</r>
       <r>   1.7930  1.0000</r>
       <r>   2.4942  1.0000</r>
       <r>   2.4943  1.0000</r>
       <r>   2.4990  1.0000</r>
       <r>   2.4990  1.0000</r>
       <r>   3.1798  1.0000</r>
       <r>   3.1798  1.0000</r>
       <r>   3.1924  1.0000</r>
       <r>   3.1925  1.0000</r>
       <r>   3.8401  1.0000</r>
       <r>   3.8401  1.0000</r>
       <r>   3.9444  1.0000</r>
       <r>   3.9444  1.0000</r>
       <r>   4.5105  1.0000</r>
       <r>   4.5105  1.0000</r>
       <r>   4.5147  1.0000</r>
       <r>   4.5147  1.0000</r>
       <r>   4.6388  1.0000</r>
       <r>   4.6388  1.0000</r>
       <r>   5.1619  1.0000</r>
       <r>   5.1619  1.0000</r>
       <r>   5.2740  1.0000</r>
       <r>   5.2740  1.0000</r>
       <r>   5.3078  1.0000</r>
       <r>   5.3079  1.0000</r>
       <r>   5.9447  1.0000</r>
       <r>   5.9447  1.0000</r>
       <r>   6.6451  1.0000</r>
       <r>   6.6451  1.0000</r>
       <r>   7.2520  1.0000</r>
       <r>   7.2520  1.0000</r>
       <r>   7.6081  0.0000</r>
       <r>   7.6081  0.0000</r>
       <r>   7.9240  0.0000</r>
       <r>   7.9240  0.0000</r>
       <r>   8.0086  0.0000</r>
       <r>   8.0086  0.0000</r>
       <r>   8.2497  0.0000</r>
       <r>   8.2497  0.0000</r>
       <r>   8.5602  0.0000</r>
       <r>   8.5602  0.0000</r>
       <r>   8.6617  0.0000</r>
       <r>   8.6617  0.0000</r>
       <r>   8.8949  0.0000</r>
       <r>   8.8949  0.0000</r>
       <r>   9.2717  0.0000</r>
       <r>   9.2717  0.0000</r>
       <r>   9.9008  0.0000</r>
       <r>   9.9008  0.0000</r>
       <r>  10.0111  0.0000</r>
       <r>  10.0111  0.0000</r>
       <r>  10.2169  0.0000</r>
       <r>  10.2169  0.0000</r>
       <r>  10.2295  0.0000</r>
       <r>  10.2296  0.0000</r>
       <r>  10.7455  0.0000</r>
       <r>  10.7455  0.0000</r>
      </set>
      <set comment="kpoint 35">
       <r>  -2.2998  1.0000</r>
       <r>  -2.2998  1.0000</r>
       <r>  -1.5810  1.0000</r>
       <r>  -1.5790  1.0000</r>
       <r>  -1.5788  1.0000</r>
       <r>  -1.5769  1.0000</r>
       <r>  -0.8615  1.0000</r>
       <r>  -0.8615  1.0000</r>
       <r>   1.2666  1.0000</r>
       <r>   1.2686  1.0000</r>
       <r>   1.2688  1.0000</r>
       <r>   1.2707  1.0000</r>
       <r>   1.9678  1.0000</r>
       <r>   1.9685  1.0000</r>
       <r>   1.9724  1.0000</r>
       <r>   1.9728  1.0000</r>
       <r>   1.9731  1.0000</r>
       <r>   1.9742  1.0000</r>
       <r>   2.6680  1.0000</r>
       <r>   2.6681  1.0000</r>
       <r>   2.6702  1.0000</r>
       <r>   2.6703  1.0000</r>
       <r>   3.3526  1.0000</r>
       <r>   3.3534  1.0000</r>
       <r>   3.3537  1.0000</r>
       <r>   3.3543  1.0000</r>
       <r>   3.3662  1.0000</r>
       <r>   3.3665  1.0000</r>
       <r>   4.0438  1.0000</r>
       <r>   4.0457  1.0000</r>
       <r>   4.0460  1.0000</r>
       <r>   4.0479  1.0000</r>
       <r>   4.7608  1.0000</r>
       <r>   4.7608  1.0000</r>
       <r>   5.4434  1.0000</r>
       <r>   5.4434  1.0000</r>
       <r>   5.4456  1.0000</r>
       <r>   5.4457  1.0000</r>
       <r>   6.1300  1.0000</r>
       <r>   6.1308  1.0000</r>
       <r>   6.1311  1.0000</r>
       <r>   6.1319  1.0000</r>
       <r>   6.7959  1.0000</r>
       <r>   6.7970  1.0000</r>
       <r>   6.7970  1.0000</r>
       <r>   6.7981  1.0000</r>
       <r>   7.4659  0.0000</r>
       <r>   7.4666  0.0000</r>
       <r>   7.4670  0.0000</r>
       <r>   7.4678  0.0000</r>
       <r>   8.1512  0.0000</r>
       <r>   8.1513  0.0000</r>
       <r>   8.1535  0.0000</r>
       <r>   8.1536  0.0000</r>
       <r>   8.8069  0.0000</r>
       <r>   8.8069  0.0000</r>
       <r>   8.8539  0.0000</r>
       <r>   8.8539  0.0000</r>
       <r>   9.0392  0.0000</r>
       <r>   9.0397  0.0000</r>
       <r>   9.0400  0.0000</r>
       <r>   9.0406  0.0000</r>
       <r>   9.7133  0.0000</r>
       <r>   9.7143  0.0000</r>
       <r>   9.7144  0.0000</r>
       <r>   9.7154  0.0000</r>
       <r>  10.3757  0.0000</r>
       <r>  10.3757  0.0000</r>
       <r>  10.8465  0.0000</r>
       <r>  10.8476  0.0000</r>
       <r>  10.8476  0.0000</r>
       <r>  10.8486  0.0000</r>
      </set>
      <set comment="kpoint 36">
       <r>  -2.0015  1.0000</r>
       <r>  -1.9993  1.0000</r>
       <r>  -1.9987  1.0000</r>
       <r>  -1.9965  1.0000</r>
       <r>  -1.2821  1.0000</r>
       <r>  -1.2799  1.0000</r>
       <r>  -1.2793  1.0000</r>
       <r>  -1.2771  1.0000</r>
       <r>   1.5600  1.0000</r>
       <r>   1.5622  1.0000</r>
       <r>   1.5628  1.0000</r>
       <r>   1.5650  1.0000</r>
       <r>   2.2571  1.0000</r>
       <r>   2.2590  1.0000</r>
       <r>   2.2606  1.0000</r>
       <r>   2.2608  1.0000</r>
       <r>   2.2610  1.0000</r>
       <r>   2.2613  1.0000</r>
       <r>   2.2628  1.0000</r>
       <r>   2.2647  1.0000</r>
       <r>   2.9563  1.0000</r>
       <r>   2.9582  1.0000</r>
       <r>   2.9598  1.0000</r>
       <r>   2.9601  1.0000</r>
       <r>   2.9602  1.0000</r>
       <r>   2.9605  1.0000</r>
       <r>   2.9621  1.0000</r>
       <r>   2.9639  1.0000</r>
       <r>   3.6402  1.0000</r>
       <r>   3.6424  1.0000</r>
       <r>   3.6430  1.0000</r>
       <r>   3.6452  1.0000</r>
       <r>   5.7264  1.0000</r>
       <r>   5.7282  1.0000</r>
       <r>   5.7299  1.0000</r>
       <r>   5.7302  1.0000</r>
       <r>   5.7303  1.0000</r>
       <r>   5.7306  1.0000</r>
       <r>   5.7323  1.0000</r>
       <r>   5.7341  1.0000</r>
       <r>   6.4069  1.0000</r>
       <r>   6.4080  1.0000</r>
       <r>   6.4084  1.0000</r>
       <r>   6.4094  1.0000</r>
       <r>   7.0923  1.0000</r>
       <r>   7.0934  1.0000</r>
       <r>   7.0938  1.0000</r>
       <r>   7.0949  1.0000</r>
       <r>   7.7504  0.0000</r>
       <r>   7.7526  0.0000</r>
       <r>   7.7543  0.0000</r>
       <r>   7.7545  0.0000</r>
       <r>   7.7547  0.0000</r>
       <r>   7.7549  0.0000</r>
       <r>   7.7566  0.0000</r>
       <r>   7.7587  0.0000</r>
       <r>   9.3183  0.0000</r>
       <r>   9.3203  0.0000</r>
       <r>   9.3211  0.0000</r>
       <r>   9.3231  0.0000</r>
       <r>   9.8019  0.0000</r>
       <r>   9.8030  0.0000</r>
       <r>   9.8035  0.0000</r>
       <r>   9.8046  0.0000</r>
       <r>  10.6493  0.0000</r>
       <r>  10.6501  0.0000</r>
       <r>  10.6504  0.0000</r>
       <r>  10.6515  0.0000</r>
       <r>  10.6517  0.0000</r>
       <r>  10.6528  0.0000</r>
       <r>  10.6531  0.0000</r>
       <r>  10.6540  0.0000</r>
      </set>
      <set comment="kpoint 37">
       <r>  -2.2396  1.0000</r>
       <r>  -2.2395  1.0000</r>
       <r>  -2.2395  1.0000</r>
       <r>  -2.2395  1.0000</r>
       <r>  -0.0932  1.0000</r>
       <r>  -0.0888  1.0000</r>
       <r>  -0.0888  1.0000</r>
       <r>  -0.0884  1.0000</r>
       <r>  -0.0880  1.0000</r>
       <r>  -0.0875  1.0000</r>
       <r>  -0.0875  1.0000</r>
       <r>  -0.0832  1.0000</r>
       <r>   2.0271  1.0000</r>
       <r>   2.0271  1.0000</r>
       <r>   2.0271  1.0000</r>
       <r>   2.0271  1.0000</r>
       <r>   2.0271  1.0000</r>
       <r>   2.0271  1.0000</r>
       <r>   2.0271  1.0000</r>
       <r>   2.0271  1.0000</r>
       <r>   4.0630  1.0000</r>
       <r>   4.0630  1.0000</r>
       <r>   4.0642  1.0000</r>
       <r>   4.0644  1.0000</r>
       <r>   4.0644  1.0000</r>
       <r>   4.0644  1.0000</r>
       <r>   4.0658  1.0000</r>
       <r>   4.0658  1.0000</r>
       <r>   4.1763  1.0000</r>
       <r>   4.1763  1.0000</r>
       <r>   4.1778  1.0000</r>
       <r>   4.1778  1.0000</r>
       <r>   4.1778  1.0000</r>
       <r>   4.1779  1.0000</r>
       <r>   4.1793  1.0000</r>
       <r>   4.1793  1.0000</r>
       <r>   5.6411  1.0000</r>
       <r>   5.6411  1.0000</r>
       <r>   5.6411  1.0000</r>
       <r>   5.6412  1.0000</r>
       <r>   6.1543  1.0000</r>
       <r>   6.1543  1.0000</r>
       <r>   6.1543  1.0000</r>
       <r>   6.1543  1.0000</r>
       <r>   6.9279  1.0000</r>
       <r>   6.9279  1.0000</r>
       <r>   6.9279  1.0000</r>
       <r>   6.9279  1.0000</r>
       <r>   8.2266  0.0000</r>
       <r>   8.2266  0.0000</r>
       <r>   8.2272  0.0000</r>
       <r>   8.2280  0.0000</r>
       <r>   8.2296  0.0000</r>
       <r>   8.2304  0.0000</r>
       <r>   8.2310  0.0000</r>
       <r>   8.2310  0.0000</r>
       <r>   9.6767  0.0000</r>
       <r>   9.6767  0.0000</r>
       <r>   9.6767  0.0000</r>
       <r>   9.6768  0.0000</r>
       <r>   9.6768  0.0000</r>
       <r>   9.6768  0.0000</r>
       <r>   9.6768  0.0000</r>
       <r>   9.6768  0.0000</r>
       <r>  10.3693  0.0000</r>
       <r>  10.3693  0.0000</r>
       <r>  10.3693  0.0000</r>
       <r>  10.3693  0.0000</r>
       <r>  10.3693  0.0000</r>
       <r>  10.3693  0.0000</r>
       <r>  10.3694  0.0000</r>
       <r>  10.3694  0.0000</r>
      </set>
      <set comment="kpoint 38">
       <r>  -2.1794  1.0000</r>
       <r>  -2.1794  1.0000</r>
       <r>  -2.1794  1.0000</r>
       <r>  -2.1794  1.0000</r>
       <r>  -0.7423  1.0000</r>
       <r>  -0.7423  1.0000</r>
       <r>  -0.7423  1.0000</r>
       <r>  -0.7423  1.0000</r>
       <r>   0.6809  1.0000</r>
       <r>   0.6809  1.0000</r>
       <r>   0.6809  1.0000</r>
       <r>   0.6809  1.0000</r>
       <r>   2.0856  1.0000</r>
       <r>   2.0856  1.0000</r>
       <r>   2.0856  1.0000</r>
       <r>   2.0856  1.0000</r>
       <r>   2.0856  1.0000</r>
       <r>   2.0856  1.0000</r>
       <r>   2.0856  1.0000</r>
       <r>   2.0856  1.0000</r>
       <r>   3.4819  1.0000</r>
       <r>   3.4819  1.0000</r>
       <r>   3.4819  1.0000</r>
       <r>   3.4819  1.0000</r>
       <r>   3.4819  1.0000</r>
       <r>   3.4820  1.0000</r>
       <r>   3.4820  1.0000</r>
       <r>   3.4820  1.0000</r>
       <r>   4.7993  1.0000</r>
       <r>   4.7993  1.0000</r>
       <r>   4.7993  1.0000</r>
       <r>   4.7993  1.0000</r>
       <r>   4.8723  1.0000</r>
       <r>   4.8723  1.0000</r>
       <r>   4.8725  1.0000</r>
       <r>   4.8725  1.0000</r>
       <r>   4.8725  1.0000</r>
       <r>   4.8725  1.0000</r>
       <r>   4.8727  1.0000</r>
       <r>   4.8727  1.0000</r>
       <r>   6.2334  1.0000</r>
       <r>   6.2334  1.0000</r>
       <r>   6.2334  1.0000</r>
       <r>   6.2334  1.0000</r>
       <r>   7.6054  0.0000</r>
       <r>   7.6054  0.0000</r>
       <r>   7.6054  0.0000</r>
       <r>   7.6054  0.0000</r>
       <r>   7.8528  0.0000</r>
       <r>   7.8529  0.0000</r>
       <r>   7.8529  0.0000</r>
       <r>   7.8529  0.0000</r>
       <r>   8.8744  0.0000</r>
       <r>   8.8744  0.0000</r>
       <r>   8.8746  0.0000</r>
       <r>   8.8747  0.0000</r>
       <r>   8.8747  0.0000</r>
       <r>   8.8747  0.0000</r>
       <r>   8.8749  0.0000</r>
       <r>   8.8749  0.0000</r>
       <r>   8.9622  0.0000</r>
       <r>   8.9622  0.0000</r>
       <r>   8.9622  0.0000</r>
       <r>   8.9622  0.0000</r>
       <r>  10.4746  0.0000</r>
       <r>  10.4746  0.0000</r>
       <r>  10.4750  0.0000</r>
       <r>  10.4751  0.0000</r>
       <r>  10.4751  0.0000</r>
       <r>  10.4751  0.0000</r>
       <r>  10.4756  0.0000</r>
       <r>  10.4756  0.0000</r>
      </set>
      <set comment="kpoint 39">
       <r>  -1.9990  1.0000</r>
       <r>  -1.9990  1.0000</r>
       <r>  -1.9990  1.0000</r>
       <r>  -1.9990  1.0000</r>
       <r>  -1.2796  1.0000</r>
       <r>  -1.2796  1.0000</r>
       <r>  -1.2796  1.0000</r>
       <r>  -1.2796  1.0000</r>
       <r>   1.5625  1.0000</r>
       <r>   1.5625  1.0000</r>
       <r>   1.5625  1.0000</r>
       <r>   1.5625  1.0000</r>
       <r>   2.2609  1.0000</r>
       <r>   2.2609  1.0000</r>
       <r>   2.2609  1.0000</r>
       <r>   2.2609  1.0000</r>
       <r>   2.2609  1.0000</r>
       <r>   2.2609  1.0000</r>
       <r>   2.2609  1.0000</r>
       <r>   2.2609  1.0000</r>
       <r>   2.9601  1.0000</r>
       <r>   2.9601  1.0000</r>
       <r>   2.9601  1.0000</r>
       <r>   2.9601  1.0000</r>
       <r>   2.9602  1.0000</r>
       <r>   2.9602  1.0000</r>
       <r>   2.9602  1.0000</r>
       <r>   2.9602  1.0000</r>
       <r>   3.6427  1.0000</r>
       <r>   3.6427  1.0000</r>
       <r>   3.6427  1.0000</r>
       <r>   3.6427  1.0000</r>
       <r>   5.7301  1.0000</r>
       <r>   5.7301  1.0000</r>
       <r>   5.7303  1.0000</r>
       <r>   5.7303  1.0000</r>
       <r>   5.7303  1.0000</r>
       <r>   5.7303  1.0000</r>
       <r>   5.7304  1.0000</r>
       <r>   5.7304  1.0000</r>
       <r>   6.4081  1.0000</r>
       <r>   6.4081  1.0000</r>
       <r>   6.4081  1.0000</r>
       <r>   6.4082  1.0000</r>
       <r>   7.0936  1.0000</r>
       <r>   7.0936  1.0000</r>
       <r>   7.0936  1.0000</r>
       <r>   7.0936  1.0000</r>
       <r>   7.7544  0.0000</r>
       <r>   7.7544  0.0000</r>
       <r>   7.7546  0.0000</r>
       <r>   7.7546  0.0000</r>
       <r>   7.7546  0.0000</r>
       <r>   7.7546  0.0000</r>
       <r>   7.7548  0.0000</r>
       <r>   7.7548  0.0000</r>
       <r>   9.3207  0.0000</r>
       <r>   9.3207  0.0000</r>
       <r>   9.3207  0.0000</r>
       <r>   9.3207  0.0000</r>
       <r>   9.8033  0.0000</r>
       <r>   9.8033  0.0000</r>
       <r>   9.8033  0.0000</r>
       <r>   9.8033  0.0000</r>
       <r>  10.6513  0.0000</r>
       <r>  10.6513  0.0000</r>
       <r>  10.6516  0.0000</r>
       <r>  10.6516  0.0000</r>
       <r>  10.6516  0.0000</r>
       <r>  10.6516  0.0000</r>
       <r>  10.6519  0.0000</r>
       <r>  10.6519  0.0000</r>
      </set>
      <set comment="kpoint 40">
       <r>  -1.7034  1.0000</r>
       <r>  -1.6993  1.0000</r>
       <r>  -1.6993  1.0000</r>
       <r>  -1.6990  1.0000</r>
       <r>  -1.6986  1.0000</r>
       <r>  -1.6984  1.0000</r>
       <r>  -1.6984  1.0000</r>
       <r>  -1.6943  1.0000</r>
       <r>   2.5427  1.0000</r>
       <r>   2.5488  1.0000</r>
       <r>   2.5488  1.0000</r>
       <r>   2.5519  1.0000</r>
       <r>   2.5521  1.0000</r>
       <r>   2.5522  1.0000</r>
       <r>   2.5524  1.0000</r>
       <r>   2.5524  1.0000</r>
       <r>   2.5526  1.0000</r>
       <r>   2.5526  1.0000</r>
       <r>   2.5526  1.0000</r>
       <r>   2.5526  1.0000</r>
       <r>   2.5527  1.0000</r>
       <r>   2.5527  1.0000</r>
       <r>   2.5527  1.0000</r>
       <r>   2.5527  1.0000</r>
       <r>   2.5529  1.0000</r>
       <r>   2.5529  1.0000</r>
       <r>   2.5531  1.0000</r>
       <r>   2.5532  1.0000</r>
       <r>   2.5535  1.0000</r>
       <r>   2.5565  1.0000</r>
       <r>   2.5565  1.0000</r>
       <r>   2.5626  1.0000</r>
       <r>   6.6887  1.0000</r>
       <r>   6.6887  1.0000</r>
       <r>   6.6906  1.0000</r>
       <r>   6.6924  1.0000</r>
       <r>   6.6937  1.0000</r>
       <r>   6.6940  1.0000</r>
       <r>   6.6941  1.0000</r>
       <r>   6.6941  1.0000</r>
       <r>   6.6943  1.0000</r>
       <r>   6.6943  1.0000</r>
       <r>   6.6943  1.0000</r>
       <r>   6.6943  1.0000</r>
       <r>   6.6944  1.0000</r>
       <r>   6.6944  1.0000</r>
       <r>   6.6944  1.0000</r>
       <r>   6.6945  1.0000</r>
       <r>   6.6947  1.0000</r>
       <r>   6.6947  1.0000</r>
       <r>   6.6947  1.0000</r>
       <r>   6.6950  1.0000</r>
       <r>   6.6963  1.0000</r>
       <r>   6.6982  1.0000</r>
       <r>   6.7000  1.0000</r>
       <r>   6.7000  1.0000</r>
       <r>  10.7465  0.0000</r>
       <r>  10.7465  0.0000</r>
       <r>  10.7465  0.0000</r>
       <r>  10.7470  0.0000</r>
       <r>  10.7485  0.0000</r>
       <r>  10.7492  0.0000</r>
       <r>  10.7492  0.0000</r>
       <r>  10.7493  0.0000</r>
       <r>  10.9290  0.0000</r>
       <r>  10.9299  0.0000</r>
       <r>  10.9304  0.0000</r>
       <r>  10.9319  0.0000</r>
       <r>  10.9320  0.0000</r>
       <r>  10.9324  0.0000</r>
       <r>  10.9326  0.0000</r>
       <r>  10.9331  0.0000</r>
      </set>
     </set>
    </set>
   </array>
  </eigenvalues>
 </calculation>
 <structure name="finalpos" >
  <crystal>
   <varray name="basis" >
    <v>       8.23610499      0.00000000      0.00000000</v>
    <v>       0.00000000      8.23610499      0.00000000</v>
    <v>       0.00000000      0.00000000      8.23610499</v>
   </varray>
   <i name="volume">    558.68321432</i>
   <varray name="rec_basis" >
    <v>       0.12141662      0.00000000      0.00000000</v>
    <v>       0.00000000      0.12141662      0.00000000</v>
    <v>       0.00000000      0.00000000      0.12141662</v>
   </varray>
  </crystal>
  <varray name="positions" >
   <v>       0.25121417      0.25000000      0.00000000</v>
   <v>       0.75000000      0.25000000      0.00000000</v>
   <v>       0.25000000      0.75000000      0.00000000</v>
   <v>       0.75000000      0.75000000      0.00000000</v>
   <v>       0.25000000      0.25000000      0.50000000</v>
   <v>       0.75000000      0.25000000      0.50000000</v>
   <v>       0.25000000      0.75000000      0.50000000</v>
   <v>       0.75000000      0.75000000      0.50000000</v>
   <v>       0.25000000      0.00000000      0.25000000</v>
   <v>       0.75000000      0.00000000      0.25000000</v>
   <v>       0.25000000      0.50000000      0.25000000</v>
   <v>       0.75000000      0.50000000      0.25000000</v>
   <v>       0.25000000      0.00000000      0.75000000</v>
   <v>       0.75000000      0.00000000      0.75000000</v>
   <v>       0.25000000      0.50000000      0.75000000</v>
   <v>       0.75000000      0.50000000      0.75000000</v>
   <v>       0.00000000      0.25000000      0.25000000</v>
   <v>       0.50000000      0.25000000      0.25000000</v>
   <v>       0.00000000      0.75000000      0.25000000</v>
   <v>       0.50000000      0.75000000      0.25000000</v>
   <v>       0.00000000      0.25000000      0.75000000</v>
   <v>       0.50000000      0.25000000      0.75000000</v>
   <v>       0.00000000      0.75000000      0.75000000</v>
   <v>       0.50000000      0.75000000      0.75000000</v>
   <v>       0.00000000      0.00000000      0.00000000</v>
   <v>       0.50000000      0.00000000      0.00000000</v>
   <v>       0.00000000      0.50000000      0.00000000</v>
   <v>       0.50000000      0.50000000      0.00000000</v>
   <v>       0.00000000      0.00000000      0.50000000</v>
   <v>       0.50000000      0.00000000      0.50000000</v>
   <v>       0.00000000      0.50000000      0.50000000</v>
   <v>       0.50000000      0.50000000      0.50000000</v>
  </varray>
 </structure>
</modeling>
