32   
1    

1    
  0.0100000000000000   0.0000000000000000   0.0000000000000000
  -0.0361288500    0.0000000000   -0.0000000000
   0.0022134200   -0.0000000000   -0.0000000000
  -0.0001212500    0.0000000000   -0.0000000000
   0.0005934600    0.0000000000    0.0000000000
  -0.0001212500    0.0000000000    0.0000000000
   0.0005934600    0.0000000000   -0.0000000000
   0.0000535400    0.0000000000   -0.0000000000
  -0.0008599900    0.0000000000   -0.0000000000
  -0.0015915500    0.0000135300   -0.0000135300
  -0.0005927300    0.0000018200   -0.0000018200
  -0.0015915500   -0.0000135300   -0.0000135300
  -0.0005927300   -0.0000018200   -0.0000018200
  -0.0015915500    0.0000135300    0.0000135300
  -0.0005927300    0.0000018200    0.0000018200
  -0.0015915500   -0.0000135300    0.0000135300
  -0.0005927300   -0.0000018200    0.0000018200
   0.0050867500    0.0000000000   -0.0051931200
   0.0052141100    0.0000000000    0.0053745000
   0.0001640400    0.0000000000    0.0001367200
   0.0001637500    0.0000000000   -0.0001424200
   0.0050867500    0.0000000000    0.0051931200
   0.0052141100    0.0000000000   -0.0053745000
   0.0001640400    0.0000000000   -0.0001367200
   0.0001637500    0.0000000000    0.0001424200
   0.0050867500    0.0051931200    0.0000000000
   0.0052141100   -0.0053745000    0.0000000000
   0.0050867500   -0.0051931200    0.0000000000
   0.0052141100    0.0053745000    0.0000000000
   0.0001640400   -0.0001367200   -0.0000000000
   0.0001637500    0.0001424200   -0.0000000000
   0.0001640400    0.0001367200   -0.0000000000
   0.0001637500   -0.0001424200    0.0000000000
