mesh: [    48,    48,    48 ]
nqpoint: 2600   
reciprocal_lattice:
- [   0.24283323,   0.00000000,   0.00000000 ] # a*
- [   0.00000000,   0.24283323,   0.00000000 ] # b*
- [   0.00000000,   0.00000000,   0.24283323 ] # c*
natom:   4      
lattice:
- [     4.118052497066271,     0.000000000000000,     0.000000000000000 ] # a
- [     0.000000000000000,     4.118052497066271,     0.000000000000000 ] # b
- [     0.000000000000000,     0.000000000000000,     4.118052497066271 ] # c
points:
- symbol: Al # 1
  coordinates: [  0.500000000000000,  0.500000000000000,  0.000000000000000 ]
  mass: 26.981539
- symbol: Al # 2
  coordinates: [  0.500000000000000,  0.000000000000000,  0.500000000000000 ]
  mass: 26.981539
- symbol: Al # 3
  coordinates: [  0.000000000000000,  0.500000000000000,  0.500000000000000 ]
  mass: 26.981539
- symbol: Al # 4
  coordinates: [  0.000000000000000,  0.000000000000000,  0.000000000000000 ]
  mass: 26.981539
phonon:
- q-position: [    0.0104167,    0.0104167,    0.0104167 ]
  weight: 8    
  band:
  - # 1
    frequency:     0.1198499742
  - # 2
    frequency:     0.1198499742
  - # 3
    frequency:     0.2724479235
  - # 4
    frequency:     4.7621857823
  - # 5
    frequency:     4.7621857823
  - # 6
    frequency:     4.7621857823
  - # 7
    frequency:     4.7663726230
  - # 8
    frequency:     4.7663726230
  - # 9
    frequency:     4.7663726230
  - # 10
    frequency:     8.7730655738
  - # 11
    frequency:     8.7730655738
  - # 12
    frequency:     8.7730655738

- q-position: [    0.0312500,    0.0104167,    0.0104167 ]
  weight: 24   
  band:
  - # 1
    frequency:     0.2409429773
  - # 2
    frequency:     0.2605273614
  - # 3
    frequency:     0.5014604158
  - # 4
    frequency:     4.7576121085
  - # 5
    frequency:     4.7617925895
  - # 6
    frequency:     4.7671488124
  - # 7
    frequency:     4.7671488124
  - # 8
    frequency:     4.7799392015
  - # 9
    frequency:     4.7799392015
  - # 10
    frequency:     8.7638322668
  - # 11
    frequency:     8.7655738082
  - # 12
    frequency:     8.7655738082

- q-position: [    0.0520833,    0.0104167,    0.0104167 ]
  weight: 24   
  band:
  - # 1
    frequency:     0.4022231958
  - # 2
    frequency:     0.4178545164
  - # 3
    frequency:     0.7671612395
  - # 4
    frequency:     4.7484644439
  - # 5
    frequency:     4.7526321854
  - # 6
    frequency:     4.7808396503
  - # 7
    frequency:     4.7808396503
  - # 8
    frequency:     4.8030379065
  - # 9
    frequency:     4.8030379065
  - # 10
    frequency:     8.7453740885
  - # 11
    frequency:     8.7506144050
  - # 12
    frequency:     8.7506144050

- q-position: [    0.0729167,    0.0104167,    0.0104167 ]
  weight: 24   
  band:
  - # 1
    frequency:     0.5659566413
  - # 2
    frequency:     0.5778960641
  - # 3
    frequency:     1.0433663815
  - # 4
    frequency:     4.7347422095
  - # 5
    frequency:     4.7388907918
  - # 6
    frequency:     4.8027220354
  - # 7
    frequency:     4.8027220354
  - # 8
    frequency:     4.8356750622
  - # 9
    frequency:     4.8356750622
  - # 10
    frequency:     8.7177079156
  - # 11
    frequency:     8.7282355527
  - # 12
    frequency:     8.7282355527

- q-position: [    0.0937500,    0.0104167,    0.0104167 ]
  weight: 24   
  band:
  - # 1
    frequency:     0.7289723400
  - # 2
    frequency:     0.7383014293
  - # 3
    frequency:     1.3231808922
  - # 4
    frequency:     4.7164446752
  - # 5
    frequency:     4.7205676189
  - # 6
    frequency:     4.8321276866
  - # 7
    frequency:     4.8321276866
  - # 8
    frequency:     4.8777468066
  - # 9
    frequency:     4.8777468066
  - # 10
    frequency:     8.6808590778
  - # 11
    frequency:     8.6985093654
  - # 12
    frequency:     8.6985093654

- q-position: [    0.1145833,    0.0104167,    0.0104167 ]
  weight: 24   
  band:
  - # 1
    frequency:     0.8907931040
  - # 2
    frequency:     0.8982364841
  - # 3
    frequency:     1.6039185117
  - # 4
    frequency:     4.6935711233
  - # 5
    frequency:     4.6976618697
  - # 6
    frequency:     4.8682740206
  - # 7
    frequency:     4.8682740206
  - # 8
    frequency:     4.9290466473
  - # 9
    frequency:     4.9290466473
  - # 10
    frequency:     8.6348613741
  - # 11
    frequency:     8.6615316832
  - # 12
    frequency:     8.6615316832

- q-position: [    0.1354167,    0.0104167,    0.0104167 ]
  weight: 24   
  band:
  - # 1
    frequency:     1.0512255830
  - # 2
    frequency:     1.0572436541
  - # 3
    frequency:     1.8842293184
  - # 4
    frequency:     4.6661210636
  - # 5
    frequency:     4.6701729552
  - # 6
    frequency:     4.9102847334
  - # 7
    frequency:     4.9102847334
  - # 8
    frequency:     4.9892755015
  - # 9
    frequency:     4.9892755015
  - # 10
    frequency:     8.5797570940
  - # 11
    frequency:     8.6174218104
  - # 12
    frequency:     8.6174218104

- q-position: [    0.1562500,    0.0104167,    0.0104167 ]
  weight: 24   
  band:
  - # 1
    frequency:     1.2101016856
  - # 2
    frequency:     1.2149967837
  - # 3
    frequency:     2.1632828306
  - # 4
    frequency:     4.6340944965
  - # 5
    frequency:     4.6381007579
  - # 6
    frequency:     4.9572125492
  - # 7
    frequency:     4.9572125492
  - # 8
    frequency:     5.0580528458
  - # 9
    frequency:     5.0580528458
  - # 10
    frequency:     8.5155970442
  - # 11
    frequency:     8.5663221958
  - # 12
    frequency:     8.5663221958

- q-position: [    0.1770833,    0.0104167,    0.0104167 ]
  weight: 24   
  band:
  - # 1
    frequency:     1.3672479637
  - # 2
    frequency:     1.3712272842
  - # 3
    frequency:     2.4404827574
  - # 4
    frequency:     4.5974922215
  - # 5
    frequency:     4.6014459404
  - # 6
    frequency:     5.0080620808
  - # 7
    frequency:     5.0080620808
  - # 8
    frequency:     5.1349290060
  - # 9
    frequency:     5.1349290060
  - # 10
    frequency:     8.4424405774
  - # 11
    frequency:     8.5083980587
  - # 12
    frequency:     8.5083980587

- q-position: [    0.1979167,    0.0104167,    0.0104167 ]
  weight: 24   
  band:
  - # 1
    frequency:     1.5224855378
  - # 2
    frequency:     1.5256968584
  - # 3
    frequency:     2.7153514489
  - # 4
    frequency:     4.5563161865
  - # 5
    frequency:     4.5602102947
  - # 6
    frequency:     5.0618114996
  - # 7
    frequency:     5.0618114996
  - # 8
    frequency:     5.2193981046
  - # 9
    frequency:     5.2193981046
  - # 10
    frequency:     8.3603556250
  - # 11
    frequency:     8.4438369681
  - # 12
    frequency:     8.4438369681

- q-position: [    0.2187500,    0.0104167,    0.0104167 ]
  weight: 24   
  band:
  - # 1
    frequency:     1.6756334991
  - # 2
    frequency:     1.6781860029
  - # 3
    frequency:     2.9874775335
  - # 4
    frequency:     4.5105698729
  - # 5
    frequency:     4.5143971277
  - # 6
    frequency:     5.1174323632
  - # 7
    frequency:     5.1174323632
  - # 8
    frequency:     5.3109108976
  - # 9
    frequency:     5.3109108976
  - # 10
    frequency:     8.2694187314
  - # 11
    frequency:     8.3728483794
  - # 12
    frequency:     8.3728483794

- q-position: [    0.2395833,    0.0104167,    0.0104167 ]
  weight: 24   
  band:
  - # 1
    frequency:     1.8265118383
  - # 2
    frequency:     1.8284887263
  - # 3
    frequency:     3.2564900568
  - # 4
    frequency:     4.4602587136
  - # 5
    frequency:     4.4640116789
  - # 6
    frequency:     5.1739073323
  - # 7
    frequency:     5.1739073323
  - # 8
    frequency:     5.4088867732
  - # 9
    frequency:     5.4088867732
  - # 10
    frequency:     8.1697150894
  - # 11
    frequency:     8.2956631388
  - # 12
    frequency:     8.2956631388

- q-position: [    0.2604167,    0.0104167,    0.0104167 ]
  weight: 24   
  band:
  - # 1
    frequency:     1.9749435736
  - # 2
    frequency:     1.9764100004
  - # 3
    frequency:     3.5220448319
  - # 4
    frequency:     4.4053905356
  - # 5
    frequency:     4.4090615625
  - # 6
    frequency:     5.2302456896
  - # 7
    frequency:     5.2302456896
  - # 8
    frequency:     5.5127244094
  - # 9
    frequency:     5.5127244094
  - # 10
    frequency:     8.0613385755
  - # 11
    frequency:     8.2125329608
  - # 12
    frequency:     8.2125329608

- q-position: [    0.2812500,    0.0104167,    0.0104167 ]
  weight: 24   
  band:
  - # 1
    frequency:     2.1207562668
  - # 2
    frequency:     2.1217645083
  - # 3
    frequency:     3.7838168577
  - # 4
    frequency:     4.3459760248
  - # 5
    frequency:     4.3495572320
  - # 6
    frequency:     5.2854966842
  - # 7
    frequency:     5.2854966842
  - # 8
    frequency:     5.6218108363
  - # 9
    frequency:     5.6218108363
  - # 10
    frequency:     7.9443917839
  - # 11
    frequency:     8.1237298899
  - # 12
    frequency:     8.1237298899

- q-position: [    0.3020833,    0.0104167,    0.0104167 ]
  weight: 24   
  band:
  - # 1
    frequency:     2.2637831220
  - # 2
    frequency:     2.2643760454
  - # 3
    frequency:     4.0414959442
  - # 4
    frequency:     4.2820292042
  - # 5
    frequency:     4.2855124572
  - # 6
    frequency:     5.3387607935
  - # 7
    frequency:     5.3387607935
  - # 8
    frequency:     5.7355288597
  - # 9
    frequency:     5.7355288597
  - # 10
    frequency:     7.8189860584
  - # 11
    frequency:     8.0295457565
  - # 12
    frequency:     8.0295457565

- q-position: [    0.3229167,    0.0104167,    0.0104167 ]
  weight: 24   
  band:
  - # 1
    frequency:     2.4038637984
  - # 2
    frequency:     2.4040772546
  - # 3
    frequency:     4.2135679225
  - # 4
    frequency:     4.2169448114
  - # 5
    frequency:     4.2947841203
  - # 6
    frequency:     5.3891990565
  - # 7
    frequency:     5.3891990565
  - # 8
    frequency:     5.8532629372
  - # 9
    frequency:     5.8532629372
  - # 10
    frequency:     7.6852415207
  - # 11
    frequency:     7.9302916359
  - # 12
    frequency:     7.9302916359

- q-position: [    0.3437500,    0.0104167,    0.0104167 ]
  weight: 24   
  band:
  - # 1
    frequency:     2.5407095339
  - # 2
    frequency:     2.5408450222
  - # 3
    frequency:     4.1406143449
  - # 4
    frequency:     4.1438761603
  - # 5
    frequency:     4.5433940735
  - # 6
    frequency:     5.4360406736
  - # 7
    frequency:     5.4360406736
  - # 8
    frequency:     5.9744036795
  - # 9
    frequency:     5.9744036795
  - # 10
    frequency:     7.5432870942
  - # 11
    frequency:     7.8262973238
  - # 12
    frequency:     7.8262973238

- q-position: [    0.3645833,    0.0104167,    0.0104167 ]
  weight: 24   
  band:
  - # 1
    frequency:     2.6741230256
  - # 2
    frequency:     2.6745810473
  - # 3
    frequency:     4.0631954414
  - # 4
    frequency:     4.0663331472
  - # 5
    frequency:     4.7870482078
  - # 6
    frequency:     5.4785890890
  - # 7
    frequency:     5.4785890890
  - # 8
    frequency:     6.0983511821
  - # 9
    frequency:     6.0983511821
  - # 10
    frequency:     7.3932605219
  - # 11
    frequency:     7.7179108406
  - # 12
    frequency:     7.7179108406

- q-position: [    0.3854167,    0.0104167,    0.0104167 ]
  weight: 24   
  band:
  - # 1
    frequency:     2.8041766354
  - # 2
    frequency:     2.8049340001
  - # 3
    frequency:     3.9813434669
  - # 4
    frequency:     3.9843476700
  - # 5
    frequency:     5.0254780810
  - # 6
    frequency:     5.5162267809
  - # 7
    frequency:     5.5162267809
  - # 8
    frequency:     6.2245173958
  - # 9
    frequency:     6.2245173958
  - # 10
    frequency:     7.2353083781
  - # 11
    frequency:     7.6054979812
  - # 12
    frequency:     7.6054979812

- q-position: [    0.4062500,    0.0104167,    0.0104167 ]
  weight: 24   
  band:
  - # 1
    frequency:     2.9307380515
  - # 2
    frequency:     2.9317741257
  - # 3
    frequency:     3.8950964268
  - # 4
    frequency:     3.8979573411
  - # 5
    frequency:     5.2584240796
  - # 6
    frequency:     5.5484189717
  - # 7
    frequency:     5.5484189717
  - # 8
    frequency:     6.3523277211
  - # 9
    frequency:     6.3523277211
  - # 10
    frequency:     7.0695860720
  - # 11
    frequency:     7.4894419359
  - # 12
    frequency:     7.4894419359

- q-position: [    0.4270833,    0.0104167,    0.0104167 ]
  weight: 24   
  band:
  - # 1
    frequency:     3.0536837442
  - # 2
    frequency:     3.0549799506
  - # 3
    frequency:     3.8044985233
  - # 4
    frequency:     3.8072059280
  - # 5
    frequency:     5.4856352432
  - # 6
    frequency:     5.5747164507
  - # 7
    frequency:     5.5747164507
  - # 8
    frequency:     6.4812219522
  - # 9
    frequency:     6.4812219522
  - # 10
    frequency:     6.8962578435
  - # 11
    frequency:     7.3701430462
  - # 12
    frequency:     7.3701430462

- q-position: [    0.4479167,    0.0104167,    0.0104167 ]
  weight: 24   
  band:
  - # 1
    frequency:     3.1728989358
  - # 2
    frequency:     3.1744383706
  - # 3
    frequency:     3.7096005778
  - # 4
    frequency:     3.7121437673
  - # 5
    frequency:     5.5947576777
  - # 6
    frequency:     5.5947576777
  - # 7
    frequency:     5.7068691840
  - # 8
    frequency:     6.6106544983
  - # 9
    frequency:     6.6106544983
  - # 10
    frequency:     6.7154967502
  - # 11
    frequency:     7.2480189304
  - # 12
    frequency:     7.2480189304

- q-position: [    0.4687500,    0.0104167,    0.0104167 ]
  weight: 24   
  band:
  - # 1
    frequency:     3.2882775313
  - # 2
    frequency:     3.2900446698
  - # 3
    frequency:     3.6104604237
  - # 4
    frequency:     3.6128281468
  - # 5
    frequency:     5.6082703043
  - # 6
    frequency:     5.6082703043
  - # 7
    frequency:     5.9218920644
  - # 8
    frequency:     6.5274846459
  - # 9
    frequency:     6.7400925668
  - # 10
    frequency:     6.7400925668
  - # 11
    frequency:     7.1235064237
  - # 12
    frequency:     7.1235064237

- q-position: [    0.4895833,    0.0104167,    0.0104167 ]
  weight: 24   
  band:
  - # 1
    frequency:     3.3997220091
  - # 2
    frequency:     3.4017024751
  - # 3
    frequency:     3.5071432670
  - # 4
    frequency:     3.5093236527
  - # 5
    frequency:     5.6150722233
  - # 6
    frequency:     5.6150722233
  - # 7
    frequency:     6.1304786115
  - # 8
    frequency:     6.3324121501
  - # 9
    frequency:     6.8689879323
  - # 10
    frequency:     6.8689879323
  - # 11
    frequency:     6.9970898155
  - # 12
    frequency:     6.9970898155

- q-position: [    0.0312500,    0.0312500,    0.0104167 ]
  weight: 24   
  band:
  - # 1
    frequency:     0.2756538188
  - # 2
    frequency:     0.3448682911
  - # 3
    frequency:     0.6758979686
  - # 4
    frequency:     4.7625771476
  - # 5
    frequency:     4.7625771476
  - # 6
    frequency:     4.7640063554
  - # 7
    frequency:     4.7753560333
  - # 8
    frequency:     4.7753560333
  - # 9
    frequency:     4.8014353785
  - # 10
    frequency:     8.7563950234
  - # 11
    frequency:     8.7563950234
  - # 12
    frequency:     8.7581010415

- q-position: [    0.0520833,    0.0312500,    0.0104167 ]
  weight: 48   
  band:
  - # 1
    frequency:     0.3947802196
  - # 2
    frequency:     0.4753999969
  - # 3
    frequency:     0.9040415865
  - # 4
    frequency:     4.7534332569
  - # 5
    frequency:     4.7661894056
  - # 6
    frequency:     4.7698443310
  - # 7
    frequency:     4.7762567497
  - # 8
    frequency:     4.7984627772
  - # 9
    frequency:     4.8320403239
  - # 10
    frequency:     8.7380458123
  - # 11
    frequency:     8.7415448899
  - # 12
    frequency:     8.7431794592

- q-position: [    0.0729167,    0.0312500,    0.0104167 ]
  weight: 48   
  band:
  - # 1
    frequency:     0.5475569128
  - # 2
    frequency:     0.6213611553
  - # 3
    frequency:     1.1536797671
  - # 4
    frequency:     4.7397160746
  - # 5
    frequency:     4.7524387934
  - # 6
    frequency:     4.7844702613
  - # 7
    frequency:     4.7981079519
  - # 8
    frequency:     4.8311239929
  - # 9
    frequency:     4.8714264831
  - # 10
    frequency:     8.7105428998
  - # 11
    frequency:     8.7193305099
  - # 12
    frequency:     8.7208568973

- q-position: [    0.0937500,    0.0312500,    0.0104167 ]
  weight: 48   
  band:
  - # 1
    frequency:     0.7089578112
  - # 2
    frequency:     0.7734428536
  - # 3
    frequency:     1.4142633300
  - # 4
    frequency:     4.7214241425
  - # 5
    frequency:     4.7341035513
  - # 6
    frequency:     4.8074626332
  - # 7
    frequency:     4.8274578172
  - # 8
    frequency:     4.8732377762
  - # 9
    frequency:     4.9192571244
  - # 10
    frequency:     8.6739113941
  - # 11
    frequency:     8.6898246909
  - # 12
    frequency:     8.6912049445

- q-position: [    0.1145833,    0.0312500,    0.0104167 ]
  weight: 48   
  band:
  - # 1
    frequency:     0.8719192486
  - # 2
    frequency:     0.9280114117
  - # 3
    frequency:     1.6806801041
  - # 4
    frequency:     4.6985557760
  - # 5
    frequency:     4.7111830826
  - # 6
    frequency:     4.8382320307
  - # 7
    frequency:     4.8635211176
  - # 8
    frequency:     4.9245968280
  - # 9
    frequency:     4.9751494841
  - # 10
    frequency:     8.6281848111
  - # 11
    frequency:     8.6531242191
  - # 12
    frequency:     8.6543187477

- q-position: [    0.1354167,    0.0312500,    0.0104167 ]
  weight: 48   
  band:
  - # 1
    frequency:     1.0342460424
  - # 2
    frequency:     1.0833431996
  - # 3
    frequency:     1.9500049256
  - # 4
    frequency:     4.6711092822
  - # 5
    frequency:     4.6836770610
  - # 6
    frequency:     4.8760309308
  - # 7
    frequency:     4.9054203232
  - # 8
    frequency:     4.9848991914
  - # 9
    frequency:     5.0386944813
  - # 10
    frequency:     8.5734051061
  - # 11
    frequency:     8.6093496152
  - # 12
    frequency:     8.6103167553

- q-position: [    0.1562500,    0.0312500,    0.0104167 ]
  weight: 48   
  band:
  - # 1
    frequency:     1.1951210673
  - # 2
    frequency:     1.2384699457
  - # 3
    frequency:     2.2203922636
  - # 4
    frequency:     4.6390832266
  - # 5
    frequency:     4.6515857023
  - # 6
    frequency:     4.9199666794
  - # 7
    frequency:     4.9522075997
  - # 8
    frequency:     5.0537602606
  - # 9
    frequency:     5.1094765448
  - # 10
    frequency:     8.5096227129
  - # 11
    frequency:     8.5586448382
  - # 12
    frequency:     8.5593404056

- q-position: [    0.1770833,    0.0312500,    0.0104167 ]
  weight: 48   
  band:
  - # 1
    frequency:     1.3541592923
  - # 2
    frequency:     1.3927661404
  - # 3
    frequency:     2.4905830662
  - # 4
    frequency:     4.6024767454
  - # 5
    frequency:     4.6149100828
  - # 6
    frequency:     4.9690217073
  - # 7
    frequency:     5.0028870288
  - # 8
    frequency:     5.1307258130
  - # 9
    frequency:     5.1870875667
  - # 10
    frequency:     8.4368965896
  - # 11
    frequency:     8.5011769401
  - # 12
    frequency:     8.5015537618

- q-position: [    0.1979167,    0.0312500,    0.0104167 ]
  weight: 48   
  band:
  - # 1
    frequency:     1.5111215055
  - # 2
    frequency:     1.5457803090
  - # 3
    frequency:     2.7596570891
  - # 4
    frequency:     4.5612898988
  - # 5
    frequency:     4.5736525006
  - # 6
    frequency:     5.0220816554
  - # 7
    frequency:     5.0564358550
  - # 8
    frequency:     5.2152854676
  - # 9
    frequency:     5.2711326019
  - # 10
    frequency:     8.3552942694
  - # 11
    frequency:     8.4371356786
  - # 12
    frequency:     8.4371431015

- q-position: [    0.2187500,    0.0312500,    0.0104167 ]
  weight: 48   
  band:
  - # 1
    frequency:     1.6658199975
  - # 2
    frequency:     1.6971581571
  - # 3
    frequency:     3.0268998529
  - # 4
    frequency:     4.5155240604
  - # 5
    frequency:     4.5278168744
  - # 6
    frequency:     5.0779702836
  - # 7
    frequency:     5.1118240931
  - # 8
    frequency:     5.3068858101
  - # 9
    frequency:     5.3612270482
  - # 10
    frequency:     8.2648919172
  - # 11
    frequency:     8.3663164674
  - # 12
    frequency:     8.3667330938

- q-position: [    0.2395833,    0.0312500,    0.0104167 ]
  weight: 48   
  band:
  - # 1
    frequency:     1.8180860256
  - # 2
    frequency:     1.8466044621
  - # 3
    frequency:     3.2917276121
  - # 4
    frequency:     4.4651823388
  - # 5
    frequency:     4.4774091747
  - # 6
    frequency:     5.1354881852
  - # 7
    frequency:     5.1680321587
  - # 8
    frequency:     5.4049425214
  - # 9
    frequency:     5.4569872900
  - # 10
    frequency:     8.1657743900
  - # 11
    frequency:     8.2893031861
  - # 12
    frequency:     8.2902030584

- q-position: [    0.2604167,    0.0312500,    0.0104167 ]
  weight: 48   
  band:
  - # 1
    frequency:     1.9677586822
  - # 2
    frequency:     1.9938628642
  - # 3
    frequency:     3.5536433067
  - # 4
    frequency:     4.4102700250
  - # 5
    frequency:     4.4224378832
  - # 6
    frequency:     5.1934509977
  - # 7
    frequency:     5.2240663706
  - # 8
    frequency:     5.5088510710
  - # 9
    frequency:     5.5580184975
  - # 10
    frequency:     8.0580353016
  - # 11
    frequency:     8.2063533640
  - # 12
    frequency:     8.2078008079

- q-position: [    0.2812500,    0.0312500,    0.0104167 ]
  weight: 48   
  band:
  - # 1
    frequency:     2.1146815209
  - # 2
    frequency:     2.1387045599
  - # 3
    frequency:     3.8122097900
  - # 4
    frequency:     4.3507950615
  - # 5
    frequency:     4.3629144723
  - # 6
    frequency:     5.2507227596
  - # 7
    frequency:     5.2789722995
  - # 8
    frequency:     5.6179957673
  - # 9
    frequency:     5.6639036632
  - # 10
    frequency:     7.9417770888
  - # 11
    frequency:     8.1177373722
  - # 12
    frequency:     8.1198024630

- q-position: [    0.3020833,    0.0312500,    0.0104167 ]
  weight: 48   
  band:
  - # 1
    frequency:     2.2587020246
  - # 2
    frequency:     2.2809216943
  - # 3
    frequency:     4.0670330575
  - # 4
    frequency:     4.2867685259
  - # 5
    frequency:     4.2988538994
  - # 6
    frequency:     5.3062414338
  - # 7
    frequency:     5.3318460331
  - # 8
    frequency:     5.7317571444
  - # 9
    frequency:     5.7741968595
  - # 10
    frequency:     7.8171110810
  - # 11
    frequency:     8.0237453304
  - # 12
    frequency:     8.0265045538

- q-position: [    0.3229167,    0.0312500,    0.0104167 ]
  weight: 48   
  band:
  - # 1
    frequency:     2.3996720648
  - # 2
    frequency:     2.4203233574
  - # 3
    frequency:     4.2182051257
  - # 4
    frequency:     4.2302751098
  - # 5
    frequency:     4.3177514627
  - # 6
    frequency:     5.3590357356
  - # 7
    frequency:     5.3818435010
  - # 8
    frequency:     5.8495177886
  - # 9
    frequency:     5.8884217783
  - # 10
    frequency:     7.6841575713
  - # 11
    frequency:     7.9246866065
  - # 12
    frequency:     7.9282235600

- q-position: [    0.3437500,    0.0312500,    0.0104167 ]
  weight: 48   
  band:
  - # 1
    frequency:     2.5374486407
  - # 2
    frequency:     2.5567330774
  - # 3
    frequency:     4.1451236968
  - # 4
    frequency:     4.1572015402
  - # 5
    frequency:     4.5640286213
  - # 6
    frequency:     5.4082342926
  - # 7
    frequency:     5.4281880520
  - # 8
    frequency:     5.9706667703
  - # 9
    frequency:     6.0060748521
  - # 10
    frequency:     7.5430458878
  - # 11
    frequency:     7.8208893509
  - # 12
    frequency:     7.8252954850

- q-position: [    0.3645833,    0.0312500,    0.0104167 ]
  weight: 48   
  band:
  - # 1
    frequency:     2.6718946252
  - # 2
    frequency:     2.6899872010
  - # 3
    frequency:     4.0675477022
  - # 4
    frequency:     4.0796616179
  - # 5
    frequency:     4.8055486516
  - # 6
    frequency:     5.4530691839
  - # 7
    frequency:     5.4701765071
  - # 8
    frequency:     6.0946028744
  - # 9
    frequency:     6.1266312829
  - # 10
    frequency:     7.3939144680
  - # 11
    frequency:     7.7127001010
  - # 12
    frequency:     7.7180754912

- q-position: [    0.3854167,    0.0312500,    0.0104167 ]
  weight: 48   
  band:
  - # 1
    frequency:     2.8028794218
  - # 2
    frequency:     2.8199338081
  - # 3
    frequency:     3.9855057233
  - # 4
    frequency:     3.9976892478
  - # 5
    frequency:     5.0420129284
  - # 6
    frequency:     5.4928760334
  - # 7
    frequency:     5.5071839167
  - # 8
    frequency:     6.2207367890
  - # 9
    frequency:     6.2495521691
  - # 10
    frequency:     7.2369109338
  - # 11
    frequency:     7.6004835197
  - # 12
    frequency:     7.6069376520

- q-position: [    0.4062500,    0.0312500,    0.0104167 ]
  weight: 48   
  band:
  - # 1
    frequency:     2.9302795017
  - # 2
    frequency:     2.9464319520
  - # 3
    frequency:     3.8990319389
  - # 4
    frequency:     3.9113242839
  - # 5
    frequency:     5.2731378363
  - # 6
    frequency:     5.5270923996
  - # 7
    frequency:     5.5386672466
  - # 8
    frequency:     6.3484923183
  - # 9
    frequency:     6.3742912312
  - # 10
    frequency:     7.0721921700
  - # 11
    frequency:     7.4846224376
  - # 12
    frequency:     7.4922749617

- q-position: [    0.4270833,    0.0312500,    0.0104167 ]
  weight: 48   
  band:
  - # 1
    frequency:     3.0539788194
  - # 2
    frequency:     3.0693510983
  - # 3
    frequency:     3.8081665860
  - # 4
    frequency:     3.8206129786
  - # 5
    frequency:     5.4986531960
  - # 6
    frequency:     5.5552556064
  - # 7
    frequency:     5.5641681951
  - # 8
    frequency:     6.4773063499
  - # 9
    frequency:     6.5002998394
  - # 10
    frequency:     6.8999244065
  - # 11
    frequency:     7.3655187279
  - # 12
    frequency:     7.3745000487

- q-position: [    0.4479167,    0.0312500,    0.0104167 ]
  weight: 48   
  band:
  - # 1
    frequency:     3.1738691112
  - # 2
    frequency:     3.1885706811
  - # 3
    frequency:     3.7129563930
  - # 4
    frequency:     3.7256084095
  - # 5
    frequency:     5.5770006326
  - # 6
    frequency:     5.5833153295
  - # 7
    frequency:     5.7183011500
  - # 8
    frequency:     6.6066258798
  - # 9
    frequency:     6.6270278091
  - # 10
    frequency:     6.7202833092
  - # 11
    frequency:     7.2435972537
  - # 12
    frequency:     7.2540484335

- q-position: [    0.4687500,    0.0312500,    0.0104167 ]
  weight: 48   
  band:
  - # 1
    frequency:     3.2898500855
  - # 2
    frequency:     3.3039797291
  - # 3
    frequency:     3.6134549796
  - # 4
    frequency:     3.6263708802
  - # 5
    frequency:     5.5920583194
  - # 6
    frequency:     5.5958257005
  - # 7
    frequency:     5.9318353660
  - # 8
    frequency:     6.5334540804
  - # 9
    frequency:     6.7358908874
  - # 10
    frequency:     6.7539053797
  - # 11
    frequency:     7.1193274856
  - # 12
    frequency:     7.1313956459

- q-position: [    0.4895833,    0.0312500,    0.0104167 ]
  weight: 48   
  band:
  - # 1
    frequency:     3.4018295111
  - # 2
    frequency:     3.4154765275
  - # 3
    frequency:     3.5097232129
  - # 4
    frequency:     3.5229682979
  - # 5
    frequency:     5.6002539411
  - # 6
    frequency:     5.6015060789
  - # 7
    frequency:     6.1390204605
  - # 8
    frequency:     6.3396315783
  - # 9
    frequency:     6.8643310100
  - # 10
    frequency:     6.8800310952
  - # 11
    frequency:     6.9935382389
  - # 12
    frequency:     7.0072603239

- q-position: [    0.0520833,    0.0520833,    0.0104167 ]
  weight: 24   
  band:
  - # 1
    frequency:     0.4470840046
  - # 2
    frequency:     0.5780265711
  - # 3
    frequency:     1.1010209039
  - # 4
    frequency:     4.7670896171
  - # 5
    frequency:     4.7670896171
  - # 6
    frequency:     4.7675215193
  - # 7
    frequency:     4.7893126193
  - # 8
    frequency:     4.7893126193
  - # 9
    frequency:     4.8701227685
  - # 10
    frequency:     8.7234140527
  - # 11
    frequency:     8.7234140527
  - # 12
    frequency:     8.7283331663

- q-position: [    0.0729167,    0.0520833,    0.0104167 ]
  weight: 48   
  band:
  - # 1
    frequency:     0.5584500524
  - # 2
    frequency:     0.7041156305
  - # 3
    frequency:     1.3250940491
  - # 4
    frequency:     4.7533356635
  - # 5
    frequency:     4.7740886048
  - # 6
    frequency:     4.7755876795
  - # 7
    frequency:     4.7888772209
  - # 8
    frequency:     4.8220226647
  - # 9
    frequency:     4.9165669637
  - # 10
    frequency:     8.6962382924
  - # 11
    frequency:     8.7015283402
  - # 12
    frequency:     8.7061226602

- q-position: [    0.0937500,    0.0520833,    0.0104167 ]
  weight: 48   
  band:
  - # 1
    frequency:     0.7000679296
  - # 2
    frequency:     0.8426075360
  - # 3
    frequency:     1.5642451013
  - # 4
    frequency:     4.7349911903
  - # 5
    frequency:     4.7572884382
  - # 6
    frequency:     4.7893002630
  - # 7
    frequency:     4.8181141233
  - # 8
    frequency:     4.8642213048
  - # 9
    frequency:     4.9708868994
  - # 10
    frequency:     8.6600422406
  - # 11
    frequency:     8.6724628326
  - # 12
    frequency:     8.6766184838

- q-position: [    0.1145833,    0.0520833,    0.0104167 ]
  weight: 48   
  band:
  - # 1
    frequency:     0.8544620287
  - # 2
    frequency:     0.9876942235
  - # 3
    frequency:     1.8126097824
  - # 4
    frequency:     4.7120516104
  - # 5
    frequency:     4.7344157378
  - # 6
    frequency:     4.8127268999
  - # 7
    frequency:     4.8540101801
  - # 8
    frequency:     4.9156993332
  - # 9
    frequency:     5.0325727766
  - # 10
    frequency:     8.6148588015
  - # 11
    frequency:     8.6363161533
  - # 12
    frequency:     8.6399144032

- q-position: [    0.1354167,    0.0520833,    0.0104167 ]
  weight: 48   
  band:
  - # 1
    frequency:     1.0136789370
  - # 2