32   
1    

1    
  0.0100000000000000   0.0000000000000000   0.0000000000000000
  -0.0136173500   -0.0000000000   -0.0000000000
   0.0033497800    0.0000000000    0.0000000000
  -0.0006933300   -0.0000000000    0.0000000000
  -0.0016483600   -0.0000000000    0.0000000000
  -0.0006933300    0.0000000000    0.0000000000
  -0.0016483600    0.0000000000   -0.0000000000
   0.0002511100   -0.0000000000    0.0000000000
  -0.0000769600   -0.0000000000    0.0000000000
   0.0022810000    0.0030229400    0.0000000000
   0.0021464900   -0.0028471400    0.0000000000
   0.0022810000   -0.0030229400   -0.0000000000
   0.0021464900    0.0028471400    0.0000000000
   0.0002403800    0.0000826900    0.0000000000
   0.0002378300   -0.0000814500   -0.0000000000
   0.0002403800   -0.0000826900   -0.0000000000
   0.0002378300    0.0000814500   -0.0000000000
   0.0022810000   -0.0000000000    0.0030229400
   0.0021464900    0.0000000000   -0.0028471400
   0.0002403800    0.0000000000    0.0000826900
   0.0002378300   -0.0000000000   -0.0000814500
   0.0022810000   -0.0000000000   -0.0030229400
   0.0021464900   -0.0000000000    0.0028471400
   0.0002403800    0.0000000000   -0.0000826900
   0.0002378300   -0.0000000000    0.0000814500
  -0.0018118800    0.0000024100    0.0000024100
   0.0006003700    0.0000015400    0.0000015400
  -0.0018118800   -0.0000024100    0.0000024100
   0.0006003700   -0.0000015400    0.0000015400
  -0.0018118800    0.0000024100   -0.0000024100
   0.0006003700    0.0000015400   -0.0000015400
  -0.0018118800   -0.0000024100   -0.0000024100
   0.0006003700   -0.0000015400   -0.0000015400
