mesh: [    48,    48,    48 ]
nqpoint: 2600   
reciprocal_lattice:
- [   0.22823263,   0.00000000,   0.00000000 ] # a*
- [   0.00000000,   0.22823263,   0.00000000 ] # b*
- [   0.00000000,   0.00000000,   0.22823263 ] # c*
natom:   4      
lattice:
- [     4.381494497430611,     0.000000000000000,     0.000000000000000 ] # a
- [     0.000000000000000,     4.381494497430611,     0.000000000000000 ] # b
- [     0.000000000000000,     0.000000000000000,     4.381494497430611 ] # c
points:
- symbol: Au # 1
  coordinates: [  0.000000000000000,  0.000000000000000,  0.000000000000000 ]
  mass: 196.966569
- symbol: Au # 2
  coordinates: [  0.500000000000000,  0.500000000000000,  0.000000000000000 ]
  mass: 196.966569
- symbol: Au # 3
  coordinates: [  0.500000000000000,  0.000000000000000,  0.500000000000000 ]
  mass: 196.966569
- symbol: Au # 4
  coordinates: [  0.000000000000000,  0.500000000000000,  0.500000000000000 ]
  mass: 196.966569
phonon:
- q-position: [    0.0104167,    0.0104167,    0.0104167 ]
  weight: 8    
  band:
  - # 1
    frequency:     0.0188039101
  - # 2
    frequency:     0.0188039101
  - # 3
    frequency:     0.0718514141
  - # 4
    frequency:     1.1088174731
  - # 5
    frequency:     1.1088174731
  - # 6
    frequency:     1.1088174731
  - # 7
    frequency:     1.1102615907
  - # 8
    frequency:     1.1102615907
  - # 9
    frequency:     1.1102615907
  - # 10
    frequency:     2.2057660235
  - # 11
    frequency:     2.2057660235
  - # 12
    frequency:     2.2057660235

- q-position: [    0.0312500,    0.0104167,    0.0104167 ]
  weight: 24   
  band:
  - # 1
    frequency:     0.0206166559
  - # 2
    frequency:     0.0290900156
  - # 3
    frequency:     0.1421272313
  - # 4
    frequency:     1.1060575303
  - # 5
    frequency:     1.1060575303
  - # 6
    frequency:     1.1064738391
  - # 7
    frequency:     1.1079152479
  - # 8
    frequency:     1.1112350230
  - # 9
    frequency:     1.1112350230
  - # 10
    frequency:     2.2025029038
  - # 11
    frequency:     2.2025029038
  - # 12
    frequency:     2.2045519289

- q-position: [    0.0520833,    0.0104167,    0.0104167 ]
  weight: 24   
  band:
  - # 1
    frequency:     0.0245051385
  - # 2
    frequency:     0.0331358636
  - # 3
    frequency:     0.2256331951
  - # 4
    frequency:     1.1013074906
  - # 5
    frequency:     1.1013074906
  - # 6
    frequency:     1.1017966086
  - # 7
    frequency:     1.1032326496
  - # 8
    frequency:     1.1124723684
  - # 9
    frequency:     1.1124723684
  - # 10
    frequency:     2.1959954499
  - # 11
    frequency:     2.1959954499
  - # 12
    frequency:     2.2021122048

- q-position: [    0.0729167,    0.0104167,    0.0104167 ]
  weight: 24   
  band:
  - # 1
    frequency:     0.0307298630
  - # 2
    frequency:     0.0383174077
  - # 3
    frequency:     0.3110273586
  - # 4
    frequency:     1.0944151732
  - # 5
    frequency:     1.0944151732
  - # 6
    frequency:     1.0948058142
  - # 7
    frequency:     1.0962339258
  - # 8
    frequency:     1.1142455068
  - # 9
    frequency:     1.1142455068
  - # 10
    frequency:     2.1862811763
  - # 11
    frequency:     2.1862811763
  - # 12
    frequency:     2.1984239798

- q-position: [    0.0937500,    0.0104167,    0.0104167 ]
  weight: 24   
  band:
  - # 1
    frequency:     0.0393869422
  - # 2
    frequency:     0.0457215931
  - # 3
    frequency:     0.3965581419
  - # 4
    frequency:     1.0853971591
  - # 5
    frequency:     1.0853971591
  - # 6
    frequency:     1.0855313972
  - # 7
    frequency:     1.0869491607
  - # 8
    frequency:     1.1167150064
  - # 9
    frequency:     1.1167150064
  - # 10
    frequency:     2.1734162144
  - # 11
    frequency:     2.1734162144
  - # 12
    frequency:     2.1934534378

- q-position: [    0.1145833,    0.0104167,    0.0104167 ]
  weight: 24   
  band:
  - # 1
    frequency:     0.0504453206
  - # 2
    frequency:     0.0556438914
  - # 3
    frequency:     0.4816179698
  - # 4
    frequency:     1.0740130800
  - # 5
    frequency:     1.0743363075
  - # 6
    frequency:     1.0743363075
  - # 7
    frequency:     1.0754182593
  - # 8
    frequency:     1.1200297069
  - # 9
    frequency:     1.1200297069
  - # 10
    frequency:     2.1574751424
  - # 11
    frequency:     2.1574751424
  - # 12
    frequency:     2.1871563938

- q-position: [    0.1354167,    0.0104167,    0.0104167 ]
  weight: 24   
  band:
  - # 1
    frequency:     0.0638235203
  - # 2
    frequency:     0.0680967626
  - # 3
    frequency:     0.5658675252
  - # 4
    frequency:     1.0603001959
  - # 5
    frequency:     1.0613535654
  - # 6
    frequency:     1.0613535654
  - # 7
    frequency:     1.0616907732
  - # 8
    frequency:     1.1243510197
  - # 9
    frequency:     1.1243510197
  - # 10
    frequency:     2.1385507578
  - # 11
    frequency:     2.1385507578
  - # 12
    frequency:     2.1794790411

- q-position: [    0.1562500,    0.0104167,    0.0104167 ]
  weight: 24   
  band:
  - # 1
    frequency:     0.0794281943
  - # 2
    frequency:     0.0829805906
  - # 3
    frequency:     0.6490602114
  - # 4
    frequency:     1.0444514777
  - # 5
    frequency:     1.0458256826
  - # 6
    frequency:     1.0466006256
  - # 7
    frequency:     1.0466006256
  - # 8
    frequency:     1.1298554042
  - # 9
    frequency:     1.1298554042
  - # 10
    frequency:     2.1167537904
  - # 11
    frequency:     2.1167537904
  - # 12
    frequency:     2.1703588530

- q-position: [    0.1770833,    0.0104167,    0.0104167 ]
  weight: 24   
  band:
  - # 1
    frequency:     0.0971646378
  - # 2
    frequency:     0.1001636735
  - # 3
    frequency:     0.7309912771
  - # 4
    frequency:     1.0265348072
  - # 5
    frequency:     1.0278911395
  - # 6
    frequency:     1.0302579763
  - # 7
    frequency:     1.0302579763
  - # 8
    frequency:     1.1367305234
  - # 9
    frequency:     1.1367305234
  - # 10
    frequency:     2.0922125534
  - # 11
    frequency:     2.0922125534
  - # 12
    frequency:     2.1597256193

- q-position: [    0.1979167,    0.0104167,    0.0104167 ]
  weight: 24   
  band:
  - # 1
    frequency:     0.1169372527
  - # 2
    frequency:     0.1195117206
  - # 3
    frequency:     0.8114796276
  - # 4
    frequency:     1.0066269238
  - # 5
    frequency:     1.0079641715
  - # 6
    frequency:     1.0125345009
  - # 7
    frequency:     1.0125345009
  - # 8
    frequency:     1.1451690185
  - # 9
    frequency:     1.1451690185
  - # 10
    frequency:     2.0650725301
  - # 11
    frequency:     2.0650725301
  - # 12
    frequency:     2.1475025953

- q-position: [    0.2187500,    0.0104167,    0.0104167 ]
  weight: 24   
  band:
  - # 1
    frequency:     0.1386478818
  - # 2
    frequency:     0.1408947659
  - # 3
    frequency:     0.8903604731
  - # 4
    frequency:     0.9848130969
  - # 5
    frequency:     0.9861303476
  - # 6
    frequency:     0.9936675022
  - # 7
    frequency:     0.9936675022
  - # 8
    frequency:     1.1553611723
  - # 9
    frequency:     1.1553611723
  - # 10
    frequency:     2.0354958902
  - # 11
    frequency:     2.0354958902
  - # 12
    frequency:     2.1336077422

- q-position: [    0.2395833,    0.0104167,    0.0104167 ]
  weight: 24   
  band:
  - # 1
    frequency:     0.1621942952
  - # 2
    frequency:     0.1641864954
  - # 3
    frequency:     0.9611867608
  - # 4
    frequency:     0.9624834095
  - # 5
    frequency:     0.9674821801
  - # 6
    frequency:     0.9739227036
  - # 7
    frequency:     0.9739227036
  - # 8
    frequency:     1.1674870991
  - # 9
    frequency:     1.1674870991
  - # 10
    frequency:     2.0036609312
  - # 11
    frequency:     2.0036609312
  - # 12
    frequency:     2.1179550325

- q-position: [    0.2604167,    0.0104167,    0.0104167 ]
  weight: 24   
  band:
  - # 1
    frequency:     0.1874692319
  - # 2
    frequency:     0.1892619409
  - # 3
    frequency:     0.9358491151
  - # 4
    frequency:     0.9371248685
  - # 5
    frequency:     0.9535939358
  - # 6
    frequency:     0.9535939358
  - # 7
    frequency:     1.0427049409
  - # 8
    frequency:     1.1817089555
  - # 9
    frequency:     1.1817089555
  - # 10
    frequency:     1.9697614348
  - # 11
    frequency:     1.9697614348
  - # 12
    frequency:     2.1004558006

- q-position: [    0.2812500,    0.0104167,    0.0104167 ]
  weight: 24   
  band:
  - # 1
    frequency:     0.2143599226
  - # 2
    frequency:     0.2159954052
  - # 3
    frequency:     0.9089086920
  - # 4
    frequency:     0.9101635698
  - # 5
    frequency:     0.9330022254
  - # 6
    frequency:     0.9330022254
  - # 7
    frequency:     1.1159002903
  - # 8
    frequency:     1.1981636371
  - # 9
    frequency:     1.1981636371
  - # 10
    frequency:     1.9340059281
  - # 11
    frequency:     1.9340059281
  - # 12
    frequency:     2.0810201126

- q-position: [    0.3020833,    0.0104167,    0.0104167 ]
  weight: 24   
  band:
  - # 1
    frequency:     0.2427479599
  - # 2
    frequency:     0.2442590069
  - # 3
    frequency:     0.8804808919
  - # 4
    frequency:     0.8817152281
  - # 5
    frequency:     0.9124939531
  - # 6
    frequency:     0.9124939531
  - # 7
    frequency:     1.1869510284
  - # 8
    frequency:     1.2169563951
  - # 9
    frequency:     1.2169563951
  - # 10
    frequency:     1.8966168336
  - # 11
    frequency:     1.8966168336
  - # 12
    frequency:     2.0595581366

- q-position: [    0.3229167,    0.0104167,    0.0104167 ]
  weight: 24   
  band:
  - # 1
    frequency:     0.2725094026
  - # 2
    frequency:     0.2739218016
  - # 3
    frequency:     0.8506874902
  - # 4
    frequency:     0.8519019337
  - # 5
    frequency:     0.8924376905
  - # 6
    frequency:     0.8924376905
  - # 7
    frequency:     1.2381557450
  - # 8
    frequency:     1.2381557450
  - # 9
    frequency:     1.2557513379
  - # 10
    frequency:     1.8578294908
  - # 11
    frequency:     1.8578294908
  - # 12
    frequency:     2.0359814926

- q-position: [    0.3437500,    0.0104167,    0.0104167 ]
  weight: 24   
  band:
  - # 1
    frequency:     0.3035150410
  - # 2
    frequency:     0.3048493448
  - # 3
    frequency:     0.8196561171
  - # 4
    frequency:     0.8208516340
  - # 5
    frequency:     0.8732192746
  - # 6
    frequency:     0.8732192746
  - # 7
    frequency:     1.2617899393
  - # 8
    frequency:     1.2617899393
  - # 9
    frequency:     1.3222069827
  - # 10
    frequency:     1.8178910256
  - # 11
    frequency:     1.8178910256
  - # 12
    frequency:     2.0102045652

- q-position: [    0.3645833,    0.0104167,    0.0104167 ]
  weight: 24   
  band:
  - # 1
    frequency:     0.3356307715
  - # 2
    frequency:     0.3369035725
  - # 3
    frequency:     0.7875197114
  - # 4
    frequency:     0.7886975905
  - # 5
    frequency:     0.8552346817
  - # 6
    frequency:     0.8552346817
  - # 7
    frequency:     1.2878451404
  - # 8
    frequency:     1.2878451404
  - # 9
    frequency:     1.3862355239
  - # 10
    frequency:     1.7770590395
  - # 11
    frequency:     1.7770590395
  - # 12
    frequency:     1.9821457628

- q-position: [    0.3854167,    0.0104167,    0.0104167 ]
  weight: 24   
  band:
  - # 1
    frequency:     0.3687180497
  - # 2
    frequency:     0.3699429059
  - # 3
    frequency:     0.7544159537
  - # 4
    frequency:     0.7555778155
  - # 5
    frequency:     0.8388803501
  - # 6
    frequency:     0.8388803501
  - # 7
    frequency:     1.3162652872
  - # 8
    frequency:     1.3162652872
  - # 9
    frequency:     1.4477665166
  - # 10
    frequency:     1.7356000871
  - # 11
    frequency:     1.7356000871
  - # 12
    frequency:     1.9517287112

- q-position: [    0.4062500,    0.0104167,    0.0104167 ]
  weight: 24   
  band:
  - # 1
    frequency:     0.4026343996
  - # 2
    frequency:     0.4038225152
  - # 3
    frequency:     0.7204866776
  - # 4
    frequency:     0.7216344898
  - # 5
    frequency:     0.8245408233
  - # 6
    frequency:     0.8245408233
  - # 7
    frequency:     1.3469535097
  - # 8
    frequency:     1.3469535097
  - # 9
    frequency:     1.5067416632
  - # 10
    frequency:     1.6937879089
  - # 11
    frequency:     1.6937879089
  - # 12
    frequency:     1.9188833698

- q-position: [    0.4270833,    0.0104167,    0.0104167 ]
  weight: 24   
  band:
  - # 1
    frequency:     0.4372339644
  - # 2
    frequency:     0.4383946946
  - # 3
    frequency:     0.6858772652
  - # 4
    frequency:     0.6870133646
  - # 5
    frequency:     0.8125739622
  - # 6
    frequency:     0.8125739622
  - # 7
    frequency:     1.3797748313
  - # 8
    frequency:     1.3797748313
  - # 9
    frequency:     1.5631149064
  - # 10
    frequency:     1.6519013938
  - # 11
    frequency:     1.6519013938
  - # 12
    frequency:     1.8835470618

- q-position: [    0.4479167,    0.0104167,    0.0104167 ]
  weight: 24   
  band:
  - # 1
    frequency:     0.4723680897
  - # 2
    frequency:     0.4735093185
  - # 3
    frequency:     0.6507360272
  - # 4
    frequency:     0.6518631509
  - # 5
    frequency:     0.8032945031
  - # 6
    frequency:     0.8032945031
  - # 7
    frequency:     1.4145597744
  - # 8
    frequency:     1.4145597744
  - # 9
    frequency:     1.6102223006
  - # 10
    frequency:     1.6102223006
  - # 11
    frequency:     1.6168524513
  - # 12
    frequency:     1.8456654128

- q-position: [    0.4687500,    0.0104167,    0.0104167 ]
  weight: 24   
  band:
  - # 1
    frequency:     0.5078859290
  - # 2
    frequency:     0.5090143555
  - # 3
    frequency:     0.6152135709
  - # 4
    frequency:     0.6163348992
  - # 5
    frequency:     0.7969573141
  - # 6
    frequency:     0.7969573141
  - # 7
    frequency:     1.4511080786
  - # 8
    frequency:     1.4511080786
  - # 9
    frequency:     1.5690331584
  - # 10
    frequency:     1.5690331584
  - # 11
    frequency:     1.6679327069
  - # 12
    frequency:     1.8051931901

- q-position: [    0.4895833,    0.0104167,    0.0104167 ]
  weight: 24   
  band:
  - # 1
    frequency:     0.5436350680
  - # 2
    frequency:     0.5447564231
  - # 3
    frequency:     0.5794621600
  - # 4
    frequency:     0.5805813737
  - # 5
    frequency:     0.7937421870
  - # 6
    frequency:     0.7937421870
  - # 7
    frequency:     1.4891843860
  - # 8
    frequency:     1.4891843860
  - # 9
    frequency:     1.5286231426
  - # 10
    frequency:     1.5286231426
  - # 11
    frequency:     1.7163461412
  - # 12
    frequency:     1.7620950433

- q-position: [    0.0312500,    0.0312500,    0.0104167 ]
  weight: 24   
  band:
  - # 1
    frequency:     0.0247364649
  - # 2
    frequency:     0.0557783743
  - # 3
    frequency:     0.1826380824
  - # 4
    frequency:     1.1012806126
  - # 5
    frequency:     1.1037291040
  - # 6
    frequency:     1.1037291040
  - # 7
    frequency:     1.1088856905
  - # 8
    frequency:     1.1088856905
  - # 9
    frequency:     1.1142612302
  - # 10
    frequency:     2.1992399747
  - # 11
    frequency:     2.2013135282
  - # 12
    frequency:     2.2013135282

- q-position: [    0.0520833,    0.0312500,    0.0104167 ]
  weight: 48   
  band:
  - # 1
    frequency:     0.0277554451
  - # 2
    frequency:     0.0681545962
  - # 3
    frequency:     0.2506276205
  - # 4
    frequency:     1.0948788896
  - # 5
    frequency:     1.0990143976
  - # 6
    frequency:     1.0990822520
  - # 7
    frequency:     1.1041972836
  - # 8
    frequency:     1.1101119004
  - # 9
    frequency:     1.1172211523
  - # 10
    frequency:     2.1927329036
  - # 11
    frequency:     2.1948554456
  - # 12
    frequency:     2.1989229456

- q-position: [    0.0729167,    0.0312500,    0.0104167 ]
  weight: 48   
  band:
  - # 1
    frequency:     0.0328870094
  - # 2
    frequency:     0.0748434994
  - # 3
    frequency:     0.3287921823
  - # 4
    frequency:     1.0868533124
  - # 5
    frequency:     1.0921369201
  - # 6
    frequency:     1.0921766083
  - # 7
    frequency:     1.0971902796
  - # 8
    frequency:     1.1118662051
  - # 9
    frequency:     1.1202321431
  - # 10
    frequency:     2.1830192091
  - # 11
    frequency:     2.1852150618
  - # 12
    frequency:     2.1953077008

- q-position: [    0.0937500,    0.0312500,    0.0104167 ]
  weight: 48   
  band:
  - # 1
    frequency:     0.0405528965
  - # 2
    frequency:     0.0809109899
  - # 3
    frequency:     0.4103199679
  - # 4
    frequency:     1.0771098593
  - # 5
    frequency:     1.0829228898
  - # 6
    frequency:     1.0832306208
  - # 7
    frequency:     1.0878952996
  - # 8
    frequency:     1.1143101315
  - # 9
    frequency:     1.1235633335
  - # 10
    frequency:     2.1701550286
  - # 11
    frequency:     2.1724483072
  - # 12
    frequency:     2.1904331255

- q-position: [    0.1145833,    0.0312500,    0.0104167 ]
  weight: 48   
  band:
  - # 1
    frequency:     0.0508329124
  - # 2
    frequency:     0.0881675727
  - # 3
    frequency:     0.4928549292
  - # 4
    frequency:     1.0656202625
  - # 5
    frequency:     1.0714796131
  - # 6
    frequency:     1.0722575248
  - # 7
    frequency:     1.0763529964
  - # 8
    frequency:     1.1175932785
  - # 9
    frequency:     1.1274720654
  - # 10
    frequency:     2.1542149496
  - # 11
    frequency:     2.1566294912
  - # 12
    frequency:     2.1842539403

- q-position: [    0.1354167,    0.0312500,    0.0104167 ]
  weight: 48   
  band:
  - # 1
    frequency:     0.0636398847
  - # 2
    frequency:     0.0974264556
  - # 3
    frequency:     0.5753662699
  - # 4
    frequency:     1.0524234744
  - # 5
    frequency:     1.0578559925
  - # 6
    frequency:     1.0593762579
  - # 7
    frequency:     1.0626139112
  - # 8
    frequency:     1.1218777590
  - # 9
    frequency:     1.1321986191
  - # 10
    frequency:     2.1352917824
  - # 11
    frequency:     2.1378510743
  - # 12
    frequency:     2.1767150352

- q-position: [    0.1562500,    0.0312500,    0.0104167 ]
  weight: 48   
  band:
  - # 1
    frequency:     0.0788374866
  - # 2
    frequency:     0.1090707745
  - # 3
    frequency:     0.6572859679
  - # 4
    frequency:     1.0376150123
  - # 5
    frequency:     1.0421101046
  - # 6
    frequency:     1.0447361413
  - # 7
    frequency:     1.0467383009
  - # 8
    frequency:     1.1273407645
  - # 9
    frequency:     1.1379721047
  - # 10
    frequency:     2.1134962749
  - # 11
    frequency:     2.1162233792
  - # 12
    frequency:     2.1677524081

- q-position: [    0.1770833,    0.0312500,    0.0104167 ]
  weight: 48   
  band:
  - # 1
    frequency:     0.0962880629
  - # 2
    frequency:     0.1232311437
  - # 3
    frequency:     0.7382403660
  - # 4
    frequency:     1.0213375014
  - # 5
    frequency:     1.0243088681
  - # 6
    frequency:     1.0285148597
  - # 7
    frequency:     1.0287959425
  - # 8
    frequency:     1.1341707489
  - # 9
    frequency:     1.1450142447
  - # 10
    frequency:     2.0889567645
  - # 11
    frequency:     2.0918742411
  - # 12
    frequency:     2.1572942413

- q-position: [    0.1979167,    0.0312500,    0.0104167 ]
  weight: 48   
  band:
  - # 1
    frequency:     0.1158628000
  - # 2
    frequency:     0.1398829655
  - # 3
    frequency:     0.8179511391
  - # 4
    frequency:     1.0037740776
  - # 5
    frequency:     1.0045276552
  - # 6
    frequency:     1.0088659159
  - # 7
    frequency:     1.0109180115
  - # 8
    frequency:     1.1425612016
  - # 9
    frequency:     1.1535394729
  - # 10
    frequency:     2.0618187669
  - # 11
    frequency:     2.0649485915
  - # 12
    frequency:     2.1452620919

- q-position: [    0.2187500,    0.0312500,    0.0104167 ]
  weight: 48   
  band:
  - # 1
    frequency:     0.1374398162
  - # 2
    frequency:     0.1589152098
  - # 3
    frequency:     0.8961935001
  - # 4
    frequency:     0.9828498499
  - # 5
    frequency:     0.9851441017
  - # 6
    frequency:     0.9870363699
  - # 7
    frequency:     0.9921790941
  - # 8
    frequency:     1.1527032938
  - # 9
    frequency:     1.1637520338
  - # 10
    frequency:     2.0322444944
  - # 11
    frequency:     2.0356079716
  - # 12
    frequency:     2.1315721716

- q-position: [    0.2395833,    0.0312500,    0.0104167 ]
  weight: 48   
  band:
  - # 1
    frequency:     0.1609002701
  - # 2
    frequency:     0.1801757145
  - # 3
    frequency:     0.9593663615
  - # 4
    frequency:     0.9634042634
  - # 5
    frequency:     0.9657003142
  - # 6
    frequency:     0.9725594747
  - # 7
    frequency:     0.9727767227
  - # 8
    frequency:     1.1647780419
  - # 9
    frequency:     1.1758411274
  - # 10
    frequency:     2.0004123004
  - # 11
    frequency:     2.0040299696
  - # 12
    frequency:     2.1161366912

- q-position: [    0.2604167,    0.0312500,    0.0104167 ]
  weight: 48   
  band:
  - # 1
    frequency:     0.1861251996
  - # 2
    frequency:     0.2034969076
  - # 3
    frequency:     0.9341751149
  - # 4
    frequency:     0.9380750681
  - # 5
    frequency:     0.9457266551
  - # 6
    frequency:     0.9523480607
  - # 7
    frequency:     1.0475343926
  - # 8
    frequency:     1.1789484862
  - # 9
    frequency:     1.1899750628
  - # 10
    frequency:     1.9665160391
  - # 11
    frequency:     1.9704075720
  - # 12
    frequency:     2.0988652456

- q-position: [    0.2812500,    0.0312500,    0.0104167 ]
  weight: 48   
  band:
  - # 1
    frequency:     0.2129934370
  - # 2
    frequency:     0.2287082589
  - # 3
    frequency:     0.9073805617
  - # 4
    frequency:     0.9111623910
  - # 5
    frequency:     0.9255361057
  - # 6
    frequency:     0.9318603946
  - # 7
    frequency:     1.1203192824
  - # 8
    frequency:     1.1953523511
  - # 9
    frequency:     1.2062952251
  - # 10
    frequency:     1.9307643313
  - # 11
    frequency:     1.9349484189
  - # 12
    frequency:     2.0796662162

- q-position: [    0.3020833,    0.0312500,    0.0104167 ]
  weight: 48   
  band:
  - # 1
    frequency:     0.2413803841
  - # 2
    frequency:     0.2556411932
  - # 3
    frequency:     0.8790932818
  - # 4
    frequency:     0.8827874506
  - # 5
    frequency:     0.9054679851
  - # 6
    frequency:     0.9114368533
  - # 7
    frequency:     1.1910005722
  - # 8
    frequency:     1.2140956261
  - # 9
    frequency:     1.2249105149
  - # 10
    frequency:     1.8933797219
  - # 11
    frequency:     1.8978739475
  - # 12
    frequency:     2.0584481691

- q-position: [    0.3229167,    0.0312500,    0.0104167 ]
  weight: 48   
  band:
  - # 1
    frequency:     0.2711573872
  - # 2
    frequency:     0.2841303080
  - # 3
    frequency:     0.8494297657
  - # 4
    frequency:     0.8530783240
  - # 5
    frequency:     0.8858841636
  - # 6
    frequency:     0.8914395779
  - # 7
    frequency:     1.2352474401
  - # 8
    frequency:     1.2458927721
  - # 9
    frequency:     1.2594623212
  - # 10
    frequency:     1.8545977105
  - # 11
    frequency:     1.8594184075
  - # 12
    frequency:     2.0351212292

- q-position: [    0.3437500,    0.0312500,    0.0104167 ]
  weight: 48   
  band:
  - # 1
    frequency:     0.3021915128
  - # 2
    frequency:     0.3140130551
  - # 3
    frequency:     0.8185124342
  - # 4
    frequency:     0.8221689098
  - # 5
    frequency:     0.8671636719
  - # 6
    frequency:     0.8722477093
  - # 7
    frequency:     1.2588365008
  - # 8
    frequency:     1.2692735407
  - # 9
    frequency:     1.3256026247
  - # 10
    frequency:     1.8146656376
  - # 11
    frequency:     1.8198277272
  - # 12
    frequency:     2.0095984144

- q-position: [    0.3645833,    0.0312500,    0.0104167 ]
  weight: 48   
  band:
  - # 1
    frequency:     0.3343455890
  - # 2
    frequency:     0.3451289583
  - # 3
    frequency:     0.7864698395
  - # 4
    frequency:     0.7901976699
  - # 5
    frequency:     0.8496952287
  - # 6
    frequency:     0.8542505094
  - # 7
    frequency:     1.2848492340
  - # 8
    frequency:     1.2950423678
  - # 9
    frequency:     1.3893331502
  - # 10
    frequency:     1.7738414026
  - # 11
    frequency:     1.7793582080
  - # 12
    frequency:     1.9817969129

- q-position: [    0.3854167,    0.0312500,    0.0104167 ]
  weight: 48   
  band:
  - # 1
    frequency:     0.3674784226
  - # 2
    frequency:     0.3773188409
  - # 3
    frequency:     0.7534368258
  - # 4
    frequency:     0.7573063773
  - # 5
    frequency:     0.8338673309
  - # 6
    frequency:     0.8378380243
  - # 7
    frequency:     1.3132296001
  - # 8
    frequency:     1.3231466593
  - # 9
    frequency:     1.4505788779
  - # 10
    frequency:     1.7323919999
  - # 11
    frequency:     1.7382750292
  - # 12
    frequency:     1.9516392930

- q-position: [    0.4062500,    0.0312500,    0.0104167 ]
  weight: 48   
  band:
  - # 1
    frequency:     0.4014451358
  - # 2
    frequency:     0.4104242427
  - # 3
    frequency:     0.7195543478
  - # 4
    frequency:     0.7236391762
  - # 5
    frequency:     0.8200557930
  - # 6
    frequency:     0.8233891570
  - # 7
    frequency:     1.3438804075
  - # 8
    frequency:     1.3534929332
  - # 9
    frequency:     1.5092779400
  - # 10
    frequency:     1.6905918873
  - # 11
    frequency:     1.6968505680
  - # 12
    frequency:     1.9190546334

- q-position: [    0.4270833,    0.0312500,    0.0104167 ]
  weight: 48   
  band:
  - # 1
    frequency:     0.4360975827
  - # 2
    frequency:     0.4442870680
  - # 3
    frequency:     0.6849687835
  - # 4
    frequency:     0.6893421281
  - # 5
    frequency:     0.8086090151
  - # 6
    frequency:     0.8112573714
  - # 7
    frequency:     1.3766657391
  - # 8
    frequency:     1.3859490817
  - # 9
    frequency:     1.5653814940
  - # 10
    frequency:     1.6487213207
  - # 11
    frequency:     1.6553626282
  - # 12
    frequency:     1.8839795681

- q-position: [    0.4479167,    0.0312500,    0.0104167 ]
  weight: 48   
  band:
  - # 1
    frequency:     0.4712848204
  - # 2
    frequency:     0.4787494528
  - # 3
    frequency:     0.6498308338
  - # 4
    frequency:     0.6545631558
  - # 5
    frequency:     0.7998317774
  - # 6
    frequency:     0.8017547460
  - # 7
    frequency:     1.4114136251
  - # 8
    frequency:     1.4203465833
  - # 9
    frequency:     1.6070653815
  - # 10
    frequency:     1.6140930929
  - # 11
    frequency:     1.6188535874
  - # 12
    frequency:     1.8463592376

- q-position: [    0.4687500,    0.0312500,    0.0104167 ]
  weight: 48   
  band:
  - # 1
    frequency:     0.5068536180
  - # 2
    frequency:     0.5136538171
  - # 3
    frequency:     0.6142942744
  - # 4
    frequency:     0.6194521316
  - # 5
    frequency:     0.7939689194
  - # 6
    frequency:     0.7951356548
  - # 7
    frequency:     1.4479153084
  - # 8
    frequency:     1.4564771904
  - # 9
    frequency:     1.5659188164
  - # 10
    frequency:     1.5733302802
  - # 11
    frequency:     1.6696709864
  - # 12
    frequency:     1.8061481452

- q-position: [    0.4895833,    0.0312500,    0.0104167 ]
  weight: 48   
  band:
  - # 1
    frequency:     0.5426489952
  - # 2
    frequency:     0.5488430645
  - # 3
    frequency:     0.5785147907
  - # 4
    frequency:     0.5841608878
  - # 5
    frequency:     0.7911907055
  - # 6
    frequency:     0.7915818228
  - # 7
    frequency:     1.4858737152
  - # 8
    frequency:     1.4939765450
  - # 9
    frequency:     1.5257038997
  - # 10
    frequency:     1.5334220413
  - # 11
    frequency:     1.7178229466
  - # 12
    frequency:     1.7633109141

- q-position: [    0.0520833,    0.0520833,    0.0104167 ]
  weight: 24   
  band:
  - # 1
    frequency:     0.0296691530
  - # 2
    frequency:     0.0938137358
  - # 3
    frequency:     0.2995345749
  - # 4
    frequency:     1.0864189196
  - # 5
    frequency:     1.0944382672
  - # 6
    frequency:     1.0944382672
  - # 7
    frequency:     1.1054014363
  - # 8
    frequency:     1.1054014363
  - # 9
    frequency:     1.1223797233
  - # 10
    frequency:     2.1862266018
  - # 11
    frequency:     2.1925630070
  - # 12
    frequency:     2.1925630070

- q-position: [    0.0729167,    0.0520833,    0.0104167 ]
  weight: 48   
  band:
  - # 1
    frequency:     0.0334470075
  - # 2
    frequency:     0.1088430398
  - # 3
    frequency:     0.3647239728
  - # 4
    frequency:     1.0765148249
  - # 5
    frequency:     1.0875991251
  - # 6
    frequency:     1.0877097650
  - # 7
    frequency:     1.0983618992
  - # 8
    frequency:     1.1071182525
  - # 9
    frequency:     1.1274764119
  - # 10
    frequency:     2.1765140702
  - # 11
    frequency:     2.1830694917
  - # 12
    frequency:     2.1890935016

- q-position: [    0.0937500,    0.0520833,    0.0104167 ]
  weight: 48   
  band:
  - # 1
    frequency:     0.0398335361
  - # 2
    frequency:     0.1189027527
  - # 3
    frequency:     0.4382465251
  - # 4
    frequency:     1.0652064581
  - # 5
    frequency:     1.0785267941
  - # 6
    frequency:     1.0789082324
  - # 7
    frequency:     1.0890246263
  - # 8
    frequency:     1.1095111906
  - # 9
    frequency:     1.1326424794
  - # 10
    frequency:     2.1636514581
  - # 11
    frequency:     2.1704979113
  - # 12
    frequency:     2.1844105429

- q-position: [    0.1145833,    0.0520833,    0.0104167 ]
  weight: 48   
  band:
  - # 1
    frequency:     0.0491011742
  - # 2
    frequency:     0.1275200462
  - # 3
    frequency:     0.5156005293
  - # 4
    frequency:     1.0524940043
  - # 5
    frequency:     1.0672606267
  - # 6
    frequency:     1.0681112173
  - # 7
    frequency:     1.0774313266
  - # 8
    frequency:     1.1127313862
  - # 9
    frequency:     1.1381016750
  - # 10
    frequency:     2.1477133706
  - # 11
    frequency:     2.1549220151
  - # 12
    frequency:     2.1784666467

- q-position: [    0.1354167,    0.0520833,    0.0104167 ]
  weight: 48   
  band:
  - # 1
    frequency:     0.0611865286