32   
1    

1    
  0.0100000000000000   0.0000000000000000   0.0000000000000000
  -0.0322228300    0.0000000000   -0.0000000000
   0.0010564400    0.0000000000   -0.0000000000
  -0.0003121200    0.0000000000    0.0000000000
  -0.0004377400    0.0000000000   -0.0000000000
  -0.0003121200   -0.0000000000   -0.0000000000
  -0.0004377400    0.0000000000    0.0000000000
  -0.0000375900    0.0000000000    0.0000000000
  -0.0001654500   -0.0000000000    0.0000000000
   0.0040452400    0.0047383000   -0.0000000000
   0.0039000900   -0.0045453400    0.0000000000
   0.0040452400   -0.0047383000    0.0000000000
   0.0039000900    0.0045453400    0.0000000000
   0.0002286200    0.0000724800    0.0000000000
   0.0002279800   -0.0000724100    0.0000000000
   0.0002286200   -0.0000724800   -0.0000000000
   0.0002279800    0.0000724100   -0.0000000000
   0.0040452400   -0.0000000000    0.0047383000
   0.0039000900    0.0000000000   -0.0045453400
   0.0002286200    0.0000000000    0.0000724800
   0.0002279800    0.0000000000   -0.0000724100
   0.0040452400    0.0000000000   -0.0047383000
   0.0039000900    0.0000000000    0.0045453400
   0.0002286200    0.0000000000   -0.0000724800
   0.0002279800   -0.0000000000    0.0000724100
  -0.0007461400   -0.0000058300   -0.0000058300
   0.0005615100    0.0000015300    0.0000015300
  -0.0007461400    0.0000058300   -0.0000058300
   0.0005615100   -0.0000015300    0.0000015300
  -0.0007461400   -0.0000058300    0.0000058300
   0.0005615100    0.0000015300   -0.0000015300
  -0.0007461400    0.0000058300    0.0000058300
   0.0005615100   -0.0000015300   -0.0000015300
