mesh: [    48,    48,    48 ]
nqpoint: 2600   
reciprocal_lattice:
- [   0.23548864,   0.00000000,   0.00000000 ] # a*
- [   0.00000000,   0.23548864,   0.00000000 ] # b*
- [   0.00000000,   0.00000000,   0.23548864 ] # c*
natom:   4      
lattice:
- [     4.246489277248770,     0.000000000000000,     0.000000000000000 ] # a
- [     0.000000000000000,     4.246489277248770,     0.000000000000000 ] # b
- [     0.000000000000000,     0.000000000000000,     4.246489277248770 ] # c
points:
- symbol: Ag # 1
  coordinates: [  0.000000000000000,  0.000000000000000,  0.000000000000000 ]
  mass: 107.868200
- symbol: Ag # 2
  coordinates: [  0.500000000000000,  0.500000000000000,  0.000000000000000 ]
  mass: 107.868200
- symbol: Ag # 3
  coordinates: [  0.500000000000000,  0.000000000000000,  0.500000000000000 ]
  mass: 107.868200
- symbol: Ag # 4
  coordinates: [  0.000000000000000,  0.500000000000000,  0.500000000000000 ]
  mass: 107.868200
phonon:
- q-position: [    0.0104167,    0.0104167,    0.0104167 ]
  weight: 8    
  band:
  - # 1
    frequency:     0.0666743441
  - # 2
    frequency:     0.0666743441
  - # 3
    frequency:     0.1347836794
  - # 4
    frequency:     2.6969487259
  - # 5
    frequency:     2.6969487259
  - # 6
    frequency:     2.6969487259
  - # 7
    frequency:     2.6986431049
  - # 8
    frequency:     2.6986431049
  - # 9
    frequency:     2.6986431049
  - # 10
    frequency:     3.9013010728
  - # 11
    frequency:     3.9013010728
  - # 12
    frequency:     3.9013010728

- q-position: [    0.0312500,    0.0104167,    0.0104167 ]
  weight: 24   
  band:
  - # 1
    frequency:     0.1324845259
  - # 2
    frequency:     0.1409242982
  - # 3
    frequency:     0.2485744567
  - # 4
    frequency:     2.6940340150
  - # 5
    frequency:     2.6948435595
  - # 6
    frequency:     2.6948435595
  - # 7
    frequency:     2.6957219757
  - # 8
    frequency:     2.7009611062
  - # 9
    frequency:     2.7009611062
  - # 10
    frequency:     3.8981993560
  - # 11
    frequency:     3.8981993560
  - # 12
    frequency:     3.8982525929

- q-position: [    0.0520833,    0.0104167,    0.0104167 ]
  weight: 24   
  band:
  - # 1
    frequency:     0.2181258880
  - # 2
    frequency:     0.2249976640
  - # 3
    frequency:     0.3806151574
  - # 4
    frequency:     2.6882079838
  - # 5
    frequency:     2.6898831581
  - # 6
    frequency:     2.6915024352
  - # 7
    frequency:     2.6915024352
  - # 8
    frequency:     2.7047581463
  - # 9
    frequency:     2.7047581463
  - # 10
    frequency:     3.8920136920
  - # 11
    frequency:     3.8920136920
  - # 12
    frequency:     3.8921470950

- q-position: [    0.0729167,    0.0104167,    0.0104167 ]
  weight: 24   
  band:
  - # 1
    frequency:     0.3054782809
  - # 2
    frequency:     0.3108221454
  - # 3
    frequency:     0.5175985657
  - # 4
    frequency:     2.6794774080
  - # 5
    frequency:     2.6811335256
  - # 6
    frequency:     2.6867391876
  - # 7
    frequency:     2.6867391876
  - # 8
    frequency:     2.7102802407
  - # 9
    frequency:     2.7102802407
  - # 10
    frequency:     3.8827795202
  - # 11
    frequency:     3.8827795202
  - # 12
    frequency:     3.8829676563

- q-position: [    0.0937500,    0.0104167,    0.0104167 ]
  weight: 24   
  band:
  - # 1
    frequency:     0.3927589536
  - # 2
    frequency:     0.3970235896
  - # 3
    frequency:     0.6560267458
  - # 4
    frequency:     2.6678524355
  - # 5
    frequency:     2.6694833704
  - # 6
    frequency:     2.6805598393
  - # 7
    frequency:     2.6805598393
  - # 8
    frequency:     2.7176095468
  - # 9
    frequency:     2.7176095468
  - # 10
    frequency:     3.8705497504
  - # 11
    frequency:     3.8705497504
  - # 12
    frequency:     3.8706892745

- q-position: [    0.1145833,    0.0104167,    0.0104167 ]
  weight: 24   
  band:
  - # 1
    frequency:     0.4796447684
  - # 2
    frequency:     0.4831376436
  - # 3
    frequency:     0.7944966059
  - # 4
    frequency:     2.6533465685
  - # 5
    frequency:     2.6549463806
  - # 6
    frequency:     2.6730391431
  - # 7
    frequency:     2.6730391431
  - # 8
    frequency:     2.7267859339
  - # 9
    frequency:     2.7267859339
  - # 10
    frequency:     3.8552793180
  - # 11
    frequency:     3.8553944626
  - # 12
    frequency:     3.8553944626

- q-position: [    0.1354167,    0.0104167,    0.0104167 ]
  weight: 24   
  band:
  - # 1
    frequency:     0.5660091260
  - # 2
    frequency:     0.5689266586
  - # 3
    frequency:     0.9322658938
  - # 4
    frequency:     2.6359766391
  - # 5
    frequency:     2.6375396117
  - # 6
    frequency:     2.6642868990
  - # 7
    frequency:     2.6642868990
  - # 8
    frequency:     2.7378381921
  - # 9
    frequency:     2.7378381921
  - # 10
    frequency:     3.8366981146
  - # 11
    frequency:     3.8374005067
  - # 12
    frequency:     3.8374005067

- q-position: [    0.1562500,    0.0104167,    0.0104167 ]
  weight: 24   
  band:
  - # 1
    frequency:     0.6517600657
  - # 2
    frequency:     0.6542310841
  - # 3
    frequency:     1.0688511672
  - # 4
    frequency:     2.6157627792
  - # 5
    frequency:     2.6172834504
  - # 6
    frequency:     2.6544379320
  - # 7
    frequency:     2.6544379320
  - # 8
    frequency:     2.7507910320
  - # 9
    frequency:     2.7507910320
  - # 10
    frequency:     3.8148996685
  - # 11
    frequency:     3.8166709990
  - # 12
    frequency:     3.8166709990

- q-position: [    0.1770833,    0.0104167,    0.0104167 ]
  weight: 24   
  band:
  - # 1
    frequency:     0.7368120500
  - # 2
    frequency:     0.7389243131
  - # 3
    frequency:     1.2038886823
  - # 4
    frequency:     2.5927283850
  - # 5
    frequency:     2.5942015729
  - # 6
    frequency:     2.6436477649
  - # 7
    frequency:     2.6436477649
  - # 8
    frequency:     2.7656658847
  - # 9
    frequency:     2.7656658847
  - # 10
    frequency:     3.7898324942
  - # 11
    frequency:     3.7933247175
  - # 12
    frequency:     3.7933247175

- q-position: [    0.1979167,    0.0104167,    0.0104167 ]
  weight: 24   
  band:
  - # 1
    frequency:     0.8210803646
  - # 2
    frequency:     0.8228958004
  - # 3
    frequency:     1.3370786192
  - # 4
    frequency:     2.5669000754
  - # 5
    frequency:     2.5683208971
  - # 6
    frequency:     2.6320897011
  - # 7
    frequency:     2.6320897011
  - # 8
    frequency:     2.7824798402
  - # 9
    frequency:     2.7824798402
  - # 10
    frequency:     3.7614405529
  - # 11
    frequency:     3.7674953925
  - # 12
    frequency:     3.7674953925

- q-position: [    0.2187500,    0.0104167,    0.0104167 ]
  weight: 24   
  band:
  - # 1
    frequency:     0.9044801470
  - # 2
    frequency:     0.9060437960
  - # 3
    frequency:     1.4681602004
  - # 4
    frequency:     2.5383076461
  - # 5
    frequency:     2.5396715287
  - # 6
    frequency:     2.6199521550
  - # 7
    frequency:     2.6199521550
  - # 8
    frequency:     2.8012439478
  - # 9
    frequency:     2.8012439478
  - # 10
    frequency:     3.7296642774
  - # 11
    frequency:     3.7393308922
  - # 12
    frequency:     3.7393308922

- q-position: [    0.2395833,    0.0104167,    0.0104167 ]
  weight: 24   
  band:
  - # 1
    frequency:     0.9869264271
  - # 2
    frequency:     0.9882718876
  - # 3
    frequency:     1.5968997114
  - # 4
    frequency:     2.5069840172
  - # 5
    frequency:     2.5082867034
  - # 6
    frequency:     2.6074358651
  - # 7
    frequency:     2.6074358651
  - # 8
    frequency:     2.8219613094
  - # 9
    frequency:     2.8219613094
  - # 10
    frequency:     3.6944416703
  - # 11
    frequency:     3.7089923039
  - # 12
    frequency:     3.7089923039

- q-position: [    0.2604167,    0.0104167,    0.0104167 ]
  weight: 24   
  band:
  - # 1
    frequency:     1.0683343640
  - # 2
    frequency:     1.0694872327
  - # 3
    frequency:     1.7230844259
  - # 4
    frequency:     2.4729651777
  - # 5
    frequency:     2.4742027232
  - # 6
    frequency:     2.5947508647
  - # 7
    frequency:     2.5947508647
  - # 8
    frequency:     2.8446251652
  - # 9
    frequency:     2.8446251652
  - # 10
    frequency:     3.6557094582
  - # 11
    frequency:     3.6766529070
  - # 12
    frequency:     3.6766529070

- q-position: [    0.2812500,    0.0104167,    0.0104167 ]
  weight: 24   
  band:
  - # 1
    frequency:     1.1486194856
  - # 2
    frequency:     1.1495996095
  - # 3
    frequency:     1.8465194313
  - # 4
    frequency:     2.4362901241
  - # 5
    frequency:     2.4374588895
  - # 6
    frequency:     2.5821131714
  - # 7
    frequency:     2.5821131714
  - # 8
    frequency:     2.8692170902
  - # 9
    frequency:     2.8692170902
  - # 10
    frequency:     3.6134042863
  - # 11
    frequency:     3.6424970418
  - # 12
    frequency:     3.6424970418

- q-position: [    0.3020833,    0.0104167,    0.0104167 ]
  weight: 24   
  band:
  - # 1
    frequency:     1.2276978975
  - # 2
    frequency:     1.2285208943
  - # 3
    frequency:     1.9670259521
  - # 4
    frequency:     2.3970007956
  - # 5
    frequency:     2.3980974315
  - # 6
    frequency:     2.5697411996
  - # 7
    frequency:     2.5697411996
  - # 8
    frequency:     2.8957053858
  - # 9
    frequency:     2.8957053858
  - # 10
    frequency:     3.5674639362
  - # 11
    frequency:     3.6067188702
  - # 12
    frequency:     3.6067188702

- q-position: [    0.3229167,    0.0104167,    0.0104167 ]
  weight: 24   
  band:
  - # 1
    frequency:     1.3054864584
  - # 2
    frequency:     1.3061647733
  - # 3
    frequency:     2.0844404738
  - # 4
    frequency:     2.3551420050
  - # 5
    frequency:     2.3561634317
  - # 6
    frequency:     2.5578519270
  - # 7
    frequency:     2.5578519270
  - # 8
    frequency:     2.9240437261
  - # 9
    frequency:     2.9240437261
  - # 10
    frequency:     3.5178285521
  - # 11
    frequency:     3.5695210345
  - # 12
    frequency:     3.5695210345

- q-position: [    0.3437500,    0.0104167,    0.0104167 ]
  weight: 24   
  band:
  - # 1
    frequency:     1.3819029322
  - # 2
    frequency:     1.3824465912
  - # 3
    frequency:     2.1986142955
  - # 4
    frequency:     2.3107613662
  - # 5
    frequency:     2.3117047480
  - # 6
    frequency:     2.5466568687
  - # 7
    frequency:     2.5466568687
  - # 8
    frequency:     2.9541701075
  - # 9
    frequency:     2.9541701075
  - # 10
    frequency:     3.4644418591
  - # 11
    frequency:     3.5311132139
  - # 12
    frequency:     3.5311132139

- q-position: [    0.3645833,    0.0104167,    0.0104167 ]
  weight: 24   
  band:
  - # 1
    frequency:     1.4568661217
  - # 2
    frequency:     1.4572832812
  - # 3
    frequency:     2.2639092188
  - # 4
    frequency:     2.2647719330
  - # 5
    frequency:     2.3094133055
  - # 6
    frequency:     2.5363579381
  - # 7
    frequency:     2.5363579381
  - # 8
    frequency:     2.9860061288
  - # 9
    frequency:     2.9860061288
  - # 10
    frequency:     3.4072523592
  - # 11
    frequency:     3.4917105873
  - # 12
    frequency:     3.4917105873

- q-position: [    0.3854167,    0.0104167,    0.0104167 ]
  weight: 24   
  band:
  - # 1
    frequency:     1.5302959906
  - # 2
    frequency:     1.5305933480
  - # 3
    frequency:     2.2146385496
  - # 4
    frequency:     2.2154181506
  - # 5
    frequency:     2.4167178611
  - # 6
    frequency:     2.5271432886
  - # 7
    frequency:     2.5271432886
  - # 8
    frequency:     3.0194566147
  - # 9
    frequency:     3.0194566147
  - # 10
    frequency:     3.3462144922
  - # 11
    frequency:     3.4515322120
  - # 12
    frequency:     3.4515322120

- q-position: [    0.4062500,    0.0104167,    0.0104167 ]
  weight: 24   
  band:
  - # 1
    frequency:     1.6021137769
  - # 2
    frequency:     1.6022968833
  - # 3
    frequency:     2.1630049114
  - # 4
    frequency:     2.1636990906
  - # 5
    frequency:     2.5191832544
  - # 6
    frequency:     2.5191832544
  - # 7
    frequency:     2.5204226980
  - # 8
    frequency:     3.0544095746
  - # 9
    frequency:     3.0544095746
  - # 10
    frequency:     3.2812897489
  - # 11
    frequency:     3.4107993376
  - # 12
    frequency:     3.4107993376

- q-position: [    0.4270833,    0.0104167,    0.0104167 ]
  weight: 24   
  band:
  - # 1
    frequency:     1.6722421011
  - # 2
    frequency:     1.6723156047
  - # 3
    frequency:     2.1090663408
  - # 4
    frequency:     2.1096728811
  - # 5
    frequency:     2.5126265172
  - # 6
    frequency:     2.5126265172
  - # 7
    frequency:     2.6204368252
  - # 8
    frequency:     3.0907364513
  - # 9
    frequency:     3.0907364513
  - # 10
    frequency:     3.2124477258
  - # 11
    frequency:     3.3697337042
  - # 12
    frequency:     3.3697337042

- q-position: [    0.4479167,    0.0104167,    0.0104167 ]
  weight: 24   
  band:
  - # 1
    frequency:     1.7405729086
  - # 2
    frequency:     1.7406050700
  - # 3
    frequency:     2.0528832734
  - # 4
    frequency:     2.0533999993
  - # 5
    frequency:     2.5075966353
  - # 6
    frequency:     2.5075966353
  - # 7
    frequency:     2.7166833752
  - # 8
    frequency:     3.1282924904
  - # 9
    frequency:     3.1282924904
  - # 10
    frequency:     3.1396671115
  - # 11
    frequency:     3.3285559862
  - # 12
    frequency:     3.3285559862

- q-position: [    0.4687500,    0.0104167,    0.0104167 ]
  weight: 24   
  band:
  - # 1
    frequency:     1.8069939355
  - # 2
    frequency:     1.8071283783
  - # 3
    frequency:     1.9945184589
  - # 4
    frequency:     1.9949431804
  - # 5
    frequency:     2.5041890689
  - # 6
    frequency:     2.5041890689
  - # 7
    frequency:     2.8090993903
  - # 8
    frequency:     3.0629365976
  - # 9
    frequency:     3.1669162685
  - # 10
    frequency:     3.1669162685
  - # 11
    frequency:     3.2874853368
  - # 12
    frequency:     3.2874853368

- q-position: [    0.4895833,    0.0104167,    0.0104167 ]
  weight: 24   
  band:
  - # 1
    frequency:     1.8715056413
  - # 2
    frequency:     1.8717394077
  - # 3
    frequency:     1.9340368749
  - # 4
    frequency:     1.9343673255
  - # 5
    frequency:     2.5024688251
  - # 6
    frequency:     2.5024688251
  - # 7
    frequency:     2.8976355322
  - # 8
    frequency:     2.9822557064
  - # 9
    frequency:     3.2064125219
  - # 10
    frequency:     3.2064125219
  - # 11
    frequency:     3.2467558781
  - # 12
    frequency:     3.2467558781

- q-position: [    0.0312500,    0.0312500,    0.0104167 ]
  weight: 24   
  band:
  - # 1
    frequency:     0.1569121221
  - # 2
    frequency:     0.1860798041
  - # 3
    frequency:     0.3345434457
  - # 4
    frequency:     2.6904031638
  - # 5
    frequency:     2.6919278641
  - # 6
    frequency:     2.6919278641
  - # 7
    frequency:     2.6980362982
  - # 8
    frequency:     2.6980362982
  - # 9
    frequency:     2.7056077992
  - # 10
    frequency:     3.8951012090
  - # 11
    frequency:     3.8951812865
  - # 12
    frequency:     3.8951812865

- q-position: [    0.0520833,    0.0312500,    0.0104167 ]
  weight: 48   
  band:
  - # 1
    frequency:     0.2212724731
  - # 2
    frequency:     0.2555762965
  - # 3
    frequency:     0.4476600500
  - # 4
    frequency:     2.6851426476
  - # 5
    frequency:     2.6860998228
  - # 6
    frequency:     2.6885734054
  - # 7
    frequency:     2.6921903130
  - # 8
    frequency:     2.7018371378
  - # 9
    frequency:     2.7113110918
  - # 10
    frequency:     3.8889226439
  - # 11
    frequency:     3.8890563463
  - # 12
    frequency:     3.8891364521

- q-position: [    0.0729167,    0.0312500,    0.0104167 ]
  weight: 48   
  band:
  - # 1
    frequency:     0.3017901313
  - # 2
    frequency:     0.3335417101
  - # 3
    frequency:     0.5714763009
  - # 4
    frequency:     2.6773661279
  - # 5
    frequency:     2.6790480512
  - # 6
    frequency:     2.6834304010
  - # 7
    frequency:     2.6837860218
  - # 8
    frequency:     2.7073685496
  - # 9
    frequency:     2.7181446698
  - # 10
    frequency:     3.8796990200
  - # 11
    frequency:     3.8799130175
  - # 12
    frequency:     3.8800476213

- q-position: [    0.0937500,    0.0312500,    0.0104167 ]
  weight: 48   
  band:
  - # 1
    frequency:     0.3869944417
  - # 2
    frequency:     0.4149745692
  - # 3
    frequency:     0.7004702042
  - # 4
    frequency:     2.6657368012
  - # 5
    frequency:     2.6717674090
  - # 6
    frequency:     2.6719862928
  - # 7
    frequency:     2.6775725035
  - # 8
    frequency:     2.7147113167
  - # 9
    frequency:     2.7263296182
  - # 10
    frequency:     3.8674831271
  - # 11
    frequency:     3.8678039183
  - # 12
    frequency:     3.8678893424

- q-position: [    0.1145833,    0.0312500,    0.0104167 ]
  weight: 48   
  band:
  - # 1
    frequency:     0.4734036437
  - # 2
    frequency:     0.4979189463
  - # 3
    frequency:     0.8319605888
  - # 4
    frequency:     2.6512251748
  - # 5
    frequency:     2.6572157467
  - # 6
    frequency:     2.6638984969
  - # 7
    frequency:     2.6700076054
  - # 8
    frequency:     2.7239045187
  - # 9
    frequency:     2.7360392151
  - # 10
    frequency:     3.8523448875
  - # 11
    frequency:     3.8526284096
  - # 12
    frequency:     3.8527987390

- q-position: [    0.1354167,    0.0312500,    0.0104167 ]
  weight: 48   
  band:
  - # 1
    frequency:     0.5598527989
  - # 2
    frequency:     0.5814570214
  - # 3
    frequency:     0.9644011094
  - # 4
    frequency:     2.6338478650
  - # 5
    frequency:     2.6397933434
  - # 6
    frequency:     2.6547984947
  - # 7
    frequency:     2.6612007683
  - # 8
    frequency:     2.7349763553
  - # 9
    frequency:     2.7473979706
  - # 10
    frequency:     3.8342244728
  - # 11
    frequency:     3.8343709565
  - # 12
    frequency:     3.8349838410

- q-position: [    0.1562500,    0.0312500,    0.0104167 ]
  weight: 48   
  band:
  - # 1
    frequency:     0.6458791123
  - # 2
    frequency:     0.6650829900
  - # 3
    frequency:     1.0967991051
  - # 4
    frequency:     2.6136247412
  - # 5
    frequency:     2.6195215950
  - # 6
    frequency:     2.6447567897
  - # 7
    frequency:     2.6512862750
  - # 8
    frequency:     2.7479509904
  - # 9
    frequency:     2.7604946505
  - # 10
    frequency:     3.8126307777
  - # 11
    frequency:     3.8136642216
  - # 12
    frequency:     3.8144617530

- q-position: [    0.1770833,    0.0312500,    0.0104167 ]
  weight: 48   
  band:
  - # 1
    frequency:     0.7312563717
  - # 2
    frequency:     0.7484774949
  - # 3
    frequency:     1.2284616895
  - # 4
    frequency:     2.5905788885
  - # 5
    frequency:     2.5964253035
  - # 6
    frequency:     2.6338863808
  - # 7
    frequency:     2.6404190019
  - # 8
    frequency:     2.7628493008
  - # 9
    frequency:     2.7753929409
  - # 10
    frequency:     3.7877950271
  - # 11
    frequency:     3.7903431999
  - # 12
    frequency:     3.7913505650

- q-position: [    0.1979167,    0.0312500,    0.0104167 ]
  weight: 48   
  band:
  - # 1
    frequency:     0.8158453810
  - # 2
    frequency:     0.8314148628
  - # 3
    frequency:     1.3588706066
  - # 4
    frequency:     2.5647365660
  - # 5
    frequency:     2.5705326091
  - # 6
    frequency:     2.6223321926
  - # 7
    frequency:     2.6287715478
  - # 8
    frequency:     2.7796878012
  - # 9
    frequency:     2.7921380500
  - # 10
    frequency:     3.7596603457
  - # 11
    frequency:     3.7645413322
  - # 12
    frequency:     3.7657832180

- q-position: [    0.2187500,    0.0312500,    0.0104167 ]
  weight: 48   
  band:
  - # 1
    frequency:     0.8995410686
  - # 2
    frequency:     0.9137206298
  - # 3
    frequency:     1.4876160773
  - # 4
    frequency:     2.5361271607
  - # 5
    frequency:     2.5418749166
  - # 6
    frequency:     2.6102632836
  - # 7
    frequency:     2.6165315997
  - # 8
    frequency:     2.7984769446
  - # 9
    frequency:     2.8107601404
  - # 10
    frequency:     3.7281663357
  - # 11
    frequency:     3.7364061732
  - # 12
    frequency:     3.7379066897

- q-position: [    0.2395833,    0.0312500,    0.0104167 ]
  weight: 48   
  band:
  - # 1
    frequency:     0.9822523595
  - # 2
    frequency:     0.9952503517
  - # 3
    frequency:     1.6143600413
  - # 4
    frequency:     2.5047831369
  - # 5
    frequency:     2.5104868157
  - # 6
    frequency:     2.5978667921
  - # 7
    frequency:     2.6038991784
  - # 8
    frequency:     2.8192192215
  - # 9
    frequency:     2.8312756957
  - # 10
    frequency:     3.6932502055
  - # 11
    frequency:     3.7060984772
  - # 12
    frequency:     3.7078810745

- q-position: [    0.2604167,    0.0312500,    0.0104167 ]
  weight: 48   
  band:
  - # 1
    frequency:     1.0638941202
  - # 2
    frequency:     1.0758782805
  - # 3
    frequency:     1.7388149095
  - # 4
    frequency:     2.4707399828
  - # 5
    frequency:     2.4764059981
  - # 6
    frequency:     2.5853428465
  - # 7
    frequency:     2.5910836431
  - # 8
    frequency:     2.8419072540
  - # 9
    frequency:     2.8536876675
  - # 10
    frequency:     3.6548479543
  - # 11
    frequency:     3.6737911791
  - # 12
    frequency:     3.6758785584

- q-position: [    0.2812500,    0.0312500,    0.0104167 ]
  weight: 48   
  band:
  - # 1
    frequency:     1.1443838580
  - # 2
    frequency:     1.1554909684
  - # 3
    frequency:     1.8607308716
  - # 4
    frequency:     2.4340361542
  - # 5
    frequency:     2.4396731705
  - # 6
    frequency:     2.5728999536
  - # 7
    frequency:     2.5783004150
  - # 8
    frequency:     2.8665219984
  - # 9
    frequency:     2.8779849706
  - # 10
    frequency:     3.6128955978
  - # 11
    frequency:     3.6396682716
  - # 12
    frequency:     3.6420822890

- q-position: [    0.3020833,    0.0312500,    0.0104167 ]
  weight: 48   
  band:
  - # 1
    frequency:     1.2236403870
  - # 2
    frequency:     1.2339834893
  - # 3
    frequency:     1.9798881012
  - # 4
    frequency:     2.3947130149
  - # 5
    frequency:     2.4003319655
  - # 6
    frequency:     2.5607505799
  - # 7
    frequency:     2.5657674256
  - # 8
    frequency:     2.8930311406
  - # 9
    frequency:     2.9041416942
  - # 10
    frequency:     3.5673304166
  - # 11
    frequency:     3.6039235805
  - # 12
    frequency:     3.6066851428

- q-position: [    0.3229167,    0.0312500,    0.0104167 ]
  weight: 48   
  band:
  - # 1
    frequency:     1.3015833387
  - # 2
    frequency:     1.3112571241
  - # 3
    frequency:     2.0960918497
  - # 4
    frequency:     2.3528147752
  - # 5
    frequency:     2.3584288503
  - # 6
    frequency:     2.5491067822
  - # 7
    frequency:     2.5537013183
  - # 8
    frequency:     2.9213877409
  - # 9
    frequency:     2.9321162665
  - # 10
    frequency:     3.5180922118
  - # 11
    frequency:     3.5667594422
  - # 12
    frequency:     3.5698883942

- q-position: [    0.3437500,    0.0312500,    0.0104167 ]
  weight: 48   
  band:
  - # 1
    frequency:     1.3781330410
  - # 2
    frequency:     1.3872179030
  - # 3
    frequency:     2.2091692847
  - # 4
    frequency:     2.3083884271
  - # 5
    frequency:     2.3140130355
  - # 6
    frequency:     2.5381758346
  - # 7
    frequency:     2.5423134579
  - # 8
    frequency:     2.9515291686
  - # 9
    frequency:     2.9618507204
  - # 10
    frequency:     3.4651245539
  - # 11
    frequency:     3.5283852945
  - # 12
    frequency:     3.5319002947

- q-position: [    0.3645833,    0.0312500,    0.0104167 ]
  weight: 48   
  band:
  - # 1
    frequency:     1.4532105592
  - # 2
    frequency:     1.4617756669
  - # 3
    frequency:     2.2614836755
  - # 4
    frequency:     2.2671363855
  - # 5
    frequency:     2.3189673998
  - # 6
    frequency:     2.5281558624
  - # 7
    frequency:     2.5318058220
  - # 8
    frequency:     2.9833763443
  - # 9
    frequency:     2.9932701417
  - # 10
    frequency:     3.4083760093
  - # 11
    frequency:     3.4890161986
  - # 12
    frequency:     3.4929345805

- q-position: [    0.3854167,    0.0312500,    0.0104167 ]
  weight: 48   
  band:
  - # 1
    frequency:     1.5267378043
  - # 2
    frequency:     1.5348434552
  - # 3
    frequency:     2.2121528657
  - # 4
    frequency:     2.2178533303
  - # 5
    frequency:     2.4253515853
  - # 6
    frequency:     2.5192315409
  - # 7
    frequency:     2.5223668721
  - # 8
    frequency:     3.0168332742
  - # 9
    frequency:     3.0262823221
  - # 10
    frequency:     3.3478013342
  - # 11
    frequency:     3.4488713360
  - # 12
    frequency:     3.4532089466

- q-position: [    0.4062500,    0.0312500,    0.0104167 ]
  weight: 48   
  band:
  - # 1
    frequency:     1.5986376697
  - # 2
    frequency:     1.6063371033
  - # 3
    frequency:     2.1604509051
  - # 4
    frequency:     2.1662207829
  - # 5
    frequency:     2.5115699482
  - # 6
    frequency:     2.5141675159
  - # 7
    frequency:     2.5282046050
  - # 8
    frequency:     3.0517867909
  - # 9
    frequency:     3.0607775411
  - # 10
    frequency:     3.2833626223
  - # 11
    frequency:     3.4081725967
  - # 12
    frequency:     3.4129435834

- q-position: [    0.4270833,    0.0312500,    0.0104167 ]
  weight: 48   
  band:
  - # 1
    frequency:     1.6688341744
  - # 2
    frequency:     1.6761749780
  - # 3
    frequency:     2.1064351781
  - # 4
    frequency:     2.1122980625
  - # 5
    frequency:     2.5053166833
  - # 6
    frequency:     2.5073572897
  - # 7
    frequency:     2.6274258147
  - # 8
    frequency:     3.0881062105
  - # 9
    frequency:     3.0966281334
  - # 10
    frequency:     3.2150303984
  - # 11
    frequency:     3.3671436175
  - # 12
    frequency:     3.3723600698

- q-position: [    0.4479167,    0.0312500,    0.0104167 ]
  weight: 48   
  band:
  - # 1
    frequency:     1.7372526087
  - # 2
    frequency:     1.7442778072
  - # 3
    frequency:     2.0501654545
  - # 4
    frequency:     2.0561468254
  - # 5
    frequency:     2.5005923753
  - # 6
    frequency:     2.5020608947
  - # 7
    frequency:     2.7229305156
  - # 8
    frequency:     3.1256417380
  - # 9
    frequency:     3.1336863253
  - # 10
    frequency:     3.1427846505
  - # 11
    frequency:     3.3260107982
  - # 12
    frequency:     3.3316817846

- q-position: [    0.4687500,    0.0312500,    0.0104167 ]
  weight: 48   
  band:
  - # 1
    frequency:     1.8038196758
  - # 2
    frequency:     1.8105685723
  - # 3
    frequency:     1.9917037891
  - # 4
    frequency:     1.9978310048
  - # 5
    frequency:     2.4974897080
  - # 6
    frequency:     2.4983752217
  - # 7
    frequency:     2.8146493702
  - # 8
    frequency:     3.0666157937
  - # 9
    frequency:     3.1642146814
  - # 10
    frequency:     3.1717703189
  - # 11
    frequency:     3.2850163106
  - # 12
    frequency:     3.2911427678

- q-position: [    0.4895833,    0.0312500,    0.0104167 ]
  weight: 48   
  band:
  - # 1
    frequency:     1.8684636308
  - # 2
    frequency:     1.8749724461
  - # 3
    frequency:     1.9311144154
  - # 4
    frequency:     1.9374167616
  - # 5
    frequency:     2.4960710785
  - # 6
    frequency:     2.4963669859
  - # 7
    frequency:     2.9025278329
  - # 8
    frequency:     2.9865255627
  - # 9
    frequency:     3.2034998189
  - # 10
    frequency:     3.2104413705
  - # 11
    frequency:     3.2446403516
  - # 12
    frequency:     3.2511046731

- q-position: [    0.0520833,    0.0520833,    0.0104167 ]
  weight: 24   
  band:
  - # 1
    frequency:     0.2544642161
  - # 2
    frequency:     0.3097588495
  - # 3
    frequency:     0.5447758688
  - # 4
    frequency:     2.6774415234
  - # 5
    frequency:     2.6827187768
  - # 6
    frequency:     2.6827187768
  - # 7
    frequency:     2.6959989834
  - # 8
    frequency:     2.6959989834
  - # 9
    frequency:     2.7194285847
  - # 10
    frequency:     3.8827581964
  - # 11
    frequency:     3.8831326317
  - # 12
    frequency:     3.8831326317

- q-position: [    0.0729167,    0.0520833,    0.0104167 ]
  weight: 48   
  band:
  - # 1
    frequency:     0.3147539753
  - # 2
    frequency:     0.3765605633
  - # 3
    frequency:     0.6555788938
  - # 4
    frequency:     2.6690850906
  - # 5
    frequency:     2.6739454080
  - # 6
    frequency:     2.6778834410
  - # 7
    frequency:     2.6872513838
  - # 8
    frequency:     2.7015492186
  - # 9
    frequency:     2.7284840728
  - # 10
    frequency:     3.8735555483
  - # 11
    frequency:     3.8741704638
  - # 12
    frequency:     3.8742246729

- q-position: [    0.0937500,    0.0520833,    0.0104167 ]
  weight: 48   
  band:
  - # 1
    frequency:     0.3892408885
  - # 2
    frequency:     0.4501590130
  - # 3
    frequency:     0.7738217571
  - # 4
    frequency:     2.6600972519
  - # 5
    frequency:     2.6622635772
  - # 6
    frequency:     2.6716021654
  - # 7
    frequency:     2.6756058310
  - # 8
    frequency:     2.7089190750
  - # 9
    frequency:     2.7385412995
  - # 10
    frequency:     3.8613672512
  - # 11
    frequency:     3.8623019425
  - # 12
    frequency:     3.8623060810

- q-position: [    0.1145833,    0.0520833,    0.0104167 ]
  weight: 48   
  band:
  - # 1
    frequency:     0.4701532825
  - # 2
    frequency:     0.5274739734
  - # 3
    frequency:     0.8963721636
  - # 4
    frequency:     2.6476869703
  - # 5
    frequency:     2.6504461836
  - # 6
    frequency:     2.6610775407
  - # 7
    frequency:     2.6639497506
  - # 8
    frequency:     2.7181460750
  - # 9
    frequency:     2.7497460486
  - # 10
    frequency:     3.8462629131
  - # 11
    frequency:     3.8473424535
  - # 12
    frequency:     3.8475959237

- q-position: [    0.1354167,    0.0520833,    0.0104167 ]
  weight: 48   
  band:
  - # 1
    frequency:     0.5537964475