  32  32   0   0
  0.1455556E+02  0.7751628E-09  0.7751628E-09  0.7751628E-09  0.5000000E-15
  1.000000000000000E-004
  CAR 
 unknown system                          
     14.24010188     -3.46215527  301      9.34397408      1.00000000
     -3.462  0.0000E+00  0.0000E+00
     -3.403  0.0000E+00  0.0000E+00
     -3.344  0.0000E+00  0.0000E+00
     -3.285  0.0000E+00  0.0000E+00
     -3.226  0.0000E+00  0.0000E+00
     -3.167  0.0000E+00  0.0000E+00
     -3.108  0.0000E+00  0.0000E+00
     -3.049  0.0000E+00  0.0000E+00
     -2.990  0.0000E+00  0.0000E+00
     -2.931  0.0000E+00  0.0000E+00
     -2.872  0.0000E+00  0.0000E+00
     -2.813  0.0000E+00  0.0000E+00
     -2.754  0.0000E+00  0.0000E+00
     -2.695  0.8582E-08  0.5064E-09
     -2.636  0.1567E+00  0.9248E-02
     -2.577  0.9006E+00  0.6240E-01
     -2.518  0.1269E+01  0.1373E+00
     -2.459  0.8791E+00  0.1892E+00
     -2.400  0.1043E+01  0.2507E+00
     -2.341  0.9301E+00  0.3056E+00
     -2.282  0.3765E+01  0.5278E+00
     -2.223  0.3765E+01  0.7500E+00
     -2.164  0.1186E-12  0.7500E+00
     -2.105  0.1553E+01  0.8417E+00
     -2.046  0.2045E+01  0.9623E+00
     -1.987  0.3194E+01  0.1151E+01
     -1.928  0.3572E+01  0.1362E+01
     -1.869  0.3758E+01  0.1583E+01
     -1.810  0.1255E+01  0.1657E+01
     -1.751  0.3759E+01  0.1879E+01
     -1.692  0.7171E+01  0.2302E+01
     -1.633  0.3677E+00  0.2324E+01
     -1.574  0.1911E+00  0.2335E+01
     -1.515  0.8989E+00  0.2388E+01
     -1.456  0.7387E+01  0.2824E+01
     -1.397  0.5646E+01  0.3157E+01
     -1.338  0.3766E+01  0.3380E+01
     -1.279  0.3746E+01  0.3601E+01
     -1.220  0.6893E+01  0.4007E+01
     -1.161  0.2775E+01  0.4171E+01
     -1.102  0.1650E+01  0.4269E+01
     -1.043  0.5196E-01  0.4272E+01
     -0.984  0.3715E+01  0.4491E+01
     -0.925  0.4706E+01  0.4769E+01
     -0.866  0.1130E+02  0.5435E+01
     -0.807  0.4984E+01  0.5729E+01
     -0.748  0.3746E-01  0.5731E+01
     -0.689  0.6343E+01  0.6106E+01
     -0.630  0.6149E+01  0.6469E+01
     -0.571  0.6338E+01  0.6843E+01
     -0.512  0.7871E-03  0.6843E+01
     -0.453  0.1882E+01  0.6954E+01
     -0.394  0.7531E+01  0.7398E+01
     -0.335  0.7502E+01  0.7841E+01
     -0.276  0.7067E+01  0.8258E+01
     -0.217  0.3580E+01  0.8469E+01
     -0.158  0.2551E+01  0.8620E+01
     -0.099  0.3217E+01  0.8809E+01
     -0.040  0.1092E+02  0.9454E+01
      0.019  0.1448E-03  0.9454E+01
      0.078  0.3766E+01  0.9676E+01
      0.137  0.1505E+02  0.1056E+02
      0.196  0.7371E+01  0.1100E+02
      0.255  0.3237E+01  0.1119E+02
      0.314  0.2351E+01  0.1133E+02
      0.373  0.3355E+01  0.1153E+02
      0.432  0.1014E+02  0.1213E+02
      0.491  0.7447E+01  0.1256E+02
      0.550  0.3671E-05  0.1256E+02
      0.609  0.1255E+01  0.1264E+02
      0.668  0.8446E+01  0.1314E+02
      0.727  0.1260E+02  0.1388E+02
      0.786  0.6169E+01  0.1425E+02
      0.845  0.3267E+01  0.1444E+02
      0.904  0.3363E+01  0.1464E+02
      0.963  0.1052E+02  0.1526E+02
      1.022  0.1495E+02  0.1614E+02
      1.081  0.2822E-04  0.1614E+02
      1.140  0.7531E+01  0.1658E+02
      1.199  0.7509E+01  0.1703E+02
      1.258  0.3643E+01  0.1724E+02
      1.317  0.8720E+01  0.1776E+02
      1.376  0.2724E+01  0.1792E+02
      1.435  0.1099E+01  0.1798E+02
      1.494  0.1038E+02  0.1859E+02
      1.553  0.1488E+02  0.1947E+02
      1.612  0.2418E-04  0.1947E+02
      1.671  0.9415E+00  0.1953E+02
      1.731  0.1505E+02  0.2042E+02
      1.790  0.1481E+02  0.2129E+02
      1.849  0.3545E+01  0.2150E+02
      1.908  0.5014E+01  0.2179E+02
      1.967  0.6877E+01  0.2220E+02
      2.026  0.1150E+02  0.2288E+02
      2.085  0.7223E+01  0.2331E+02
      2.144  0.2113E-02  0.2331E+02
      2.203  0.5647E+01  0.2364E+02
      2.262  0.7531E+01  0.2408E+02
      2.321  0.1879E+02  0.2519E+02
      2.380  0.8518E+01  0.2570E+02
      2.439  0.3399E+01  0.2590E+02
      2.498  0.9386E+01  0.2645E+02
      2.557  0.7875E+01  0.2691E+02
      2.616  0.6004E+01  0.2727E+02
      2.675  0.2526E-01  0.2727E+02
      2.734  0.3752E+01  0.2749E+02
      2.793  0.1600E+02  0.2844E+02
      2.852  0.7531E+01  0.2888E+02
      2.911  0.1129E+02  0.2955E+02
      2.970  0.7454E+01  0.2999E+02
      3.029  0.7099E+01  0.3040E+02
      3.088  0.1521E+02  0.3130E+02
      3.147  0.4135E+01  0.3155E+02
      3.206  0.9119E+00  0.3160E+02
      3.265  0.3827E+01  0.3183E+02
      3.324  0.2179E+02  0.3311E+02
      3.383  0.1868E+02  0.3421E+02
      3.442  0.7518E+01  0.3466E+02
      3.501  0.1527E-05  0.3466E+02
      3.560  0.7527E+01  0.3510E+02
      3.619  0.1502E+02  0.3599E+02
      3.678  0.4378E-01  0.3599E+02
      3.737  0.3450E+01  0.3619E+02
      3.796  0.6560E+01  0.3658E+02
      3.855  0.7457E+01  0.3702E+02
      3.914  0.1498E+02  0.3791E+02
      3.973  0.7614E+01  0.3835E+02
      4.032  0.7938E+01  0.3882E+02
      4.091  0.2289E+02  0.4017E+02
      4.150  0.7253E+01  0.4060E+02
      4.209  0.6240E-02  0.4060E+02
      4.268  0.1161E+02  0.4129E+02
      4.327  0.1537E+02  0.4219E+02
      4.386  0.1171E+02  0.4289E+02
      4.445  0.1386E+02  0.4370E+02
      4.504  0.4538E+01  0.4397E+02
      4.563  0.1110E+02  0.4463E+02
      4.622  0.9715E+01  0.4520E+02
      4.681  0.9332E+01  0.4575E+02
      4.740  0.7834E-04  0.4575E+02
      4.799  0.7894E+01  0.4622E+02
      4.858  0.1156E+02  0.4690E+02
      4.917  0.8857E+01  0.4742E+02
      4.976  0.9977E+01  0.4801E+02
      5.035  0.3772E+01  0.4823E+02
      5.094  0.1880E+02  0.4934E+02
      5.153  0.1795E+02  0.5040E+02
      5.212  0.3590E+01  0.5061E+02
      5.271  0.9535E+01  0.5118E+02
      5.330  0.1166E+02  0.5186E+02
      5.389  0.7605E+01  0.5231E+02
      5.448  0.7085E+01  0.5273E+02
      5.507  0.2015E+01  0.5285E+02
      5.566  0.1638E+02  0.5382E+02
      5.625  0.1045E+02  0.5443E+02
      5.684  0.8201E+01  0.5492E+02
      5.743  0.1199E+02  0.5562E+02
      5.802  0.1463E+02  0.5649E+02
      5.861  0.9796E+01  0.5707E+02
      5.920  0.1884E+02  0.5818E+02
      5.979  0.1730E+02  0.5920E+02
      6.038  0.1507E+01  0.5929E+02
      6.097  0.1130E+02  0.5995E+02
      6.156  0.4428E+00  0.5998E+02
      6.215  0.9223E+01  0.6052E+02
      6.274  0.1600E+02  0.6147E+02
      6.333  0.1612E+02  0.6242E+02
      6.392  0.1241E+02  0.6315E+02
      6.451  0.4691E+01  0.6343E+02
      6.510  0.2601E+02  0.6496E+02
      6.569  0.3235E+01  0.6515E+02
      6.628  0.6630E+01  0.6555E+02
      6.687  0.1448E+02  0.6640E+02
      6.746  0.6925E+01  0.6681E+02
      6.805  0.7297E+01  0.6724E+02
      6.864  0.1263E+02  0.6798E+02
      6.923  0.1890E+02  0.6910E+02
      6.982  0.9438E+01  0.6966E+02
      7.041  0.7774E+01  0.7012E+02
      7.100  0.4641E+01  0.7039E+02
      7.159  0.9385E+01  0.7094E+02
      7.218  0.1934E+02  0.7208E+02
      7.277  0.5159E+01  0.7239E+02
      7.336  0.1845E+01  0.7250E+02
      7.395  0.2447E+02  0.7394E+02
      7.454  0.1603E+02  0.7489E+02
      7.513  0.1782E+02  0.7594E+02
      7.572  0.6347E+01  0.7631E+02
      7.631  0.1269E+01  0.7639E+02
      7.690  0.3765E+01  0.7661E+02
      7.749  0.1194E+02  0.7732E+02
      7.808  0.9192E+01  0.7786E+02
      7.867  0.9633E+01  0.7843E+02
      7.926  0.1852E+02  0.7952E+02
      7.985  0.1427E+02  0.8036E+02
      8.044  0.1034E+02  0.8097E+02
      8.103  0.4508E+01  0.8124E+02
      8.162  0.1823E+02  0.8231E+02
      8.221  0.1150E+02  0.8299E+02
      8.280  0.1635E+02  0.8396E+02
      8.339  0.1451E+02  0.8481E+02
      8.398  0.5264E+01  0.8512E+02
      8.457  0.1233E+02  0.8585E+02
      8.516  0.6088E+01  0.8621E+02
      8.575  0.1247E+02  0.8695E+02
      8.634  0.1923E+02  0.8808E+02
      8.693  0.1318E+02  0.8886E+02
      8.752  0.8432E+01  0.8936E+02
      8.811  0.3858E+01  0.8958E+02
      8.870  0.3765E+01  0.8981E+02
      8.929  0.3728E+01  0.9003E+02
      8.988  0.2288E+02  0.9138E+02
      9.047  0.1104E+02  0.9203E+02
      9.106  0.9861E+01  0.9261E+02
      9.165  0.1544E+02  0.9352E+02
      9.224  0.1834E+02  0.9460E+02
      9.283  0.1661E+02  0.9558E+02
      9.342  0.6511E+01  0.9597E+02
      9.401  0.1703E+02  0.9697E+02
      9.460  0.1130E+02  0.9764E+02
      9.519  0.1017E+02  0.9824E+02
      9.579  0.1529E+02  0.9914E+02
      9.638  0.4639E+01  0.9942E+02
      9.697  0.8967E+01  0.9995E+02
      9.756  0.1336E+02  0.1007E+03
      9.815  0.5963E+00  0.1008E+03
      9.874  0.1190E+02  0.1015E+03
      9.933  0.1656E+02  0.1024E+03
      9.992  0.1206E+02  0.1032E+03
     10.051  0.1754E+02  0.1042E+03
     10.110  0.6643E+01  0.1046E+03
     10.169  0.1978E+02  0.1058E+03
     10.228  0.3064E+01  0.1059E+03
     10.287  0.7517E+01  0.1064E+03
     10.346  0.2262E+02  0.1077E+03
     10.405  0.1325E+02  0.1085E+03
     10.464  0.2283E+02  0.1098E+03
     10.523  0.4384E+01  0.1101E+03
     10.582  0.2271E+02  0.1114E+03
     10.641  0.1884E+02  0.1126E+03
     10.700  0.9280E+01  0.1131E+03
     10.759  0.1480E+02  0.1140E+03
     10.818  0.1491E+01  0.1141E+03
     10.877  0.8116E+01  0.1145E+03
     10.936  0.2078E+02  0.1158E+03
     10.995  0.6947E+01  0.1162E+03
     11.054  0.7271E+01  0.1166E+03
     11.113  0.8415E+01  0.1171E+03
     11.172  0.7356E+01  0.1175E+03
     11.231  0.2938E+02  0.1193E+03
     11.290  0.2506E+01  0.1194E+03
     11.349  0.1103E+02  0.1201E+03
     11.408  0.1811E+02  0.1211E+03
     11.467  0.2243E+02  0.1225E+03
     11.526  0.4239E+01  0.1227E+03
     11.585  0.1724E+02  0.1237E+03
     11.644  0.1005E+02  0.1243E+03
     11.703  0.2449E+02  0.1258E+03
     11.762  0.1015E+02  0.1264E+03
     11.821  0.2187E+01  0.1265E+03
     11.880  0.2023E+01  0.1266E+03
     11.939  0.2258E+02  0.1279E+03
     11.998  0.2629E+01  0.1281E+03
     12.057  0.2256E+02  0.1294E+03
     12.116  0.6635E+00  0.1295E+03
     12.175  0.2419E+02  0.1309E+03
     12.234  0.1325E+02  0.1317E+03
     12.293  0.9919E+01  0.1323E+03
     12.352  0.1691E+02  0.1333E+03
     12.411  0.2290E+02  0.1346E+03
     12.470  0.1171E+02  0.1353E+03
     12.529  0.9197E+01  0.1359E+03
     12.588  0.1758E+02  0.1369E+03
     12.647  0.1886E+02  0.1380E+03
     12.706  0.1384E+01  0.1381E+03
     12.765  0.1487E+02  0.1390E+03
     12.824  0.8604E+01  0.1395E+03
     12.883  0.6414E+01  0.1398E+03
     12.942  0.1891E+02  0.1410E+03
     13.001  0.1272E+00  0.1410E+03
     13.060  0.1658E+02  0.1419E+03
     13.119  0.7878E+01  0.1424E+03
     13.178  0.1366E+02  0.1432E+03
     13.237  0.1705E+01  0.1433E+03
     13.296  0.1789E+01  0.1434E+03
     13.355  0.4625E+01  0.1437E+03
     13.414  0.2922E+01  0.1439E+03
     13.473  0.2181E+01  0.1440E+03
     13.532  0.0000E+00  0.1440E+03
     13.591  0.0000E+00  0.1440E+03
     13.650  0.0000E+00  0.1440E+03
     13.709  0.0000E+00  0.1440E+03
     13.768  0.0000E+00  0.1440E+03
     13.827  0.0000E+00  0.1440E+03
     13.886  0.0000E+00  0.1440E+03
     13.945  0.0000E+00  0.1440E+03
     14.004  0.0000E+00  0.1440E+03
     14.063  0.0000E+00  0.1440E+03
     14.122  0.0000E+00  0.1440E+03
     14.181  0.0000E+00  0.1440E+03
     14.240  0.0000E+00  0.1440E+03
