   32   32    1    1
  0.1455556E+02  0.7751628E-09  0.7751628E-09  0.7751628E-09  0.5000000E-15
  1.000000000000000E-004
  CAR 
 unknown system                          
   96   40   72
 
  0.0000000E+00  0.0000000E+00  0.0000000E+00  0.4629630E-02
   1       -2.6575
   2       -0.2238
   3       -0.2197
   4       -0.2197
   5       -0.2197
   6       -0.2197
   7       -0.2157
   8        2.1633
   9        2.1677
  10        2.1677
  11        2.1697
  12        2.1698
  13        2.1698
  14        2.1698
  15        2.1698
  16        2.1700
  17        2.1719
  18        2.1719
  19        2.1763
  20        4.2680
  21        4.2680
  22        4.2680
  23        4.2680
  24        4.8143
  25        4.8143
  26        4.8144
  27        4.8144
  28        6.1450
  29        6.1450
  30        6.1451
  31        7.7202
  32        7.7203
  33        7.7203
  34        8.3622
  35        8.3622
  36        8.3669
  37        8.3669
  38        8.3671
  39        8.3671
  40        8.3671
  41        8.3672
  42        8.3673
  43        8.3673
  44        8.3720
  45        8.3720
  46        9.3039
  47        9.3085
  48        9.3086
  49        9.3086
  50        9.3086
  51        9.3131
  52       10.5987
  53       10.5987
  54       10.6000
  55       10.6028
  56       10.6029
  57       10.6029
  58       10.6029
  59       10.6030
  60       10.6031
  61       10.6059
  62       10.6072
  63       10.6072
  64       11.2146
  65       11.2159
  66       11.2159
  67       11.2159
  68       11.2159
  69       11.2173
  70       12.5121
  71       12.5150
  72       12.5153
 
  0.1666667E+00  0.0000000E+00  0.0000000E+00  0.9259259E-02
   1       -2.5892
   2       -0.9594
   3       -0.1528
   4       -0.1527
   5       -0.1527
   6       -0.1527
   7        0.6483
   8        1.4449
   9        1.4449
  10        1.4449
  11        1.4449
  12        2.2354
  13        2.2354
  14        2.2354
  15        2.2354
  16        3.0200
  17        3.0200
  18        3.0200
  19        3.0200
  20        3.7777
  21        3.7777
  22        3.7777
  23        3.7777
  24        5.2541
  25        5.4296
  26        5.4296
  27        5.4296
  28        5.4296
  29        6.2066
  30        6.2066
  31        7.4880
  32        7.4880
  33        7.4880
  34        7.4880
  35        7.6869
  36        7.6869
  37        7.7832
  38        7.7832
  39        8.4291
  40        8.4291
  41        8.4291
  42        8.4291
  43        8.7261
  44        9.0866
  45        9.0866
  46        9.1720
  47        9.1720
  48        9.8244
  49        9.8245
  50        9.8245
  51        9.8245
  52        9.8750
  53        9.8750
  54        9.8750
  55        9.8752
  56        9.9189
  57        9.9189
  58        9.9191
  59        9.9191
  60       11.4120
  61       11.4120
  62       11.4120
  63       11.4120
  64       11.5519
  65       11.5520
  66       11.7080
  67       11.7080
  68       11.7080
  69       11.7080
  70       11.8173
  71       11.8173
  72       11.8173
 
  0.3333333E+00  0.0000000E+00  0.0000000E+00  0.9259259E-02
   1       -2.3843
   2       -1.5680
   3        0.0481
   4        0.0481
   5        0.0481
   6        0.0481
   7        0.8483
   8        0.8483
   9        0.8483
  10        0.8483
  11        1.6411
  12        2.4319
  13        2.4319
  14        2.4319
  15        2.4319
  16        3.2107
  17        3.2107
  18        3.2107
  19        3.2107
  20        3.9723
  21        3.9910
  22        3.9910
  23        3.9910
  24        3.9910
  25        6.2572
  26        6.2572
  27        6.2573
  28        6.2573
  29        6.3699
  30        6.3699
  31        6.3700
  32        6.3700
  33        6.3915
  34        6.3915
  35        7.1312
  36        7.1312
  37        7.9697
  38        7.9697
  39        8.6110
  40        8.6110
  41        8.6120
  42        8.6124
  43        8.6151
  44        8.6156
  45        8.6166
  46        8.6166
  47        8.6667
  48        8.6668
  49        9.3598
  50        9.3598
  51        9.3598
  52        9.3598
  53       10.1017
  54       10.1017
  55       10.3412
  56       10.3412
  57       10.3412
  58       10.3412
  59       10.3524
  60       11.2297
  61       11.2297
  62       11.2297
  63       11.2297
  64       12.3096
  65       12.3096
  66       12.3302
  67       12.3302
  68       12.3462
  69       12.3462
  70       12.3463
  71       12.3463
  72       13.0090
 
  0.5000000E+00  0.0000000E+00  0.0000000E+00  0.4629630E-02
   1       -2.0450
   2       -2.0419
   3        0.3778
   4        0.3812
   5        0.3812
   6        0.3821
   7        0.3822
   8        0.3831
   9        0.3831
  10        0.3864
  11        2.7504
  12        2.7531
  13        2.7566
  14        2.7567
  15        2.7567
  16        2.7576
  17        2.7586
  18        2.7594
  19        2.7594
  20        2.7623
  21        5.0744
  22        5.0744
  23        5.0752
  24        5.0752
  25        5.0755
  26        5.0755
  27        5.0762
  28        5.0762
  29        6.6977
  30        6.6977
  31        6.7011
  32        6.7011
  33        7.4390
  34        7.4390
  35        7.4393
  36        7.4398
  37        7.4400
  38        7.4406
  39        7.4408
  40        7.4408
  41        8.2695
  42        8.2708
  43        8.2725
  44        8.2739
  45        8.9227
  46        8.9227
  47        8.9236
  48        8.9252
  49        8.9253
  50        8.9270
  51        8.9278
  52        8.9278
  53       10.7454
  54       10.7463
  55       10.7463
  56       10.7465
  57       10.7490
  58       10.7492
  59       10.7492
  60       10.7501
  61       11.1544
  62       11.1544
  63       11.1566
  64       11.1566
  65       12.1447
  66       12.1456
  67       13.2476
  68       13.2477
  69       13.2496
  70       13.2497
  71       13.4046
  72       13.4050
 
  0.0000000E+00  0.1666667E+00  0.0000000E+00  0.1851852E-01
   1       -2.5892
   2       -0.9594
   3       -0.1558
   4       -0.1527
   5       -0.1527
   6       -0.1497
   7        0.6483
   8        1.4418
   9        1.4449
  10        1.4449
  11        1.4480
  12        2.2333
  13        2.2341
  14        2.2367
  15        2.2375
  16        3.0168
  17        3.0200
  18        3.0200
  19        3.0231
  20        3.7756
  21        3.7764
  22        3.7789
  23        3.7797
  24        5.2540
  25        5.4275
  26        5.4283
  27        5.4308
  28        5.4316
  29        6.2066
  30        6.2066
  31        7.4846
  32        7.4880
  33        7.4880
  34        7.4914
  35        7.6869
  36        7.6870
  37        7.7831
  38        7.7832
  39        8.4262
  40        8.4291
  41        8.4291
  42        8.4320
  43        8.7261
  44        9.0866
  45        9.0866
  46        9.1720
  47        9.1720
  48        9.8219
  49        9.8232
  50        9.8258
  51        9.8271
  52        9.8720
  53        9.8750
  54        9.8750
  55        9.8780
  56        9.9160
  57        9.9189
  58        9.9190
  59        9.9220
  60       11.4089
  61       11.4120
  62       11.4120
  63       11.4150
  64       11.5520
  65       11.5520
  66       11.7065
  67       11.7080
  68       11.7080
  69       11.7095
  70       11.8151
  71       11.8173
  72       11.8180
 
  0.1666667E+00  0.1666667E+00  0.0000000E+00  0.3703704E-01
   1       -2.5208
   2       -0.8933
   3       -0.8907
   4       -0.0858
   5       -0.0857
   6        0.7130
   7        0.7151
   8        0.7170
   9        1.5092
  10        1.5102
  11        1.5118
  12        1.5128
  13        2.3003
  14        2.3011
  15        3.0801
  16        3.0806
  17        3.0836
  18        3.0842
  19        3.0858
  20        3.0870
  21        3.8630
  22        4.3932
  23        4.3932
  24        4.9461
  25        4.9461
  26        5.3168
  27        5.3176
  28        6.2440
  29        6.2441
  30        6.2682
  31        6.8171
  32        6.8197
  33        7.3720
  34        7.3720
  35        7.7473
  36        7.7502
  37        7.7937
  38        7.7938
  39        7.8449
  40        8.2183
  41        8.2206
  42        8.7862
  43        8.7871
  44        9.1324
  45        9.1334
  46        9.1350
  47        9.1361
  48        9.2321
  49        9.2347
  50        9.2374
  51        9.4949
  52        9.4967
  53        9.9348
  54        9.9377
  55       10.5591
  56       10.5592
  57       10.6370
  58       10.6379
  59       10.6386
  60       10.6396
  61       10.7261
  62       10.7279
  63       11.1230
  64       11.7500
  65       11.7507
  66       12.0165
  67       12.0165
  68       12.2220
  69       12.2727
  70       12.2749
  71       12.6186
  72       12.6203
 
  0.3333333E+00  0.1666667E+00  0.0000000E+00  0.3703704E-01
   1       -2.3160
   2       -1.5003
   3       -0.6899
   4        0.1136
   5        0.1150
   6        0.1166
   7        0.9130
   8        0.9147
   9        0.9160
  10        1.7057
  11        1.7086
  12        1.7090
  13        1.7104
  14        2.4967
  15        2.4967
  16        3.2782
  17        3.2789
  18        3.2795
  19        4.0335
  20        4.0343
  21        4.0374
  22        4.0546
  23        4.0547
  24        4.8244
  25        5.5064
  26        5.5682
  27        5.6855
  28        5.6855
  29        6.2596
  30        6.3048
  31        6.3049
  32        6.4529
  33        7.0502
  34        7.1922
  35        7.1945
  36        7.1953
  37        7.8279
  38        7.8279
  39        7.9175
  40        7.9177
  41        7.9346
  42        8.0261
  43        8.5690
  44        8.5691
  45        8.5800
  46        8.6778
  47        8.9658
  48        9.4203
  49        9.4316
  50        9.4319
  51        9.5683
  52        9.6175
  53        9.7452
  54       10.1631
  55       10.1677
  56       10.4089
  57       10.5443
  58       10.9028
  59       11.2028
  60       11.2028
  61       11.5730
  62       11.5731
  63       11.5926
  64       11.6601
  65       12.0170
  66       12.1315
  67       12.1315
  68       12.3931
  69       12.4093
  70       12.5712
  71       13.1077
  72       13.1279
 
  0.5000000E+00  0.1666667E+00  0.0000000E+00  0.1851852E-01
   1       -1.9770
   2       -1.9739
   3       -0.3554
   4       -0.3523
   5        0.4467
   6        0.4479
   7        0.4498
   8        0.4510
   9        1.2443
  10        1.2474
  11        2.0359
  12        2.0372
  13        2.0391
  14        2.0403
  15        2.8179
  16        2.8189
  17        3.5971
  18        3.5985
  19        3.6003
  20        3.6016
  21        4.3721
  22        4.3732
  23        5.1347
  24        5.1355
  25        5.1357
  26        5.1365
  27        5.8195
  28        5.8227
  29        5.8939
  30        5.8949
  31        6.7434
  32        6.7440
  33        6.7448
  34        6.7449
  35        6.7596
  36        6.7630
  37        8.1288
  38        8.1301
  39        8.1322
  40        8.1334
  41        8.2423
  42        8.2457
  43        8.2624
  44        8.2627
  45        8.2635
  46        8.2640
  47        8.3070
  48        8.3100
  49        9.2518
  50        9.2550
  51        9.7297
  52        9.7332
  53       10.0841
  54       10.0872
  55       10.4666
  56       10.4682
  57       11.2169
  58       11.2191
  59       11.4863
  60       11.4897
  61       11.6442
  62       11.6450
  63       11.6476
  64       11.6484
  65       12.1934
  66       12.1942
  67       12.6238
  68       12.6238
  69       12.6256
  70       12.6256
  71       12.7169
  72       12.7193
 
  0.0000000E+00  0.3333333E+00  0.0000000E+00  0.1851852E-01
   1       -2.3843
   2       -1.5680
   3        0.0450
   4        0.0481
   5        0.0481
   6        0.0512
   7        0.8452
   8        0.8483
   9        0.8483
  10        0.8514
  11        1.6411
  12        2.4298
  13        2.4306
  14        2.4332
  15        2.4340
  16        3.2086
  17        3.2095
  18        3.2120
  19        3.2128
  20        3.9723
  21        3.9878
  22        3.9910
  23        3.9910
  24        3.9942
  25        6.2539
  26        6.2573
  27        6.2573
  28        6.2605
  29        6.3678
  30        6.3686
  31        6.3713
  32        6.3722
  33        6.3915
  34        6.3915
  35        7.1312
  36        7.1312
  37        7.9697
  38        7.9697
  39        8.6100
  40        8.6107
  41        8.6126
  42        8.6137
  43        8.6148
  44        8.6151
  45        8.6151
  46        8.6182
  47        8.6667
  48        8.6668
  49        9.3568
  50        9.3598
  51        9.3598
  52        9.3628
  53       10.1016
  54       10.1017
  55       10.3384
  56       10.3412
  57       10.3412
  58       10.3438
  59       10.3525
  60       11.2270
  61       11.2297
  62       11.2297
  63       11.2323
  64       12.3095
  65       12.3095
  66       12.3303
  67       12.3304
  68       12.3431
  69       12.3461
  70       12.3463
  71       12.3493
  72       13.0094
 
  0.1666667E+00  0.3333333E+00  0.0000000E+00  0.3703704E-01
   1       -2.3160
   2       -1.5003
   3       -0.6899
   4        0.1136
   5        0.1150
   6        0.1166
   7        0.9130
   8        0.9147
   9        0.9160
  10        1.7059
  11        1.7081
  12        1.7090
  13        1.7107
  14        2.4967
  15        2.4967
  16        3.2775
  17        3.2789
  18        3.2803
  19        4.0336
  20        4.0343
  21        4.0374
  22        4.0545
  23        4.0546
  24        4.8244
  25        5.5065
  26        5.5682
  27        5.6855
  28        5.6855
  29        6.2595
  30        6.3048
  31        6.3049
  32        6.4529
  33        7.0502
  34        7.1926
  35        7.1945
  36        7.1949
  37        7.8279
  38        7.8279
  39        7.9177
  40        7.9177
  41        7.9345
  42        8.0261
  43        8.5689
  44        8.5691
  45        8.5801
  46        8.6778
  47        8.9658
  48        9.4206
  49        9.4316
  50        9.4316
  51        9.5683
  52        9.6175
  53        9.7453
  54       10.1637
  55       10.1671
  56       10.4089
  57       10.5443
  58       10.9028
  59       11.2028
  60       11.2028
  61       11.5730
  62       11.5731
  63       11.5925
  64       11.6602
  65       12.0170
  66       12.1315
  67       12.1315
  68       12.3931
  69       12.4093
  70       12.5712
  71       13.1135
  72       13.1465
 
  0.3333333E+00  0.3333333E+00  0.0000000E+00  0.3703704E-01
   1       -2.1116
   2       -1.2985
   3       -1.2959
   4       -0.4882
   5        0.3154
   6        0.3154
   7        1.1120
   8        1.1130
   9        1.1147
  10        1.1156
  11        1.9031
  12        1.9054
  13        1.9066
  14        1.9076
  15        2.6917
  16        2.6925
  17        4.2292
  18        4.2300
  19        4.2417
  20        4.2425
  21        4.2442
  22        4.2453
  23        4.7689
  24        4.7689
  25        4.9962
  26        4.9988
  27        5.3379
  28        5.3379
  29        5.7713
  30        6.2675
  31        6.2675
  32        6.6378
  33        6.8316
  34        6.8316
  35        7.3498
  36        7.3509
  37        7.3524
  38        7.3537
  39        7.3769
  40        7.3798
  41        7.8803
  42        7.8827
  43        8.1204
  44        8.1435
  45        8.1436
  46        8.1812
  47        9.3046
  48        9.3059
  49        9.9780
  50       10.3493
  51       10.3524
  52       10.3700
  53       10.3711
  54       10.3716
  55       10.3725
  56       10.4486
  57       10.5727
  58       10.5739
  59       11.0469
  60       11.0497
  61       11.0980
  62       11.0998
  63       12.4283
  64       12.4284
  65       12.5787
  66       12.5798
  67       12.5813
  68       12.5832
  69       12.7758
  70       12.7765
  71       12.8724
  72       12.8731
 
  0.5000000E+00  0.3333333E+00  0.0000000E+00  0.1851852E-01
   1       -1.7732
   2       -1.7701
   3       -0.9610
   4       -0.9579
   5        0.6466
   6        0.6478
   7        0.6497
   8        0.6509
   9        1.4427
  10        1.4439
  11        1.4458
  12        1.4471
  13        2.2319
  14        2.2351
  15        3.0135
  16        3.0145
  17        3.7922
  18        3.7933
  19        4.5432
  20        4.5447
  21        4.5463
  22        4.5478
  23        4.5489
  24        4.5521
  25        5.3055
  26        5.3064
  27        5.3065
  28        5.3074
  29        6.1906
  30        6.1907
  31        6.1916
  32        6.1918
  33        6.8128
  34        6.8137
  35        6.9258
  36        6.9266
  37        6.9288
  38        6.9298
  39        6.9445
  40        6.9479
  41        7.6856
  42        7.6890
  43        8.3191
  44        8.3212
  45        9.2071
  46        9.2075
  47        9.2084
  48        9.2088
  49        9.4791
  50        9.4796
  51        9.5464
  52        9.5493
  53       10.6608
  54       10.6643
  55       10.8195
  56       10.8227
  57       11.4045
  58       11.4067
  59       11.4244
  60       11.4247
  61       11.4259
  62       11.4262
  63       12.1546
  64       12.1568
  65       12.1760
  66       12.1792
  67       12.3236
  68       12.3240
  69       12.8939
  70       12.8975
  71       13.1461
  72       13.1482
 
  0.0000000E+00  0.5000000E+00  0.0000000E+00  0.9259259E-02
   1       -2.0435
   2       -2.0435
   3        0.3766
   4        0.3815
   5        0.3822
   6        0.3822
   7        0.3822
   8        0.3822
   9        0.3828
  10        0.3877
  11        2.7511
  12        2.7529
  13        2.7558
  14        2.7558
  15        2.7577
  16        2.7578
  17        2.7584
  18        2.7587
  19        2.7604
  20        2.7624
  21        5.0717
  22        5.0724
  23        5.0753
  24        5.0753
  25        5.0753
  26        5.0753
  27        5.0782
  28        5.0789
  29        6.6994
  30        6.6994
  31        6.6994
  32        6.6994
  33        7.4367
  34        7.4385
  35        7.4386
  36        7.4387
  37        7.4412
  38        7.4412
  39        7.4413
  40        7.4432
  41        8.2716
  42        8.2716
  43        8.2717
  44        8.2717
  45        8.9199
  46        8.9247
  47        8.9253
  48        8.9253
  49        8.9253
  50        8.9253
  51        8.9258
  52        8.9307
  53       10.7432
  54       10.7470
  55       10.7477
  56       10.7478
  57       10.7478
  58       10.7478
  59       10.7485
  60       10.7523
  61       11.1555
  62       11.1555
  63       11.1555
  64       11.1555
  65       12.1451
  66       12.1451
  67       13.2485
  68       13.2485
  69       13.2486
  70       13.2490
  71       13.4046
  72       13.4069
 
  0.1666667E+00  0.5000000E+00  0.0000000E+00  0.1851852E-01
   1       -1.9755
   2       -1.9755
   3       -0.3539
   4       -0.3538
   5        0.4488
   6        0.4489
   7        0.4489
   8        0.4489
   9        1.2459
  10        1.2459
  11        2.0381
  12        2.0381
  13        2.0381
  14        2.0381
  15        2.8184
  16        2.8184
  17        3.5994
  18        3.5994
  19        3.5994
  20        3.5994
  21        4.3726
  22        4.3726
  23        5.1356
  24        5.1356
  25        5.1356
  26        5.1356
  27        5.8211
  28        5.8211
  29        5.8944
  30        5.8944
  31        6.7441
  32        6.7444
  33        6.7444
  34        6.7444
  35        6.7611
  36        6.7613
  37        8.1311
  38        8.1311
  39        8.1311
  40        8.1312
  41        8.2439
  42        8.2440
  43        8.2631
  44        8.2631
  45        8.2632
  46        8.2634
  47        8.3085
  48        8.3085
  49        9.2534
  50        9.2534
  51        9.7314
  52        9.7314
  53       10.0857
  54       10.0857
  55       10.4674
  56       10.4674
  57       11.2180
  58       11.2180
  59       11.4880
  60       11.4880
  61       11.6463
  62       11.6463
  63       11.6463
  64       11.6463
  65       12.1938
  66       12.1938
  67       12.6247
  68       12.6247
  69       12.6247
  70       12.6247
  71       12.7181
  72       12.7181
 
  0.3333333E+00  0.5000000E+00  0.0000000E+00  0.1851852E-01
   1       -1.7716
   2       -1.7716
   3       -0.9594
   4       -0.9594
   5        0.6487
   6        0.6488
   7        0.6488
   8        0.6488
   9        1.4449
  10        1.4449
  11        1.4449
  12        1.4449
  13        2.2335
  14        2.2335
  15        3.0140
  16        3.0140
  17        3.7928
  18        3.7928
  19        4.5455
  20        4.5455
  21        4.5455
  22        4.5455
  23        4.5505
  24        4.5505
  25        5.3065
  26        5.3065
  27        5.3065
  28        5.3065
  29        6.1912
  30        6.1912
  31        6.1912
  32        6.1912
  33        6.8133
  34        6.8133
  35        6.9273
  36        6.9278
  37        6.9278
  38        6.9278
  39        6.9462
  40        6.9466
  41        7.6873
  42        7.6873
  43        8.3202
  44        8.3202
  45        9.2079
  46        9.2079
  47        9.2080
  48        9.2080
  49        9.4794
  50        9.4794
  51        9.5478
  52        9.5478
  53       10.6625
  54       10.6626
  55       10.8211
  56       10.8211
  57       11.4054
  58       11.4054
  59       11.4253
  60       11.4253
  61       11.4254
  62       11.4255
  63       12.1557
  64       12.1557
  65       12.1776
  66       12.1776
  67       12.3238
  68       12.3238
  69       12.8957
  70       12.8957
  71       13.1471
  72       13.1471
 
  0.5000000E+00  0.5000000E+00  0.0000000E+00  0.9259259E-02
   1       -1.4354
   2       -1.4328
   3       -1.4323
   4       -1.4297
   5        0.9772
   6        0.9794
   7        0.9808
   8        0.9810
   9        0.9813
  10        0.9816
  11        0.9829
  12        0.9851
  13        3.3352
  14        3.3369
  15        3.3387
  16        3.3392
  17        3.3392
  18        3.3397
  19        3.3415
  20        3.3432
  21        5.3913
  22        5.3931
  23        5.3938
  24        5.3945
  25        5.3945
  26        5.3952
  27        5.3959
  28        5.3977
  29        5.9748
  30        5.9755
  31        5.9761
  32        5.9772
  33        5.9772
  34        5.9783
  35        5.9790
  36        5.9796
  37        7.2516
  38        7.2546
  39        7.2551
  40        7.2580
  41        7.7608
  42        7.7612
  43        7.7632
  44        7.7636
  45        9.2079
  46        9.2091
  47        9.2100
  48        9.2113
  49       10.2654
  50       10.2661
  51       10.2664
  52       10.2665
  53       10.2678
  54       10.2679
  55       10.2682
  56       10.2689
  57       11.7122
  58       11.7159
  59       11.7177
  60       11.7181
  61       11.7181
  62       11.7185
  63       11.7204
  64       11.7241
  65       12.4346
  66       12.4366
  67       12.4383
  68       12.4384
  69       12.4388
  70       12.4389
  71       12.4406
  72       12.4427
 
  0.0000000E+00  0.1666667E+00  0.1666667E+00  0.1851852E-01
   1       -2.5208
   2       -0.8920
   3       -0.8920
   4       -0.0874
   5       -0.0841
   6        0.7148
   7        0.7148
   8        0.7154
   9        1.5083
  10        1.5103
  11        1.5117
  12        1.5137
  13        2.3007
  14        2.3007
  15        3.0791
  16        3.0822
  17        3.0825
  18        3.0841
  19        3.0856
  20        3.0876
  21        3.8630
  22        4.3932
  23        4.3932
  24        4.9461
  25        4.9461
  26        5.3172
  27        5.3172
  28        6.2423
  29        6.2458
  30        6.2682
  31        6.8184
  32        6.8184
  33        7.3720
  34        7.3720
  35        7.7488
  36        7.7488
  37        7.7937
  38        7.7938
  39        7.8449
  40        8.2195
  41        8.2195
  42        8.7866
  43        8.7867
  44        9.1312
  45        9.1334
  46        9.1351
  47        9.1372
  48        9.2341
  49        9.2341
  50        9.2360
  51        9.4958
  52        9.4958
  53        9.9362
  54        9.9363
  55       10.5592
  56       10.5592
  57       10.6359
  58       10.6366
  59       10.6399
  60       10.6405
  61       10.7270
  62       10.7271
  63       11.1230
  64       11.7503
  65       11.7503
  66       12.0165
  67       12.0165
  68       12.2220
  69       12.2738
  70       12.2738
  71       12.6185
  72       12.6195
 
  0.1666667E+00  0.1666667E+00  0.1666667E+00  0.3703704E-01
   1       -2.4525
   2       -0.8264
   3       -0.8246
   4       -0.8228
   5        0.7779
   6        0.7811
   7        0.7812
   8        0.7821
   9        0.7822
  10        0.7854
  11        2.3627
  12        2.3650
  13        2.3655
  14        2.3663
  15        2.3667
  16        2.3675
  17        2.3697
  18        3.9052
  19        3.9058
  20        3.9063
  21        3.9249
  22        3.9267
  23        3.9286
  24        5.3798
  25        5.3803
  26        5.3808
  27        5.5577
  28        5.5582
  29        5.5588
  30        6.8667
  31        6.8683
  32        6.8698
  33        6.8698
  34        6.8713
  35        6.8728
  36        7.0697
  37        8.3993
  38        8.3996
  39        8.4014
  40        8.4014
  41        8.4031
  42        8.4034
  43        8.4434
  44        8.4453
  45        8.4472
  46        8.8449
  47        8.8455
  48        8.8462
  49        9.9452
  50        9.9462
  51        9.9475
  52        9.9475
  53        9.9488
  54        9.9497
  55       10.3120
  56       10.3136
  57       10.3147
  58       10.3147
  59       10.3159
  60       10.3175
  61       11.4506
  62       11.4517
  63       11.4528
  64       12.0272
  65       12.0283
  66       12.0294
  67       12.3919
  68       12.3920
  69       12.3933
  70       12.3933
  71       12.3947
  72       12.3948
 
  0.3333333E+00  0.1666667E+00  0.1666667E+00  0.3703704E-01
   1       -2.2479
   2       -1.4325
   3       -0.6226
   4       -0.6226
   5        0.1820
   6        0.1820
   7        0.9806
   8        0.9807
   9        0.9813
  10        1.7716
  11        1.7745
  12        1.7748
  13        1.7761
  14        2.5625
  15        2.5625
  16        3.3395
  17        3.3398
  18        3.3438
  19        3.3442
  20        4.1010
  21        4.1159
  22        4.6437
  23        4.8849
  24        4.8849
  25        5.2079
  26        5.5693
  27        5.5693
  28        5.6282
  29        5.6282
  30        6.3197
  31        6.3197
  32        6.4970
  33        6.4970
  34        6.8817
  35        6.8817
  36        7.2262
  37        7.3735
  38        7.3735
  39        7.8838
  40        7.8838
  41        8.0199
  42        8.6159
  43        8.6159
  44        8.7365
  45        8.7365
  46        9.0164
  47        9.0164
  48        9.1762
  49        9.1762
  50        9.3805
  51        9.3805
  52       10.0074
  53       10.0074
  54       10.2498
  55       10.4606
  56       10.6381
  57       10.6381
  58       10.8820
  59       10.8820
  60       11.4554
  61       11.4554
  62       11.5574
  63       11.5574
  64       11.6623
  65       11.6623
  66       12.3858
  67       12.3859
  68       12.9004
  69       12.9007
  70       12.9043
  71       12.9046
  72       13.0665
 
  0.5000000E+00  0.1666667E+00  0.1666667E+00  0.1851852E-01
   1       -1.9090
   2       -1.9059
   3       -0.2894
   4       -0.2872
   5       -0.2862
   6       -0.2841
   7        1.3092
   8        1.3114
   9        1.3116
  10        1.3126
  11        1.3138
  12        1.3152
  13        2.8820
  14        2.8837
  15        2.8868
  16        2.8872
  17        2.8895
  18        2.8907
  19        4.4172
  20        4.4203
  21        4.4353
  22        4.4354
  23        4.4364
  24        4.4364
  25        5.8814
  26        5.8818
  27        5.8847
  28        5.8850
  29        5.9409
  30        5.9410
  31        5.9419
  32        5.9419
  33        6.0631
  34        6.0641
  35        7.4581
  36        7.4604
  37        7.4613
  38        7.4636
  39        7.5645
  40        7.5651
  41        7.5657
  42        7.5663
  43        8.9352
  44        8.9360
  45        8.9386
  46        8.9393
  47        9.0848
  48        9.0861
  49        9.2593
  50        9.2601
  51        9.2622
  52        9.2630
  53       10.5643
  54       10.5649
  55       10.5658
  56       10.5664
  57       10.9939
  58       10.9950
  59       10.9972
  60       10.9983
  61       11.9319
  62       11.9324
  63       11.9336
  64       11.9341
  65       12.2176
  66       12.2180
  67       12.3411
  68       12.3436
  69       12.3446
  70       12.3470
  71       13.4051
  72       13.4355
 
  0.0000000E+00  0.3333333E+00  0.1666667E+00  0.3703704E-01
   1       -2.3160
   2       -1.5003
   3       -0.6899
   4        0.1128
   5        0.1151
   6        0.1173
   7        0.9124
   8        0.9145
   9        0.9169
  10        1.7059
  11        1.7080
  12        1.7087
  13        1.7111
  14        2.4950
  15        2.4984
  16        3.2770
  17        3.2788
  18        3.2807
  19        4.0324
  20        4.0353
  21        4.0376
  22        4.0528
  23        4.0563
  24        4.8244
  25        5.5065
  26        5.5682
  27        5.6838
  28        5.6872
  29        6.2596
  30        6.3032
  31        6.3065
  32        6.4530
  33        7.0502
  34        7.1927
  35        7.1930
  36        7.1963
  37        7.8261
  38        7.8297
  39        7.9159
  40        7.9195
  41        7.9345
  42        8.0261
  43        8.5671
  44        8.5709
  45        8.5800
  46        8.6778
  47        8.9658
  48        9.4206
  49        9.4297
  50        9.4335
  51        9.5683
  52        9.6175
  53        9.7452
  54       10.1640
  55       10.1669
  56       10.4089
  57       10.5443
  58       10.9028
  59       11.2017