 vasp.4.6.28 25Jul05 complex 
 executed on             LinuxIFC date 2016.10.19  17:34:49
 running on    8 nodes
 distr:  one band on    1 nodes,    8 groups


--------------------------------------------------------------------------------------------------------


 INCAR:
 POTCAR:   PAW_PBE Al 04Jan2001                   
 POTCAR:   PAW_PBE Al 04Jan2001                   
   VRHFIN =Al: s2p1                                                             
   LEXCH  = PE                                                                  
   EATOM  =    53.5387 eV,    3.9350 Ry                                         
                                                                                
   TITEL  = PAW_PBE Al 04Jan2001                                                
   LULTRA =        F    use ultrasoft PP ?                                      
   IUNSCR =        1    unscreen: 0-lin 1-nonlin 2-no                           
   RPACOR =    1.500    partial core radius                                     
   POMASS =   26.982; ZVAL   =    3.000    mass and valenz                      
   RCORE  =    1.900    outmost cutoff radius                                   
   RWIGS  =    2.650; RWIGS  =    1.402    wigner-seitz radius (au A)           
   ENMAX  =  240.300; ENMIN  =  180.225 eV                                      
   ICORE  =        2    local potential                                         
   LCOR   =        T    correct aug charges                                     
   LPAW   =        T    paw PP                                                  
   EAUG   =  291.052                                                            
   DEXC   =    -.041                                                            
   RMAX   =    2.974    core radius for proj-oper                               
   RAUG   =    1.300    factor for augmentation sphere                          
   RDEP   =    1.966    radius for radial grids                                 
   QCUT   =   -4.203; QGAM   =    8.405    optimization parameters              
                                                                                
   Description                                                                  
     l     E      TYP  RCUT    TYP  RCUT                                        
     0   .000     23  1.900                                                     
     0   .000     23  1.900                                                     
     1   .000     23  1.900                                                     
     1  1.000     23  1.900                                                     
     2   .000      7  1.900                                                     
  local pseudopotential read in
  partial core-charges read in
  atomic valenz-charges read in
  non local Contribution for L=           0  read in
    real space projection operators read in
  non local Contribution for L=           0  read in
    real space projection operators read in
  non local Contribution for L=           1  read in
    real space projection operators read in
  non local Contribution for L=           1  read in
    real space projection operators read in
    PAW grid and wavefunctions read in
 
   number of l-projection  operators is LMAX  =           4
   number of lm-projection operators is LMMAX =           8
 

 ----------------------------------------------------------------------------- 
|                                                                             |
|  ADVICE TO THIS USER RUNNING 'VASP/VAMP'   (HEAR YOUR MASTER'S VOICE ...):  |
|                                                                             |
|      You have a (more or less) 'large supercell' and for larger cells       |
|      it might be more efficient to use real space projection operators      |
|      So try LREAL= Auto  in the INCAR   file.                               |
|      Mind: If you want to do an extremely accurate calculations keep the    |
|      reciprocal projection scheme          (i.e. LREAL=.FALSE.)             |
|                                                                             |
 ----------------------------------------------------------------------------- 

 PAW_PBE Al 04Jan2001                   :
 energy of atom  1       EATOM=  -53.5387
 kinetic energy error for atom=    0.0003 (will be added to EATOM!!)
 
 EXHCAR: internal setup
 exchange correlation table for  LEXCH =        8
   RHO(1)=    0.500       N(1)  =     2000
   RHO(2)=  100.500       N(2)  =     4000
 
 POSCAR: Al                                      
  positions in direct lattice
  No initial velocities read in
 


--------------------------------------------------------------------------------------------------------


 ion  position               nearest neighbor table
   1  0.251  0.250  0.000-  18 2.73  22 2.73  26 2.73  28 2.73   9 2.74  11 2.74  13 2.74  15 2.74
                            25 2.75  21 2.75  27 2.75  17 2.75
   2  0.750  0.250  0.000-  10 2.74  12 2.74  14 2.74  16 2.74  17 2.74  18 2.74  21 2.74  22 2.74
                            25 2.74  26 2.74  27 2.74  28 2.74
   3  0.250  0.750  0.000-   9 2.74  11 2.74  13 2.74  15 2.74  19 2.74  20 2.74  23 2.74  24 2.74
                            25 2.74  26 2.74  27 2.74  28 2.74
   4  0.750  0.750  0.000-  10 2.74  12 2.74  14 2.74  16 2.74  19 2.74  20 2.74  23 2.74  24 2.74
                            25 2.74  26 2.74  27 2.74  28 2.74
   5  0.250  0.250  0.500-   9 2.74  11 2.74  13 2.74  15 2.74  17 2.74  18 2.74  21 2.74  22 2.74
                            29 2.74  30 2.74  31 2.74  32 2.74
   6  0.750  0.250  0.500-  10 2.74  12 2.74  14 2.74  16 2.74  17 2.74  18 2.74  21 2.74  22 2.74
                            29 2.74  30 2.74  31 2.74  32 2.74
   7  0.250  0.750  0.500-   9 2.74  11 2.74  13 2.74  15 2.74  19 2.74  20 2.74  23 2.74  24 2.74
                            29 2.74  30 2.74  31 2.74  32 2.74
   8  0.750  0.750  0.500-  10 2.74  12 2.74  14 2.74  16 2.74  19 2.74  20 2.74  23 2.74  24 2.74
                            29 2.74  30 2.74  31 2.74  32 2.74
   9  0.250  0.000  0.250-   3 2.74   5 2.74   7 2.74  17 2.74  18 2.74  19 2.74  20 2.74  25 2.74
                            26 2.74  29 2.74  30 2.74   1 2.74
  10  0.750  0.000  0.250-   2 2.74   4 2.74   6 2.74   8 2.74  17 2.74  18 2.74  19 2.74  20 2.74
                            25 2.74  26 2.74  29 2.74  30 2.74
  11  0.250  0.500  0.250-   3 2.74   5 2.74   7 2.74  17 2.74  18 2.74  19 2.74  20 2.74  27 2.74
                            28 2.74  31 2.74  32 2.74   1 2.74
  12  0.750  0.500  0.250-   2 2.74   4 2.74   6 2.74   8 2.74  17 2.74  18 2.74  19 2.74  20 2.74
                            27 2.74  28 2.74  31 2.74  32 2.74
  13  0.250  0.000  0.750-   3 2.74   5 2.74   7 2.74  21 2.74  22 2.74  23 2.74  24 2.74  25 2.74
                            26 2.74  29 2.74  30 2.74   1 2.74
  14  0.750  0.000  0.750-   2 2.74   4 2.74   6 2.74   8 2.74  21 2.74  22 2.74  23 2.74  24 2.74
                            25 2.74  26 2.74  29 2.74  30 2.74
  15  0.250  0.500  0.750-   3 2.74   5 2.74   7 2.74  21 2.74  22 2.74  23 2.74  24 2.74  27 2.74
                            28 2.74  31 2.74  32 2.74   1 2.74
  16  0.750  0.500  0.750-   2 2.74   4 2.74   6 2.74   8 2.74  21 2.74  22 2.74  23 2.74  24 2.74
                            27 2.74  28 2.74  31 2.74  32 2.74
  17  0.000  0.250  0.250-   2 2.74   5 2.74   6 2.74   9 2.74  10 2.74  11 2.74  12 2.74  25 2.74
                            27 2.74  29 2.74  31 2.74   1 2.75
  18  0.500  0.250  0.250-   1 2.73   2 2.74   5 2.74   6 2.74   9 2.74  10 2.74  11 2.74  12 2.74
                            26 2.74  28 2.74  30 2.74  32 2.74
  19  0.000  0.750  0.250-   3 2.74   4 2.74   7 2.74   8 2.74   9 2.74  10 2.74  11 2.74  12 2.74
                            25 2.74  27 2.74  29 2.74  31 2.74
  20  0.500  0.750  0.250-   3 2.74   4 2.74   7 2.74   8 2.74   9 2.74  10 2.74  11 2.74  12 2.74
                            26 2.74  28 2.74  30 2.74  32 2.74
  21  0.000  0.250  0.750-   2 2.74   5 2.74   6 2.74  13 2.74  14 2.74  15 2.74  16 2.74  25 2.74
                            27 2.74  29 2.74  31 2.74   1 2.75
  22  0.500  0.250  0.750-   1 2.73   2 2.74   5 2.74   6 2.74  13 2.74  14 2.74  15 2.74  16 2.74
                            26 2.74  28 2.74  30 2.74  32 2.74
  23  0.000  0.750  0.750-   3 2.74   4 2.74   7 2.74   8 2.74  13 2.74  14 2.74  15 2.74  16 2.74
                            25 2.74  27 2.74  29 2.74  31 2.74
  24  0.500  0.750  0.750-   3 2.74   4 2.74   7 2.74   8 2.74  13 2.74  14 2.74  15 2.74  16 2.74
                            26 2.74  28 2.74  30 2.74  32 2.74
  25  0.000  0.000  0.000-   2 2.74   3 2.74   4 2.74   9 2.74  10 2.74  13 2.74  14 2.74  17 2.74
                            19 2.74  21 2.74  23 2.74   1 2.75
  26  0.500  0.000  0.000-   1 2.73   2 2.74   3 2.74   4 2.74   9 2.74  10 2.74  13 2.74  14 2.74
                            18 2.74  20 2.74  22 2.74  24 2.74
  27  0.000  0.500  0.000-   2 2.74   3 2.74   4 2.74  11 2.74  12 2.74  15 2.74  16 2.74  17 2.74
                            19 2.74  21 2.74  23 2.74   1 2.75
  28  0.500  0.500  0.000-   1 2.73   2 2.74   3 2.74   4 2.74  11 2.74  12 2.74  15 2.74  16 2.74
                            18 2.74  20 2.74  22 2.74  24 2.74
  29  0.000  0.000  0.500-   5 2.74   6 2.74   7 2.74   8 2.74   9 2.74  10 2.74  13 2.74  14 2.74
                            17 2.74  19 2.74  21 2.74  23 2.74
  30  0.500  0.000  0.500-   5 2.74   6 2.74   7 2.74   8 2.74   9 2.74  10 2.74  13 2.74  14 2.74
                            18 2.74  20 2.74  22 2.74  24 2.74
  31  0.000  0.500  0.500-   5 2.74   6 2.74   7 2.74   8 2.74  11 2.74  12 2.74  15 2.74  16 2.74
                            17 2.74  19 2.74  21 2.74  23 2.74
  32  0.500  0.500  0.500-   5 2.74   6 2.74   7 2.74   8 2.74  11 2.74  12 2.74  15 2.74  16 2.74
                            18 2.74  20 2.74  22 2.74  24 2.74
 
  LATTYP: Found a simple cubic cell.
 ALAT       =     7.7516282298
  
  Lattice vectors:
  
 A1 = (   7.7516282298,   0.0000000000,   0.0000000000)
 A2 = (   0.0000000000,   7.7516282298,   0.0000000000)
 A3 = (   0.0000000000,   0.0000000000,   7.7516282298)
 Subroutine PRICEL returns:
 Original cell was already a primitive cell.
 

Analysis of symmetry for initial positions (statically):

 Routine SETGRP: Setting up the symmetry group for a 
 simple cubic supercell.


 Subroutine GETGRP returns: Found  8 space group operations
 (whereof  2 operations were pure point group operations)
 out of a pool of 48 trial point group operations.


The static configuration has the point symmetry C_1h.
 The point group associated with its full space group is C_4v.

Analysis of symmetry for dynamics (positions and initial velocities):

 Subroutine DYNSYM returns: Found  8 space group operations
 (whereof  2 operations were pure point group operations)
 out of a pool of  8 trial space group operations
 (whereof  2 operations were pure point group operations)
 and found also     1 'primitive' translations


The dynamic configuration has the point symmetry C_1h.
 The point group associated with its full space group is C_4v.
 
 
 KPOINTS: Automatic mesh                          

Automatic generation of k-mesh.
 generate k-points for:   6   6   6
 
 Subroutine IBZKPT returns following result:
 ===========================================
 
 Found     40 irreducible k-points:
 
 Following reciprocal coordinates:
            Coordinates               Weight
  0.000000  0.000000  0.000000      1.000000
  0.166667  0.000000  0.000000      2.000000
  0.333333  0.000000  0.000000      2.000000
  0.500000  0.000000  0.000000      1.000000
  0.000000  0.166667  0.000000      4.000000
  0.166667  0.166667  0.000000      8.000000
  0.333333  0.166667  0.000000      8.000000
  0.500000  0.166667  0.000000      4.000000
  0.000000  0.333333  0.000000      4.000000
  0.166667  0.333333  0.000000      8.000000
  0.333333  0.333333  0.000000      8.000000
  0.500000  0.333333  0.000000      4.000000
  0.000000  0.500000  0.000000      2.000000
  0.166667  0.500000  0.000000      4.000000
  0.333333  0.500000  0.000000      4.000000
  0.500000  0.500000  0.000000      2.000000
  0.000000  0.166667  0.166667      4.000000
  0.166667  0.166667  0.166667      8.000000
  0.333333  0.166667  0.166667      8.000000
  0.500000  0.166667  0.166667      4.000000
  0.000000  0.333333  0.166667      8.000000
  0.166667  0.333333  0.166667     16.000000
  0.333333  0.333333  0.166667     16.000000
  0.500000  0.333333  0.166667      8.000000
  0.000000  0.500000  0.166667      4.000000
  0.166667  0.500000  0.166667      8.000000
  0.333333  0.500000  0.166667      8.000000
  0.500000  0.500000  0.166667      4.000000
  0.000000  0.333333  0.333333      4.000000
  0.166667  0.333333  0.333333      8.000000
  0.333333  0.333333  0.333333      8.000000
  0.500000  0.333333  0.333333      4.000000
  0.000000  0.500000  0.333333      4.000000
  0.166667  0.500000  0.333333      8.000000
  0.333333  0.500000  0.333333      8.000000
  0.500000  0.500000  0.333333      4.000000
  0.000000  0.500000  0.500000      1.000000
  0.166667  0.500000  0.500000      2.000000
  0.333333  0.500000  0.500000      2.000000
  0.500000  0.500000  0.500000      1.000000
 
 Following cartesian coordinates:
            Coordinates               Weight
  0.000000  0.000000  0.000000      1.000000
  0.021501  0.000000  0.000000      2.000000
  0.043002  0.000000  0.000000      2.000000
  0.064503  0.000000  0.000000      1.000000
  0.000000  0.021501  0.000000      4.000000
  0.021501  0.021501  0.000000      8.000000
  0.043002  0.021501  0.000000      8.000000
  0.064503  0.021501  0.000000      4.000000
  0.000000  0.043002  0.000000      4.000000
  0.021501  0.043002  0.000000      8.000000
  0.043002  0.043002  0.000000      8.000000
  0.064503  0.043002  0.000000      4.000000
  0.000000  0.064503  0.000000      2.000000
  0.021501  0.064503  0.000000      4.000000
  0.043002  0.064503  0.000000      4.000000
  0.064503  0.064503  0.000000      2.000000
  0.000000  0.021501  0.021501      4.000000
  0.021501  0.021501  0.021501      8.000000
  0.043002  0.021501  0.021501      8.000000
  0.064503  0.021501  0.021501      4.000000
  0.000000  0.043002  0.021501      8.000000
  0.021501  0.043002  0.021501     16.000000
  0.043002  0.043002  0.021501     16.000000
  0.064503  0.043002  0.021501      8.000000
  0.000000  0.064503  0.021501      4.000000
  0.021501  0.064503  0.021501      8.000000
  0.043002  0.064503  0.021501      8.000000
  0.064503  0.064503  0.021501      4.000000
  0.000000  0.043002  0.043002      4.000000
  0.021501  0.043002  0.043002      8.000000
  0.043002  0.043002  0.043002      8.000000
  0.064503  0.043002  0.043002      4.000000
  0.000000  0.064503  0.043002      4.000000
  0.021501  0.064503  0.043002      8.000000
  0.043002  0.064503  0.043002      8.000000
  0.064503  0.064503  0.043002      4.000000
  0.000000  0.064503  0.064503      1.000000
  0.021501  0.064503  0.064503      2.000000
  0.043002  0.064503  0.064503      2.000000
  0.064503  0.064503  0.064503      1.000000
 


--------------------------------------------------------------------------------------------------------




 Dimension of arrays:
   k-Points           NKPTS =     40   number of bands    NBANDS=     72
   number of dos      NEDOS =    301   number of ions     NIONS =     32
   non local maximal  LDIM  =      4   non local SUM 2l+1 LMDIM =      8
   total plane-waves  NPLWV = 216000
   max r-space proj   IRMAX =      1   max aug-charges    IRDMAX=  18246
   dimension x,y,z NGX =    60 NGY =   60 NGZ =   60
   dimension x,y,z NGXF=   120 NGYF=  120 NGZF=  120
   support grid    NGXF=   120 NGYF=  120 NGZF=  120
   ions per type =              32
 NGX,Y,Z   is equivalent  to a cutoff of  12.87, 12.87, 12.87 a.u.
 NGXF,Y,Z  is equivalent  to a cutoff of  25.74, 25.74, 25.74 a.u.


 I would recommend the setting:
   dimension x,y,z NGX =    57 NGY =   57 NGZ =   57
 SYSTEM =  unknown system                          
 POSCAR =  Al                                      

 Startparameter for this run:
   NWRITE =      2    write-flag & timer
   PREC   = accura    medium, high low
   ISTART =      0    job   : 0-new  1-cont  2-samecut
   ICHARG =      2    charge: 1-file 2-atom 10-const
   ISPIN  =      1    spin polarized calculation?
   LNONCOLLINEAR =      F non collinear calculations
   LSORBIT =      F    spin-orbit coupling
   INIWAV =      1    electr: 0-lowe 1-rand  2-diag
   LASPH  =      F    aspherical Exc in radial PAW
   METAGGA=      F    non-selfconsistent MetaGGA calc.

 Electronic Relaxation 1
   ENCUT  =  500.0 eV  36.75 Ry    6.06 a.u.  14.13 14.13 14.13*2*pi/ulx,y,z
   ENINI  =  500.0     initial cutoff
   ENAUG  =  291.1 eV  augmentation charge cutoff
   NELM   =     60;   NELMIN=  2; NELMDL=  0     # of ELM steps 
   EDIFF  = 0.1E-07   stopping-criterion for ELM
   LREAL  =      F    real-space projection
   LCOMPAT=      F    compatible to vasp.4.4
   LREAL_COMPAT= F    compatible to vasp.4.5.1-3
   GGA_COMPAT  = T    GGA compatible to vasp.4.4-vasp.4.6
   LMAXPAW     = -100 max onsite density
   LMAXMIX     =    2 max onsite mixed and CHGCAR
   VOSKOWN=      0    Vosko Wilk Nusair interpolation
   ROPT   =    0.00000
 Ionic relaxation
   EDIFFG = 0.1E-06   stopping-criterion for IOM
   NSW    =      0    number of steps for IOM
   NBLOCK =      1;   KBLOCK =      1    inner block; outer block 
   IBRION =     -1    ionic relax: 0-MD 1-quasi-New 2-CG
   NFREE  =      0    steps in history (QN), initial steepest desc. (CG)
   ISIF   =      2    stress and relaxation
   IWAVPR =     10    prediction:  0-non 1-charg 2-wave 3-comb
   ISYM   =      2    0-nonsym 1-usesym 2-fastsym
   LCORR  =      T    Harris-Foulkes like correction to forces

   POTIM  =   0.50    time-step for ionic-motion
   TEIN   =    0.0    initial temperature
   TEBEG  =    0.0;   TEEND  =   0.0 temperature during run
   SMASS  =  -3.00    Nose mass-parameter (am)
   estimated Nose-frequenzy (Omega)   =  0.10E-29 period in steps =****** mass=  -0.137E-26a.u.
   NPACO  =    256;   APACO  = 16.0  distance and # of slots for P.C.
   PSTRESS=    0.0 pullay stress

  Mass of Ions in am
   POMASS =  26.98
  Ionic Valenz
   ZVAL   =   3.00
  Atomic Wigner-Seitz radii
   RWIGS  =  -1.00
   NELECT =      96.0000    total number of electrons
   NUPDOWN=      -1.0000    fix difference up-down

 DOS related values:
   EMIN   =  10.00;   EMAX   =-10.00  energy-range for DOS
   ISMEAR =     0;   SIGMA  =   0.01  broadening in eV -4-tet -1-fermi 0-gaus

 Electronic relaxation 2 (details)
   IALGO  =     38    algorithm
   LDIAG  =      T    sub-space diagonalisation
   IMIX   =      4    mixing-type and parameters
     AMIX     =   0.40;   BMIX     =  1.00
     AMIX_MAG =   1.60;   BMIX_MAG =  1.00
     AMIN     =   0.10
     WC   =   100.;   INIMIX=   1;  MIXPRE=   1

 Intra band minimization:
   WEIMIN = 0.0000     energy-eigenvalue tresh-hold
   EBREAK =  0.38E-10  absolut break condition
   DEPER  =   0.30     relativ break condition  

   TIME   =   0.10     timestep for ELM

  volume/ion in A,a.u.               =      14.56        98.23
  Fermi-wavevector in a.u.,eV,Ry     =   0.967028 12.723391  0.935143

 Second variation
   LSECVAR=     F    do a second variation
 
 Write flags
   LWAVE  =      F    write WAVECAR
   LCHARG =      F    write CHGCAR
   LVTOT  =      F    write LOCPOT, local potential
   LELF   =      F    write electronic localiz. function (ELF)
   LORBIT =      0    0 simple, 1 ext, 2 COOP (PROOUT)


 Dipole corrections
   IDIPOL =      0    1-x, 2-y, 3-z
   LDIPOL =      F    correct potential



--------------------------------------------------------------------------------------------------------


 Static calculation
 charge density will be updated during run
 non-spin polarized calculation
 Variant of blocked Davidson
 Davidson routine will perform the subspace rotation
 performe sub-space diagonalisation
    after iterative eigenvector-optimisation
 modified Broyden-mixing scheme, WC =      100.0
 initial mixing is a Kerker type mixing with AMIX =  0.4000 and BMIX =      1.0000
 Hartree-type preconditioning will be used
 using additional bands           24
 reciprocal scheme for non local part
 use partial core corrections
 calculate Harris-corrections to forces 
   (improved forces if not selfconsistent)
 use gradient corrections 
 use of overlap-Matrix (Vanderbilt PP)
 Gauss-broadening in eV      SIGMA  =   0.01


--------------------------------------------------------------------------------------------------------


  energy-cutoff  :      500.00
  volume of cell :      465.78
      direct lattice vectors                 reciprocal lattice vectors
     7.751628230  0.000000000  0.000000000     0.129005155  0.000000000  0.000000000
     0.000000000  7.751628230  0.000000000     0.000000000  0.129005155  0.000000000
     0.000000000  0.000000000  7.751628230     0.000000000  0.000000000  0.129005155

  length of vectors
     7.751628230  7.751628230  7.751628230     0.129005155  0.129005155  0.129005155


 
 k-points in units of 2pi/SCALE and weight: Automatic mesh                          
   0.00000000  0.00000000  0.00000000       0.005
   0.02150086  0.00000000  0.00000000       0.009
   0.04300172  0.00000000  0.00000000       0.009
   0.06450258  0.00000000  0.00000000       0.005
   0.00000000  0.02150086  0.00000000       0.019
   0.02150086  0.02150086  0.00000000       0.037
   0.04300172  0.02150086  0.00000000       0.037
   0.06450258  0.02150086  0.00000000       0.019
   0.00000000  0.04300172  0.00000000       0.019
   0.02150086  0.04300172  0.00000000       0.037
   0.04300172  0.04300172  0.00000000       0.037
   0.06450258  0.04300172  0.00000000       0.019
   0.00000000  0.06450258  0.00000000       0.009
   0.02150086  0.06450258  0.00000000       0.019
   0.04300172  0.06450258  0.00000000       0.019
   0.06450258  0.06450258  0.00000000       0.009
   0.00000000  0.02150086  0.02150086       0.019
   0.02150086  0.02150086  0.02150086       0.037
   0.04300172  0.02150086  0.02150086       0.037
   0.06450258  0.02150086  0.02150086       0.019
   0.00000000  0.04300172  0.02150086       0.037
   0.02150086  0.04300172  0.02150086       0.074
   0.04300172  0.04300172  0.02150086       0.074
   0.06450258  0.04300172  0.02150086       0.037
   0.00000000  0.06450258  0.02150086       0.019
   0.02150086  0.06450258  0.02150086       0.037
   0.04300172  0.06450258  0.02150086       0.037
   0.06450258  0.06450258  0.02150086       0.019
   0.00000000  0.04300172  0.04300172       0.019
   0.02150086  0.04300172  0.04300172       0.037
   0.04300172  0.04300172  0.04300172       0.037
   0.06450258  0.04300172  0.04300172       0.019
   0.00000000  0.06450258  0.04300172       0.019
   0.02150086  0.06450258  0.04300172       0.037
   0.04300172  0.06450258  0.04300172       0.037
   0.06450258  0.06450258  0.04300172       0.019
   0.00000000  0.06450258  0.06450258       0.005
   0.02150086  0.06450258  0.06450258       0.009
   0.04300172  0.06450258  0.06450258       0.009
   0.06450258  0.06450258  0.06450258       0.005
 
 k-points in reciprocal lattice and weights: Automatic mesh                          
   0.00000000  0.00000000  0.00000000       0.005
   0.16666667  0.00000000  0.00000000       0.009
   0.33333333  0.00000000  0.00000000       0.009
   0.50000000  0.00000000  0.00000000       0.005
   0.00000000  0.16666667  0.00000000       0.019
   0.16666667  0.16666667  0.00000000       0.037
   0.33333333  0.16666667  0.00000000       0.037
   0.50000000  0.16666667  0.00000000       0.019
   0.00000000  0.33333333  0.00000000       0.019
   0.16666667  0.33333333  0.00000000       0.037
   0.33333333  0.33333333  0.00000000       0.037
   0.50000000  0.33333333  0.00000000       0.019
   0.00000000  0.50000000  0.00000000       0.009
   0.16666667  0.50000000  0.00000000       0.019
   0.33333333  0.50000000  0.00000000       0.019
   0.50000000  0.50000000  0.00000000       0.009
   0.00000000  0.16666667  0.16666667       0.019
   0.16666667  0.16666667  0.16666667       0.037
   0.33333333  0.16666667  0.16666667       0.037
   0.50000000  0.16666667  0.16666667       0.019
   0.00000000  0.33333333  0.16666667       0.037
   0.16666667  0.33333333  0.16666667       0.074
   0.33333333  0.33333333  0.16666667       0.074
   0.50000000  0.33333333  0.16666667       0.037
   0.00000000  0.50000000  0.16666667       0.019
   0.16666667  0.50000000  0.16666667       0.037
   0.33333333  0.50000000  0.16666667       0.037
   0.50000000  0.50000000  0.16666667       0.019
   0.00000000  0.33333333  0.33333333       0.019
   0.16666667  0.33333333  0.33333333       0.037
   0.33333333  0.33333333  0.33333333       0.037
   0.50000000  0.33333333  0.33333333       0.019
   0.00000000  0.50000000  0.33333333       0.019
   0.16666667  0.50000000  0.33333333       0.037
   0.33333333  0.50000000  0.33333333       0.037
   0.50000000  0.50000000  0.33333333       0.019
   0.00000000  0.50000000  0.50000000       0.005
   0.16666667  0.50000000  0.50000000       0.009
   0.33333333  0.50000000  0.50000000       0.009
   0.50000000  0.50000000  0.50000000       0.005
 
 position of ions in fractional coordinates (direct lattice) 
   0.25129005  0.25000000  0.00000000
   0.75000000  0.25000000  0.00000000
   0.25000000  0.75000000  0.00000000
   0.75000000  0.75000000  0.00000000
   0.25000000  0.25000000  0.50000000
   0.75000000  0.25000000  0.50000000
   0.25000000  0.75000000  0.50000000
   0.75000000  0.75000000  0.50000000
   0.25000000  0.00000000  0.25000000
   0.75000000  0.00000000  0.25000000
   0.25000000  0.50000000  0.25000000
   0.75000000  0.50000000  0.25000000
   0.25000000  0.00000000  0.75000000
   0.75000000  0.00000000  0.75000000
   0.25000000  0.50000000  0.75000000
   0.75000000  0.50000000  0.75000000
   0.00000000  0.25000000  0.25000000
   0.50000000  0.25000000  0.25000000
   0.00000000  0.75000000  0.25000000
   0.50000000  0.75000000  0.25000000
   0.00000000  0.25000000  0.75000000
   0.50000000  0.25000000  0.75000000
   0.00000000  0.75000000  0.75000000
   0.50000000  0.75000000  0.75000000
   0.00000000  0.00000000  0.00000000
   0.50000000  0.00000000  0.00000000
   0.00000000  0.50000000  0.00000000
   0.50000000  0.50000000  0.00000000
   0.00000000  0.00000000  0.50000000
   0.50000000  0.00000000  0.50000000
   0.00000000  0.50000000  0.50000000
   0.50000000  0.50000000  0.50000000
 
 position of ions in cartesian coordinates  (Angst):
   1.94790706  1.93790706  0.00000000
   5.81372117  1.93790706  0.00000000
   1.93790706  5.81372117  0.00000000
   5.81372117  5.81372117  0.00000000
   1.93790706  1.93790706  3.87581411
   5.81372117  1.93790706  3.87581411
   1.93790706  5.81372117  3.87581411
   5.81372117  5.81372117  3.87581411
   1.93790706  0.00000000  1.93790706
   5.81372117  0.00000000  1.93790706
   1.93790706  3.87581411  1.93790706
   5.81372117  3.87581411  1.93790706
   1.93790706  0.00000000  5.81372117
   5.81372117  0.00000000  5.81372117
   1.93790706  3.87581411  5.81372117
   5.81372117  3.87581411  5.81372117
   0.00000000  1.93790706  1.93790706
   3.87581411  1.93790706  1.93790706
   0.00000000  5.81372117  1.93790706
   3.87581411  5.81372117  1.93790706
   0.00000000  1.93790706  5.81372117
   3.87581411  1.93790706  5.81372117
   0.00000000  5.81372117  5.81372117
   3.87581411  5.81372117  5.81372117
   0.00000000  0.00000000  0.00000000
   3.87581411  0.00000000  0.00000000
   0.00000000  3.87581411  0.00000000
   3.87581411  3.87581411  0.00000000
   0.00000000  0.00000000  3.87581411
   3.87581411  0.00000000  3.87581411
   0.00000000  3.87581411  3.87581411
   3.87581411  3.87581411  3.87581411
 


--------------------------------------------------------------------------------------------------------


 k-point  1 :  0.00000.00000.0000  plane waves:  11753
 k-point  2 :  0.16670.00000.0000  plane waves:  11812
 k-point  3 :  0.33330.00000.0000  plane waves:  11780
 k-point  4 :  0.50000.00000.0000  plane waves:  11804
 k-point  5 :  0.00000.16670.0000  plane waves:  11812
 k-point  6 :  0.16670.16670.0000  plane waves:  11826
 k-point  7 :  0.33330.16670.0000  plane waves:  11809
 k-point  8 :  0.50000.16670.0000  plane waves:  11846
 k-point  9 :  0.00000.33330.0000  plane waves:  11780
 k-point 10 :  0.16670.33330.0000  plane waves:  11809
 k-point 11 :  0.33330.33330.0000  plane waves:  11852
 k-point 12 :  0.50000.33330.0000  plane waves:  11842
 k-point 13 :  0.00000.50000.0000  plane waves:  11804
 k-point 14 :  0.16670.50000.0000  plane waves:  11846
 k-point 15 :  0.33330.50000.0000  plane waves:  11842
 k-point 16 :  0.50000.50000.0000  plane waves:  11872
 k-point 17 :  0.00000.16670.1667  plane waves:  11826
 k-point 18 :  0.16670.16670.1667  plane waves:  11794
 k-point 19 :  0.33330.16670.1667  plane waves:  11807
 k-point 20 :  0.50000.16670.1667  plane waves:  11844
 k-point 21 :  0.00000.33330.1667  plane waves:  11809
 k-point 22 :  0.16670.33330.1667  plane waves:  11807
 k-point 23 :  0.33330.33330.1667  plane waves:  11846
 k-point 24 :  0.50000.33330.1667  plane waves:  11852
 k-point 25 :  0.00000.50000.1667  plane waves:  11846
 k-point 26 :  0.16670.50000.1667  plane waves:  11844
 k-point 27 :  0.33330.50000.1667  plane waves:  11852
 k-point 28 :  0.50000.50000.1667  plane waves:  11824
 k-point 29 :  0.00000.33330.3333  plane waves:  11852
 k-point 30 :  0.16670.33330.3333  plane waves:  11846
 k-point 31 :  0.33330.33330.3333  plane waves:  11824
 k-point 32 :  0.50000.33330.3333  plane waves:  11820
 k-point 33 :  0.00000.50000.3333  plane waves:  11842
 k-point 34 :  0.16670.50000.3333  plane waves:  11852
 k-point 35 :  0.33330.50000.3333  plane waves:  11820
 k-point 36 :  0.50000.50000.3333  plane waves:  11824
 k-point 37 :  0.00000.50000.5000  plane waves:  11872
 k-point 38 :  0.16670.50000.5000  plane waves:  11824
 k-point 39 :  0.33330.50000.5000  plane waves:  11824
 k-point 40 :  0.50000.50000.5000  plane waves:  11752

 maximum and minimum number of plane-waves per node :  11872 11752

 maximum number of plane-waves:  11872
 maximal index in each direction: 
   IXMAX= 14   IYMAX= 14   IZMAX= 14
   IXMIN=-14   IYMIN=-14   IZMIN=-14

 NGX is ok and might be reduce to  58
 NGY is ok and might be reduce to  58
 NGZ is ok and might be reduce to  58

 parallel 3dFFT wavefunction:
    minimum data exchange during FFTs selected (reduces bandwidth)
 parallel 3dFFT charge:
    minimum data exchange during FFTs selected (reduces bandwidth)

 For storing wavefunctions  544.89 MBYTES are necessary
 For predicting wavefunctions   30.48 MBYTES are necessary
Broyden mixing: mesh for mixing (old mesh)
   NGX = 29   NGY = 29   NGZ = 29
  (NGX  =120   NGY  =120   NGZ  =120)
 gives a total of  24389 points
 initial charge density was supplied:
 charge density of overlapping atoms calculated
 number of electron   96.0000000 magnetization 
 keeping initial charge density in first step


--------------------------------------------------------------------------------------------------------


 Maximum index for augmentation-charges         2236 (set IRDMAX)


--------------------------------------------------------------------------------------------------------


 First call to EWALD:  gamma=   0.229
 Maximum number of real-space cells 3x 3x 3
 Maximum number of reciprocal cells 3x 3x 3

    FEWALD:  VPU time    0.01: CPU time    0.01


----------------------------------------- Iteration    1(   1)  ---------------------------------------


    POTLOK:  VPU time    0.17: CPU time    0.17
    SETDIJ:  VPU time    0.01: CPU time    0.01
    EDDAV :  VPU time   21.12: CPU time   21.14
    DOS   :  VPU time    0.00: CPU time   -0.00
    ------------------------------------------
      LOOP:  VPU time   21.30: CPU time   21.32

 eigenvalue-minimisations  :  5760
 total energy-change (2. order) : 0.1372251E+03  (-0.3365000E+04)
 number of electron   96.0000000 magnetization 
 augmentation part    96.0000000 magnetization 

 Free energy of the ion-electron system (eV)
  ---------------------------------------------------
  alpha Z        PSCENC =        -7.38425772
  Ewald energy   TEWEN  =     -2452.91010324
  -1/2 Hartree   DENC   =        -2.22650109
  -V(xc)+E(xc)   XCENC  =      -832.28823291
  PAW double counting   =      1137.73615723     -115.16745734
  entropy T*S    EENTRO =        -0.00075642
  eigenvalues    EBANDS =       696.23707404
  atomic energy  EATOM  =      1713.22913220
  ---------------------------------------------------
  free energy    TOTEN  =       137.22505473 eV

  energy without entropy =      137.22581116  energy(sigma->0) =      137.22543294


--------------------------------------------------------------------------------------------------------




----------------------------------------- Iteration    1(   2)  ---------------------------------------


    EDDAV :  VPU time   23.76: CPU time   23.76
    DOS   :  VPU time    0.00: CPU time   -0.00
    ------------------------------------------
      LOOP:  VPU time   23.77: CPU time   23.77

 eigenvalue-minimisations  :  6752
 total energy-change (2. order) :-0.2420428E+03  (-0.2246407E+03)
 number of electron   96.0000000 magnetization 
 augmentation part    96.0000000 magnetization 

 Free energy of the ion-electron system (eV)
  ---------------------------------------------------
  alpha Z        PSCENC =        -7.38425772
  Ewald energy   TEWEN  =     -2452.91010324
  -1/2 Hartree   DENC   =        -2.22650109
  -V(xc)+E(xc)   XCENC  =      -832.28823291
  PAW double counting   =      1137.73615723     -115.16745734
  entropy T*S    EENTRO =        -0.00056750
  eigenvalues    EBANDS =       454.19410944
  atomic energy  EATOM  =      1713.22913220
  ---------------------------------------------------
  free energy    TOTEN  =      -104.81772095 eV

  energy without entropy =     -104.81715345  energy(sigma->0) =     -104.81743720


--------------------------------------------------------------------------------------------------------




----------------------------------------- Iteration    1(   3)  ---------------------------------------


    EDDAV :  VPU time   24.78: CPU time   24.78
    DOS   :  VPU time    0.00: CPU time   -0.00
    ------------------------------------------
      LOOP:  VPU time   24.78: CPU time   24.78

 eigenvalue-minimisations  :  7152
 total energy-change (2. order) :-0.1335740E+02  (-0.1272045E+02)
 number of electron   96.0000000 magnetization 
 augmentation part    96.0000000 magnetization 

 Free energy of the ion-electron system (eV)
  ---------------------------------------------------
  alpha Z        PSCENC =        -7.38425772
  Ewald energy   TEWEN  =     -2452.91010324
  -1/2 Hartree   DENC   =        -2.22650109
  -V(xc)+E(xc)   XCENC  =      -832.28823291
  PAW double counting   =      1137.73615723     -115.16745734
  entropy T*S    EENTRO =        -0.00093674
  eigenvalues    EBANDS =       440.83708238
  atomic energy  EATOM  =      1713.22913220
  ---------------------------------------------------
  free energy    TOTEN  =      -118.17511725 eV

  energy without entropy =     -118.17418051  energy(sigma->0) =     -118.17464888


--------------------------------------------------------------------------------------------------------




----------------------------------------- Iteration    1(   4)  ---------------------------------------


    EDDAV :  VPU time   23.62: CPU time   23.63
    DOS   :  VPU time    0.00: CPU time   -0.00
    ------------------------------------------
      LOOP:  VPU time   23.63: CPU time   23.63

 eigenvalue-minimisations  :  6688
 total energy-change (2. order) :-0.2399928E+00  (-0.2380470E+00)
 number of electron   96.0000000 magnetization 
 augmentation part    96.0000000 magnetization 

 Free energy of the ion-electron system (eV)
  ---------------------------------------------------
  alpha Z        PSCENC =        -7.38425772
  Ewald energy   TEWEN  =     -2452.91010324
  -1/2 Hartree   DENC   =        -2.22650109
  -V(xc)+E(xc)   XCENC  =      -832.28823291
  PAW double counting   =      1137.73615723     -115.16745734
  entropy T*S    EENTRO =        -0.00112062
  eigenvalues    EBANDS =       440.59727347
  atomic energy  EATOM  =      1713.22913220
  ---------------------------------------------------
  free energy    TOTEN  =      -118.41511003 eV

  energy without entropy =     -118.41398941  energy(sigma->0) =     -118.41454972


--------------------------------------------------------------------------------------------------------




----------------------------------------- Iteration    1(   5)  ---------------------------------------


    EDDAV :  VPU time   23.61: CPU time   23.61
    DOS   :  VPU time    0.00: CPU time   -0.00
    CHARGE:  VPU time    1.11: CPU time    1.12
    MIXING:  VPU time    0.00: CPU time    0.00
    ------------------------------------------
      LOOP:  VPU time   24.73: CPU time   24.73

 eigenvalue-minimisations  :  6664
 total energy-change (2. order) :-0.2695334E-02  (-0.2694120E-02)
 number of electron   95.9999999 magnetization 
 augmentation part    -1.1192890 magnetization 

 Broyden mixing:
  rms(total) = 0.55744E+00    rms(broyden)= 0.55744E+00
  rms(prec ) = 0.80024E+00
  weight for this iteration     100.00

 Free energy of the ion-electron system (eV)
  ---------------------------------------------------
  alpha Z        PSCENC =        -7.38425772
  Ewald energy   TEWEN  =     -2452.91010324
  -1/2 Hartree   DENC   =        -2.22650109
  -V(xc)+E(xc)   XCENC  =      -832.28823291
  PAW double counting   =      1137.73615723     -115.16745734
  entropy T*S    EENTRO =        -0.00112114
  eigenvalues    EBANDS =       440.59457866
  atomic energy  EATOM  =      1713.22913220
  ---------------------------------------------------
  free energy    TOTEN  =      -118.41780537 eV

  energy without entropy =     -118.41668422  energy(sigma->0) =     -118.41724480


--------------------------------------------------------------------------------------------------------




----------------------------------------- Iteration    1(   6)  ---------------------------------------


    POTLOK:  VPU time    0.16: CPU time    0.16
    SETDIJ:  VPU time    0.01: CPU time    0.01
    EDDAV :  VPU time   22.06: CPU time   22.06
    DOS   :  VPU time    0.00: CPU time   -0.00
    CHARGE:  VPU time    0.83: CPU time    0.83
    MIXING:  VPU time    0.00: CPU time    0.00
    ------------------------------------------
      LOOP:  VPU time   23.07: CPU time   23.07

 eigenvalue-minimisations  :  6608
 total energy-change (2. order) : 0.4808596E+00  (-0.3433309E-02)
 number of electron   95.9999999 magnetization 
 augmentation part    -1.1330644 magnetization 

 Broyden mixing:
  rms(total) = 0.34666E+00    rms(broyden)= 0.34666E+00
  rms(prec ) = 0.49976E+00
  weight for this iteration     100.00

 eigenvalues of (default mixing * dielectric matrix)
  average eigenvalue GAMMA=   2.6361
  2.6361

 Free energy of the ion-electron system (eV)
  ---------------------------------------------------
  alpha Z        PSCENC =        -7.38425772
  Ewald energy   TEWEN  =     -2452.91010324
  -1/2 Hartree   DENC   =        -2.41342016
  -V(xc)+E(xc)   XCENC  =      -830.83528281
  PAW double counting   =      1145.09921258     -122.93890856
  entropy T*S    EENTRO =        -0.00113078
  eigenvalues    EBANDS =       440.21781273
  atomic energy  EATOM  =      1713.22913220
  ---------------------------------------------------
  free energy    TOTEN  =      -117.93694575 eV

  energy without entropy =     -117.93581497  energy(sigma->0) =     -117.93638036


--------------------------------------------------------------------------------------------------------




----------------------------------------- Iteration    1(   7)  ---------------------------------------


    POTLOK:  VPU time    0.18: CPU time    0.18
    SETDIJ:  VPU time    0.01: CPU time    0.01
    EDDAV :  VPU time   19.26: CPU time   19.26
    DOS   :  VPU time    0.00: CPU time   -0.00
    CHARGE:  VPU time    0.84: CPU time    0.84
    MIXING:  VPU time    0.00: CPU time    0.00
    ------------------------------------------
      LOOP:  VPU time   20.29: CPU time   20.29

 eigenvalue-minimisations  :  6184
 total energy-change (2. order) : 0.3466293E+00  (-0.1081441E-01)
 number of electron   95.9999999 magnetization 
 augmentation part    -1.1621870 magnetization 

 Broyden mixing:
  rms(total) = 0.13363E-01    rms(broyden)= 0.13363E-01
  rms(prec ) = 0.15693E-01
  weight for this iteration     100.00

 eigenvalues of (default mixing * dielectric matrix)
  average eigenvalue GAMMA=   2.4706
  2.4706  2.4706

 Free energy of the ion-electron system (eV)
  ---------------------------------------------------
  alpha Z        PSCENC =        -7.38425772
  Ewald energy   TEWEN  =     -2452.91010324
  -1/2 Hartree   DENC   =        -4.14871026
  -V(xc)+E(xc)   XCENC  =      -827.99339144
  PAW double counting   =      1156.27487035     -134.86173208
  entropy T*S    EENTRO =        -0.00115551
  eigenvalues    EBANDS =       440.20503122
  atomic energy  EATOM  =      1713.22913220
  ---------------------------------------------------
  free energy    TOTEN  =      -117.59031648 eV

  energy without entropy =     -117.58916097  energy(sigma->0) =     -117.58973872


--------------------------------------------------------------------------------------------------------




----------------------------------------- Iteration    1(   8)  ---------------------------------------


    POTLOK:  VPU time    0.14: CPU time    0.14
    SETDIJ:  VPU time    0.01: CPU time    0.01
    EDDAV :  VPU time   18.26: CPU time   18.26
    DOS   :  VPU time    0.00: CPU time   -0.00
    CHARGE:  VPU time    0.67: CPU time    0.67
    MIXING:  VPU time    0.00: CPU time    0.00
    ------------------------------------------
      LOOP:  VPU time   19.09: CPU time   19.09

 eigenvalue-minimisations  :  6872
 total energy-change (2. order) :-0.2168661E-03  (-0.1108879E-03)
 number of electron   95.9999999 magnetization 
 augmentation part    -1.1646337 magnetization 

 Broyden mixing:
  rms(total) = 0.52084E-02    rms(broyden)= 0.52084E-02
  rms(prec ) = 0.65196E-02
  weight for this iteration     100.00

 eigenvalues of (default mixing * dielectric matrix)
  average eigenvalue GAMMA=   2.0732
  0.9890  2.6698  2.5607

 Free energy of the ion-electron system (eV)
  ---------------------------------------------------
  alpha Z        PSCENC =        -7.38425772
  Ewald energy   TEWEN  =     -2452.91010324
  -1/2 Hartree   DENC   =        -4.18002301
  -V(xc)+E(xc)   XCENC  =      -827.95332431
  PAW double counting   =      1156.31319728     -134.91219229
  entropy T*S    EENTRO =        -0.00115439
  eigenvalues    EBANDS =       440.20819214
  atomic energy  EATOM  =      1713.22913220
  ---------------------------------------------------
  free energy    TOTEN  =      -117.59053334 eV

  energy without entropy =     -117.58937896  energy(sigma->0) =     -117.58995615


--------------------------------------------------------------------------------------------------------




----------------------------------------- Iteration    1(   9)  ---------------------------------------


    POTLOK:  VPU time    0.13: CPU time    0.13
    SETDIJ:  VPU time    0.01: CPU time    0.01
    EDDAV :  VPU time   17.67: CPU time   17.67
    DOS   :  VPU time    0.00: CPU time   -0.00
    CHARGE:  VPU time    0.68: CPU time    0.68
    MIXING:  VPU time    0.00: CPU time    0.00
    ------------------------------------------
      LOOP:  VPU time   18.50: CPU time   18.50

 eigenvalue-minimisations  :  6536
 total energy-change (2. order) :-0.3738672E-04  (-0.6447318E-05)
 number of electron   95.9999999 magnetization 
 augmentation part    -1.1654976 magnetization 

 Broyden mixing:
  rms(total) = 0.48391E-03    rms(broyden)= 0.48391E-03
  rms(prec ) = 0.75006E-03
  weight for this iteration     100.00

 eigenvalues of (default mixing * dielectric matrix)
  average eigenvalue GAMMA=   1.8456
  2.6786  2.5682  1.2655  0.8703

 Free energy of the ion-electron system (eV)
  ---------------------------------------------------
  alpha Z        PSCENC =        -7.38425772
  Ewald energy   TEWEN  =     -2452.91010324
  -1/2 Hartree   DENC   =        -4.21438333
  -V(xc)+E(xc)   XCENC  =      -827.91066624
  PAW double counting   =      1156.31262007     -134.92191350
  entropy T*S    EENTRO =        -0.00115333
  eigenvalues    EBANDS =       440.21015435
  atomic energy  EATOM  =      1713.22913220
  ---------------------------------------------------
  free energy    TOTEN  =      -117.59057073 eV

  energy without entropy =     -117.58941741  energy(sigma->0) =     -117.58999407


--------------------------------------------------------------------------------------------------------




----------------------------------------- Iteration    1(  10)  ---------------------------------------


    POTLOK:  VPU time    0.13: CPU time    0.13
    SETDIJ:  VPU time    0.01: CPU time    0.01
    EDDAV :  VPU time   18.22: CPU time   18.22
    DOS   :  VPU time    0.00: CPU time   -0.00
    CHARGE:  VPU time    0.68: CPU time    0.68
    MIXING:  VPU time    0.00: CPU time    0.00
    ------------------------------------------
      LOOP:  VPU time   19.04: CPU time   19.04

 eigenvalue-minimisations  :  6800
 total energy-change (2. order) :-0.3173306E-05  (-0.4223732E-06)
 number of electron   95.9999999 magnetization 
 augmentation part    -1.1656484 magnetization 

 Broyden mixing:
  rms(total) = 0.20755E-03    rms(broyden)= 0.20755E-03
  rms(prec ) = 0.27508E-03
  weight for this iteration     100.00

 eigenvalues of (default mixing * dielectric matrix)
  average eigenvalue GAMMA=   1.8652
  2.6271  2.6271  2.2310  1.0282  0.8127

 Free energy of the ion-electron system (eV)
  ---------------------------------------------------
  alpha Z        PSCENC =        -7.38425772
  Ewald energy   TEWEN  =     -2452.91010324
  -1/2 Hartree   DENC   =        -4.21758399
  -V(xc)+E(xc)   XCENC  =      -827.90679571
  PAW double counting   =      1156.28944328     -134.89942651
  entropy T*S    EENTRO =        -0.00115322
  eigenvalues    EBANDS =       440.21017100
  atomic energy  EATOM  =      1713.22913220
  ---------------------------------------------------
  free energy    TOTEN  =      -117.59057390 eV

  energy without entropy =     -117.58942069  energy(sigma->0) =     -117.58999730


--------------------------------------------------------------------------------------------------------




----------------------------------------- Iteration    1(  11)  ---------------------------------------


    POTLOK:  VPU time    0.16: CPU time    0.16
    SETDIJ:  VPU time    0.01: CPU time    0.01
    EDDAV :  VPU time   17.77: CPU time   17.78
    DOS   :  VPU time    0.00: CPU time   -0.00
    CHARGE:  VPU time    0.66: CPU time    0.66
    MIXING:  VPU time    0.00: CPU time    0.00
    ------------------------------------------
      LOOP:  VPU time   18.61: CPU time   18.62

 eigenvalue-minimisations  :  6672
 total energy-change (2. order) : 0.1389044E-05  (-0.2644672E-07)
 number of electron   95.9999999 magnetization 
 augmentation part    -1.1656756 magnetization 

 Broyden mixing:
  rms(total) = 0.82924E-04    rms(broyden)= 0.82924E-04
  rms(prec ) = 0.99638E-04
  weight for this iteration     100.00

 eigenvalues of (default mixing * dielectric matrix)
  average eigenvalue GAMMA=   1.7998
  2.6812  2.6061  2.5057  0.8005  1.1823  1.0228

 Free energy of the ion-electron system (eV)
  ---------------------------------------------------
  alpha Z        PSCENC =        -7.38425772
  Ewald energy   TEWEN  =     -2452.91010324
  -1/2 Hartree   DENC   =        -4.21722695
  -V(xc)+E(xc)   XCENC  =      -827.90727802
  PAW double counting   =      1156.26110080     -134.87071437
  entropy T*S    EENTRO =        -0.00115318
  eigenvalues    EBANDS =       440.20992797
  atomic energy  EATOM  =      1713.22913220
  ---------------------------------------------------
  free energy    TOTEN  =      -117.59057252 eV

  energy without entropy =     -117.58941934  energy(sigma->0) =     -117.58999593


--------------------------------------------------------------------------------------------------------




----------------------------------------- Iteration    1(  12)  ---------------------------------------


    POTLOK:  VPU time    0.13: CPU time    0.13
    SETDIJ:  VPU time    0.01: CPU time    0.01
    EDDAV :  VPU time   13.56: CPU time   13.56
    DOS   :  VPU time    0.00: CPU time   -0.00
    CHARGE:  VPU time    0.67: CPU time    0.67
    MIXING:  VPU time    0.00: CPU time    0.00
    ------------------------------------------
      LOOP:  VPU time   14.37: CPU time   14.38

 eigenvalue-minimisations  :  4424
 total energy-change (2. order) : 0.5896543E-06  (-0.1794713E-08)
 number of electron   95.9999999 magnetization 
 augmentation part    -1.1656804 magnetization 

 Broyden mixing:
  rms(total) = 0.14816E-04    rms(broyden)= 0.14816E-04
  rms(prec ) = 0.22418E-04
  weight for this iteration     100.00

 eigenvalues of (default mixing * dielectric matrix)
  average eigenvalue GAMMA=   1.7355
  2.6525  2.6525  2.4946  1.4830  1.0487  1.0237  0.7937

 Free energy of the ion-electron system (eV)
  ---------------------------------------------------
  alpha Z        PSCENC =        -7.38425772
  Ewald energy   TEWEN  =     -2452.91010324
  -1/2 Hartree   DENC   =        -4.21750723
  -V(xc)+E(xc)   XCENC  =      -827.90698284
  PAW double counting   =      1156.24917062     -134.85875087
  entropy T*S    EENTRO =        -0.00115318
  eigenvalues    EBANDS =       440.20988033
  atomic energy  EATOM  =      1713.22913220
  ---------------------------------------------------
  free energy    TOTEN  =      -117.59057193 eV

  energy without entropy =     -117.58941874  energy(sigma->0) =     -117.58999533


--------------------------------------------------------------------------------------------------------




----------------------------------------- Iteration    1(  13)  ---------------------------------------


    POTLOK:  VPU time    0.13: CPU time    0.13
    SETDIJ:  VPU time    0.01: CPU time    0.01
    EDDAV :  VPU time   12.17: CPU time   12.17
    DOS   :  VPU time   -0.00: CPU time   -0.00
    CHARGE:  VPU time    0.69: CPU time    0.69
    MIXING:  VPU time    0.00: CPU time    0.00
    ------------------------------------------
      LOOP:  VPU time   13.01: CPU time   13.01

 eigenvalue-minimisations  :  3720
 total energy-change (2. order) : 0.1352657E-06  (-0.2796976E-09)
 number of electron   95.9999999 magnetization 
 augmentation part    -1.1656804 magnetization 

 Broyden mixing:
  rms(total) = 0.31688E-05    rms(broyden)= 0.31688E-05
  rms(prec ) = 0.45635E-05
  weight for this iteration     100.00

 eigenvalues of (default mixing * dielectric matrix)
  average eigenvalue GAMMA=   1.6893
  2.6737  2.6737  2.5157  1.6029  1.2873  1.0532  0.9152  0.7927

 Free energy of the ion-electron system (eV)
  ---------------------------------------------------
  alpha Z        PSCENC =        -7.38425772
  Ewald energy   TEWEN  =     -2452.91010324
  -1/2 Hartree   DENC   =        -4.21745154
  -V(xc)+E(xc)   XCENC  =      -827.90706125
  PAW double counting   =      1156.24692489     -134.85647041
  entropy T*S    EENTRO =        -0.00115318
  eigenvalues    EBANDS =       440.20986847
  atomic energy  EATOM  =      1713.22913220
  ---------------------------------------------------
  free energy    TOTEN  =      -117.59057179 eV

  energy without entropy =     -117.58941861  energy(sigma->0) =     -117.58999520


--------------------------------------------------------------------------------------------------------




----------------------------------------- Iteration    1(  14)  ---------------------------------------


    POTLOK:  VPU time    0.13: CPU time    0.13
    SETDIJ:  VPU time    0.01: CPU time    0.01
    EDDAV :  VPU time   12.17: CPU time   12.17
    DOS   :  VPU time    0.00: CPU time   -0.00
    CHARGE:  VPU time    0.69: CPU time    0.69
    MIXING:  VPU time    0.00: CPU time    0.00
    ------------------------------------------
      LOOP:  VPU time   13.01: CPU time   13.01

 eigenvalue-minimisations  :  3688
 total energy-change (2. order) : 0.1157787E-07  (-0.4650885E-10)
 number of electron   95.9999999 magnetization 
 augmentation part    -1.1656821 magnetization 

 Broyden mixing:
  rms(total) = 0.98099E-06    rms(broyden)= 0.98098E-06
  rms(prec ) = 0.13335E-05
  weight for this iteration     100.00

 eigenvalues of (default mixing * dielectric matrix)
  average eigenvalue GAMMA=   1.6690
  2.6893  2.6893  2.5196  1.8656  1.3864  0.7933  1.0067  1.0067  1.0638

 Free energy of the ion-electron system (eV)
  ---------------------------------------------------
  alpha Z        PSCENC =        -7.38425772
  Ewald energy   TEWEN  =     -2452.91010324
  -1/2 Hartree   DENC   =        -4.21746667
  -V(xc)+E(xc)   XCENC  =      -827.90704730
  PAW double counting   =      1156.24670900     -134.85625534
  entropy T*S    EENTRO =        -0.00115318
  eigenvalues    EBANDS =       440.20987047
  atomic energy  EATOM  =      1713.22913220
  ---------------------------------------------------
  free energy    TOTEN  =      -117.59057178 eV

  energy without entropy =     -117.58941860  energy(sigma->0) =     -117.58999519


--------------------------------------------------------------------------------------------------------




----------------------------------------- Iteration    1(  15)  ---------------------------------------


    POTLOK:  VPU time    0.13: CPU time    0.13
    SETDIJ:  VPU time    0.01: CPU time    0.01
    EDDAV :  VPU time   11.79: CPU time   11.79
    DOS   :  VPU time    0.00: CPU time   -0.00
    ------------------------------------------
      LOOP:  VPU time   11.93: CPU time   11.93

 eigenvalue-minimisations  :  3560
 total energy-change (2. order) :-0.1018634E-08  (-0.9309680E-11)
 number of electron   95.9999999 magnetization 
 augmentation part    -1.1656821 magnetization 

 Free energy of the ion-electron system (eV)
  ---------------------------------------------------
  alpha Z        PSCENC =        -7.38425772
  Ewald energy   TEWEN  =     -2452.91010324
  -1/2 Hartree   DENC   =        -4.21746479
  -V(xc)+E(xc)   XCENC  =      -827.90705171
  PAW double counting   =      1156.24669273     -134.85623828
  entropy T*S    EENTRO =        -0.00115318
  eigenvalues    EBANDS =       440.20987221
  atomic energy  EATOM  =      1713.22913220
  ---------------------------------------------------
  free energy    TOTEN  =      -117.59057178 eV

  energy without entropy =     -117.58941860  energy(sigma->0) =     -117.58999519


--------------------------------------------------------------------------------------------------------




 average (electrostatic) potential at core
  the test charge radii are     1.0406
  (the norm of the test charge is              1.0000)
       1 -71.0774       2 -71.0775       3 -71.0775       4 -71.0775       5 -71.0775
       6 -71.0775       7 -71.0775       8 -71.0775       9 -71.0775      10 -71.0774
      11 -71.0775      12 -71.0774      13 -71.0775      14 -71.0774      15 -71.0775
      16 -71.0774      17 -71.0780      18 -71.0769      19 -71.0775      20 -71.0774
      21 -71.0780      22 -71.0769      23 -71.0775      24 -71.0774      25 -71.0780
      26 -71.0769      27 -71.0780      28 -71.0769      29 -71.0775      30 -71.0774
      31 -71.0775      32 -71.0774
 
 
 
 E-fermi :   9.3440     XC(G=0): -10.6595     alpha+bet :-16.8637
   add alpha+bet to get absolut eigen values

 k-point   1 :       0.0000    0.0000    0.0000
  band No.  band energies     occupation 
      1      -2.6575      2.00000
      2      -0.2238      2.00000
      3      -0.2197      2.00000
      4      -0.2197      2.00000
      5      -0.2197      2.00000
      6      -0.2197      2.00000
      7      -0.2157      2.00000
      8       2.1633      2.00000
      9       2.1677      2.00000
     10       2.1677      2.00000
     11       2.1697      2.00000
     12       2.1698      2.00000
     13       2.1698      2.00000
     14       2.1698      2.00000
     15       2.1698      2.00000
     16       2.1700      2.00000
     17       2.1719      2.00000
     18       2.1719      2.00000
     19       2.1763      2.00000
     20       4.2680      2.00000
     21       4.2680      2.00000
     22       4.2680      2.00000
     23       4.2680      2.00000
     24       4.8143      2.00000
     25       4.8143      2.00000
     26       4.8144      2.00000
     27       4.8144      2.00000
     28       6.1450      2.00000
     29       6.1450      2.00000
     30       6.1451      2.00000
     31       7.7202      2.00000
     32       7.7203      2.00000
     33       7.7203      2.00000
     34       8.3622      2.00000
     35       8.3622      2.00000
     36       8.3669      2.00000
     37       8.3669      2.00000
     38       8.3671      2.00000
     39       8.3671      2.00000
     40       8.3671      2.00000
     41       8.3672      2.00000
     42       8.3673      2.00000
     43       8.3673      2.00000
     44       8.3720      2.00000
     45       8.3720      2.00000
     46       9.3039      2.00000
     47       9.3085      2.00000
     48       9.3086      2.00000
     49       9.3086      2.00000
     50       9.3086      2.00000
     51       9.3131      1.99999
     52      10.5987      0.00000
     53      10.5987      0.00000
     54      10.6000      0.00000
     55      10.6028      0.00000
     56      10.6029      0.00000
     57      10.6029      0.00000
     58      10.6029      0.00000
     59      10.6030      0.00000
     60      10.6031      0.00000
     61      10.6059      0.00000
     62      10.6072      0.00000
     63      10.6072      0.00000
     64      11.2146      0.00000
     65      11.2159      0.00000
     66      11.2159      0.00000
     67      11.2159      0.00000
     68      11.2159      0.00000
     69      11.2173      0.00000
     70      12.5121      0.00000
     71      12.5150      0.00000
     72      12.5153      0.00000

 k-point   2 :       0.1667    0.0000    0.0000
  band No.  band energies     occupation 
      1      -2.5892      2.00000
      2      -0.9594      2.00000
      3      -0.1528      2.00000
      4      -0.1527      2.00000
      5      -0.1527      2.00000
      6      -0.1527      2.00000
      7       0.6483      2.00000
      8       1.4449      2.00000
      9       1.4449      2.00000
     10       1.4449      2.00000
     11       1.4449      2.00000
     12       2.2354      2.00000
     13       2.2354      2.00000
     14       2.2354      2.00000
     15       2.2354      2.00000
     16       3.0200      2.00000
     17       3.0200      2.00000
     18       3.0200      2.00000
     19       3.0200      2.00000
     20       3.7777      2.00000
     21       3.7777      2.00000
     22       3.7777      2.00000
     23       3.7777      2.00000
     24       5.2541      2.00000
     25       5.4296      2.00000
     26       5.4296      2.00000
     27       5.4296      2.00000
     28       5.4296      2.00000
     29       6.2066      2.00000
     30       6.2066      2.00000
     31       7.4880      2.00000
     32       7.4880      2.00000
     33       7.4880      2.00000
     34       7.4880      2.00000
     35       7.6869      2.00000
     36       7.6869      2.00000
     37       7.7832      2.00000
     38       7.7832      2.00000
     39       8.4291      2.00000
     40       8.4291      2.00000
     41       8.4291      2.00000
     42       8.4291      2.00000
     43       8.7261      2.00000
     44       9.0866      2.00000
     45       9.0866      2.00000
     46       9.1720      2.00000
     47       9.1720      2.00000
     48       9.8244      0.00000
     49       9.8245      0.00000
     50       9.8245      0.00000
     51       9.8245      0.00000
     52       9.8750      0.00000
     53       9.8750      0.00000
     54       9.8750      0.00000
     55       9.8752      0.00000
     56       9.9189      0.00000
     57       9.9189      0.00000
     58       9.9191      0.00000
     59       9.9191      0.00000
     60      11.4120      0.00000
     61      11.4120      0.00000
     62      11.4120      0.00000
     63      11.4120      0.00000
     64      11.5519      0.00000
     65      11.5520      0.00000
     66      11.7080      0.00000
     67      11.7080      0.00000
     68      11.7080      0.00000
     69      11.7080      0.00000
     70      11.8173      0.00000
     71      11.8173      0.00000
     72      11.8173      0.00000

 k-point   3 :       0.3333    0.0000    0.0000
  band No.  band energies     occupation 
      1      -2.3843      2.00000
      2      -1.5680      2.00000
      3       0.0481      2.00000
      4       0.0481      2.00000
      5       0.0481      2.00000
      6       0.0481      2.00000
      7       0.8483      2.00000
      8       0.8483      2.00000
      9       0.8483      2.00000
     10       0.8483      2.00000
     11       1.6411      2.00000
     12       2.4319      2.00000
     13       2.4319      2.00000
     14       2.4319      2.00000
     15       2.4319      2.00000
     16       3.2107      2.00000
     17       3.2107      2.00000
     18       3.2107      2.00000
     19       3.2107      2.00000
     20       3.9723      2.00000
     21       3.9910      2.00000
     22       3.9910      2.00000
     23       3.9910      2.00000
     24       3.9910      2.00000
     25       6.2572      2.00000
     26       6.2572      2.00000
     27       6.2573      2.00000
     28       6.2573      2.00000
     29       6.3699      2.00000
     30       6.3699      2.00000
     31       6.3700      2.00000
     32       6.3700      2.00000
     33       6.3915      2.00000
     34       6.3915      2.00000
     35       7.1312      2.00000
     36       7.1312      2.00000
     37       7.9697      2.00000
     38       7.9697      2.00000
     39       8.6110      2.00000
     40       8.6110      2.00000
     41       8.6120      2.00000
     42       8.6124      2.00000
     43       8.6151      2.00000
     44       8.6156      2.00000
     45       8.6166      2.00000
     46       8.6166      2.00000
     47       8.6667      2.00000
     48       8.6668      2.00000
     49       9.3598      0.02523
     50       9.3598      0.02523
     51       9.3598      0.02519
     52       9.3598      0.02516
     53      10.1017      0.00000
     54      10.1017      0.00000
     55      10.3412      0.00000
     56      10.3412      0.00000
     57      10.3412      0.00000
     58      10.3412      0.00000
     59      10.3524      0.00000
     60      11.2297      0.00000
     61      11.2297      0.00000
     62      11.2297      0.00000
     63      11.2297      0.00000
     64      12.3096      0.00000
     65      12.3096      0.00000
     66      12.3302      0.00000
     67      12.3302      0.00000
     68      12.3462      0.00000
     69      12.3462      0.00000
     70      12.3463      0.00000
     71      12.3463      0.00000
     72      13.0090      0.00000

 k-point   4 :       0.5000    0.0000    0.0000
  band No.  band energies     occupation 
      1      -2.0450      2.00000
      2      -2.0419      2.00000
      3       0.3778      2.00000
      4       0.3812      2.00000
      5       0.3812      2.00000
      6       0.3821      2.00000
      7       0.3822      2.00000
      8       0.3831      2.00000
      9       0.3831      2.00000
     10       0.3864      2.00000
     11       2.7504      2.00000
     12       2.7531      2.00000
     13       2.7566      2.00000
     14       2.7567      2.00000
     15       2.7567      2.00000
     16       2.7576      2.00000
     17       2.7586      2.00000
     18       2.7594      2.00000
     19       2.7594      2.00000
     20       2.7623      2.00000
     21       5.0744      2.00000
     22       5.0744      2.00000
     23       5.0752      2.00000
     24       5.0752      2.00000
     25       5.0755      2.00000
     26       5.0755      2.00000
     27       5.0762      2.00000
     28       5.0762      2.00000
     29       6.6977      2.00000
     30       6.6977      2.00000
     31       6.7011      2.00000
     32       6.7011      2.00000
     33       7.4390      2.00000
     34       7.4390      2.00000
     35       7.4393      2.00000
     36       7.4398      2.00000
     37       7.4400      2.00000
     38       7.4406      2.00000
     39       7.4408      2.00000
     40       7.4408      2.00000
     41       8.2695      2.00000
     42       8.2708      2.00000
     43       8.2725      2.00000
     44       8.2739      2.00000
     45       8.9227      2.00000
     46       8.9227      2.00000
     47       8.9236      2.00000
     48       8.9252      2.00000
     49       8.9253      2.00000
     50       8.9270      2.00000
     51       8.9278      2.00000
     52       8.9278      2.00000
     53      10.7454      0.00000
     54      10.7463      0.00000
     55      10.7463      0.00000
     56      10.7465      0.00000
     57      10.7490      0.00000
     58      10.7492      0.00000
     59      10.7492      0.00000
     60      10.7501      0.00000
     61      11.1544      0.00000
     62      11.1544      0.00000
     63      11.1566      0.00000
     64      11.1566      0.00000
     65      12.1447      0.00000
     66      12.1456      0.00000
     67      13.2476      0.00000
     68      13.2477      0.00000
     69      13.2496      0.00000
     70      13.2497      0.00000
     71      13.4046      0.00000
     72      13.4050      0.00000

 k-point   5 :       0.0000    0.1667    0.0000
  band No.  band energies     occupation 
      1      -2.5892      2.00000
      2      -0.9594      2.00000
      3      -0.1558      2.00000
      4      -0.1527      2.00000
      5      -0.1527      2.00000
      6      -0.1497      2.00000
      7       0.6483      2.00000
      8       1.4418      2.00000
      9       1.4449      2.00000
     10       1.4449      2.00000
     11       1.4480      2.00000
     12       2.2333      2.00000
     13       2.2341      2.00000
     14       2.2367      2.00000
     15       2.2375      2.00000
     16       3.0168      2.00000
     17       3.0200      2.00000
     18       3.0200      2.00000
     19       3.0231      2.00000
     20       3.7756      2.00000
     21       3.7764      2.00000
     22       3.7789      2.00000
     23       3.7797      2.00000
     24       5.2540      2.00000
     25       5.4275      2.00000
     26       5.4283      2.00000
     27       5.4308      2.00000
     28       5.4316      2.00000
     29       6.2066      2.00000
     30       6.2066      2.00000
     31       7.4846      2.00000
     32       7.4880      2.00000
     33       7.4880      2.00000
     34       7.4914      2.00000
     35       7.6869      2.00000
     36       7.6870      2.00000
     37       7.7831      2.00000
     38       7.7832      2.00000
     39       8.4262      2.00000
     40       8.4291      2.00000
     41       8.4291      2.00000
     42       8.4320      2.00000
     43       8.7261      2.00000
     44       9.0866      2.00000
     45       9.0866      2.00000
     46       9.1720      2.00000
     47       9.1720      2.00000
     48       9.8219      0.00000
     49       9.8232      0.00000
     50       9.8258      0.00000
     51       9.8271      0.00000
     52       9.8720      0.00000
     53       9.8750      0.00000
     54       9.8750      0.00000
     55       9.8780      0.00000
     56       9.9160      0.00000
     57       9.9189      0.00000
     58       9.9190      0.00000
     59       9.9220      0.00000
     60      11.4089      0.00000
     61      11.4120      0.00000
     62      11.4120      0.00000
     63      11.4150      0.00000
     64      11.5520      0.00000
     65      11.5520      0.00000
     66      11.7065      0.00000
     67      11.7080      0.00000
     68      11.7080      0.00000
     69      11.7095      0.00000
     70      11.8151      0.00000
     71      11.8173      0.00000
     72      11.8180      0.00000

 k-point   6 :       0.1667    0.1667    0.0000
  band No.  band energies     occupation 
      1      -2.5208      2.00000
      2      -0.8933      2.00000
      3      -0.8907      2.00000
      4      -0.0858      2.00000
      5      -0.0857      2.00000
      6       0.7130      2.00000
      7       0.7151      2.00000
      8       0.7170      2.00000
      9       1.5092      2.00000
     10       1.5102      2.00000
     11       1.5118      2.00000
     12       1.5128      2.00000
     13       2.3003      2.00000
     14       2.3011      2.00000
     15       3.0801      2.00000
     16       3.0806      2.00000
     17       3.0836      2.00000
     18       3.0842      2.00000
     19       3.0858      2.00000
     20       3.0870      2.00000
     21       3.8630      2.00000
     22       4.3932      2.00000
     23       4.3932      2.00000
     24       4.9461      2.00000
     25       4.9461      2.00000
     26       5.3168      2.00000
     27       5.3176      2.00000
     28       6.2440      2.00000
     29       6.2441      2.00000
     30       6.2682      2.00000
     31       6.8171      2.00000
     32       6.8197      2.00000
     33       7.3720      2.00000
     34       7.3720      2.00000
     35       7.7473      2.00000
     36       7.7502      2.00000
     37       7.7937      2.00000
     38       7.7938      2.00000
     39       7.8449      2.00000
     40       8.2183      2.00000
     41       8.2206      2.00000
     42       8.7862      2.00000
     43       8.7871      2.00000
     44       9.1324      2.00000
     45       9.1334      2.00000
     46       9.1350      2.00000
     47       9.1361      2.00000
     48       9.2321      2.00000
     49       9.2347      2.00000
     50       9.2374      2.00000
     51       9.4949      0.00000
     52       9.4967      0.00000
     53       9.9348      0.00000
     54       9.9377      0.00000
     55      10.5591      0.00000
     56      10.5592      0.00000
     57      10.6370      0.00000
     58      10.6379      0.00000
     59      10.6386      0.00000
     60      10.6396      0.00000
     61      10.7261      0.00000
     62      10.7279      0.00000
     63      11.1230      0.00000
     64      11.7500      0.00000
     65      11.7507      0.00000
     66      12.0165      0.00000
     67      12.0165      0.00000
     68      12.2220      0.00000
     69      12.2727      0.00000
     70      12.2749      0.00000
     71      12.6186      0.00000
     72      12.6203      0.00000

 k-point   7 :       0.3333    0.1667    0.0000
  band No.  band energies     occupation 
      1      -2.3160      2.00000
      2      -1.5003      2.00000
      3      -0.6899      2.00000
      4       0.1136      2.00000
      5       0.1150      2.00000
      6       0.1166      2.00000
      7       0.9130      2.00000
      8       0.9147      2.00000
      9       0.9160      2.00000
     10       1.7057      2.00000
     11       1.7086      2.00000
     12       1.7090      2.00000
     13       1.7104      2.00000
     14       2.4967      2.00000
     15       2.4967      2.00000
     16       3.2782      2.00000
     17       3.2789      2.00000
     18       3.2795      2.00000
     19       4.0335      2.00000
     20       4.0343      2.00000
     21       4.0374      2.00000
     22       4.0546      2.00000
     23       4.0547      2.00000
     24       4.8244      2.00000
     25       5.5064      2.00000
     26       5.5682      2.00000
     27       5.6855      2.00000
     28       5.6855      2.00000
     29       6.2596      2.00000
     30       6.3048      2.00000
     31       6.3049      2.00000
     32       6.4529      2.00000
     33       7.0502      2.00000
     34       7.1922      2.00000
     35       7.1945      2.00000
     36       7.1953      2.00000
     37       7.8279      2.00000
     38       7.8279      2.00000
     39       7.9175      2.00000
     40       7.9177      2.00000
     41       7.9346      2.00000
     42       8.0261      2.00000
     43       8.5690      2.00000
     44       8.5691      2.00000
     45       8.5800      2.00000
     46       8.6778      2.00000
     47       8.9658      2.00000
     48       9.4203      0.00000
     49       9.4316      0.00000
     50       9.4319      0.00000
     51       9.5683      0.00000
     52       9.6175      0.00000
     53       9.7452      0.00000
     54      10.1631      0.00000
     55      10.1677      0.00000
     56      10.4089      0.00000
     57      10.5443      0.00000
     58      10.9028      0.00000
     59      11.2028      0.00000
     60      11.2028      0.00000
     61      11.5730      0.00000
     62      11.5731      0.00000
     63      11.5926      0.00000
     64      11.6601      0.00000
     65      12.0170      0.00000
     66      12.1315      0.00000
     67      12.1315      0.00000
     68      12.3931      0.00000
     69      12.4093      0.00000
     70      12.5712      0.00000
     71      13.1077      0.00000
     72      13.1279      0.00000

 k-point   8 :       0.5000    0.1667    0.0000
  band No.  band energies     occupation 
      1      -1.9770      2.00000
      2      -1.9739      2.00000
      3      -0.3554      2.00000
      4      -0.3523      2.00000
      5       0.4467      2.00000
      6       0.4479      2.00000
      7       0.4498      2.00000
      8       0.4510      2.00000
      9       1.2443      2.00000
     10       1.2474      2.00000
     11       2.0359      2.00000
     12       2.0372      2.00000
     13       2.0391      2.00000
     14       2.0403      2.00000
     15       2.8179      2.00000
     16       2.8189      2.00000
     17       3.5971      2.00000
     18       3.5985      2.00000
     19       3.6003      2.00000
     20       3.6016      2.00000
     21       4.3721      2.00000
     22       4.3732      2.00000
     23       5.1347      2.00000
     24       5.1355      2.00000
     25       5.1357      2.00000
     26       5.1365      2.00000
     27       5.8195      2.00000
     28       5.8227      2.00000
     29       5.8939      2.00000
     30       5.8949      2.00000
     31       6.7434      2.00000
     32       6.7440      2.00000
     33       6.7448      2.00000
     34       6.7449      2.00000
     35       6.7596      2.00000
     36       6.7630      2.00000
     37       8.1288      2.00000
     38       8.1301      2.00000
     39       8.1322      2.00000
     40       8.1334      2.00000
     41       8.2423      2.00000
     42       8.2457      2.00000
     43       8.2624      2.00000
     44       8.2627      2.00000
     45       8.2635      2.00000
     46       8.2640      2.00000
     47       8.3070      2.00000
     48       8.3100      2.00000
     49       9.2518      2.00000
     50       9.2550      2.00000
     51       9.7297      0.00000
     52       9.7332      0.00000
     53      10.0841      0.00000
     54      10.0872      0.00000
     55      10.4666      0.00000
     56      10.4682      0.00000
     57      11.2169      0.00000
     58      11.2191      0.00000
     59      11.4863      0.00000
     60      11.4897      0.00000
     61      11.6442      0.00000
     62      11.6450      0.00000
     63      11.6476      0.00000
     64      11.6484      0.00000
     65      12.1934      0.00000
     66      12.1942      0.00000
     67      12.6238      0.00000
     68      12.6238      0.00000
     69      12.6256      0.00000
     70      12.6256      0.00000
     71      12.7169      0.00000
     72      12.7193      0.00000

 k-point   9 :       0.0000    0.3333    0.0000
  band No.  band energies     occupation 
      1      -2.3843      2.00000
      2      -1.5680      2.00000
      3       0.0450      2.00000
      4       0.0481      2.00000
      5       0.0481      2.00000
      6       0.0512      2.00000
      7       0.8452      2.00000
      8       0.8483      2.00000
      9       0.8483      2.00000
     10       0.8514      2.00000
     11       1.6411      2.00000
     12       2.4298      2.00000
     13       2.4306      2.00000
     14       2.4332      2.00000
     15       2.4340      2.00000
     16       3.2086      2.00000
     17       3.2095      2.00000
     18       3.2120      2.00000
     19       3.2128      2.00000
     20       3.9723      2.00000
     21       3.9878      2.00000
     22       3.9910      2.00000
     23       3.9910      2.00000
     24       3.9942      2.00000
     25       6.2539      2.00000
     26       6.2573      2.00000
     27       6.2573      2.00000
     28       6.2605      2.00000
     29       6.3678      2.00000
     30       6.3686      2.00000
     31       6.3713      2.00000
     32       6.3722      2.00000
     33       6.3915      2.00000
     34       6.3915      2.00000
     35       7.1312      2.00000
     36       7.1312      2.00000
     37       7.9697      2.00000
     38       7.9697      2.00000
     39       8.6100      2.00000
     40       8.6107      2.00000
     41       8.6126      2.00000
     42       8.6137      2.00000
     43       8.6148      2.00000
     44       8.6151      2.00000
     45       8.6151      2.00000
     46       8.6182      2.00000
     47       8.6667      2.00000
     48       8.6668      2.00000
     49       9.3568      0.06882
     50       9.3598      0.02527
     51       9.3598      0.02491
     52       9.3628      0.00780
     53      10.1016      0.00000
     54      10.1017      0.00000
     55      10.3384      0.00000
     56      10.3412      0.00000
     57      10.3412      0.00000
     58      10.3438      0.00000
     59      10.3525      0.00000
     60      11.2270      0.00000
     61      11.2297      0.00000
     62      11.2297      0.00000
     63      11.2323      0.00000
     64      12.3095      0.00000
     65      12.3095      0.00000
     66      12.3303      0.00000
     67      12.3304      0.00000
     68      12.3431      0.00000
     69      12.3461      0.00000
     70      12.3463      0.00000
     71      12.3493      0.00000
     72      13.0094      0.00000

 k-point  10 :       0.1667    0.3333    0.0000
  band No.  band energies     occupation 
      1      -2.3160      2.00000
      2      -1.5003      2.00000
      3      -0.6899      2.00000
      4       0.1136      2.00000
      5       0.1150      2.00000
      6       0.1166      2.00000
      7       0.9130      2.00000
      8       0.9147      2.00000
      9       0.9160      2.00000
     10       1.7059      2.00000
     11       1.7081      2.00000
     12       1.7090      2.00000
     13       1.7107      2.00000
     14       2.4967      2.00000
     15       2.4967      2.00000
     16       3.2775      2.00000
     17       3.2789      2.00000
     18       3.2803      2.00000
     19       4.0336      2.00000
     20       4.0343      2.00000
     21       4.0374      2.00000
     22       4.0545      2.00000
     23       4.0546      2.00000
     24       4.8244      2.00000
[...]
      6       0.2488      2.00000
      7       0.2488      2.00000
      8       0.2488      2.00000
      9       1.8403      2.00000
     10       1.8403      2.00000
     11       1.8403      2.00000
     12       1.8403      2.00000
     13       3.4040      2.00000
     14       3.4040      2.00000
     15       3.4040      2.00000
     16       3.4040      2.00000
     17       3.4040      2.00000
     18       3.4040      2.00000
     19       3.4040      2.00000
     20       3.4040      2.00000
     21       4.9233      2.00000
     22       4.9233      2.00000
     23       4.9237      2.00000
     24       4.9237      2.00000
     25       4.9237      2.00000
     26       4.9237      2.00000
     27       4.9242      2.00000
     28       4.9242      2.00000
     29       6.3672      2.00000
     30       6.3672      2.00000
     31       6.3672      2.00000
     32       6.3672      2.00000
     33       6.5703      2.00000
     34       6.5703      2.00000
     35       6.5712      2.00000
     36       6.5712      2.00000
     37       6.5712      2.00000
     38       6.5712      2.00000
     39       6.5721      2.00000
     40       6.5721      2.00000
     41       7.9899      2.00000
     42       7.9899      2.00000
     43       7.9899      2.00000
     44       7.9899      2.00000
     45       9.5714      0.00000
     46       9.5714      0.00000
     47       9.5714      0.00000
     48       9.5714      0.00000
     49      10.0474      0.00000
     50      10.0474      0.00000
     51      10.0474      0.00000
     52      10.0474      0.00000
     53      10.8943      0.00000
     54      10.8943      0.00000
     55      10.8952      0.00000
     56      10.8952      0.00000
     57      10.8952      0.00000
     58      10.8952      0.00000
     59      10.8960      0.00000
     60      10.8960      0.00000
     61      11.0846      0.00000
     62      11.0846      0.00000
     63      11.0847      0.00000
     64      11.0847      0.00000
     65      12.7476      0.00000
     66      12.7476      0.00000
     67      12.7490      0.00000
     68      12.7490      0.00000
     69      12.7490      0.00000
     70      12.7490      0.00000
     71      12.7504      0.00000
     72      12.7504      0.00000

 k-point  39 :       0.3333    0.5000    0.5000
  band No.  band energies     occupation 
      1      -1.1620      2.00000
      2      -1.1620      2.00000
      3      -1.1620      2.00000
      4      -1.1620      2.00000
      5      -0.3538      2.00000
      6      -0.3538      2.00000
      7      -0.3538      2.00000
      8      -0.3538      2.00000
      9       2.8222      2.00000
     10       2.8223      2.00000
     11       2.8223      2.00000
     12       2.8223      2.00000
     13       3.5980      2.00000
     14       3.5980      2.00000
     15       3.5981      2.00000
     16       3.5981      2.00000
     17       3.5981      2.00000
     18       3.5981      2.00000
     19       3.5981      2.00000
     20       3.5981      2.00000
     21       4.3664      2.00000
     22       4.3664      2.00000
     23       4.3666      2.00000
     24       4.3666      2.00000
     25       4.3666      2.00000
     26       4.3666      2.00000
     27       4.3668      2.00000
     28       4.3668      2.00000
     29       5.1189      2.00000
     30       5.1189      2.00000
     31       5.1189      2.00000
     32       5.1189      2.00000
     33       7.4958      2.00000
     34       7.4958      2.00000
     35       7.4965      2.00000
     36       7.4965      2.00000
     37       7.4965      2.00000
     38       7.4965      2.00000
     39       7.4971      2.00000
     40       7.4971      2.00000
     41       8.2217      2.00000
     42       8.2217      2.00000
     43       8.2217      2.00000
     44       8.2217      2.00000
     45       8.9991      2.00000
     46       8.9991      2.00000
     47       8.9991      2.00000
     48       8.9991      2.00000
     49       9.7023      0.00000
     50       9.7023      0.00000
     51       9.7030      0.00000
     52       9.7030      0.00000
     53       9.7030      0.00000
     54       9.7030      0.00000
     55       9.7036      0.00000
     56       9.7036      0.00000
     57      11.5970      0.00000
     58      11.5970      0.00000
     59      11.5970      0.00000
     60      11.5970      0.00000
     61      12.0208      0.00000
     62      12.0208      0.00000
     63      12.0208      0.00000
     64      12.0208      0.00000
     65      13.0244      0.00000
     66      13.0244      0.00000
     67      13.0255      0.00000
     68      13.0255      0.00000
     69      13.0255      0.00000
     70      13.0255      0.00000
     71      13.0266      0.00000
     72      13.0266      0.00000

 k-point  40 :       0.5000    0.5000    0.5000
  band No.  band energies     occupation 
      1      -0.8298      2.00000
      2      -0.8251      2.00000
      3      -0.8251      2.00000
      4      -0.8246      2.00000
      5      -0.8246      2.00000
      6      -0.8241      2.00000
      7      -0.8241      2.00000
      8      -0.8194      2.00000
      9       3.9096      2.00000
     10       3.9156      2.00000
     11       3.9156      2.00000
     12       3.9190      2.00000
     13       3.9194      2.00000
     14       3.9196      2.00000
     15       3.9200      2.00000
     16       3.9200      2.00000
     17       3.9200      2.00000
     18       3.9201      2.00000
     19       3.9201      2.00000
     20       3.9201      2.00000
     21       3.9201      2.00000
     22       3.9201      2.00000
     23       3.9201      2.00000
     24       3.9202      2.00000
     25       3.9202      2.00000
     26       3.9202      2.00000
     27       3.9206      2.00000
     28       3.9208      2.00000
     29       3.9212      2.00000
     30       3.9246      2.00000
     31       3.9246      2.00000
     32       3.9306      2.00000
     33       8.5437      2.00000
     34       8.5437      2.00000
     35       8.5462      2.00000
     36       8.5475      2.00000
     37       8.5494      2.00000
     38       8.5498      2.00000
     39       8.5499      2.00000
     40       8.5499      2.00000
     41       8.5502      2.00000
     42       8.5502      2.00000
     43       8.5502      2.00000
     44       8.5502      2.00000
     45       8.5503      2.00000
     46       8.5503      2.00000
     47       8.5503      2.00000
     48       8.5503      2.00000
     49       8.5506      2.00000
     50       8.5506      2.00000
     51       8.5507      2.00000
     52       8.5511      2.00000
     53       8.5530      2.00000
     54       8.5544      2.00000
     55       8.5568      2.00000
     56       8.5568      2.00000
     57      13.0679      0.00000
     58      13.0685      0.00000
     59      13.0685      0.00000
     60      13.0687      0.00000
     61      13.0707      0.00000
     62      13.0709      0.00000
     63      13.0709      0.00000
     64      13.0716      0.00000
     65      13.3490      0.00000
     66      13.3503      0.00000
     67      13.3508      0.00000
     68      13.3513      0.00000
     69      13.3517      0.00000
     70      13.3523      0.00000
     71      13.3530      0.00000
     72      13.3537      0.00000


--------------------------------------------------------------------------------------------------------


 soft charge-density along one line, spin component           1
         0         1         2         3         4         5         6         7         8         9
 total charge-density along one line
 
 pseudopotential strength for first ion, spin component:           1
  8.402  -0.008  -0.000  -0.000  -0.000  -0.000  -0.000  -0.000
 -0.008   0.000  -0.000  -0.000  -0.000   0.000   0.000   0.000
 -0.000  -0.000   1.995  -0.000  -0.000  -0.031   0.000   0.000
 -0.000  -0.000  -0.000   1.995   0.000   0.000  -0.031  -0.000
 -0.000  -0.000  -0.000   0.000   1.995   0.000  -0.000  -0.031
 -0.000   0.000  -0.031   0.000   0.000  -0.011   0.000   0.000
 -0.000   0.000   0.000  -0.031  -0.000   0.000  -0.011  -0.000
 -0.000   0.000   0.000  -0.000  -0.031   0.000  -0.000  -0.011
 total augmentation occupancy for first ion, spin component:           1
  1.299  -0.623  -0.000   0.000   0.003   0.000  -0.000  -0.002
 -0.623   0.635  -0.000   0.000  -0.004   0.000  -0.000   0.002
 -0.000  -0.000   0.836   0.007   0.010  -0.183  -0.001  -0.002
  0.000   0.000   0.007   0.834   0.003  -0.001  -0.178  -0.001
  0.003  -0.004   0.010   0.003   0.835  -0.002  -0.001  -0.181
  0.000   0.000  -0.183  -0.001  -0.002   0.046   0.000   0.000
 -0.000  -0.000  -0.001  -0.178  -0.001   0.000   0.045   0.000
 -0.002   0.002  -0.002  -0.001  -0.181   0.000   0.000   0.045


------------------------ aborting loop because EDIFF is reached ----------------------------------------




--------------------------------------------------------------------------------------------------------


    CHARGE:  VPU time    0.67: CPU time    0.67
    FORLOC:  VPU time    0.03: CPU time    0.03
    FORNL :  VPU time    5.77: CPU time    5.76
    STRESS:  VPU time   15.50: CPU time   15.49
    FORCOR:  VPU time    0.15: CPU time    0.15
    FORHAR:  VPU time    0.05: CPU time    0.05
    MIXING:  VPU time    0.00: CPU time    0.00


--------------------------------------------------------------------------------------------------------



  FREE ENERGIE OF THE ION-ELECTRON SYSTEM (eV)
  ---------------------------------------------------
  free  energy   TOTEN  =      -117.590572 eV

  energy  without entropy=     -117.589419  energy(sigma->0) =     -117.589995
 

  FORCE on cell =-STRESS in cart. coord.  units (eV/reduce length):
  Direction    X        Y        Z        XY       YZ       ZX
  --------------------------------------------------------------------------------------
  Alpha Z     -7.38     -7.38     -7.38
  Ewald     -817.64   -817.64   -817.64     -0.00     -0.00     -0.00
  Hartree      1.41      1.41      1.41     -0.00     -0.00     -0.00
  E(xc)     -285.70   -285.70   -285.70      0.00     -0.00      0.00
  Local       27.29     27.29     27.29     -0.00      0.00      0.00
  n-local    628.42    628.02    628.82     -1.49     -0.46      0.57
  augment    -31.00    -31.00    -31.00      0.00      0.00      0.00
  Kinetic    521.82    515.71    527.93      8.27      2.69     -2.89
  -------------------------------------------------------------------------------------
  Total       37.21     37.21     37.21     -0.00      0.00      0.00
  in kB      128.00    128.01    128.01     -0.00      0.00      0.00
  external pressure =      128.00 kB  Pullay stress =        0.00 kB


 VOLUME and BASIS-vectors are now :
 -----------------------------------------------------------------------------
  energy-cutoff  :      500.00
  volume of cell :      465.78
      direct lattice vectors                 reciprocal lattice vectors
     7.751628230  0.000000000  0.000000000     0.129005155  0.000000000  0.000000000
     0.000000000  7.751628230  0.000000000     0.000000000  0.129005155  0.000000000
     0.000000000  0.000000000  7.751628230     0.000000000  0.000000000  0.129005155

  length of vectors
     7.751628230  7.751628230  7.751628230     0.129005155  0.129005155  0.129005155


 FORCES acting on ions
    electron-ion (+dipol)            ewald-force                    non-local-force                 convergence-correction
 -----------------------------------------------------------------------------------------------
   0.443E+00 -.943E-14 -.619E-08   -.361E+00 0.333E-14 0.234E-14   -.155E+00 0.000E+00 0.000E+00   -.104E-05 0.291E-14 -.185E-13
   -.930E-01 0.283E-12 -.109E-12   0.954E-01 -.405E-14 0.285E-14   0.169E-02 0.000E+00 -.271E-19   -.406E-06 0.419E-14 -.216E-13
   0.336E-01 -.409E-14 -.969E-13   -.302E-01 -.833E-15 0.409E-15   -.260E-02 0.000E+00 0.000E+00   -.745E-06 -.359E-14 -.172E-13
   -.240E-01 -.367E-12 -.340E-13   0.237E-01 0.228E-14 0.396E-14   0.926E-03 0.000E+00 0.000E+00   0.205E-07 -.484E-14 -.194E-13
   0.336E-01 0.375E-14 -.643E-13   -.302E-01 -.416E-14 0.663E-15   -.260E-02 0.000E+00 0.271E-19   -.736E-06 0.162E-14 0.189E-13
   -.240E-01 -.731E-13 0.101E-13   0.237E-01 -.416E-14 0.885E-15   0.926E-03 -.542E-19 0.136E-19   0.150E-07 0.199E-14 0.220E-13
   0.153E-01 -.157E-13 -.295E-13   -.125E-01 0.239E-14 -.226E-15   -.188E-02 -.542E-19 0.263E-19   -.225E-05 -.227E-14 0.176E-13
   -.111E-01 0.131E-12 0.323E-12   0.117E-01 0.239E-14 -.378E-14   -.818E-03 0.542E-19 0.000E+00   0.221E-05 -.264E-14 0.198E-13
   0.543E-01 -.206E-03 0.206E-03   -.570E-01 0.231E-03 -.231E-03   0.961E-03 0.393E-04 -.393E-04   -.106E-05 0.145E-06 -.145E-06
   -.366E-01 0.871E-04 -.871E-04   0.320E-01 -.692E-04 0.692E-04   0.368E-02 -.355E-04 0.355E-04   0.226E-06 0.817E-07 -.817E-07
   0.543E-01 0.206E-03 0.206E-03   -.570E-01 -.231E-03 -.231E-03   0.961E-03 -.393E-04 -.393E-04   -.106E-05 -.145E-06 -.145E-06
   -.366E-01 -.871E-04 -.871E-04   0.320E-01 0.692E-04 0.692E-04   0.368E-02 0.355E-04 0.355E-04   0.226E-06 -.817E-07 -.817E-07
   0.543E-01 -.206E-03 -.206E-03   -.570E-01 0.231E-03 0.231E-03   0.961E-03 0.393E-04 0.393E-04   -.106E-05 0.145E-06 0.145E-06
   -.366E-01 0.871E-04 0.871E-04   0.320E-01 -.692E-04 -.692E-04   0.368E-02 -.355E-04 -.355E-04   0.226E-06 0.817E-07 0.817E-07
   0.543E-01 0.206E-03 -.206E-03   -.570E-01 -.231E-03 0.231E-03   0.961E-03 -.393E-04 0.393E-04   -.106E-05 -.145E-06 0.145E-06
   -.366E-01 -.871E-04 0.871E-04   0.320E-01 0.692E-04 -.692E-04   0.368E-02 0.355E-04 -.355E-04   0.226E-06 -.817E-07 0.817E-07
   -.546E-01 0.167E-14 0.952E-01   0.461E-01 0.611E-15 -.873E-01   0.180E-01 -.542E-19 -.188E-01   0.617E-06 0.238E-14 -.133E-06
   -.545E-01 -.319E-12 -.962E-01   0.458E-01 -.228E-14 0.881E-01   0.183E-01 -.813E-19 0.193E-01   0.535E-06 0.197E-14 -.194E-06
   -.105E-02 -.113E-13 0.826E-02   0.154E-02 0.494E-14 -.723E-02   -.526E-03 0.000E+00 -.725E-03   0.188E-06 -.301E-14 0.871E-06
   -.849E-03 -.607E-13 -.833E-02   0.139E-02 0.761E-14 0.724E-02   -.525E-03 0.000E+00 0.773E-03   0.232E-06 -.267E-14 -.971E-06
   -.546E-01 -.457E-15 -.952E-01   0.461E-01 -.294E-14 0.873E-01   0.180E-01 0.271E-19 0.188E-01   0.617E-06 0.321E-14 0.133E-06
   -.545E-01 0.632E-13 0.962E-01   0.458E-01 -.228E-14 -.881E-01   0.183E-01 0.000E+00 -.193E-01   0.535E-06 0.322E-14 0.194E-06
   -.105E-02 -.146E-13 -.826E-02   0.154E-02 0.494E-14 0.723E-02   -.526E-03 0.542E-19 0.725E-03   0.188E-06 -.383E-14 -.871E-06
   -.849E-03 0.122E-12 0.833E-02   0.139E-02 0.761E-14 -.724E-02   -.525E-03 -.542E-19 -.773E-03   0.232E-06 -.388E-14 0.971E-06
   -.546E-01 -.952E-01 0.461E-14   0.461E-01 0.873E-01 -.267E-15   0.180E-01 0.188E-01 0.678E-20   0.618E-06 0.130E-06 -.191E-13
   -.545E-01 0.962E-01 0.452E-13   0.458E-01 -.881E-01 0.620E-15   0.183E-01 -.193E-01 0.000E+00   0.536E-06 0.197E-06 -.182E-13
   -.546E-01 0.952E-01 0.111E-14   0.461E-01 -.873E-01 0.306E-14   0.180E-01 -.188E-01 0.271E-19   0.618E-06 -.130E-06 -.200E-13
   -.545E-01 -.962E-01 0.501E-13   0.458E-01 0.881E-01 0.417E-14   0.183E-01 0.193E-01 -.136E-19   0.536E-06 -.197E-06 -.194E-13
   -.105E-02 -.826E-02 -.772E-14   0.154E-02 0.723E-02 0.293E-15   -.526E-03 0.725E-03 0.136E-19   0.188E-06 -.875E-06 0.195E-13
   -.849E-03 0.833E-02 -.820E-13   0.139E-02 -.724E-02 -.597E-15   -.525E-03 -.773E-03 0.000E+00   0.231E-06 0.975E-06 0.186E-13
   -.105E-02 0.826E-02 -.391E-14   0.154E-02 -.723E-02 -.326E-14   -.526E-03 -.725E-03 -.339E-20   0.188E-06 0.875E-06 0.204E-13
   -.849E-03 -.833E-02 0.960E-13   0.139E-02 0.724E-02 -.415E-14   -.525E-03 0.773E-03 0.169E-19   0.231E-06 -.975E-06 0.198E-13
 -----------------------------------------------------------------------------------------------
   0.216E-05 0.146E-12 -.619E-08   -.207E-14 -.281E-14 0.101E-15   -.537E-06 -.325E-17 0.829E-17   0.342E-07 0.390E-16 -.169E-16
 
 
 POSITION                                       TOTAL-FORCE (eV/Angst)
 -----------------------------------------------------------------------------------
      1.94791      1.93791      0.00000        -0.073479      0.000000      0.000000
      5.81372      1.93791      0.00000         0.004083     -0.000000     -0.000000
      1.93791      5.81372      0.00000         0.000773      0.000000      0.000000
      5.81372      5.81372      0.00000         0.000604     -0.000000      0.000000
      1.93791      1.93791      3.87581         0.000773      0.000000      0.000000
      5.81372      1.93791      3.87581         0.000604      0.000000      0.000000
      1.93791      5.81372      3.87581         0.000953      0.000000      0.000000
      5.81372      5.81372      3.87581        -0.000293     -0.000000     -0.000000
      1.93791      0.00000      1.93791        -0.001727      0.000064     -0.000064
      5.81372      0.00000      1.93791        -0.000899     -0.000018      0.000018
      1.93791      3.87581      1.93791        -0.001727     -0.000064     -0.000064
      5.81372      3.87581      1.93791        -0.000899      0.000018      0.000018
      1.93791      0.00000      5.81372        -0.001727      0.000064      0.000064
      5.81372      0.00000      5.81372        -0.000899     -0.000018     -0.000018
      1.93791      3.87581      5.81372        -0.001727     -0.000064      0.000064
      5.81372      3.87581      5.81372        -0.000899      0.000018     -0.000018
      0.00000      1.93791      1.93791         0.009483      0.000000     -0.010889
      3.87581      1.93791      1.93791         0.009653      0.000000      0.011179
      0.00000      5.81372      1.93791        -0.000032     -0.000000      0.000311
      3.87581      5.81372      1.93791         0.000018     -0.000000     -0.000325
      0.00000      1.93791      5.81372         0.009483      0.000000      0.010889
      3.87581      1.93791      5.81372         0.009653      0.000000     -0.011179
      0.00000      5.81372      5.81372        -0.000032     -0.000000     -0.000311
      3.87581      5.81372      5.81372         0.000018      0.000000      0.000325
      0.00000      0.00000      0.00000         0.009483      0.010889      0.000000
      3.87581      0.00000      0.00000         0.009653     -0.011179     -0.000000
      0.00000      3.87581      0.00000         0.009483     -0.010889     -0.000000
      3.87581      3.87581      0.00000         0.009653      0.011179     -0.000000
      0.00000      0.00000      3.87581        -0.000032     -0.000311     -0.000000
      3.87581      0.00000      3.87581         0.000018      0.000325      0.000000
      0.00000      3.87581      3.87581        -0.000032      0.000311     -0.000000
      3.87581      3.87581      3.87581         0.000018     -0.000325      0.000000
 -----------------------------------------------------------------------------------
    total drift:                                0.000002      0.000000     -0.000000


--------------------------------------------------------------------------------------------------------



 mean value of Nose-termostat <S>:     1.000 mean value of <T> :     0.000
 mean temperature <T/S>/<1/S>  :     0.000

     LOOP+:  VPU time  311.32: CPU time  311.36
  
  
 General timing and accounting informations for this job:
 ========================================================
  
                  Total CPU time used (sec):      318.716
                            User time (sec):      296.574
                          System time (sec):       22.142
                         Elapsed time (sec):      318.760
  
                   Maximum memory used (kb):      862904.
                   Average memory used (kb):           0.
  
                          Minor page faults:       208953
                          Major page faults:            0
                 Voluntary context switches:          942
