<?xml version="1.0" encoding="ISO-8859-1"?>
<modeling>
 <generator>
  <i name="program" type="string">vasp</i>
  <i name="version" type="string">4.6.28 </i>
  <i name="subversion" type="string">25Jul05 complex  parallel</i>
  <i name="platform" type="string">LinuxIFC</i>
  <i name="date" type="string">2016 10 19</i>
  <i name="time" type="string">17:34:49</i>
 </generator>
 <incar>
  <i type="string" name="PREC">accurate</i>
  <i type="int" name="IALGO">    38</i>
  <i name="EDIFF">      0.00000001</i>
  <i type="int" name="IBRION">    -1</i>
  <i name="ENCUT">    500.00000000</i>
  <i type="logical" name="LREAL"> F  </i>
  <i type="int" name="ISMEAR">     0</i>
  <i name="SIGMA">      0.01000000</i>
  <i type="logical" name="LWAVE"> F  </i>
  <i type="logical" name="LCHARG"> F  </i>
 </incar>
 <kpoints>
  <generation param="Auto">
   <i name="subdivisionlength">     50.00000000</i>
   <v type="int" name="divisions">       6       6       6</v>
   <v name="usershift">      0.00000000      0.00000000      0.00000000</v>
   <v name="genvec1">      0.16666667      0.00000000      0.00000000</v>
   <v name="genvec2">      0.00000000      0.16666667      0.00000000</v>
   <v name="genvec3">      0.00000000      0.00000000      0.16666667</v>
   <v name="shift">      0.00000000      0.00000000      0.00000000</v>
  </generation>
  <varray name="kpointlist" >
   <v>       0.00000000      0.00000000      0.00000000</v>
   <v>       0.16666667      0.00000000      0.00000000</v>
   <v>       0.33333333      0.00000000      0.00000000</v>
   <v>       0.50000000      0.00000000      0.00000000</v>
   <v>       0.00000000      0.16666667      0.00000000</v>
   <v>       0.16666667      0.16666667      0.00000000</v>
   <v>       0.33333333      0.16666667      0.00000000</v>
   <v>       0.50000000      0.16666667      0.00000000</v>
   <v>       0.00000000      0.33333333      0.00000000</v>
   <v>       0.16666667      0.33333333      0.00000000</v>
   <v>       0.33333333      0.33333333      0.00000000</v>
   <v>       0.50000000      0.33333333      0.00000000</v>
   <v>       0.00000000      0.50000000      0.00000000</v>
   <v>       0.16666667      0.50000000      0.00000000</v>
   <v>       0.33333333      0.50000000      0.00000000</v>
   <v>       0.50000000      0.50000000      0.00000000</v>
   <v>       0.00000000      0.16666667      0.16666667</v>
   <v>       0.16666667      0.16666667      0.16666667</v>
   <v>       0.33333333      0.16666667      0.16666667</v>
   <v>       0.50000000      0.16666667      0.16666667</v>
   <v>       0.00000000      0.33333333      0.16666667</v>
   <v>       0.16666667      0.33333333      0.16666667</v>
   <v>       0.33333333      0.33333333      0.16666667</v>
   <v>       0.50000000      0.33333333      0.16666667</v>
   <v>       0.00000000      0.50000000      0.16666667</v>
   <v>       0.16666667      0.50000000      0.16666667</v>
   <v>       0.33333333      0.50000000      0.16666667</v>
   <v>       0.50000000      0.50000000      0.16666667</v>
   <v>       0.00000000      0.33333333      0.33333333</v>
   <v>       0.16666667      0.33333333      0.33333333</v>
   <v>       0.33333333      0.33333333      0.33333333</v>
   <v>       0.50000000      0.33333333      0.33333333</v>
   <v>       0.00000000      0.50000000      0.33333333</v>
   <v>       0.16666667      0.50000000      0.33333333</v>
   <v>       0.33333333      0.50000000      0.33333333</v>
   <v>       0.50000000      0.50000000      0.33333333</v>
   <v>       0.00000000      0.50000000      0.50000000</v>
   <v>       0.16666667      0.50000000      0.50000000</v>
   <v>       0.33333333      0.50000000      0.50000000</v>
   <v>       0.50000000      0.50000000      0.50000000</v>
  </varray>
  <varray name="weights" >
   <v>       0.00462963</v>
   <v>       0.00925926</v>
   <v>       0.00925926</v>
   <v>       0.00462963</v>
   <v>       0.01851852</v>
   <v>       0.03703704</v>
   <v>       0.03703704</v>
   <v>       0.01851852</v>
   <v>       0.01851852</v>
   <v>       0.03703704</v>
   <v>       0.03703704</v>
   <v>       0.01851852</v>
   <v>       0.00925926</v>
   <v>       0.01851852</v>
   <v>       0.01851852</v>
   <v>       0.00925926</v>
   <v>       0.01851852</v>
   <v>       0.03703704</v>
   <v>       0.03703704</v>
   <v>       0.01851852</v>
   <v>       0.03703704</v>
   <v>       0.07407407</v>
   <v>       0.07407407</v>
   <v>       0.03703704</v>
   <v>       0.01851852</v>
   <v>       0.03703704</v>
   <v>       0.03703704</v>
   <v>       0.01851852</v>
   <v>       0.01851852</v>
   <v>       0.03703704</v>
   <v>       0.03703704</v>
   <v>       0.01851852</v>
   <v>       0.01851852</v>
   <v>       0.03703704</v>
   <v>       0.03703704</v>
   <v>       0.01851852</v>
   <v>       0.00462963</v>
   <v>       0.00925926</v>
   <v>       0.00925926</v>
   <v>       0.00462963</v>
  </varray>
 </kpoints>
 <parameters>
  <separator name="general" >
   <i type="string" name="SYSTEM">unknown system</i>
   <i type="logical" name="LCOMPAT"> F  </i>
  </separator>
  <separator name="electronic" >
   <i type="string" name="PREC">accura</i>
   <i name="ENMAX">    500.00000000</i>
   <i name="ENAUG">    291.05200000</i>
   <i name="EDIFF">      0.00000001</i>
   <i type="int" name="IALGO">    38</i>
   <i type="int" name="IWAVPR">    10</i>
   <i type="int" name="NBANDS">    65</i>
   <i name="NELECT">     96.00000000</i>
   <separator name="electronic smearing" >
    <i type="int" name="ISMEAR">     0</i>
    <i name="SIGMA">      0.01000000</i>
   </separator>
   <separator name="electronic projectors" >
    <i type="logical" name="LREAL"> F  </i>
    <v name="ROPT">      0.00000000</v>
    <i type="int" name="LMAXPAW">  -100</i>
    <i type="int" name="LMAXMIX">     2</i>
   </separator>
   <separator name="electronic startup" >
    <i type="int" name="ISTART">     0</i>
    <i type="int" name="ICHARG">     2</i>
    <i type="int" name="INIWAV">     1</i>
   </separator>
   <separator name="electronic spin" >
    <i type="int" name="ISPIN">     1</i>
    <i type="logical" name="LNONCOLLINEAR"> F  </i>
    <v name="MAGMOM">      1.00000000      1.00000000      1.00000000      1.00000000      1.00000000      1.00000000      1.00000000      1.00000000      1.00000000      1.00000000      1.00000000      1.00000000      1.00000000      1.00000000      1.00000000      1.00000000      1.00000000      1.00000000      1.00000000      1.00000000
      1.00000000      1.00000000      1.00000000      1.00000000      1.00000000      1.00000000      1.00000000      1.00000000      1.00000000      1.00000000      1.00000000      1.00000000</v>
    <i name="NUPDOWN">     -1.00000000</i>
    <i type="logical" name="LSORBIT"> F  </i>
    <v name="SAXIS">      0.00000000      0.00000000      1.00000000</v>
    <i type="logical" name="LSPIRAL"> F  </i>
    <v name="QSPIRAL">      0.00000000      0.00000000      0.00000000</v>
    <i type="logical" name="LZEROZ"> F  </i>
   </separator>
   <separator name="electronic exchange-correlation" >
    <i type="string" name="GGA">--</i>
    <i type="int" name="VOSKOWN">     0</i>
    <i type="logical" name="LASPH"> F  </i>
    <i type="logical" name="LMETAGGA"> F  </i>
    <i type="string" name="GGA2">--</i>
   </separator>
   <separator name="electronic convergence" >
    <i type="int" name="NELM">    60</i>
    <i type="int" name="NELMDL">     0</i>
    <i type="int" name="NELMIN">     2</i>
    <i name="ENINI">    500.00000000</i>
    <separator name="electronic convergence detail" >
     <i type="logical" name="LDIAG"> T  </i>
     <i name="WEIMIN">      0.00000000</i>
     <i name="EBREAK">      0.00000000</i>
     <i name="DEPER">      0.30000000</i>
     <i type="int" name="NRMM">     4</i>
     <i name="TIME">      0.10000000</i>
    </separator>
   </separator>
   <separator name="electronic mixer" >
    <i name="AMIX">      0.40000000</i>
    <i name="BMIX">      1.00000000</i>
    <i name="AMIN">      0.10000000</i>
    <i name="AMIX_MAG">      1.60000000</i>
    <i name="BMIX_MAG">      1.00000000</i>
    <separator name="electronic mixer details" >
     <i type="int" name="IMIX">     4</i>
     <i type="int" name="MAXMIX">   -45</i>
     <i name="WC">    100.00000000</i>
     <i type="int" name="INIMIX">     1</i>
     <i type="int" name="MIXPRE">     1</i>
     <i type="int" name="MREMOVE">     5</i>
    </separator>
   </separator>
   <separator name="electronic dipolcorrection" >
    <i type="int" name="IDIPOL">     0</i>
    <i type="logical" name="LDIPOL"> F  </i>
    <v name="DIPOL">   -100.00000000</v>
    <i name="EFIELD">      0.00000000</i>
   </separator>
  </separator>
  <separator name="grids" >
   <i type="int" name="NGX">    60</i>
   <i type="int" name="NGY">    60</i>
   <i type="int" name="NGZ">    60</i>
   <i type="int" name="NGXF">   120</i>
   <i type="int" name="NGYF">   120</i>
   <i type="int" name="NGZF">   120</i>
   <i type="logical" name="ADDGRID"> F  </i>
  </separator>
  <separator name="ionic" >
   <i type="int" name="NSW">     0</i>
   <i type="int" name="IBRION">    -1</i>
   <i type="int" name="ISIF">     2</i>
   <i name="PSTRESS">      0.00000000</i>
   <i name="EDIFFG">      0.00000010</i>
   <i type="int" name="NFREE">     0</i>
   <i name="POTIM">      0.50000000</i>
   <i name="SMASS">     -3.00000000</i>
  </separator>
  <separator name="ionic md" >
   <i name="TEBEG">      0.00010000</i>
   <i name="TEEND">      0.00010000</i>
   <i type="int" name="NBLOCK">     1</i>
   <i type="int" name="KBLOCK">     1</i>
   <i type="int" name="NPACO">   256</i>
   <i name="APACO">     16.00000000</i>
  </separator>
  <separator name="symmetry" >
   <i type="int" name="ISYM">     2</i>
   <i name="SYMPREC">      0.00001000</i>
  </separator>
  <separator name="dos" >
   <i type="logical" name="LORBIT"> F  </i>
   <v name="RWIGS">     -1.00000000</v>
   <i type="int" name="NEDOS">   301</i>
   <i name="EMIN">     10.00000000</i>
   <i name="EMAX">    -10.00000000</i>
  </separator>
  <separator name="writing" >
   <i type="int" name="NWRITE">     2</i>
   <i type="logical" name="LWAVE"> F  </i>
   <i type="logical" name="LCHARG"> F  </i>
   <i type="logical" name="LPARD"> F  </i>
   <i type="logical" name="LVTOT"> F  </i>
   <i type="logical" name="LELF"> F  </i>
   <i type="logical" name="LOPTICS"> F  </i>
   <i name="STM">      0.00000000</i>
  </separator>
  <separator name="performance" >
   <i type="int" name="NPAR">     8</i>
   <i type="int" name="NSIM">     4</i>
   <i type="int" name="NBLK">   256</i>
   <i type="logical" name="LPLANE"> T  </i>
   <i type="logical" name="LCRITICAL_MEM"> F  </i>
   <i type="logical" name="LSCALAPACK"> F  </i>
   <i type="logical" name="LSCALU"> F  </i>
   <i type="logical" name="LASYNC"> F  </i>
  </separator>
  <separator name="miscellaneous" >
   <i type="int" name="IDIOT">     3</i>
   <i type="logical" name="LMUSIC"> F  </i>
   <v name="POMASS">     26.98200000</v>
   <i type="logical" name="LCORR"> T  </i>
  </separator>
  <i type="logical" name="LREAL_COMPAT"> F  </i>
  <i type="logical" name="GGA_COMPAT"> T  </i>
  <i type="logical" name="LBERRY"> F  </i>
  <i type="int" name="ICORELEVEL">     0</i>
  <i type="logical" name="LDAU"> F  </i>
  <i type="int" name="I_CONSTRAINED_M">     0</i>
 </parameters>
 <atominfo>
  <atoms>      32</atoms>
  <types>       1</types>
  <array name="atoms" >
   <dimension dim="1">ion</dimension>
   <field type="string">element</field>
   <field type="int">atomtype</field>
   <set>
    <rc><c>Al</c><c>   1</c></rc>
    <rc><c>Al</c><c>   1</c></rc>
    <rc><c>Al</c><c>   1</c></rc>
    <rc><c>Al</c><c>   1</c></rc>
    <rc><c>Al</c><c>   1</c></rc>
    <rc><c>Al</c><c>   1</c></rc>
    <rc><c>Al</c><c>   1</c></rc>
    <rc><c>Al</c><c>   1</c></rc>
    <rc><c>Al</c><c>   1</c></rc>
    <rc><c>Al</c><c>   1</c></rc>
    <rc><c>Al</c><c>   1</c></rc>
    <rc><c>Al</c><c>   1</c></rc>
    <rc><c>Al</c><c>   1</c></rc>
    <rc><c>Al</c><c>   1</c></rc>
    <rc><c>Al</c><c>   1</c></rc>
    <rc><c>Al</c><c>   1</c></rc>
    <rc><c>Al</c><c>   1</c></rc>
    <rc><c>Al</c><c>   1</c></rc>
    <rc><c>Al</c><c>   1</c></rc>
    <rc><c>Al</c><c>   1</c></rc>
    <rc><c>Al</c><c>   1</c></rc>
    <rc><c>Al</c><c>   1</c></rc>
    <rc><c>Al</c><c>   1</c></rc>
    <rc><c>Al</c><c>   1</c></rc>
    <rc><c>Al</c><c>   1</c></rc>
    <rc><c>Al</c><c>   1</c></rc>
    <rc><c>Al</c><c>   1</c></rc>
    <rc><c>Al</c><c>   1</c></rc>
    <rc><c>Al</c><c>   1</c></rc>
    <rc><c>Al</c><c>   1</c></rc>
    <rc><c>Al</c><c>   1</c></rc>
    <rc><c>Al</c><c>   1</c></rc>
   </set>
  </array>
  <array name="atomtypes" >
   <dimension dim="1">type</dimension>
   <field type="int">atomspertype</field>
   <field type="string">element</field>
   <field>mass</field>
   <field>valence</field>
   <field type="string">pseudopotential</field>
   <set>
    <rc><c>  32</c><c>Al</c><c>     26.98200000</c><c>      3.00000000</c><c> PAW_PBE Al 04Jan2001                   </c></rc>
   </set>
  </array>
 </atominfo>
 <structure name="initialpos" >
  <crystal>
   <varray name="basis" >
    <v>       7.75162823      0.00000000      0.00000000</v>
    <v>       0.00000000      7.75162823      0.00000000</v>
    <v>       0.00000000      0.00000000      7.75162823</v>
   </varray>
   <i name="volume">    465.77782330</i>
   <varray name="rec_basis" >
    <v>       0.12900515      0.00000000      0.00000000</v>
    <v>       0.00000000      0.12900515      0.00000000</v>
    <v>       0.00000000      0.00000000      0.12900515</v>
   </varray>
  </crystal>
  <varray name="positions" >
   <v>       0.25129005      0.25000000      0.00000000</v>
   <v>       0.75000000      0.25000000      0.00000000</v>
   <v>       0.25000000      0.75000000      0.00000000</v>
   <v>       0.75000000      0.75000000      0.00000000</v>
   <v>       0.25000000      0.25000000      0.50000000</v>
   <v>       0.75000000      0.25000000      0.50000000</v>
   <v>       0.25000000      0.75000000      0.50000000</v>
   <v>       0.75000000      0.75000000      0.50000000</v>
   <v>       0.25000000      0.00000000      0.25000000</v>
   <v>       0.75000000      0.00000000      0.25000000</v>
   <v>       0.25000000      0.50000000      0.25000000</v>
   <v>       0.75000000      0.50000000      0.25000000</v>
   <v>       0.25000000      0.00000000      0.75000000</v>
   <v>       0.75000000      0.00000000      0.75000000</v>
   <v>       0.25000000      0.50000000      0.75000000</v>
   <v>       0.75000000      0.50000000      0.75000000</v>
   <v>       0.00000000      0.25000000      0.25000000</v>
   <v>       0.50000000      0.25000000      0.25000000</v>
   <v>       0.00000000      0.75000000      0.25000000</v>
   <v>       0.50000000      0.75000000      0.25000000</v>
   <v>       0.00000000      0.25000000      0.75000000</v>
   <v>       0.50000000      0.25000000      0.75000000</v>
   <v>       0.00000000      0.75000000      0.75000000</v>
   <v>       0.50000000      0.75000000      0.75000000</v>
   <v>       0.00000000      0.00000000      0.00000000</v>
   <v>       0.50000000      0.00000000      0.00000000</v>
   <v>       0.00000000      0.50000000      0.00000000</v>
   <v>       0.50000000      0.50000000      0.00000000</v>
   <v>       0.00000000      0.00000000      0.50000000</v>
   <v>       0.50000000      0.00000000      0.50000000</v>
   <v>       0.00000000      0.50000000      0.50000000</v>
   <v>       0.50000000      0.50000000      0.50000000</v>
  </varray>
 </structure>
 <calculation>
  <scstep>
   <time name="dav">   21.12   21.14</time>
   <time name="total">   21.30   21.32</time>
   <energy>
    <i name="alphaZ">     -7.38425772</i>
    <i name="ewald">  -2452.91010324</i>
    <i name="hartreedc">     -2.22650109</i>
    <i name="XCdc">   -832.28823291</i>
    <i name="pawpsdc">   1137.73615723</i>
    <i name="pawaedc">   -115.16745734</i>
    <i name="eentropy">     -0.00075642</i>
    <i name="bandstr">    696.23707404</i>
    <i name="atom">   1713.22913220</i>
    <i name="e_fr_energy">    137.22505473</i>
    <i name="e_wo_entrp">    137.22581116</i>
    <i name="e_0_energy">    137.22543294</i>
   </energy>
  </scstep>
  <scstep>
   <time name="dav">   23.76   23.76</time>
   <time name="total">   23.77   23.77</time>
   <energy>
    <i name="e_fr_energy">   -104.81772095</i>
    <i name="e_wo_entrp">   -104.81715345</i>
    <i name="e_0_energy">   -104.81743720</i>
   </energy>
  </scstep>
  <scstep>
   <time name="dav">   24.78   24.78</time>
   <time name="total">   24.78   24.78</time>
   <energy>
    <i name="e_fr_energy">   -118.17511725</i>
    <i name="e_wo_entrp">   -118.17418051</i>
    <i name="e_0_energy">   -118.17464888</i>
   </energy>
  </scstep>
  <scstep>
   <time name="dav">   23.62   23.63</time>
   <time name="total">   23.63   23.63</time>
   <energy>
    <i name="e_fr_energy">   -118.41511003</i>
    <i name="e_wo_entrp">   -118.41398941</i>
    <i name="e_0_energy">   -118.41454972</i>
   </energy>
  </scstep>
  <scstep>
   <time name="dav">   23.61   23.61</time>
   <time name="total">   24.73   24.73</time>
   <energy>
    <i name="e_fr_energy">   -118.41780537</i>
    <i name="e_wo_entrp">   -118.41668422</i>
    <i name="e_0_energy">   -118.41724480</i>
   </energy>
  </scstep>
  <scstep>
   <time name="dav">   22.06   22.06</time>
   <time name="total">   23.07   23.07</time>
   <energy>
    <i name="e_fr_energy">   -117.93694575</i>
    <i name="e_wo_entrp">   -117.93581497</i>
    <i name="e_0_energy">   -117.93638036</i>
   </energy>
  </scstep>
  <scstep>
   <time name="dav">   19.26   19.26</time>
   <time name="total">   20.29   20.29</time>
   <energy>
    <i name="e_fr_energy">   -117.59031648</i>
    <i name="e_wo_entrp">   -117.58916097</i>
    <i name="e_0_energy">   -117.58973872</i>
   </energy>
  </scstep>
  <scstep>
   <time name="dav">   18.26   18.26</time>
   <time name="total">   19.09   19.09</time>
   <energy>
    <i name="e_fr_energy">   -117.59053334</i>
    <i name="e_wo_entrp">   -117.58937896</i>
    <i name="e_0_energy">   -117.58995615</i>
   </energy>
  </scstep>
  <scstep>
   <time name="dav">   17.67   17.67</time>
   <time name="total">   18.50   18.50</time>
   <energy>
    <i name="e_fr_energy">   -117.59057073</i>
    <i name="e_wo_entrp">   -117.58941741</i>
    <i name="e_0_energy">   -117.58999407</i>
   </energy>
  </scstep>
  <scstep>
   <time name="dav">   18.22   18.22</time>
   <time name="total">   19.04   19.04</time>
   <energy>
    <i name="e_fr_energy">   -117.59057390</i>
    <i name="e_wo_entrp">   -117.58942069</i>
    <i name="e_0_energy">   -117.58999730</i>
   </energy>
  </scstep>
  <scstep>
   <time name="dav">   17.77   17.78</time>
   <time name="total">   18.61   18.62</time>
   <energy>
    <i name="e_fr_energy">   -117.59057252</i>
    <i name="e_wo_entrp">   -117.58941934</i>
    <i name="e_0_energy">   -117.58999593</i>
   </energy>
  </scstep>
  <scstep>
   <time name="dav">   13.56   13.56</time>
   <time name="total">   14.37   14.38</time>
   <energy>
    <i name="e_fr_energy">   -117.59057193</i>
    <i name="e_wo_entrp">   -117.58941874</i>
    <i name="e_0_energy">   -117.58999533</i>
   </energy>
  </scstep>
  <scstep>
   <time name="dav">   12.17   12.17</time>
   <time name="total">   13.01   13.01</time>
   <energy>
    <i name="e_fr_energy">   -117.59057179</i>
    <i name="e_wo_entrp">   -117.58941861</i>
    <i name="e_0_energy">   -117.58999520</i>
   </energy>
  </scstep>
  <scstep>
   <time name="dav">   12.17   12.17</time>
   <time name="total">   13.01   13.01</time>
   <energy>
    <i name="e_fr_energy">   -117.59057178</i>
    <i name="e_wo_entrp">   -117.58941860</i>
    <i name="e_0_energy">   -117.58999519</i>
   </energy>
  </scstep>
  <scstep>
   <time name="dav">   11.79   11.79</time>
   <time name="total">   11.93   11.93</time>
   <energy>
    <i name="alphaZ">     -7.38425772</i>
    <i name="ewald">  -2452.91010324</i>
    <i name="hartreedc">     -4.21746479</i>
    <i name="XCdc">   -827.90705171</i>
    <i name="pawpsdc">   1156.24669273</i>
    <i name="pawaedc">   -134.85623828</i>
    <i name="eentropy">     -0.00115318</i>
    <i name="bandstr">    440.20987221</i>
    <i name="atom">   1713.22913220</i>
    <i name="e_fr_energy">   -117.59057178</i>
    <i name="e_wo_entrp">   -117.58941860</i>
    <i name="e_0_energy">   -117.58999519</i>
   </energy>
  </scstep>
  <structure>
   <crystal>
    <varray name="basis" >
     <v>       7.75162823      0.00000000      0.00000000</v>
     <v>       0.00000000      7.75162823      0.00000000</v>
     <v>       0.00000000      0.00000000      7.75162823</v>
    </varray>
    <i name="volume">    465.77782330</i>
    <varray name="rec_basis" >
     <v>       0.12900515      0.00000000      0.00000000</v>
     <v>       0.00000000      0.12900515      0.00000000</v>
     <v>       0.00000000      0.00000000      0.12900515</v>
    </varray>
   </crystal>
   <varray name="positions" >
    <v>       0.25129005      0.25000000      0.00000000</v>
    <v>       0.75000000      0.25000000      0.00000000</v>
    <v>       0.25000000      0.75000000      0.00000000</v>
    <v>       0.75000000      0.75000000      0.00000000</v>
    <v>       0.25000000      0.25000000      0.50000000</v>
    <v>       0.75000000      0.25000000      0.50000000</v>
    <v>       0.25000000      0.75000000      0.50000000</v>
    <v>       0.75000000      0.75000000      0.50000000</v>
    <v>       0.25000000      0.00000000      0.25000000</v>
    <v>       0.75000000      0.00000000      0.25000000</v>
    <v>       0.25000000      0.50000000      0.25000000</v>
    <v>       0.75000000      0.50000000      0.25000000</v>
    <v>       0.25000000      0.00000000      0.75000000</v>
    <v>       0.75000000      0.00000000      0.75000000</v>
    <v>       0.25000000      0.50000000      0.75000000</v>
    <v>       0.75000000      0.50000000      0.75000000</v>
    <v>       0.00000000      0.25000000      0.25000000</v>
    <v>       0.50000000      0.25000000      0.25000000</v>
    <v>       0.00000000      0.75000000      0.25000000</v>
    <v>       0.50000000      0.75000000      0.25000000</v>
    <v>       0.00000000      0.25000000      0.75000000</v>
    <v>       0.50000000      0.25000000      0.75000000</v>
    <v>       0.00000000      0.75000000      0.75000000</v>
    <v>       0.50000000      0.75000000      0.75000000</v>
    <v>       0.00000000      0.00000000      0.00000000</v>
    <v>       0.50000000      0.00000000      0.00000000</v>
    <v>       0.00000000      0.50000000      0.00000000</v>
    <v>       0.50000000      0.50000000      0.00000000</v>
    <v>       0.00000000      0.00000000      0.50000000</v>
    <v>       0.50000000      0.00000000      0.50000000</v>
    <v>       0.00000000      0.50000000      0.50000000</v>
    <v>       0.50000000      0.50000000      0.50000000</v>
   </varray>
  </structure>
  <varray name="forces" >
   <v>      -0.07347900      0.00000000      0.00000000</v>
   <v>       0.00408315     -0.00000000     -0.00000000</v>
   <v>       0.00077325      0.00000000      0.00000000</v>
   <v>       0.00060374     -0.00000000      0.00000000</v>
   <v>       0.00077325      0.00000000      0.00000000</v>
   <v>       0.00060374      0.00000000      0.00000000</v>
   <v>       0.00095282      0.00000000      0.00000000</v>
   <v>      -0.00029268     -0.00000000     -0.00000000</v>
   <v>      -0.00172729      0.00006408     -0.00006408</v>
   <v>      -0.00089927     -0.00001758      0.00001758</v>
   <v>      -0.00172729     -0.00006408     -0.00006408</v>
   <v>      -0.00089927      0.00001758      0.00001758</v>
   <v>      -0.00172729      0.00006408      0.00006408</v>
   <v>      -0.00089927     -0.00001758     -0.00001758</v>
   <v>      -0.00172729     -0.00006408      0.00006408</v>
   <v>      -0.00089927      0.00001758     -0.00001758</v>
   <v>       0.00948323      0.00000000     -0.01088872</v>
   <v>       0.00965285      0.00000000      0.01117935</v>
   <v>      -0.00003184     -0.00000000      0.00031101</v>
   <v>       0.00001776     -0.00000000     -0.00032473</v>
   <v>       0.00948323      0.00000000      0.01088872</v>
   <v>       0.00965285      0.00000000     -0.01117935</v>
   <v>      -0.00003184     -0.00000000     -0.00031101</v>
   <v>       0.00001776      0.00000000      0.00032473</v>
   <v>       0.00948323      0.01088872      0.00000000</v>
   <v>       0.00965285     -0.01117935     -0.00000000</v>
   <v>       0.00948323     -0.01088872     -0.00000000</v>
   <v>       0.00965285      0.01117935     -0.00000000</v>
   <v>      -0.00003184     -0.00031101     -0.00000000</v>
   <v>       0.00001776      0.00032473      0.00000000</v>
   <v>      -0.00003184      0.00031101     -0.00000000</v>
   <v>       0.00001776     -0.00032473      0.00000000</v>
  </varray>
  <varray name="stress" >
   <v>     128.00381169     -0.00000000      0.00000000</v>
   <v>      -0.00000000    128.00546701      0.00000000</v>
   <v>       0.00000000      0.00000000    128.00546701</v>
  </varray>
  <energy>
   <i name="e_fr_energy">   -117.59057178</i>
   <i name="e_wo_entrp">   -117.58999519</i>
   <i name="e_0_energy">     -0.00115318</i>
  </energy>
  <eigenvalues>
   <array>
    <dimension dim="1">band</dimension>
    <dimension dim="2">kpoint</dimension>
    <dimension dim="3">spin</dimension>
    <field>eigene</field>
    <field>occ</field>
    <set>
     <set comment="spin 1">
      <set comment="kpoint 1">
       <r>  -2.6575  1.0000</r>
       <r>  -0.2238  1.0000</r>
       <r>  -0.2197  1.0000</r>
       <r>  -0.2197  1.0000</r>
       <r>  -0.2197  1.0000</r>
       <r>  -0.2197  1.0000</r>
       <r>  -0.2157  1.0000</r>
       <r>   2.1633  1.0000</r>
       <r>   2.1677  1.0000</r>
       <r>   2.1677  1.0000</r>
       <r>   2.1697  1.0000</r>
       <r>   2.1698  1.0000</r>
       <r>   2.1698  1.0000</r>
       <r>   2.1698  1.0000</r>
       <r>   2.1698  1.0000</r>
       <r>   2.1700  1.0000</r>
       <r>   2.1719  1.0000</r>
       <r>   2.1719  1.0000</r>
       <r>   2.1763  1.0000</r>
       <r>   4.2680  1.0000</r>
       <r>   4.2680  1.0000</r>
       <r>   4.2680  1.0000</r>
       <r>   4.2680  1.0000</r>
       <r>   4.8143  1.0000</r>
       <r>   4.8143  1.0000</r>
       <r>   4.8144  1.0000</r>
       <r>   4.8144  1.0000</r>
       <r>   6.1450  1.0000</r>
       <r>   6.1450  1.0000</r>
       <r>   6.1451  1.0000</r>
       <r>   7.7202  1.0000</r>
       <r>   7.7203  1.0000</r>
       <r>   7.7203  1.0000</r>
       <r>   8.3622  1.0000</r>
       <r>   8.3622  1.0000</r>
       <r>   8.3669  1.0000</r>
       <r>   8.3669  1.0000</r>
       <r>   8.3671  1.0000</r>
       <r>   8.3671  1.0000</r>
       <r>   8.3671  1.0000</r>
       <r>   8.3672  1.0000</r>
       <r>   8.3673  1.0000</r>
       <r>   8.3673  1.0000</r>
       <r>   8.3720  1.0000</r>
       <r>   8.3720  1.0000</r>
       <r>   9.3039  1.0000</r>
       <r>   9.3085  1.0000</r>
       <r>   9.3086  1.0000</r>
       <r>   9.3086  1.0000</r>
       <r>   9.3086  1.0000</r>
       <r>   9.3131  1.0000</r>
       <r>  10.5987  0.0000</r>
       <r>  10.5987  0.0000</r>
       <r>  10.6000  0.0000</r>
       <r>  10.6028  0.0000</r>
       <r>  10.6029  0.0000</r>
       <r>  10.6029  0.0000</r>
       <r>  10.6029  0.0000</r>
       <r>  10.6030  0.0000</r>
       <r>  10.6031  0.0000</r>
       <r>  10.6059  0.0000</r>
       <r>  10.6072  0.0000</r>
       <r>  10.6072  0.0000</r>
       <r>  11.2146  0.0000</r>
       <r>  11.2159  0.0000</r>
       <r>  11.2159  0.0000</r>
       <r>  11.2159  0.0000</r>
       <r>  11.2159  0.0000</r>
       <r>  11.2173  0.0000</r>
       <r>  12.5121  0.0000</r>
       <r>  12.5150  0.0000</r>
       <r>  12.5153  0.0000</r>
      </set>
      <set comment="kpoint 2">
       <r>  -2.5892  1.0000</r>
       <r>  -0.9594  1.0000</r>
       <r>  -0.1528  1.0000</r>
       <r>  -0.1527  1.0000</r>
       <r>  -0.1527  1.0000</r>
       <r>  -0.1527  1.0000</r>
       <r>   0.6483  1.0000</r>
       <r>   1.4449  1.0000</r>
       <r>   1.4449  1.0000</r>
       <r>   1.4449  1.0000</r>
       <r>   1.4449  1.0000</r>
       <r>   2.2354  1.0000</r>
       <r>   2.2354  1.0000</r>
       <r>   2.2354  1.0000</r>
       <r>   2.2354  1.0000</r>
       <r>   3.0200  1.0000</r>
       <r>   3.0200  1.0000</r>
       <r>   3.0200  1.0000</r>
       <r>   3.0200  1.0000</r>
       <r>   3.7777  1.0000</r>
       <r>   3.7777  1.0000</r>
       <r>   3.7777  1.0000</r>
       <r>   3.7777  1.0000</r>
       <r>   5.2541  1.0000</r>
       <r>   5.4296  1.0000</r>
       <r>   5.4296  1.0000</r>
       <r>   5.4296  1.0000</r>
       <r>   5.4296  1.0000</r>
       <r>   6.2066  1.0000</r>
       <r>   6.2066  1.0000</r>
       <r>   7.4880  1.0000</r>
       <r>   7.4880  1.0000</r>
       <r>   7.4880  1.0000</r>
       <r>   7.4880  1.0000</r>
       <r>   7.6869  1.0000</r>
       <r>   7.6869  1.0000</r>
       <r>   7.7832  1.0000</r>
       <r>   7.7832  1.0000</r>
       <r>   8.4291  1.0000</r>
       <r>   8.4291  1.0000</r>
       <r>   8.4291  1.0000</r>
       <r>   8.4291  1.0000</r>
       <r>   8.7261  1.0000</r>
       <r>   9.0866  1.0000</r>
       <r>   9.0866  1.0000</r>
       <r>   9.1720  1.0000</r>
       <r>   9.1720  1.0000</r>
       <r>   9.8244  0.0000</r>
       <r>   9.8245  0.0000</r>
       <r>   9.8245  0.0000</r>
       <r>   9.8245  0.0000</r>
       <r>   9.8750  0.0000</r>
       <r>   9.8750  0.0000</r>
       <r>   9.8750  0.0000</r>
       <r>   9.8752  0.0000</r>
       <r>   9.9189  0.0000</r>
       <r>   9.9189  0.0000</r>
       <r>   9.9191  0.0000</r>
       <r>   9.9191  0.0000</r>
       <r>  11.4120  0.0000</r>
       <r>  11.4120  0.0000</r>
       <r>  11.4120  0.0000</r>
       <r>  11.4120  0.0000</r>
       <r>  11.5519  0.0000</r>
       <r>  11.5520  0.0000</r>
       <r>  11.7080  0.0000</r>
       <r>  11.7080  0.0000</r>
       <r>  11.7080  0.0000</r>
       <r>  11.7080  0.0000</r>
       <r>  11.8173  0.0000</r>
       <r>  11.8173  0.0000</r>
       <r>  11.8173  0.0000</r>
      </set>
      <set comment="kpoint 3">
       <r>  -2.3843  1.0000</r>
       <r>  -1.5680  1.0000</r>
       <r>   0.0481  1.0000</r>
       <r>   0.0481  1.0000</r>
       <r>   0.0481  1.0000</r>
       <r>   0.0481  1.0000</r>
       <r>   0.8483  1.0000</r>
       <r>   0.8483  1.0000</r>
       <r>   0.8483  1.0000</r>
       <r>   0.8483  1.0000</r>
       <r>   1.6411  1.0000</r>
       <r>   2.4319  1.0000</r>
       <r>   2.4319  1.0000</r>
       <r>   2.4319  1.0000</r>
       <r>   2.4319  1.0000</r>
       <r>   3.2107  1.0000</r>
       <r>   3.2107  1.0000</r>
       <r>   3.2107  1.0000</r>
       <r>   3.2107  1.0000</r>
       <r>   3.9723  1.0000</r>
       <r>   3.9910  1.0000</r>
       <r>   3.9910  1.0000</r>
       <r>   3.9910  1.0000</r>
       <r>   3.9910  1.0000</r>
       <r>   6.2572  1.0000</r>
       <r>   6.2572  1.0000</r>
       <r>   6.2573  1.0000</r>
       <r>   6.2573  1.0000</r>
       <r>   6.3699  1.0000</r>
       <r>   6.3699  1.0000</r>
       <r>   6.3700  1.0000</r>
       <r>   6.3700  1.0000</r>
       <r>   6.3915  1.0000</r>
       <r>   6.3915  1.0000</r>
       <r>   7.1312  1.0000</r>
       <r>   7.1312  1.0000</r>
       <r>   7.9697  1.0000</r>
       <r>   7.9697  1.0000</r>
       <r>   8.6110  1.0000</r>
       <r>   8.6110  1.0000</r>
       <r>   8.6120  1.0000</r>
       <r>   8.6124  1.0000</r>
       <r>   8.6151  1.0000</r>
       <r>   8.6156  1.0000</r>
       <r>   8.6166  1.0000</r>
       <r>   8.6166  1.0000</r>
       <r>   8.6667  1.0000</r>
       <r>   8.6668  1.0000</r>
       <r>   9.3598  0.0126</r>
       <r>   9.3598  0.0126</r>
       <r>   9.3598  0.0126</r>
       <r>   9.3598  0.0126</r>
       <r>  10.1017  0.0000</r>
       <r>  10.1017  0.0000</r>
       <r>  10.3412  0.0000</r>
       <r>  10.3412  0.0000</r>
       <r>  10.3412  0.0000</r>
       <r>  10.3412  0.0000</r>
       <r>  10.3524  0.0000</r>
       <r>  11.2297  0.0000</r>
       <r>  11.2297  0.0000</r>
       <r>  11.2297  0.0000</r>
       <r>  11.2297  0.0000</r>
       <r>  12.3096  0.0000</r>
       <r>  12.3096  0.0000</r>
       <r>  12.3302  0.0000</r>
       <r>  12.3302  0.0000</r>
       <r>  12.3462  0.0000</r>
       <r>  12.3462  0.0000</r>
       <r>  12.3463  0.0000</r>
       <r>  12.3463  0.0000</r>
       <r>  13.0090  0.0000</r>
      </set>
      <set comment="kpoint 4">
       <r>  -2.0450  1.0000</r>
       <r>  -2.0419  1.0000</r>
       <r>   0.3778  1.0000</r>
       <r>   0.3812  1.0000</r>
       <r>   0.3812  1.0000</r>
       <r>   0.3821  1.0000</r>
       <r>   0.3822  1.0000</r>
       <r>   0.3831  1.0000</r>
       <r>   0.3831  1.0000</r>
       <r>   0.3864  1.0000</r>
       <r>   2.7504  1.0000</r>
       <r>   2.7531  1.0000</r>
       <r>   2.7566  1.0000</r>
       <r>   2.7567  1.0000</r>
       <r>   2.7567  1.0000</r>
       <r>   2.7576  1.0000</r>
       <r>   2.7586  1.0000</r>
       <r>   2.7594  1.0000</r>
       <r>   2.7594  1.0000</r>
       <r>   2.7623  1.0000</r>
       <r>   5.0744  1.0000</r>
       <r>   5.0744  1.0000</r>
       <r>   5.0752  1.0000</r>
       <r>   5.0752  1.0000</r>
       <r>   5.0755  1.0000</r>
       <r>   5.0755  1.0000</r>
       <r>   5.0762  1.0000</r>
       <r>   5.0762  1.0000</r>
       <r>   6.6977  1.0000</r>
       <r>   6.6977  1.0000</r>
       <r>   6.7011  1.0000</r>
       <r>   6.7011  1.0000</r>
       <r>   7.4390  1.0000</r>
       <r>   7.4390  1.0000</r>
       <r>   7.4393  1.0000</r>
       <r>   7.4398  1.0000</r>
       <r>   7.4400  1.0000</r>
       <r>   7.4406  1.0000</r>
       <r>   7.4408  1.0000</r>
       <r>   7.4408  1.0000</r>
       <r>   8.2695  1.0000</r>
       <r>   8.2708  1.0000</r>
       <r>   8.2725  1.0000</r>
       <r>   8.2739  1.0000</r>
       <r>   8.9227  1.0000</r>
       <r>   8.9227  1.0000</r>
       <r>   8.9236  1.0000</r>
       <r>   8.9252  1.0000</r>
       <r>   8.9253  1.0000</r>
       <r>   8.9270  1.0000</r>
       <r>   8.9278  1.0000</r>
       <r>   8.9278  1.0000</r>
       <r>  10.7454  0.0000</r>
       <r>  10.7463  0.0000</r>
       <r>  10.7463  0.0000</r>
       <r>  10.7465  0.0000</r>
       <r>  10.7490  0.0000</r>
       <r>  10.7492  0.0000</r>
       <r>  10.7492  0.0000</r>
       <r>  10.7501  0.0000</r>
       <r>  11.1544  0.0000</r>
       <r>  11.1544  0.0000</r>
       <r>  11.1566  0.0000</r>
       <r>  11.1566  0.0000</r>
       <r>  12.1447  0.0000</r>
       <r>  12.1456  0.0000</r>
       <r>  13.2476  0.0000</r>
       <r>  13.2477  0.0000</r>
       <r>  13.2496  0.0000</r>
       <r>  13.2497  0.0000</r>
       <r>  13.4046  0.0000</r>
       <r>  13.4050  0.0000</r>
      </set>
      <set comment="kpoint 5">
       <r>  -2.5892  1.0000</r>
       <r>  -0.9594  1.0000</r>
       <r>  -0.1558  1.0000</r>
       <r>  -0.1527  1.0000</r>
       <r>  -0.1527  1.0000</r>
       <r>  -0.1497  1.0000</r>
       <r>   0.6483  1.0000</r>
       <r>   1.4418  1.0000</r>
       <r>   1.4449  1.0000</r>
       <r>   1.4449  1.0000</r>
       <r>   1.4480  1.0000</r>
       <r>   2.2333  1.0000</r>
       <r>   2.2341  1.0000</r>
       <r>   2.2367  1.0000</r>
       <r>   2.2375  1.0000</r>
       <r>   3.0168  1.0000</r>
       <r>   3.0200  1.0000</r>
       <r>   3.0200  1.0000</r>
       <r>   3.0231  1.0000</r>
       <r>   3.7756  1.0000</r>
       <r>   3.7764  1.0000</r>
       <r>   3.7789  1.0000</r>
       <r>   3.7797  1.0000</r>
       <r>   5.2540  1.0000</r>
       <r>   5.4275  1.0000</r>
       <r>   5.4283  1.0000</r>
       <r>   5.4308  1.0000</r>
       <r>   5.4316  1.0000</r>
       <r>   6.2066  1.0000</r>
       <r>   6.2066  1.0000</r>
       <r>   7.4846  1.0000</r>
       <r>   7.4880  1.0000</r>
       <r>   7.4880  1.0000</r>
       <r>   7.4914  1.0000</r>
       <r>   7.6869  1.0000</r>
       <r>   7.6870  1.0000</r>
       <r>   7.7831  1.0000</r>
       <r>   7.7832  1.0000</r>
       <r>   8.4262  1.0000</r>
       <r>   8.4291  1.0000</r>
       <r>   8.4291  1.0000</r>
       <r>   8.4320  1.0000</r>
       <r>   8.7261  1.0000</r>
       <r>   9.0866  1.0000</r>
       <r>   9.0866  1.0000</r>
       <r>   9.1720  1.0000</r>
       <r>   9.1720  1.0000</r>
       <r>   9.8219  0.0000</r>
       <r>   9.8232  0.0000</r>
       <r>   9.8258  0.0000</r>
       <r>   9.8271  0.0000</r>
       <r>   9.8720  0.0000</r>
       <r>   9.8750  0.0000</r>
       <r>   9.8750  0.0000</r>
       <r>   9.8780  0.0000</r>
       <r>   9.9160  0.0000</r>
       <r>   9.9189  0.0000</r>
       <r>   9.9190  0.0000</r>
       <r>   9.9220  0.0000</r>
       <r>  11.4089  0.0000</r>
       <r>  11.4120  0.0000</r>
       <r>  11.4120  0.0000</r>
       <r>  11.4150  0.0000</r>
       <r>  11.5520  0.0000</r>
       <r>  11.5520  0.0000</r>
       <r>  11.7065  0.0000</r>
       <r>  11.7080  0.0000</r>
       <r>  11.7080  0.0000</r>
       <r>  11.7095  0.0000</r>
       <r>  11.8151  0.0000</r>
       <r>  11.8173  0.0000</r>
       <r>  11.8180  0.0000</r>
      </set>
      <set comment="kpoint 6">
       <r>  -2.5208  1.0000</r>
       <r>  -0.8933  1.0000</r>
       <r>  -0.8907  1.0000</r>
       <r>  -0.0858  1.0000</r>
       <r>  -0.0857  1.0000</r>
       <r>   0.7130  1.0000</r>
       <r>   0.7151  1.0000</r>
       <r>   0.7170  1.0000</r>
       <r>   1.5092  1.0000</r>
       <r>   1.5102  1.0000</r>
       <r>   1.5118  1.0000</r>
       <r>   1.5128  1.0000</r>
       <r>   2.3003  1.0000</r>
       <r>   2.3011  1.0000</r>
       <r>   3.0801  1.0000</r>
       <r>   3.0806  1.0000</r>
       <r>   3.0836  1.0000</r>
       <r>   3.0842  1.0000</r>
       <r>   3.0858  1.0000</r>
       <r>   3.0870  1.0000</r>
       <r>   3.8630  1.0000</r>
       <r>   4.3932  1.0000</r>
       <r>   4.3932  1.0000</r>
       <r>   4.9461  1.0000</r>
       <r>   4.9461  1.0000</r>
       <r>   5.3168  1.0000</r>
       <r>   5.3176  1.0000</r>
       <r>   6.2440  1.0000</r>
       <r>   6.2441  1.0000</r>
       <r>   6.2682  1.0000</r>
       <r>   6.8171  1.0000</r>
       <r>   6.8197  1.0000</r>
       <r>   7.3720  1.0000</r>
       <r>   7.3720  1.0000</r>
       <r>   7.7473  1.0000</r>
       <r>   7.7502  1.0000</r>
       <r>   7.7937  1.0000</r>
       <r>   7.7938  1.0000</r>
       <r>   7.8449  1.0000</r>
       <r>   8.2183  1.0000</r>
       <r>   8.2206  1.0000</r>
       <r>   8.7862  1.0000</r>
       <r>   8.7871  1.0000</r>
       <r>   9.1324  1.0000</r>
       <r>   9.1334  1.0000</r>
       <r>   9.1350  1.0000</r>
       <r>   9.1361  1.0000</r>
       <r>   9.2321  1.0000</r>
       <r>   9.2347  1.0000</r>
       <r>   9.2374  1.0000</r>
       <r>   9.4949  0.0000</r>
       <r>   9.4967  0.0000</r>
       <r>   9.9348  0.0000</r>
       <r>   9.9377  0.0000</r>
       <r>  10.5591  0.0000</r>
       <r>  10.5592  0.0000</r>
       <r>  10.6370  0.0000</r>
       <r>  10.6379  0.0000</r>
       <r>  10.6386  0.0000</r>
       <r>  10.6396  0.0000</r>
       <r>  10.7261  0.0000</r>
       <r>  10.7279  0.0000</r>
       <r>  11.1230  0.0000</r>
       <r>  11.7500  0.0000</r>
       <r>  11.7507  0.0000</r>
       <r>  12.0165  0.0000</r>
       <r>  12.0165  0.0000</r>
       <r>  12.2220  0.0000</r>
       <r>  12.2727  0.0000</r>
       <r>  12.2749  0.0000</r>
       <r>  12.6186  0.0000</r>
       <r>  12.6203  0.0000</r>
      </set>
      <set comment="kpoint 7">
       <r>  -2.3160  1.0000</r>
       <r>  -1.5003  1.0000</r>
       <r>  -0.6899  1.0000</r>
       <r>   0.1136  1.0000</r>
       <r>   0.1150  1.0000</r>
       <r>   0.1166  1.0000</r>
       <r>   0.9130  1.0000</r>
       <r>   0.9147  1.0000</r>
       <r>   0.9160  1.0000</r>
       <r>   1.7057  1.0000</r>
       <r>   1.7086  1.0000</r>
       <r>   1.7090  1.0000</r>
       <r>   1.7104  1.0000</r>
       <r>   2.4967  1.0000</r>
       <r>   2.4967  1.0000</r>
       <r>   3.2782  1.0000</r>
       <r>   3.2789  1.0000</r>
       <r>   3.2795  1.0000</r>
       <r>   4.0335  1.0000</r>
       <r>   4.0343  1.0000</r>
       <r>   4.0374  1.0000</r>
       <r>   4.0546  1.0000</r>
       <r>   4.0547  1.0000</r>
       <r>   4.8244  1.0000</r>
       <r>   5.5064  1.0000</r>
       <r>   5.5682  1.0000</r>
       <r>   5.6855  1.0000</r>
       <r>   5.6855  1.0000</r>
       <r>   6.2596  1.0000</r>
       <r>   6.3048  1.0000</r>
       <r>   6.3049  1.0000</r>
       <r>   6.4529  1.0000</r>
       <r>   7.0502  1.0000</r>
       <r>   7.1922  1.0000</r>
       <r>   7.1945  1.0000</r>
       <r>   7.1953  1.0000</r>
       <r>   7.8279  1.0000</r>
       <r>   7.8279  1.0000</r>
       <r>   7.9175  1.0000</r>
       <r>   7.9177  1.0000</r>
       <r>   7.9346  1.0000</r>
       <r>   8.0261  1.0000</r>
       <r>   8.5690  1.0000</r>
       <r>   8.5691  1.0000</r>
       <r>   8.5800  1.0000</r>
       <r>   8.6778  1.0000</r>
       <r>   8.9658  1.0000</r>
       <r>   9.4203  0.0000</r>
       <r>   9.4316  0.0000</r>
       <r>   9.4319  0.0000</r>
       <r>   9.5683  0.0000</r>
       <r>   9.6175  0.0000</r>
       <r>   9.7452  0.0000</r>
       <r>  10.1631  0.0000</r>
       <r>  10.1677  0.0000</r>
       <r>  10.4089  0.0000</r>
       <r>  10.5443  0.0000</r>
       <r>  10.9028  0.0000</r>
       <r>  11.2028  0.0000</r>
       <r>  11.2028  0.0000</r>
       <r>  11.5730  0.0000</r>
       <r>  11.5731  0.0000</r>
       <r>  11.5926  0.0000</r>
       <r>  11.6601  0.0000</r>
       <r>  12.0170  0.0000</r>
       <r>  12.1315  0.0000</r>
       <r>  12.1315  0.0000</r>
       <r>  12.3931  0.0000</r>
       <r>  12.4093  0.0000</r>
       <r>  12.5712  0.0000</r>
       <r>  13.1077  0.0000</r>
       <r>  13.1279  0.0000</r>
      </set>
      <set comment="kpoint 8">
       <r>  -1.9770  1.0000</r>
       <r>  -1.9739  1.0000</r>
       <r>  -0.3554  1.0000</r>
       <r>  -0.3523  1.0000</r>
       <r>   0.4467  1.0000</r>
       <r>   0.4479  1.0000</r>
       <r>   0.4498  1.0000</r>
       <r>   0.4510  1.0000</r>
       <r>   1.2443  1.0000</r>
       <r>   1.2474  1.0000</r>
       <r>   2.0359  1.0000</r>
       <r>   2.0372  1.0000</r>
       <r>   2.0391  1.0000</r>
       <r>   2.0403  1.0000</r>
       <r>   2.8179  1.0000</r>
       <r>   2.8189  1.0000</r>
       <r>   3.5971  1.0000</r>
       <r>   3.5985  1.0000</r>
       <r>   3.6003  1.0000</r>
       <r>   3.6016  1.0000</r>
       <r>   4.3721  1.0000</r>
       <r>   4.3732  1.0000</r>
       <r>   5.1347  1.0000</r>
       <r>   5.1355  1.0000</r>
       <r>   5.1357  1.0000</r>
       <r>   5.1365  1.0000</r>
       <r>   5.8195  1.0000</r>
       <r>   5.8227  1.0000</r>
       <r>   5.8939  1.0000</r>
       <r>   5.8949  1.0000</r>
       <r>   6.7434  1.0000</r>
       <r>   6.7440  1.0000</r>
       <r>   6.7448  1.0000</r>
       <r>   6.7449  1.0000</r>
       <r>   6.7596  1.0000</r>
       <r>   6.7630  1.0000</r>
       <r>   8.1288  1.0000</r>
       <r>   8.1301  1.0000</r>
       <r>   8.1322  1.0000</r>
       <r>   8.1334  1.0000</r>
       <r>   8.2423  1.0000</r>
       <r>   8.2457  1.0000</r>
       <r>   8.2624  1.0000</r>
       <r>   8.2627  1.0000</r>
       <r>   8.2635  1.0000</r>
       <r>   8.2640  1.0000</r>
       <r>   8.3070  1.0000</r>
       <r>   8.3100  1.0000</r>
       <r>   9.2518  1.0000</r>
       <r>   9.2550  1.0000</r>
       <r>   9.7297  0.0000</r>
       <r>   9.7332  0.0000</r>
       <r>  10.0841  0.0000</r>
       <r>  10.0872  0.0000</r>
       <r>  10.4666  0.0000</r>
       <r>  10.4682  0.0000</r>
       <r>  11.2169  0.0000</r>
       <r>  11.2191  0.0000</r>
       <r>  11.4863  0.0000</r>
       <r>  11.4897  0.0000</r>
       <r>  11.6442  0.0000</r>
       <r>  11.6450  0.0000</r>
       <r>  11.6476  0.0000</r>
       <r>  11.6484  0.0000</r>
       <r>  12.1934  0.0000</r>
       <r>  12.1942  0.0000</r>
       <r>  12.6238  0.0000</r>
       <r>  12.6238  0.0000</r>
       <r>  12.6256  0.0000</r>
       <r>  12.6256  0.0000</r>
       <r>  12.7169  0.0000</r>
       <r>  12.7193  0.0000</r>
      </set>
      <set comment="kpoint 9">
       <r>  -2.3843  1.0000</r>
       <r>  -1.5680  1.0000</r>
       <r>   0.0450  1.0000</r>
       <r>   0.0481  1.0000</r>
       <r>   0.0481  1.0000</r>
       <r>   0.0512  1.0000</r>
       <r>   0.8452  1.0000</r>
       <r>   0.8483  1.0000</r>
       <r>   0.8483  1.0000</r>
       <r>   0.8514  1.0000</r>
       <r>   1.6411  1.0000</r>
       <r>   2.4298  1.0000</r>
       <r>   2.4306  1.0000</r>
       <r>   2.4332  1.0000</r>
       <r>   2.4340  1.0000</r>
       <r>   3.2086  1.0000</r>
       <r>   3.2095  1.0000</r>
       <r>   3.2120  1.0000</r>
       <r>   3.2128  1.0000</r>
       <r>   3.9723  1.0000</r>
       <r>   3.9878  1.0000</r>
       <r>   3.9910  1.0000</r>
       <r>   3.9910  1.0000</r>
       <r>   3.9942  1.0000</r>
       <r>   6.2539  1.0000</r>
       <r>   6.2573  1.0000</r>
       <r>   6.2573  1.0000</r>
       <r>   6.2605  1.0000</r>
       <r>   6.3678  1.0000</r>
       <r>   6.3686  1.0000</r>
       <r>   6.3713  1.0000</r>
       <r>   6.3722  1.0000</r>
       <r>   6.3915  1.0000</r>
       <r>   6.3915  1.0000</r>
       <r>   7.1312  1.0000</r>
       <r>   7.1312  1.0000</r>
       <r>   7.9697  1.0000</r>
       <r>   7.9697  1.0000</r>
       <r>   8.6100  1.0000</r>
       <r>   8.6107  1.0000</r>
       <r>   8.6126  1.0000</r>
       <r>   8.6137  1.0000</r>
       <r>   8.6148  1.0000</r>
       <r>   8.6151  1.0000</r>
       <r>   8.6151  1.0000</r>
       <r>   8.6182  1.0000</r>
       <r>   8.6667  1.0000</r>
       <r>   8.6668  1.0000</r>
       <r>   9.3568  0.0344</r>
       <r>   9.3598  0.0126</r>
       <r>   9.3598  0.0125</r>
       <r>   9.3628  0.0039</r>
       <r>  10.1016  0.0000</r>
       <r>  10.1017  0.0000</r>
       <r>  10.3384  0.0000</r>
       <r>  10.3412  0.0000</r>
       <r>  10.3412  0.0000</r>
       <r>  10.3438  0.0000</r>
       <r>  10.3525  0.0000</r>
       <r>  11.2270  0.0000</r>
       <r>  11.2297  0.0000</r>
       <r>  11.2297  0.0000</r>
       <r>  11.2323  0.0000</r>
       <r>  12.3095  0.0000</r>
       <r>  12.3095  0.0000</r>
       <r>  12.3303  0.0000</r>
       <r>  12.3304  0.0000</r>
       <r>  12.3431  0.0000</r>
       <r>  12.3461  0.0000</r>
       <r>  12.3463  0.0000</r>
       <r>  12.3493  0.0000</r>
       <r>  13.0094  0.0000</r>
      </set>
      <set comment="kpoint 10">
       <r>  -2.3160  1.0000</r>
       <r>  -1.5003  1.0000</r>
       <r>  -0.6899  1.0000</r>
       <r>   0.1136  1.0000</r>
       <r>   0.1150  1.0000</r>
       <r>   0.1166  1.0000</r>
       <r>   0.9130  1.0000</r>
       <r>   0.9147  1.0000</r>
       <r>   0.9160  1.0000</r>
       <r>   1.7059  1.0000</r>
       <r>   1.7081  1.0000</r>
       <r>   1.7090  1.0000</r>
       <r>   1.7107  1.0000</r>
       <r>   2.4967  1.0000</r>
       <r>   2.4967  1.0000</r>
       <r>   3.2775  1.0000</r>
       <r>   3.2789  1.0000</r>
       <r>   3.2803  1.0000</r>
       <r>   4.0336  1.0000</r>
       <r>   4.0343  1.0000</r>
       <r>   4.0374  1.0000</r>
       <r>   4.0545  1.0000</r>
       <r>   4.0546  1.0000</r>
       <r>   4.8244  1.0000</r>
       <r>   5.5065  1.0000</r>
       <r>   5.5682  1.0000</r>
       <r>   5.6855  1.0000</r>
       <r>   5.6855  1.0000</r>
       <r>   6.2595  1.0000</r>
       <r>   6.3048  1.0000</r>
       <r>   6.3049  1.0000</r>
       <r>   6.4529  1.0000</r>
       <r>   7.0502  1.0000</r>
       <r>   7.1926  1.0000</r>
       <r>   7.1945  1.0000</r>
       <r>   7.1949  1.0000</r>
       <r>   7.8279  1.0000</r>
       <r>   7.8279  1.0000</r>
       <r>   7.9177  1.0000</r>
       <r>   7.9177  1.0000</r>
       <r>   7.9345  1.0000</r>
       <r>   8.0261  1.0000</r>
       <r>   8.5689  1.0000</r>
       <r>   8.5691  1.0000</r>
       <r>   8.5801  1.0000</r>
       <r>   8.6778  1.0000</r>
       <r>   8.9658  1.0000</r>
       <r>   9.4206  0.0000</r>
       <r>   9.4316  0.0000</r>
       <r>   9.4316  0.0000</r>
       <r>   9.5683  0.0000</r>
       <r>   9.6175  0.0000</r>
       <r>   9.7453  0.0000</r>
       <r>  10.1637  0.0000</r>
       <r>  10.1671  0.0000</r>
       <r>  10.4089  0.0000</r>
       <r>  10.5443  0.0000</r>
       <r>  10.9028  0.0000</r>
       <r>  11.2028  0.0000</r>
       <r>  11.2028  0.0000</r>
       <r>  11.5730  0.0000</r>
       <r>  11.5731  0.0000</r>
       <r>  11.5925  0.0000</r>
       <r>  11.6602  0.0000</r>
       <r>  12.0170  0.0000</r>
       <r>  12.1315  0.0000</r>
       <r>  12.1315  0.0000</r>
       <r>  12.3931  0.0000</r>
       <r>  12.4093  0.0000</r>
       <r>  12.5712  0.0000</r>
       <r>  13.1135  0.0000</r>
       <r>  13.1465  0.0000</r>
      </set>
      <set comment="kpoint 11">
       <r>  -2.1116  1.0000</r>
       <r>  -1.2985  1.0000</r>
       <r>  -1.2959  1.0000</r>
       <r>  -0.4882  1.0000</r>
       <r>   0.3154  1.0000</r>
       <r>   0.3154  1.0000</r>
       <r>   1.1120  1.0000</r>
       <r>   1.1130  1.0000</r>
       <r>   1.1147  1.0000</r>
       <r>   1.1156  1.0000</r>
       <r>   1.9031  1.0000</r>
       <r>   1.9054  1.0000</r>
       <r>   1.9066  1.0000</r>
       <r>   1.9076  1.0000</r>
       <r>   2.6917  1.0000</r>
       <r>   2.6925  1.0000</r>
       <r>   4.2292  1.0000</r>
       <r>   4.2300  1.0000</r>
       <r>   4.2417  1.0000</r>
       <r>   4.2425  1.0000</r>
       <r>   4.2442  1.0000</r>
       <r>   4.2453  1.0000</r>
       <r>   4.7689  1.0000</r>
       <r>   4.7689  1.0000</r>
       <r>   4.9962  1.0000</r>
       <r>   4.9988  1.0000</r>
       <r>   5.3379  1.0000</r>
       <r>   5.3379  1.0000</r>
       <r>   5.7713  1.0000</r>
       <r>   6.2675  1.0000</r>
       <r>   6.2675  1.0000</r>
       <r>   6.6378  1.0000</r>
       <r>   6.8316  1.0000</r>
       <r>   6.8316  1.0000</r>
       <r>   7.3498  1.0000</r>
       <r>   7.3509  1.0000</r>
       <r>   7.3524  1.0000</r>
       <r>   7.3537  1.0000</r>
       <r>   7.3769  1.0000</r>
       <r>   7.3798  1.0000</r>
       <r>   7.8803  1.0000</r>
       <r>   7.8827  1.0000</r>
       <r>   8.1204  1.0000</r>
       <r>   8.1435  1.0000</r>
       <r>   8.1436  1.0000</r>
       <r>   8.1812  1.0000</r>
       <r>   9.3046  1.0000</r>
       <r>   9.3059  1.0000</r>
       <r>   9.9780  0.0000</r>
       <r>  10.3493  0.0000</r>
       <r>  10.3524  0.0000</r>
       <r>  10.3700  0.0000</r>
       <r>  10.3711  0.0000</r>
       <r>  10.3716  0.0000</r>
       <r>  10.3725  0.0000</r>
       <r>  10.4486  0.0000</r>
       <r>  10.5727  0.0000</r>
       <r>  10.5739  0.0000</r>
       <r>  11.0469  0.0000</r>
       <r>  11.0497  0.0000</r>
       <r>  11.0980  0.0000</r>
       <r>  11.0998  0.0000</r>
       <r>  12.4283  0.0000</r>
       <r>  12.4284  0.0000</r>
       <r>  12.5787  0.0000</r>
       <r>  12.5798  0.0000</r>
       <r>  12.5813  0.0000</r>
       <r>  12.5832  0.0000</r>
       <r>  12.7758  0.0000</r>
       <r>  12.7765  0.0000</r>
       <r>  12.8724  0.0000</r>
       <r>  12.8731  0.0000</r>
      </set>
      <set comment="kpoint 12">
       <r>  -1.7732  1.0000</r>
       <r>  -1.7701  1.0000</r>
       <r>  -0.9610  1.0000</r>
       <r>  -0.9579  1.0000</r>
       <r>   0.6466  1.0000</r>
       <r>   0.6478  1.0000</r>
       <r>   0.6497  1.0000</r>
       <r>   0.6509  1.0000</r>
       <r>   1.4427  1.0000</r>
       <r>   1.4439  1.0000</r>
       <r>   1.4458  1.0000</r>
       <r>   1.4471  1.0000</r>
       <r>   2.2319  1.0000</r>
       <r>   2.2351  1.0000</r>
       <r>   3.0135  1.0000</r>
       <r>   3.0145  1.0000</r>
       <r>   3.7922  1.0000</r>
       <r>   3.7933  1.0000</r>
       <r>   4.5432  1.0000</r>
       <r>   4.5447  1.0000</r>
       <r>   4.5463  1.0000</r>
       <r>   4.5478  1.0000</r>
       <r>   4.5489  1.0000</r>
       <r>   4.5521  1.0000</r>
       <r>   5.3055  1.0000</r>
       <r>   5.3064  1.0000</r>
       <r>   5.3065  1.0000</r>
       <r>   5.3074  1.0000</r>
       <r>   6.1906  1.0000</r>
       <r>   6.1907  1.0000</r>
       <r>   6.1916  1.0000</r>
       <r>   6.1918  1.0000</r>
       <r>   6.8128  1.0000</r>
       <r>   6.8137  1.0000</r>
       <r>   6.9258  1.0000</r>
       <r>   6.9266  1.0000</r>
       <r>   6.9288  1.0000</r>
       <r>   6.9298  1.0000</r>
       <r>   6.9445  1.0000</r>
       <r>   6.9479  1.0000</r>
       <r>   7.6856  1.0000</r>
       <r>   7.6890  1.0000</r>
       <r>   8.3191  1.0000</r>
       <r>   8.3212  1.0000</r>
       <r>   9.2071  1.0000</r>
       <r>   9.2075  1.0000</r>
       <r>   9.2084  1.0000</r>
       <r>   9.2088  1.0000</r>
       <r>   9.4791  0.0000</r>
       <r>   9.4796  0.0000</r>
       <r>   9.5464  0.0000</r>
       <r>   9.5493  0.0000</r>
       <r>  10.6608  0.0000</r>
       <r>  10.6643  0.0000</r>
       <r>  10.8195  0.0000</r>
       <r>  10.8227  0.0000</r>
       <r>  11.4045  0.0000</r>
       <r>  11.4067  0.0000</r>
       <r>  11.4244  0.0000</r>
       <r>  11.4247  0.0000</r>
       <r>  11.4259  0.0000</r>
       <r>  11.4262  0.0000</r>
       <r>  12.1546  0.0000</r>
       <r>  12.1568  0.0000</r>
       <r>  12.1760  0.0000</r>
       <r>  12.1792  0.0000</r>
       <r>  12.3236  0.0000</r>
       <r>  12.3240  0.0000</r>
       <r>  12.8939  0.0000</r>
       <r>  12.8975  0.0000</r>
       <r>  13.1461  0.0000</r>
       <r>  13.1482  0.0000</r>
      </set>
      <set comment="kpoint 13">
       <r>  -2.0435  1.0000</r>
       <r>  -2.0435  1.0000</r>
       <r>   0.3766  1.0000</r>
       <r>   0.3815  1.0000</r>
       <r>   0.3822  1.0000</r>
       <r>   0.3822  1.0000</r>
       <r>   0.3822  1.0000</r>
       <r>   0.3822  1.0000</r>
       <r>   0.3828  1.0000</r>
       <r>   0.3877  1.0000</r>
       <r>   2.7511  1.0000</r>
       <r>   2.7529  1.0000</r>
       <r>   2.7558  1.0000</r>
       <r>   2.7558  1.0000</r>
       <r>   2.7577  1.0000</r>
       <r>   2.7578  1.0000</r>
       <r>   2.7584  1.0000</r>
       <r>   2.7587  1.0000</r>
       <r>   2.7604  1.0000</r>
       <r>   2.7624  1.0000</r>
       <r>   5.0717  1.0000</r>
       <r>   5.0724  1.0000</r>
       <r>   5.0753  1.0000</r>
       <r>   5.0753  1.0000</r>
       <r>   5.0753  1.0000</r>
       <r>   5.0753  1.0000</r>
       <r>   5.0782  1.0000</r>
       <r>   5.0789  1.0000</r>
       <r>   6.6994  1.0000</r>
       <r>   6.6994  1.0000</r>
       <r>   6.6994  1.0000</r>
       <r>   6.6994  1.0000</r>
       <r>   7.4367  1.0000</r>
       <r>   7.4385  1.0000</r>
       <r>   7.4386  1.0000</r>
       <r>   7.4387  1.0000</r>
       <r>   7.4412  1.0000</r>
       <r>   7.4412  1.0000</r>
       <r>   7.4413  1.0000</r>
       <r>   7.4432  1.0000</r>
       <r>   8.2716  1.0000</r>
       <r>   8.2716  1.0000</r>
       <r>   8.2717  1.0000</r>
       <r>   8.2717  1.0000</r>
       <r>   8.9199  1.0000</r>
       <r>   8.9247  1.0000</r>
       <r>   8.9253  1.0000</r>
       <r>   8.9253  1.0000</r>
       <r>   8.9253  1.0000</r>
       <r>   8.9253  1.0000</r>
       <r>   8.9258  1.0000</r>
       <r>   8.9307  1.0000</r>
       <r>  10.7432  0.0000</r>
       <r>  10.7470  0.0000</r>
       <r>  10.7477  0.0000</r>
       <r>  10.7478  0.0000</r>
       <r>  10.7478  0.0000</r>
       <r>  10.7478  0.0000</r>
       <r>  10.7485  0.0000</r>
       <r>  10.7523  0.0000</r>
       <r>  11.1555  0.0000</r>
       <r>  11.1555  0.0000</r>
       <r>  11.1555  0.0000</r>
       <r>  11.1555  0.0000</r>
       <r>  12.1451  0.0000</r>
       <r>  12.1451  0.0000</r>
       <r>  13.2485  0.0000</r>
       <r>  13.2485  0.0000</r>
       <r>  13.2486  0.0000</r>
       <r>  13.2490  0.0000</r>
       <r>  13.4046  0.0000</r>
       <r>  13.4069  0.0000</r>
      </set>
      <set comment="kpoint 14">
       <r>  -1.9755  1.0000</r>
       <r>  -1.9755  1.0000</r>
       <r>  -0.3539  1.0000</r>
       <r>  -0.3538  1.0000</r>
       <r>   0.4488  1.0000</r>
       <r>   0.4489  1.0000</r>
       <r>   0.4489  1.0000</r>
       <r>   0.4489  1.0000</r>
       <r>   1.2459  1.0000</r>
       <r>   1.2459  1.0000</r>
       <r>   2.0381  1.0000</r>
       <r>   2.0381  1.0000</r>
       <r>   2.0381  1.0000</r>
       <r>   2.0381  1.0000</r>
       <r>   2.8184  1.0000</r>
       <r>   2.8184  1.0000</r>
       <r>   3.5994  1.0000</r>
       <r>   3.5994  1.0000</r>
       <r>   3.5994  1.0000</r>
       <r>   3.5994  1.0000</r>
       <r>   4.3726  1.0000</r>
       <r>   4.3726  1.0000</r>
       <r>   5.1356  1.0000</r>
       <r>   5.1356  1.0000</r>
       <r>   5.1356  1.0000</r>
       <r>   5.1356  1.0000</r>
       <r>   5.8211  1.0000</r>
       <r>   5.8211  1.0000</r>
       <r>   5.8944  1.0000</r>
       <r>   5.8944  1.0000</r>
       <r>   6.7441  1.0000</r>
       <r>   6.7444  1.0000</r>
       <r>   6.7444  1.0000</r>
       <r>   6.7444  1.0000</r>
       <r>   6.7611  1.0000</r>
       <r>   6.7613  1.0000</r>
       <r>   8.1311  1.0000</r>
       <r>   8.1311  1.0000</r>
       <r>   8.1311  1.0000</r>
       <r>   8.1312  1.0000</r>
       <r>   8.2439  1.0000</r>
       <r>   8.2440  1.0000</r>
       <r>   8.2631  1.0000</r>
       <r>   8.2631  1.0000</r>
       <r>   8.2632  1.0000</r>
       <r>   8.2634  1.0000</r>
       <r>   8.3085  1.0000</r>
       <r>   8.3085  1.0000</r>
       <r>   9.2534  1.0000</r>
       <r>   9.2534  1.0000</r>
       <r>   9.7314  0.0000</r>
       <r>   9.7314  0.0000</r>
       <r>  10.0857  0.0000</r>
       <r>  10.0857  0.0000</r>
       <r>  10.4674  0.0000</r>
       <r>  10.4674  0.0000</r>
       <r>  11.2180  0.0000</r>
       <r>  11.2180  0.0000</r>
       <r>  11.4880  0.0000</r>
       <r>  11.4880  0.0000</r>
       <r>  11.6463  0.0000</r>
       <r>  11.6463  0.0000</r>
       <r>  11.6463  0.0000</r>
       <r>  11.6463  0.0000</r>
       <r>  12.1938  0.0000</r>
       <r>  12.1938  0.0000</r>
       <r>  12.6247  0.0000</r>
       <r>  12.6247  0.0000</r>
       <r>  12.6247  0.0000</r>
       <r>  12.6247  0.0000</r>
       <r>  12.7181  0.0000</r>
       <r>  12.7181  0.0000</r>
      </set>
      <set comment="kpoint 15">
       <r>  -1.7716  1.0000</r>
       <r>  -1.7716  1.0000</r>
       <r>  -0.9594  1.0000</r>
       <r>  -0.9594  1.0000</r>
       <r>   0.6487  1.0000</r>
       <r>   0.6488  1.0000</r>
       <r>   0.6488  1.0000</r>
       <r>   0.6488  1.0000</r>
       <r>   1.4449  1.0000</r>
       <r>   1.4449  1.0000</r>
       <r>   1.4449  1.0000</r>
       <r>   1.4449  1.0000</r>
       <r>   2.2335  1.0000</r>
       <r>   2.2335  1.0000</r>
       <r>   3.0140  1.0000</r>
       <r>   3.0140  1.0000</r>
       <r>   3.7928  1.0000</r>
       <r>   3.7928  1.0000</r>
       <r>   4.5455  1.0000</r>
       <r>   4.5455  1.0000</r>
       <r>   4.5455  1.0000</r>
       <r>   4.5455  1.0000</r>
       <r>   4.5505  1.0000</r>
       <r>   4.5505  1.0000</r>
       <r>   5.3065  1.0000</r>
       <r>   5.3065  1.0000</r>
       <r>   5.3065  1.0000</r>
       <r>   5.3065  1.0000</r>
       <r>   6.1912  1.0000</r>
       <r>   6.1912  1.0000</r>
       <r>   6.1912  1.0000</r>
       <r>   6.1912  1.0000</r>
       <r>   6.8133  1.0000</r>
       <r>   6.8133  1.0000</r>
       <r>   6.9273  1.0000</r>
       <r>   6.9278  1.0000</r>
       <r>   6.9278  1.0000</r>
       <r>   6.9278  1.0000</r>
       <r>   6.9462  1.0000</r>
       <r>   6.9466  1.0000</r>
       <r>   7.6873  1.0000</r>
       <r>   7.6873  1.0000</r>
       <r>   8.3202  1.0000</r>
       <r>   8.3202  1.0000</r>
       <r>   9.2079  1.0000</r>
       <r>   9.2079  1.0000</r>
       <r>   9.2080  1.0000</r>
       <r>   9.2080  1.0000</r>
       <r>   9.4794  0.0000</r>
       <r>   9.4794  0.0000</r>
       <r>   9.5478  0.0000</r>
       <r>   9.5478  0.0000</r>
       <r>  10.6625  0.0000</r>
       <r>  10.6626  0.0000</r>
       <r>  10.8211  0.0000</r>
       <r>  10.8211  0.0000</r>
       <r>  11.4054  0.0000</r>
       <r>  11.4054  0.0000</r>
       <r>  11.4253  0.0000</r>
       <r>  11.4253  0.0000</r>
       <r>  11.4254  0.0000</r>
       <r>  11.4255  0.0000</r>
       <r>  12.1557  0.0000</r>
       <r>  12.1557  0.0000</r>
       <r>  12.1776  0.0000</r>
       <r>  12.1776  0.0000</r>
       <r>  12.3238  0.0000</r>
       <r>  12.3238  0.0000</r>
       <r>  12.8957  0.0000</r>
       <r>  12.8957  0.0000</r>
       <r>  13.1471  0.0000</r>
       <r>  13.1471  0.0000</r>
      </set>
      <set comment="kpoint 16">
       <r>  -1.4354  1.0000</r>
       <r>  -1.4328  1.0000</r>
       <r>  -1.4323  1.0000</r>
       <r>  -1.4297  1.0000</r>
       <r>   0.9772  1.0000</r>
       <r>   0.9794  1.0000</r>
       <r>   0.9808  1.0000</r>
       <r>   0.9810  1.0000</r>
       <r>   0.9813  1.0000</r>
       <r>   0.9816  1.0000</r>
       <r>   0.9829  1.0000</r>
       <r>   0.9851  1.0000</r>
       <r>   3.3352  1.0000</r>
       <r>   3.3369  1.0000</r>
       <r>   3.3387  1.0000</r>
       <r>   3.3392  1.0000</r>
       <r>   3.3392  1.0000</r>
       <r>   3.3397  1.0000</r>
       <r>   3.3415  1.0000</r>
       <r>   3.3432  1.0000</r>
       <r>   5.3913  1.0000</r>
       <r>   5.3931  1.0000</r>
       <r>   5.3938  1.0000</r>
       <r>   5.3945  1.0000</r>
       <r>   5.3945  1.0000</r>
       <r>   5.3952  1.0000</r>
       <r>   5.3959  1.0000</r>
       <r>   5.3977  1.0000</r>
       <r>   5.9748  1.0000</r>
       <r>   5.9755  1.0000</r>
       <r>   5.9761  1.0000</r>
       <r>   5.9772  1.0000</r>
       <r>   5.9772  1.0000</r>
       <r>   5.9783  1.0000</r>
       <r>   5.9790  1.0000</r>
       <r>   5.9796  1.0000</r>
       <r>   7.2516  1.0000</r>
       <r>   7.2546  1.0000</r>
       <r>   7.2551  1.0000</r>
       <r>   7.2580  1.0000</r>
       <r>   7.7608  1.0000</r>
       <r>   7.7612  1.0000</r>
       <r>   7.7632  1.0000</r>
       <r>   7.7636  1.0000</r>
       <r>   9.2079  1.0000</r>
       <r>   9.2091  1.0000</r>
       <r>   9.2100  1.0000</r>
       <r>   9.2113  1.0000</r>
       <r>  10.2654  0.0000</r>
       <r>  10.2661  0.0000</r>
       <r>  10.2664  0.0000</r>
       <r>  10.2665  0.0000</r>
       <r>  10.2678  0.0000</r>
       <r>  10.2679  0.0000</r>
       <r>  10.2682  0.0000</r>
       <r>  10.2689  0.0000</r>
       <r>  11.7122  0.0000</r>
       <r>  11.7159  0.0000</r>
       <r>  11.7177  0.0000</r>
       <r>  11.7181  0.0000</r>
       <r>  11.7181  0.0000</r>
       <r>  11.7185  0.0000</r>
       <r>  11.7204  0.0000</r>
       <r>  11.7241  0.0000</r>
       <r>  12.4346  0.0000</r>
       <r>  12.4366  0.0000</r>
       <r>  12.4383  0.0000</r>
       <r>  12.4384  0.0000</r>
       <r>  12.4388  0.0000</r>
       <r>  12.4389  0.0000</r>
       <r>  12.4406  0.0000</r>
       <r>  12.4427  0.0000</r>
      </set>
      <set comment="kpoint 17">
       <r>  -2.5208  1.0000</r>
       <r>  -0.8920  1.0000</r>
       <r>  -0.8920  1.0000</r>
       <r>  -0.0874  1.0000</r>
       <r>  -0.0841  1.0000</r>
       <r>   0.7148  1.0000</r>
       <r>   0.7148  1.0000</r>
       <r>   0.7154  1.0000</r>
       <r>   1.5083  1.0000</r>
       <r>   1.5103  1.0000</r>
       <r>   1.5117  1.0000</r>
       <r>   1.5137  1.0000</r>
       <r>   2.3007  1.0000</r>
       <r>   2.3007  1.0000</r>
       <r>   3.0791  1.0000</r>
       <r>   3.0822  1.0000</r>
       <r>   3.0825  1.0000</r>
       <r>   3.0841  1.0000</r>
       <r>   3.0856  1.0000</r>
       <r>   3.0876  1.0000</r>
       <r>   3.8630  1.0000</r>
       <r>   4.3932  1.0000</r>
       <r>   4.3932  1.0000</r>
       <r>   4.9461  1.0000</r>
       <r>   4.9461  1.0000</r>
       <r>   5.3172  1.0000</r>
       <r>   5.3172  1.0000</r>
       <r>   6.2423  1.0000</r>
       <r>   6.2458  1.0000</r>
       <r>   6.2682  1.0000</r>
       <r>   6.8184  1.0000</r>
       <r>   6.8184  1.0000</r>
       <r>   7.3720  1.0000</r>
       <r>   7.3720  1.0000</r>
       <r>   7.7488  1.0000</r>
       <r>   7.7488  1.0000</r>
       <r>   7.7937  1.0000</r>
       <r>   7.7938  1.0000</r>
       <r>   7.8449  1.0000</r>
       <r>   8.2195  1.0000</r>
       <r>   8.2195  1.0000</r>
       <r>   8.7866  1.0000</r>
       <r>   8.7867  1.0000</r>
       <r>   9.1312  1.0000</r>
       <r>   9.1334  1.0000</r>
       <r>   9.1351  1.0000</r>
       <r>   9.1372  1.0000</r>
       <r>   9.2341  1.0000</r>
       <r>   9.2341  1.0000</r>
       <r>   9.2360  1.0000</r>
       <r>   9.4958  0.0000</r>
       <r>   9.4958  0.0000</r>
       <r>   9.9362  0.0000</r>
       <r>   9.9363  0.0000</r>
       <r>  10.5592  0.0000</r>
       <r>  10.5592  0.0000</r>
       <r>  10.6359  0.0000</r>
       <r>  10.6366  0.0000</r>
       <r>  10.6399  0.0000</r>
       <r>  10.6405  0.0000</r>
       <r>  10.7270  0.0000</r>
       <r>  10.7271  0.0000</r>
       <r>  11.1230  0.0000</r>
       <r>  11.7503  0.0000</r>
       <r>  11.7503  0.0000</r>
       <r>  12.0165  0.0000</r>
       <r>  12.0165  0.0000</r>
       <r>  12.2220  0.0000</r>
       <r>  12.2738  0.0000</r>
       <r>  12.2738  0.0000</r>
       <r>  12.6185  0.0000</r>
       <r>  12.6195  0.0000</r>
      </set>
      <set comment="kpoint 18">
       <r>  -2.4525  1.0000</r>
       <r>  -0.8264  1.0000</r>
       <r>  -0.8246  1.0000</r>
       <r>  -0.8228  1.0000</r>
       <r>   0.7779  1.0000</r>
       <r>   0.7811  1.0000</r>
       <r>   0.7812  1.0000</r>
       <r>   0.7821  1.0000</r>
       <r>   0.7822  1.0000</r>
       <r>   0.7854  1.0000</r>
       <r>   2.3627  1.0000</r>
       <r>   2.3650  1.0000</r>
       <r>   2.3655  1.0000</r>
       <r>   2.3663  1.0000</r>
       <r>   2.3667  1.0000</r>
       <r>   2.3675  1.0000</r>
       <r>   2.3697  1.0000</r>
       <r>   3.9052  1.0000</r>
       <r>   3.9058  1.0000</r>
       <r>   3.9063  1.0000</r>
       <r>   3.9249  1.0000</r>
       <r>   3.9267  1.0000</r>
       <r>   3.9286  1.0000</r>
       <r>   5.3798  1.0000</r>
       <r>   5.3803  1.0000</r>
       <r>   5.3808  1.0000</r>
       <r>   5.5577  1.0000</r>
       <r>   5.5582  1.0000</r>
       <r>   5.5588  1.0000</r>
       <r>   6.8667  1.0000</r>
       <r>   6.8683  1.0000</r>
       <r>   6.8698  1.0000</r>
       <r>   6.8698  1.0000</r>
       <r>   6.8713  1.0000</r>
       <r>   6.8728  1.0000</r>
       <r>   7.0697  1.0000</r>
       <r>   8.3993  1.0000</r>
       <r>   8.3996  1.0000</r>
       <r>   8.4014  1.0000</r>
       <r>   8.4014  1.0000</r>
       <r>   8.4031  1.0000</r>
       <r>   8.4034  1.0000</r>
       <r>   8.4434  1.0000</r>
       <r>   8.4453  1.0000</r>
       <r>   8.4472  1.0000</r>
       <r>   8.8449  1.0000</r>
       <r>   8.8455  1.0000</r>
       <r>   8.8462  1.0000</r>
       <r>   9.9452  0.0000</r>
       <r>   9.9462  0.0000</r>
       <r>   9.9475  0.0000</r>
       <r>   9.9475  0.0000</r>
       <r>   9.9488  0.0000</r>
       <r>   9.9497  0.0000</r>
       <r>  10.3120  0.0000</r>
       <r>  10.3136  0.0000</r>
       <r>  10.3147  0.0000</r>
       <r>  10.3147  0.0000</r>
       <r>  10.3159  0.0000</r>
       <r>  10.3175  0.0000</r>
       <r>  11.4506  0.0000</r>
       <r>  11.4517  0.0000</r>
       <r>  11.4528  0.0000</r>
       <r>  12.0272  0.0000</r>
       <r>  12.0283  0.0000</r>
       <r>  12.0294  0.0000</r>
       <r>  12.3919  0.0000</r>
       <r>  12.3920  0.0000</r>
       <r>  12.3933  0.0000</r>
       <r>  12.3933  0.0000</r>
       <r>  12.3947  0.0000</r>
       <r>  12.3948  0.0000</r>
      </set>
      <set comment="kpoint 19">
       <r>  -2.2479  1.0000</r>
       <r>  -1.4325  1.0000</r>
       <r>  -0.6226  1.0000</r>
       <r>  -0.6226  1.0000</r>
       <r>   0.1820  1.0000</r>
       <r>   0.1820  1.0000</r>
       <r>   0.9806  1.0000</r>
       <r>   0.9807  1.0000</r>
       <r>   0.9813  1.0000</r>
       <r>   1.7716  1.0000</r>
       <r>   1.7745  1.0000</r>
       <r>   1.7748  1.0000</r>
       <r>   1.7761  1.0000</r>
       <r>   2.5625  1.0000</r>
       <r>   2.5625  1.0000</r>
       <r>   3.3395  1.0000</r>
       <r>   3.3398  1.0000</r>
       <r>   3.3438  1.0000</r>
       <r>   3.3442  1.0000</r>
       <r>   4.1010  1.0000</r>
       <r>   4.1159  1.0000</r>
       <r>   4.6437  1.0000</r>
       <r>   4.8849  1.0000</r>
       <r>   4.8849  1.0000</r>
       <r>   5.2079  1.0000</r>
       <r>   5.5693  1.0000</r>
       <r>   5.5693  1.0000</r>
       <r>   5.6282  1.0000</r>
       <r>   5.6282  1.0000</r>
       <r>   6.3197  1.0000</r>
       <r>   6.3197  1.0000</r>
       <r>   6.4970  1.0000</r>
       <r>   6.4970  1.0000</r>
       <r>   6.8817  1.0000</r>
       <r>   6.8817  1.0000</r>
       <r>   7.2262  1.0000</r>
       <r>   7.3735  1.0000</r>
       <r>   7.3735  1.0000</r>
       <r>   7.8838  1.0000</r>
       <r>   7.8838  1.0000</r>
       <r>   8.0199  1.0000</r>
       <r>   8.6159  1.0000</r>
       <r>   8.6159  1.0000</r>
       <r>   8.7365  1.0000</r>
       <r>   8.7365  1.0000</r>
       <r>   9.0164  1.0000</r>
       <r>   9.0164  1.0000</r>
       <r>   9.1762  1.0000</r>
       <r>   9.1762  1.0000</r>
       <r>   9.3805  0.0000</r>
       <r>   9.3805  0.0000</r>
       <r>  10.0074  0.0000</r>
       <r>  10.0074  0.0000</r>
       <r>  10.2498  0.0000</r>
       <r>  10.4606  0.0000</r>
       <r>  10.6381  0.0000</r>
       <r>  10.6381  0.0000</r>
       <r>  10.8820  0.0000</r>
       <r>  10.8820  0.0000</r>
       <r>  11.4554  0.0000</r>
       <r>  11.4554  0.0000</r>
       <r>  11.5574  0.0000</r>
       <r>  11.5574  0.0000</r>
       <r>  11.6623  0.0000</r>
       <r>  11.6623  0.0000</r>
       <r>  12.3858  0.0000</r>
       <r>  12.3859  0.0000</r>
       <r>  12.9004  0.0000</r>
       <r>  12.9007  0.0000</r>
       <r>  12.9043  0.0000</r>
       <r>  12.9046  0.0000</r>
       <r>  13.0665  0.0000</r>
      </set>
      <set comment="kpoint 20">
       <r>  -1.9090  1.0000</r>
       <r>  -1.9059  1.0000</r>
       <r>  -0.2894  1.0000</r>
       <r>  -0.2872  1.0000</r>
       <r>  -0.2862  1.0000</r>
       <r>  -0.2841  1.0000</r>
       <r>   1.3092  1.0000</r>
       <r>   1.3114  1.0000</r>
       <r>   1.3116  1.0000</r>
       <r>   1.3126  1.0000</r>
       <r>   1.3138  1.0000</r>
       <r>   1.3152  1.0000</r>
       <r>   2.8820  1.0000</r>
       <r>   2.8837  1.0000</r>
       <r>   2.8868  1.0000</r>
       <r>   2.8872  1.0000</r>
       <r>   2.8895  1.0000</r>
       <r>   2.8907  1.0000</r>
       <r>   4.4172  1.0000</r>
       <r>   4.4203  1.0000</r>
       <r>   4.4353  1.0000</r>
       <r>   4.4354  1.0000</r>
       <r>   4.4364  1.0000</r>
       <r>   4.4364  1.0000</r>
       <r>   5.8814  1.0000</r>
       <r>   5.8818  1.0000</r>
       <r>   5.8847  1.0000</r>
       <r>   5.8850  1.0000</r>
       <r>   5.9409  1.0000</r>
       <r>   5.9410  1.0000</r>
       <r>   5.9419  1.0000</r>
       <r>   5.9419  1.0000</r>
       <r>   6.0631  1.0000</r>
       <r>   6.0641  1.0000</r>
       <r>   7.4581  1.0000</r>
       <r>   7.4604  1.0000</r>
       <r>   7.4613  1.0000</r>
       <r>   7.4636  1.0000</r>
       <r>   7.5645  1.0000</r>
       <r>   7.5651  1.0000</r>
       <r>   7.5657  1.0000</r>
       <r>   7.5663  1.0000</r>
       <r>   8.9352  1.0000</r>
       <r>   8.9360  1.0000</r>
       <r>   8.9386  1.0000</r>
       <r>   8.9393  1.0000</r>
       <r>   9.0848  1.0000</r>
       <r>   9.0861  1.0000</r>
       <r>   9.2593  1.0000</r>
       <r>   9.2601  1.0000</r>
       <r>   9.2622  1.0000</r>
       <r>   9.2630  1.0000</r>
       <r>  10.5643  0.0000</r>
       <r>  10.5649  0.0000</r>
       <r>  10.5658  0.0000</r>
       <r>  10.5664  0.0000</r>
       <r>  10.9939  0.0000</r>
       <r>  10.9950  0.0000</r>
       <r>  10.9972  0.0000</r>
       <r>  10.9983  0.0000</r>
       <r>  11.9319  0.0000</r>
       <r>  11.9324  0.0000</r>
       <r>  11.9336  0.0000</r>
       <r>  11.9341  0.0000</r>
       <r>  12.2176  0.0000</r>
       <r>  12.2180  0.0000</r>
       <r>  12.3411  0.0000</r>
       <r>  12.3436  0.0000</r>
       <r>  12.3446  0.0000</r>
       <r>  12.3470  0.0000</r>
       <r>  13.4051  0.0000</r>
       <r>  13.4355  0.0000</r>
      </set>
      <set comment="kpoint 21">
       <r>  -2.3160  1.0000</r>
       <r>  -1.5003  1.0000</r>
       <r>  -0.6899  1.0000</r>
       <r>   0.1128  1.0000</r>
       <r>   0.1151  1.0000</r>
       <r>   0.1173  1.0000</r>
       <r>   0.9124  1.0000</r>
       <r>   0.9145  1.0000</r>
       <r>   0.9169  1.0000</r>
       <r>   1.7059  1.0000</r>
       <r>   1.7080  1.0000</r>
       <r>   1.7087  1.0000</r>
       <r>   1.7111  1.0000</r>
       <r>   2.4950  1.0000</r>
       <r>   2.4984  1.0000</r>
       <r>   3.2770  1.0000</r>
       <r>   3.2788  1.0000</r>
       <r>   3.2807  1.0000</r>
       <r>   4.0324  1.0000</r>
       <r>   4.0353  1.0000</r>
       <r>   4.0376  1.0000</r>
       <r>   4.0528  1.0000</r>
       <r>   4.0563  1.0000</r>
       <r>   4.8244  1.0000</r>
       <r>   5.5065  1.0000</r>
       <r>   5.5682  1.0000</r>
       <r>   5.6838  1.0000</r>
       <r>   5.6872  1.0000</r>
       <r>   6.2596  1.0000</r>
       <r>   6.3032  1.0000</r>
       <r>   6.3065  1.0000</r>
       <r>   6.4530  1.0000</r>
       <r>   7.0502  1.0000</r>
       <r>   7.1927  1.0000</r>
       <r>   7.1930  1.0000</r>
       <r>   7.1963  1.0000</r>
       <r>   7.8261  1.0000</r>
       <r>   7.8297  1.0000</r>
       <r>   7.9159  1.0000</r>
       <r>   7.9195  1.0000</r>
       <r>   7.9345  1.0000</r>
       <r>   8.0261  1.0000</r>
       <r>   8.5671  1.0000</r>
       <r>   8.5709  1.0000</r>
       <r>   8.5800  1.0000</r>
       <r>   8.6778  1.0000</r>
       <r>   8.9658  1.0000</r>
       <r>   9.4206  0.0000</r>
       <r>   9.4297  0.0000</r>
       <r>   9.4335  0.0000</r>
       <r>   9.5683  0.0000</r>
       <r>   9.6175  0.0000</r>
       <r>   9.7452  0.0000</r>
       <r>  10.1640  0.0000</r>
       <r>  10.1669  0.0000</r>
       <r>  10.4089  0.0000</r>
       <r>  10.5443  0.0000</r>
       <r>  10.9028  0.0000</r>
       <r>  11.2017  0.0000</r>
       <r>  11.2039  0.0000</r>
       <r>  11.5710  0.0000</r>
       <r>  11.5751  0.0000</r>
       <r>  11.5925  0.0000</r>
       <r>  11.6602  0.0000</r>
       <r>  12.0170  0.0000</r>
       <r>  12.1299  0.0000</r>
       <r>  12.1330  0.0000</r>
       <r>  12.3931  0.0000</r>
       <r>  12.4093  0.0000</r>
       <r>  12.5712  0.0000</r>
       <r>  13.1068  0.0000</r>
       <r>  13.1306  0.0000</r>
      </set>
      <set comment="kpoint 22">
       <r>  -2.2479  1.0000</r>
       <r>  -1.4325  1.0000</r>
       <r>  -0.6239  1.0000</r>
       <r>  -0.6214  1.0000</r>
       <r>   0.1807  1.0000</r>
       <r>   0.1833  1.0000</r>
       <r>   0.9789  1.0000</r>
       <r>   0.9809  1.0000</r>
       <r>   0.9828  1.0000</r>
       <r>   1.7723  1.0000</r>
       <r>   1.7733  1.0000</r>
       <r>   1.7747  1.0000</r>
       <r>   1.7767  1.0000</r>
       <r>   2.5621  1.0000</r>
       <r>   2.5629  1.0000</r>
       <r>   3.3396  1.0000</r>
       <r>   3.3405  1.0000</r>
       <r>   3.3423  1.0000</r>
       <r>   3.3449  1.0000</r>
       <r>   4.1011  1.0000</r>
       <r>   4.1159  1.0000</r>
       <r>   4.6437  1.0000</r>
       <r>   4.8835  1.0000</r>
       <r>   4.8862  1.0000</r>
       <r>   5.2079  1.0000</r>
       <r>   5.5689  1.0000</r>
       <r>   5.5697  1.0000</r>
       <r>   5.6268  1.0000</r>
       <r>   5.6296  1.0000</r>
       <r>   6.3193  1.0000</r>
       <r>   6.3201  1.0000</r>
       <r>   6.4966  1.0000</r>
       <r>   6.4975  1.0000</r>
       <r>   6.8803  1.0000</r>
       <r>   6.8830  1.0000</r>
       <r>   7.2262  1.0000</r>
       <r>   7.3721  1.0000</r>
       <r>   7.3749  1.0000</r>
       <r>   7.8825  1.0000</r>
       <r>   7.8851  1.0000</r>
       <r>   8.0199  1.0000</r>
       <r>   8.6151  1.0000</r>
       <r>   8.6167  1.0000</r>
       <r>   8.7359  1.0000</r>
       <r>   8.7370  1.0000</r>
       <r>   9.0159  1.0000</r>
       <r>   9.0169  1.0000</r>
       <r>   9.1754  1.0000</r>
       <r>   9.1770  1.0000</r>
       <r>   9.3797  0.0000</r>
       <r>   9.3812  0.0000</r>
       <r>  10.0073  0.0000</r>
       <r>  10.0075  0.0000</r>
       <r>  10.2498  0.0000</r>
       <r>  10.4606  0.0000</r>
       <r>  10.6372  0.0000</r>
       <r>  10.6391  0.0000</r>
       <r>  10.8806  0.0000</r>
       <r>  10.8834  0.0000</r>
       <r>  11.4546  0.0000</r>
       <r>  11.4562  0.0000</r>
       <r>  11.5559  0.0000</r>
       <r>  11.5589  0.0000</r>
       <r>  11.6620  0.0000</r>
       <r>  11.6626  0.0000</r>
       <r>  12.3851  0.0000</r>
       <r>  12.3866  0.0000</r>
       <r>  12.8994  0.0000</r>
       <r>  12.9014  0.0000</r>
       <r>  12.9032  0.0000</r>
       <r>  12.9059  0.0000</r>
       <r>  13.0673  0.0000</r>
      </set>
      <set comment="kpoint 23">
       <r>  -2.0435  1.0000</r>
       <r>  -1.2309  1.0000</r>
       <r>  -1.2283  1.0000</r>
       <r>  -0.4220  1.0000</r>
       <r>  -0.4199  1.0000</r>
       <r>   0.3810  1.0000</r>
       <r>   0.3836  1.0000</r>
       <r>   1.1794  1.0000</r>
       <r>   1.1806  1.0000</r>
       <r>   1.9684  1.0000</r>
       <r>   1.9710  1.0000</r>
       <r>   1.9716  1.0000</r>
       <r>   1.9742  1.0000</r>
       <r>   2.7561  1.0000</r>
       <r>   2.7574  1.0000</r>
       <r>   2.7589  1.0000</r>
       <r>   3.5356  1.0000</r>
       <r>   3.5383  1.0000</r>
       <r>   4.2886  1.0000</r>
       <r>   4.2894  1.0000</r>
       <r>   4.2937  1.0000</r>
       <r>   4.2945  1.0000</r>
       <r>   5.0552  1.0000</r>
       <r>   5.0578  1.0000</r>
       <r>   5.0589  1.0000</r>
       <r>   5.0615  1.0000</r>
       <r>   5.7572  1.0000</r>
       <r>   5.7981  1.0000</r>
       <r>   5.7989  1.0000</r>
       <r>   5.8183  1.0000</r>
       <r>   5.9414  1.0000</r>
       <r>   5.9422  1.0000</r>
       <r>   6.4916  1.0000</r>
       <r>   6.4945  1.0000</r>
       <r>   6.6752  1.0000</r>
       <r>   6.6779  1.0000</r>
       <r>   7.3370  1.0000</r>
       <r>   7.4206  1.0000</r>
       <r>   7.4214  1.0000</r>
       <r>   7.4449  1.0000</r>
       <r>   8.1007  1.0000</r>
       <r>   8.1025  1.0000</r>
       <r>   8.1654  1.0000</r>
       <r>   8.1681  1.0000</r>
       <r>   8.9668  1.0000</r>
       <r>   9.1343  1.0000</r>
       <r>   9.5207  0.0000</r>
       <r>   9.5237  0.0000</r>
       <r>   9.6759  0.0000</r>
       <r>   9.6774  0.0000</r>
       <r>  10.1429  0.0000</r>
       <r>  10.1449  0.0000</r>
       <r>  10.3123  0.0000</r>
       <r>  10.3137  0.0000</r>
       <r>  10.5535  0.0000</r>
       <r>  10.5906  0.0000</r>
       <r>  10.5920  0.0000</r>
       <r>  10.8927  0.0000</r>
       <r>  11.1870  0.0000</r>
       <r>  11.1885  0.0000</r>
       <r>  11.3811  0.0000</r>
       <r>  11.3833  0.0000</r>
       <r>  11.8857  0.0000</r>
       <r>  11.8905  0.0000</r>
       <r>  11.8914  0.0000</r>
       <r>  12.1374  0.0000</r>
       <r>  12.1379  0.0000</r>
       <r>  12.5027  0.0000</r>
       <r>  12.5058  0.0000</r>
       <r>  13.0212  0.0000</r>
       <r>  13.0226  0.0000</r>
       <r>  13.3224  0.0000</r>
      </set>
      <set comment="kpoint 24">
       <r>  -1.7053  1.0000</r>
       <r>  -1.7022  1.0000</r>
       <r>  -0.8936  1.0000</r>
       <r>  -0.8905  1.0000</r>
       <r>  -0.0872  1.0000</r>
       <r>  -0.0841  1.0000</r>
       <r>   0.7139  1.0000</r>
[...]
       <r>   8.3202  1.0000</r>
       <r>   9.2057  1.0000</r>
       <r>   9.2065  1.0000</r>
       <r>   9.2094  1.0000</r>
       <r>   9.2102  1.0000</r>
       <r>   9.4794  0.0000</r>
       <r>   9.4794  0.0000</r>
       <r>   9.5478  0.0000</r>
       <r>   9.5478  0.0000</r>
       <r>  10.6625  0.0000</r>
       <r>  10.6626  0.0000</r>
       <r>  10.8211  0.0000</r>
       <r>  10.8212  0.0000</r>
       <r>  11.4055  0.0000</r>
       <r>  11.4056  0.0000</r>
       <r>  11.4230  0.0000</r>
       <r>  11.4237  0.0000</r>
       <r>  11.4270  0.0000</r>
       <r>  11.4276  0.0000</r>
       <r>  12.1555  0.0000</r>
       <r>  12.1556  0.0000</r>
       <r>  12.1777  0.0000</r>
       <r>  12.1778  0.0000</r>
       <r>  12.3238  0.0000</r>
       <r>  12.3238  0.0000</r>
       <r>  12.8957  0.0000</r>
       <r>  12.8957  0.0000</r>
       <r>  13.1467  0.0000</r>
       <r>  13.1489  0.0000</r>
      </set>
      <set comment="kpoint 34">
       <r>  -1.7037  1.0000</r>
       <r>  -1.7037  1.0000</r>
       <r>  -0.8920  1.0000</r>
       <r>  -0.8920  1.0000</r>
       <r>  -0.0856  1.0000</r>
       <r>  -0.0856  1.0000</r>
       <r>   0.7155  1.0000</r>
       <r>   0.7155  1.0000</r>
       <r>   1.5105  1.0000</r>
       <r>   1.5105  1.0000</r>
       <r>   2.2985  1.0000</r>
       <r>   2.2991  1.0000</r>
       <r>   2.3003  1.0000</r>
       <r>   2.3010  1.0000</r>
       <r>   3.0791  1.0000</r>
       <r>   3.0791  1.0000</r>
       <r>   3.8558  1.0000</r>
       <r>   3.8563  1.0000</r>
       <r>   3.8571  1.0000</r>
       <r>   3.8575  1.0000</r>
       <r>   4.6141  1.0000</r>
       <r>   4.6141  1.0000</r>
       <r>   4.6237  1.0000</r>
       <r>   4.6237  1.0000</r>
       <r>   5.1443  1.0000</r>
       <r>   5.1443  1.0000</r>
       <r>   5.7235  1.0000</r>
       <r>   5.7235  1.0000</r>
       <r>   5.8937  1.0000</r>
       <r>   5.8937  1.0000</r>
       <r>   6.0682  1.0000</r>
       <r>   6.0682  1.0000</r>
       <r>   6.4703  1.0000</r>
       <r>   6.4703  1.0000</r>
       <r>   6.6330  1.0000</r>
       <r>   6.6330  1.0000</r>
       <r>   6.9970  1.0000</r>
       <r>   6.9970  1.0000</r>
       <r>   7.1404  1.0000</r>
       <r>   7.1404  1.0000</r>
       <r>   7.7254  1.0000</r>
       <r>   7.7254  1.0000</r>
       <r>   8.5108  1.0000</r>
       <r>   8.5108  1.0000</r>
       <r>   8.9496  1.0000</r>
       <r>   8.9496  1.0000</r>
       <r>   9.8638  0.0000</r>
       <r>   9.8639  0.0000</r>
       <r>   9.9047  0.0000</r>
       <r>   9.9048  0.0000</r>
       <r>  10.0281  0.0000</r>
       <r>  10.0281  0.0000</r>
       <r>  10.4280  0.0000</r>
       <r>  10.4280  0.0000</r>
       <r>  10.4524  0.0000</r>
       <r>  10.4525  0.0000</r>
       <r>  10.7313  0.0000</r>
       <r>  10.7313  0.0000</r>
       <r>  11.1808  0.0000</r>
       <r>  11.1808  0.0000</r>
       <r>  11.3601  0.0000</r>
       <r>  11.3601  0.0000</r>
       <r>  11.9310  0.0000</r>
       <r>  11.9310  0.0000</r>
       <r>  12.2398  0.0000</r>
       <r>  12.2398  0.0000</r>
       <r>  12.5521  0.0000</r>
       <r>  12.5521  0.0000</r>
       <r>  12.6399  0.0000</r>
       <r>  12.6399  0.0000</r>
       <r>  12.8214  0.0000</r>
       <r>  12.8214  0.0000</r>
      </set>
      <set comment="kpoint 35">
       <r>  -1.5003  1.0000</r>
       <r>  -1.5003  1.0000</r>
       <r>  -0.6923  1.0000</r>
       <r>  -0.6901  1.0000</r>
       <r>  -0.6897  1.0000</r>
       <r>  -0.6876  1.0000</r>
       <r>   0.1152  1.0000</r>
       <r>   0.1152  1.0000</r>
       <r>   2.4933  1.0000</r>
       <r>   2.4954  1.0000</r>
       <r>   2.4959  1.0000</r>
       <r>   2.4980  1.0000</r>
       <r>   3.2729  1.0000</r>
       <r>   3.2739  1.0000</r>
       <r>   3.2769  1.0000</r>
       <r>   3.2771  1.0000</r>
       <r>   3.2774  1.0000</r>
       <r>   3.2786  1.0000</r>
       <r>   4.0479  1.0000</r>
       <r>   4.0480  1.0000</r>
       <r>   4.0506  1.0000</r>
       <r>   4.0507  1.0000</r>
       <r>   4.7954  1.0000</r>
       <r>   4.7958  1.0000</r>
       <r>   4.8041  1.0000</r>
       <r>   4.8045  1.0000</r>
       <r>   4.8048  1.0000</r>
       <r>   4.8055  1.0000</r>
       <r>   5.5420  1.0000</r>
       <r>   5.5440  1.0000</r>
       <r>   5.5447  1.0000</r>
       <r>   5.5467  1.0000</r>
       <r>   6.4492  1.0000</r>
       <r>   6.4492  1.0000</r>
       <r>   7.1898  1.0000</r>
       <r>   7.1899  1.0000</r>
       <r>   7.1926  1.0000</r>
       <r>   7.1927  1.0000</r>
       <r>   7.9383  1.0000</r>
       <r>   7.9393  1.0000</r>
       <r>   7.9393  1.0000</r>
       <r>   7.9403  1.0000</r>
       <r>   8.6564  1.0000</r>
       <r>   8.6574  1.0000</r>
       <r>   8.6579  1.0000</r>
       <r>   8.6589  1.0000</r>
       <r>   9.3466  0.3536</r>
       <r>   9.3473  0.3188</r>
       <r>   9.3479  0.2903</r>
       <r>   9.3486  0.2585</r>
       <r>  10.1567  0.0000</r>
       <r>  10.1568  0.0000</r>
       <r>  10.1596  0.0000</r>
       <r>  10.1597  0.0000</r>
       <r>  10.8340  0.0000</r>
       <r>  10.8340  0.0000</r>
       <r>  10.9678  0.0000</r>
       <r>  10.9678  0.0000</r>
       <r>  11.2991  0.0000</r>
       <r>  11.2991  0.0000</r>
       <r>  11.2996  0.0000</r>
       <r>  11.2996  0.0000</r>
       <r>  12.0193  0.0000</r>
       <r>  12.0204  0.0000</r>
       <r>  12.0209  0.0000</r>
       <r>  12.0220  0.0000</r>
       <r>  12.7523  0.0000</r>
       <r>  12.7523  0.0000</r>
       <r>  13.1712  0.0000</r>
       <r>  13.1720  0.0000</r>
       <r>  13.1727  0.0000</r>
       <r>  13.1734  0.0000</r>
      </set>
      <set comment="kpoint 36">
       <r>  -1.1648  1.0000</r>
       <r>  -1.1622  1.0000</r>
       <r>  -1.1617  1.0000</r>
       <r>  -1.1592  1.0000</r>
       <r>  -0.3566  1.0000</r>
       <r>  -0.3541  1.0000</r>
       <r>  -0.3535  1.0000</r>
       <r>  -0.3509  1.0000</r>
       <r>   2.8193  1.0000</r>
       <r>   2.8220  1.0000</r>
       <r>   2.8225  1.0000</r>
       <r>   2.8251  1.0000</r>
       <r>   3.5941  1.0000</r>
       <r>   3.5957  1.0000</r>
       <r>   3.5976  1.0000</r>
       <r>   3.5981  1.0000</r>
       <r>   3.5981  1.0000</r>
       <r>   3.5986  1.0000</r>
       <r>   3.6004  1.0000</r>
       <r>   3.6021  1.0000</r>
       <r>   4.3625  1.0000</r>
       <r>   4.3643  1.0000</r>
       <r>   4.3661  1.0000</r>
       <r>   4.3666  1.0000</r>
       <r>   4.3666  1.0000</r>
       <r>   4.3671  1.0000</r>
       <r>   4.3689  1.0000</r>
       <r>   4.3706  1.0000</r>
       <r>   5.1159  1.0000</r>
       <r>   5.1187  1.0000</r>
       <r>   5.1191  1.0000</r>
       <r>   5.1219  1.0000</r>
       <r>   7.4923  1.0000</r>
       <r>   7.4938  1.0000</r>
       <r>   7.4961  1.0000</r>
       <r>   7.4964  1.0000</r>
       <r>   7.4965  1.0000</r>
       <r>   7.4968  1.0000</r>
       <r>   7.4990  1.0000</r>
       <r>   7.5006  1.0000</r>
       <r>   8.2203  1.0000</r>
       <r>   8.2215  1.0000</r>
       <r>   8.2219  1.0000</r>
       <r>   8.2230  1.0000</r>
       <r>   8.9977  1.0000</r>
       <r>   8.9990  1.0000</r>
       <r>   8.9992  1.0000</r>
       <r>   9.0004  1.0000</r>
       <r>   9.6983  0.0000</r>
       <r>   9.7004  0.0000</r>
       <r>   9.7026  0.0000</r>
       <r>   9.7029  0.0000</r>
       <r>   9.7030  0.0000</r>
       <r>   9.7033  0.0000</r>
       <r>   9.7055  0.0000</r>
       <r>   9.7076  0.0000</r>
       <r>  11.5942  0.0000</r>
       <r>  11.5965  0.0000</r>
       <r>  11.5974  0.0000</r>
       <r>  11.5997  0.0000</r>
       <r>  12.0193  0.0000</r>
       <r>  12.0208  0.0000</r>
       <r>  12.0208  0.0000</r>
       <r>  12.0223  0.0000</r>
       <r>  13.0228  0.0000</r>
       <r>  13.0239  0.0000</r>
       <r>  13.0240  0.0000</r>
       <r>  13.0253  0.0000</r>
       <r>  13.0257  0.0000</r>
       <r>  13.0270  0.0000</r>
       <r>  13.0271  0.0000</r>
       <r>  13.0282  0.0000</r>
      </set>
      <set comment="kpoint 37">
       <r>  -1.4326  1.0000</r>
       <r>  -1.4325  1.0000</r>
       <r>  -1.4325  1.0000</r>
       <r>  -1.4325  1.0000</r>
       <r>   0.9759  1.0000</r>
       <r>   0.9805  1.0000</r>
       <r>   0.9805  1.0000</r>
       <r>   0.9811  1.0000</r>
       <r>   0.9813  1.0000</r>
       <r>   0.9819  1.0000</r>
       <r>   0.9819  1.0000</r>
       <r>   0.9864  1.0000</r>
       <r>   3.3392  1.0000</r>
       <r>   3.3392  1.0000</r>
       <r>   3.3392  1.0000</r>
       <r>   3.3392  1.0000</r>
       <r>   3.3392  1.0000</r>
       <r>   3.3392  1.0000</r>
       <r>   3.3392  1.0000</r>
       <r>   3.3392  1.0000</r>
       <r>   5.3929  1.0000</r>
       <r>   5.3929  1.0000</r>
       <r>   5.3944  1.0000</r>
       <r>   5.3945  1.0000</r>
       <r>   5.3945  1.0000</r>
       <r>   5.3945  1.0000</r>
       <r>   5.3961  1.0000</r>
       <r>   5.3961  1.0000</r>
       <r>   5.9752  1.0000</r>
       <r>   5.9752  1.0000</r>
       <r>   5.9772  1.0000</r>
       <r>   5.9772  1.0000</r>
       <r>   5.9772  1.0000</r>
       <r>   5.9773  1.0000</r>
       <r>   5.9792  1.0000</r>
       <r>   5.9792  1.0000</r>
       <r>   7.2548  1.0000</r>
       <r>   7.2548  1.0000</r>
       <r>   7.2548  1.0000</r>
       <r>   7.2549  1.0000</r>
       <r>   7.7622  1.0000</r>
       <r>   7.7622  1.0000</r>
       <r>   7.7622  1.0000</r>
       <r>   7.7622  1.0000</r>
       <r>   9.2095  1.0000</r>
       <r>   9.2095  1.0000</r>
       <r>   9.2095  1.0000</r>
       <r>   9.2096  1.0000</r>
       <r>  10.2648  0.0000</r>
       <r>  10.2648  0.0000</r>
       <r>  10.2649  0.0000</r>
       <r>  10.2665  0.0000</r>
       <r>  10.2678  0.0000</r>
       <r>  10.2694  0.0000</r>
       <r>  10.2695  0.0000</r>
       <r>  10.2695  0.0000</r>
       <r>  11.7181  0.0000</r>
       <r>  11.7181  0.0000</r>
       <r>  11.7181  0.0000</r>
       <r>  11.7181  0.0000</r>
       <r>  11.7181  0.0000</r>
       <r>  11.7181  0.0000</r>
       <r>  11.7181  0.0000</r>
       <r>  11.7182  0.0000</r>
       <r>  12.4386  0.0000</r>
       <r>  12.4386  0.0000</r>
       <r>  12.4386  0.0000</r>
       <r>  12.4386  0.0000</r>
       <r>  12.4386  0.0000</r>
       <r>  12.4386  0.0000</r>
       <r>  12.4386  0.0000</r>
       <r>  12.4386  0.0000</r>
      </set>
      <set comment="kpoint 38">
       <r>  -1.3649  1.0000</r>
       <r>  -1.3648  1.0000</r>
       <r>  -1.3648  1.0000</r>
       <r>  -1.3648  1.0000</r>
       <r>   0.2488  1.0000</r>
       <r>   0.2488  1.0000</r>
       <r>   0.2488  1.0000</r>
       <r>   0.2488  1.0000</r>
       <r>   1.8403  1.0000</r>
       <r>   1.8403  1.0000</r>
       <r>   1.8403  1.0000</r>
       <r>   1.8403  1.0000</r>
       <r>   3.4040  1.0000</r>
       <r>   3.4040  1.0000</r>
       <r>   3.4040  1.0000</r>
       <r>   3.4040  1.0000</r>
       <r>   3.4040  1.0000</r>
       <r>   3.4040  1.0000</r>
       <r>   3.4040  1.0000</r>
       <r>   3.4040  1.0000</r>
       <r>   4.9233  1.0000</r>
       <r>   4.9233  1.0000</r>
       <r>   4.9237  1.0000</r>
       <r>   4.9237  1.0000</r>
       <r>   4.9237  1.0000</r>
       <r>   4.9237  1.0000</r>
       <r>   4.9242  1.0000</r>
       <r>   4.9242  1.0000</r>
       <r>   6.3672  1.0000</r>
       <r>   6.3672  1.0000</r>
       <r>   6.3672  1.0000</r>
       <r>   6.3672  1.0000</r>
       <r>   6.5703  1.0000</r>
       <r>   6.5703  1.0000</r>
       <r>   6.5712  1.0000</r>
       <r>   6.5712  1.0000</r>
       <r>   6.5712  1.0000</r>
       <r>   6.5712  1.0000</r>
       <r>   6.5721  1.0000</r>
       <r>   6.5721  1.0000</r>
       <r>   7.9899  1.0000</r>
       <r>   7.9899  1.0000</r>
       <r>   7.9899  1.0000</r>
       <r>   7.9899  1.0000</r>
       <r>   9.5714  0.0000</r>
       <r>   9.5714  0.0000</r>
       <r>   9.5714  0.0000</r>
       <r>   9.5714  0.0000</r>
       <r>  10.0474  0.0000</r>
       <r>  10.0474  0.0000</r>
       <r>  10.0474  0.0000</r>
       <r>  10.0474  0.0000</r>
       <r>  10.8943  0.0000</r>
       <r>  10.8943  0.0000</r>
       <r>  10.8952  0.0000</r>
       <r>  10.8952  0.0000</r>
       <r>  10.8952  0.0000</r>
       <r>  10.8952  0.0000</r>
       <r>  10.8960  0.0000</r>
       <r>  10.8960  0.0000</r>
       <r>  11.0846  0.0000</r>
       <r>  11.0846  0.0000</r>
       <r>  11.0847  0.0000</r>
       <r>  11.0847  0.0000</r>
       <r>  12.7476  0.0000</r>
       <r>  12.7476  0.0000</r>
       <r>  12.7490  0.0000</r>
       <r>  12.7490  0.0000</r>
       <r>  12.7490  0.0000</r>
       <r>  12.7490  0.0000</r>
       <r>  12.7504  0.0000</r>
       <r>  12.7504  0.0000</r>
      </set>
      <set comment="kpoint 39">
       <r>  -1.1620  1.0000</r>
       <r>  -1.1620  1.0000</r>
       <r>  -1.1620  1.0000</r>
       <r>  -1.1620  1.0000</r>
       <r>  -0.3538  1.0000</r>
       <r>  -0.3538  1.0000</r>
       <r>  -0.3538  1.0000</r>
       <r>  -0.3538  1.0000</r>
       <r>   2.8222  1.0000</r>
       <r>   2.8223  1.0000</r>
       <r>   2.8223  1.0000</r>
       <r>   2.8223  1.0000</r>
       <r>   3.5980  1.0000</r>
       <r>   3.5980  1.0000</r>
       <r>   3.5981  1.0000</r>
       <r>   3.5981  1.0000</r>
       <r>   3.5981  1.0000</r>
       <r>   3.5981  1.0000</r>
       <r>   3.5981  1.0000</r>
       <r>   3.5981  1.0000</r>
       <r>   4.3664  1.0000</r>
       <r>   4.3664  1.0000</r>
       <r>   4.3666  1.0000</r>
       <r>   4.3666  1.0000</r>
       <r>   4.3666  1.0000</r>
       <r>   4.3666  1.0000</r>
       <r>   4.3668  1.0000</r>
       <r>   4.3668  1.0000</r>
       <r>   5.1189  1.0000</r>
       <r>   5.1189  1.0000</r>
       <r>   5.1189  1.0000</r>
       <r>   5.1189  1.0000</r>
       <r>   7.4958  1.0000</r>
       <r>   7.4958  1.0000</r>
       <r>   7.4965  1.0000</r>
       <r>   7.4965  1.0000</r>
       <r>   7.4965  1.0000</r>
       <r>   7.4965  1.0000</r>
       <r>   7.4971  1.0000</r>
       <r>   7.4971  1.0000</r>
       <r>   8.2217  1.0000</r>
       <r>   8.2217  1.0000</r>
       <r>   8.2217  1.0000</r>
       <r>   8.2217  1.0000</r>
       <r>   8.9991  1.0000</r>
       <r>   8.9991  1.0000</r>
       <r>   8.9991  1.0000</r>
       <r>   8.9991  1.0000</r>
       <r>   9.7023  0.0000</r>
       <r>   9.7023  0.0000</r>
       <r>   9.7030  0.0000</r>
       <r>   9.7030  0.0000</r>
       <r>   9.7030  0.0000</r>
       <r>   9.7030  0.0000</r>
       <r>   9.7036  0.0000</r>
       <r>   9.7036  0.0000</r>
       <r>  11.5970  0.0000</r>
       <r>  11.5970  0.0000</r>
       <r>  11.5970  0.0000</r>
       <r>  11.5970  0.0000</r>
       <r>  12.0208  0.0000</r>
       <r>  12.0208  0.0000</r>
       <r>  12.0208  0.0000</r>
       <r>  12.0208  0.0000</r>
       <r>  13.0244  0.0000</r>
       <r>  13.0244  0.0000</r>
       <r>  13.0255  0.0000</r>
       <r>  13.0255  0.0000</r>
       <r>  13.0255  0.0000</r>
       <r>  13.0255  0.0000</r>
       <r>  13.0266  0.0000</r>
       <r>  13.0266  0.0000</r>
      </set>
      <set comment="kpoint 40">
       <r>  -0.8298  1.0000</r>
       <r>  -0.8251  1.0000</r>
       <r>  -0.8251  1.0000</r>
       <r>  -0.8246  1.0000</r>
       <r>  -0.8246  1.0000</r>
       <r>  -0.8241  1.0000</r>
       <r>  -0.8241  1.0000</r>
       <r>  -0.8194  1.0000</r>
       <r>   3.9096  1.0000</r>
       <r>   3.9156  1.0000</r>
       <r>   3.9156  1.0000</r>
       <r>   3.9190  1.0000</r>
       <r>   3.9194  1.0000</r>
       <r>   3.9196  1.0000</r>
       <r>   3.9200  1.0000</r>
       <r>   3.9200  1.0000</r>
       <r>   3.9200  1.0000</r>
       <r>   3.9201  1.0000</r>
       <r>   3.9201  1.0000</r>
       <r>   3.9201  1.0000</r>
       <r>   3.9201  1.0000</r>
       <r>   3.9201  1.0000</r>
       <r>   3.9201  1.0000</r>
       <r>   3.9202  1.0000</r>
       <r>   3.9202  1.0000</r>
       <r>   3.9202  1.0000</r>
       <r>   3.9206  1.0000</r>
       <r>   3.9208  1.0000</r>
       <r>   3.9212  1.0000</r>
       <r>   3.9246  1.0000</r>
       <r>   3.9246  1.0000</r>
       <r>   3.9306  1.0000</r>
       <r>   8.5437  1.0000</r>
       <r>   8.5437  1.0000</r>
       <r>   8.5462  1.0000</r>
       <r>   8.5475  1.0000</r>
       <r>   8.5494  1.0000</r>
       <r>   8.5498  1.0000</r>
       <r>   8.5499  1.0000</r>
       <r>   8.5499  1.0000</r>
       <r>   8.5502  1.0000</r>
       <r>   8.5502  1.0000</r>
       <r>   8.5502  1.0000</r>
       <r>   8.5502  1.0000</r>
       <r>   8.5503  1.0000</r>
       <r>   8.5503  1.0000</r>
       <r>   8.5503  1.0000</r>
       <r>   8.5503  1.0000</r>
       <r>   8.5506  1.0000</r>
       <r>   8.5506  1.0000</r>
       <r>   8.5507  1.0000</r>
       <r>   8.5511  1.0000</r>
       <r>   8.5530  1.0000</r>
       <r>   8.5544  1.0000</r>
       <r>   8.5568  1.0000</r>
       <r>   8.5568  1.0000</r>
       <r>  13.0679  0.0000</r>
       <r>  13.0685  0.0000</r>
       <r>  13.0685  0.0000</r>
       <r>  13.0687  0.0000</r>
       <r>  13.0707  0.0000</r>
       <r>  13.0709  0.0000</r>
       <r>  13.0709  0.0000</r>
       <r>  13.0716  0.0000</r>
       <r>  13.3490  0.0000</r>
       <r>  13.3503  0.0000</r>
       <r>  13.3508  0.0000</r>
       <r>  13.3513  0.0000</r>
       <r>  13.3517  0.0000</r>
       <r>  13.3523  0.0000</r>
       <r>  13.3530  0.0000</r>
       <r>  13.3537  0.0000</r>
      </set>
     </set>
    </set>
   </array>
  </eigenvalues>
 </calculation>
 <structure name="finalpos" >
  <crystal>
   <varray name="basis" >
    <v>       7.75162823      0.00000000      0.00000000</v>
    <v>       0.00000000      7.75162823      0.00000000</v>
    <v>       0.00000000      0.00000000      7.75162823</v>
   </varray>
   <i name="volume">    465.77782330</i>
   <varray name="rec_basis" >
    <v>       0.12900515      0.00000000      0.00000000</v>
    <v>       0.00000000      0.12900515      0.00000000</v>
    <v>       0.00000000      0.00000000      0.12900515</v>
   </varray>
  </crystal>
  <varray name="positions" >
   <v>       0.25129005      0.25000000      0.00000000</v>
   <v>       0.75000000      0.25000000      0.00000000</v>
   <v>       0.25000000      0.75000000      0.00000000</v>
   <v>       0.75000000      0.75000000      0.00000000</v>
   <v>       0.25000000      0.25000000      0.50000000</v>
   <v>       0.75000000      0.25000000      0.50000000</v>
   <v>       0.25000000      0.75000000      0.50000000</v>
   <v>       0.75000000      0.75000000      0.50000000</v>
   <v>       0.25000000      0.00000000      0.25000000</v>
   <v>       0.75000000      0.00000000      0.25000000</v>
   <v>       0.25000000      0.50000000      0.25000000</v>
   <v>       0.75000000      0.50000000      0.25000000</v>
   <v>       0.25000000      0.00000000      0.75000000</v>
   <v>       0.75000000      0.00000000      0.75000000</v>
   <v>       0.25000000      0.50000000      0.75000000</v>
   <v>       0.75000000      0.50000000      0.75000000</v>
   <v>       0.00000000      0.25000000      0.25000000</v>
   <v>       0.50000000      0.25000000      0.25000000</v>
   <v>       0.00000000      0.75000000      0.25000000</v>
   <v>       0.50000000      0.75000000      0.25000000</v>
   <v>       0.00000000      0.25000000      0.75000000</v>
   <v>       0.50000000      0.25000000      0.75000000</v>
   <v>       0.00000000      0.75000000      0.75000000</v>
   <v>       0.50000000      0.75000000      0.75000000</v>
   <v>       0.00000000      0.00000000      0.00000000</v>
   <v>       0.50000000      0.00000000      0.00000000</v>
   <v>       0.00000000      0.50000000      0.00000000</v>
   <v>       0.50000000      0.50000000      0.00000000</v>
   <v>       0.00000000      0.00000000      0.50000000</v>
   <v>       0.50000000      0.00000000      0.50000000</v>
   <v>       0.00000000      0.50000000      0.50000000</v>
   <v>       0.50000000      0.50000000      0.50000000</v>
  </varray>
 </structure>
</modeling>
