  32  32   0   0
  0.1971248E+02  0.8576243E-09  0.8576243E-09  0.8576243E-09  0.5000000E-15
  1.000000000000000E-004
  CAR 
 unknown system                          
     11.26273971     -5.18526503  301      2.36964922      1.00000000
     -5.185  0.0000E+00  0.0000E+00
     -5.130  0.0000E+00  0.0000E+00
     -5.076  0.0000E+00  0.0000E+00
     -5.021  0.0000E+00  0.0000E+00
     -4.966  0.0000E+00  0.0000E+00
     -4.911  0.0000E+00  0.0000E+00
     -4.856  0.0000E+00  0.0000E+00
     -4.801  0.0000E+00  0.0000E+00
     -4.747  0.0000E+00  0.0000E+00
     -4.692  0.0000E+00  0.0000E+00
     -4.637  0.0000E+00  0.0000E+00
     -4.582  0.0000E+00  0.0000E+00
     -4.527  0.0000E+00  0.0000E+00
     -4.473  0.8497E-08  0.4659E-09
     -4.418  0.1194E+00  0.6545E-02
     -4.363  0.6653E+00  0.4302E-01
     -4.308  0.1073E+01  0.1018E+00
     -4.253  0.1709E+01  0.1955E+00
     -4.198  0.1720E+01  0.2898E+00
     -4.144  0.1888E+01  0.3933E+00
     -4.089  0.2382E+01  0.5239E+00
     -4.034  0.1638E+01  0.6138E+00
     -3.979  0.3164E+01  0.7873E+00
     -3.924  0.2181E+01  0.9068E+00
     -3.869  0.3055E+01  0.1074E+01
     -3.815  0.2966E+01  0.1237E+01
     -3.760  0.4022E+01  0.1457E+01
     -3.705  0.2775E+01  0.1610E+01
     -3.650  0.4043E+01  0.1831E+01
     -3.595  0.5071E+01  0.2109E+01
     -3.540  0.3593E+01  0.2306E+01
     -3.486  0.4591E+01  0.2558E+01
     -3.431  0.5874E+01  0.2880E+01
     -3.376  0.5044E+01  0.3157E+01
     -3.321  0.6966E+01  0.3539E+01
     -3.266  0.7113E+01  0.3929E+01
     -3.212  0.2548E+02  0.5325E+01
     -3.157  0.4535E+02  0.7812E+01
     -3.102  0.6746E+02  0.1151E+02
     -3.047  0.8180E+02  0.1600E+02
     -2.992  0.9104E+02  0.2099E+02
     -2.937  0.1084E+03  0.2693E+02
     -2.883  0.1253E+03  0.3380E+02
     -2.828  0.1641E+03  0.4280E+02
     -2.773  0.1452E+03  0.5076E+02
     -2.718  0.1266E+03  0.5770E+02
     -2.663  0.1169E+03  0.6411E+02
     -2.608  0.1039E+03  0.6981E+02
     -2.554  0.9925E+02  0.7525E+02
     -2.499  0.7931E+02  0.7960E+02
     -2.444  0.8389E+02  0.8420E+02
     -2.389  0.9185E+02  0.8924E+02
     -2.334  0.1079E+03  0.9515E+02
     -2.279  0.1049E+03  0.1009E+03
     -2.225  0.1249E+03  0.1078E+03
     -2.170  0.1093E+03  0.1137E+03
     -2.115  0.1059E+03  0.1196E+03
     -2.060  0.1034E+03  0.1252E+03
     -2.005  0.1101E+03  0.1313E+03
     -1.950  0.1157E+03  0.1376E+03
     -1.896  0.1464E+03  0.1456E+03
     -1.841  0.1762E+03  0.1553E+03
     -1.786  0.2038E+03  0.1665E+03
     -1.731  0.1522E+03  0.1748E+03
     -1.676  0.1266E+03  0.1818E+03
     -1.622  0.1030E+03  0.1874E+03
     -1.567  0.8820E+02  0.1922E+03
     -1.512  0.1208E+03  0.1989E+03
     -1.457  0.1076E+03  0.2048E+03
     -1.402  0.1113E+03  0.2109E+03
     -1.347  0.1400E+03  0.2185E+03
     -1.293  0.1308E+03  0.2257E+03
     -1.238  0.1258E+03  0.2326E+03
     -1.183  0.1446E+03  0.2405E+03
     -1.128  0.1306E+03  0.2477E+03
     -1.073  0.1153E+03  0.2540E+03
     -1.018  0.1082E+03  0.2600E+03
     -0.964  0.1079E+03  0.2659E+03
     -0.909  0.1153E+03  0.2722E+03
     -0.854  0.1016E+03  0.2778E+03
     -0.799  0.1259E+03  0.2847E+03
     -0.744  0.1203E+03  0.2913E+03
     -0.689  0.1421E+03  0.2991E+03
     -0.635  0.2070E+03  0.3104E+03
     -0.580  0.1716E+03  0.3198E+03
     -0.525  0.1012E+03  0.3254E+03
     -0.470  0.6852E+02  0.3291E+03
     -0.415  0.1556E+02  0.3300E+03
     -0.361  0.7831E+01  0.3304E+03
     -0.306  0.1167E+02  0.3310E+03
     -0.251  0.6285E+01  0.3314E+03
     -0.196  0.5320E+01  0.3317E+03
     -0.141  0.5701E+01  0.3320E+03
     -0.086  0.1124E+02  0.3326E+03
     -0.032  0.9240E+01  0.3331E+03
      0.023  0.4020E+01  0.3333E+03
      0.078  0.5113E+01  0.3336E+03
      0.133  0.8186E+01  0.3341E+03
      0.188  0.1087E+02  0.3347E+03
      0.243  0.7604E+01  0.3351E+03
      0.297  0.4384E+01  0.3353E+03
      0.352  0.6656E+01  0.3357E+03
      0.407  0.7120E+01  0.3361E+03
      0.462  0.1093E+02  0.3367E+03
      0.517  0.6848E+01  0.3370E+03
      0.572  0.7214E+01  0.3374E+03
      0.626  0.5258E+01  0.3377E+03
      0.681  0.5906E+01  0.3380E+03
      0.736  0.1079E+02  0.3386E+03
      0.791  0.8036E+01  0.3391E+03
      0.846  0.8423E+01  0.3395E+03
      0.900  0.6569E+01  0.3399E+03
      0.955  0.4690E+01  0.3402E+03
      1.010  0.7251E+01  0.3406E+03
      1.065  0.1020E+02  0.3411E+03
      1.120  0.8594E+01  0.3416E+03
      1.175  0.7618E+01  0.3420E+03
      1.229  0.7842E+01  0.3424E+03
      1.284  0.5432E+01  0.3427E+03
      1.339  0.7831E+01  0.3432E+03
      1.394  0.8024E+01  0.3436E+03
      1.449  0.9415E+01  0.3441E+03
      1.504  0.8627E+01  0.3446E+03
      1.558  0.8860E+01  0.3451E+03
      1.613  0.7640E+01  0.3455E+03
      1.668  0.5225E+01  0.3458E+03
      1.723  0.9700E+01  0.3463E+03
      1.778  0.9303E+01  0.3468E+03
      1.833  0.1041E+02  0.3474E+03
      1.887  0.5564E+01  0.3477E+03
      1.942  0.9672E+01  0.3482E+03
      1.997  0.7409E+01  0.3486E+03
      2.052  0.7278E+01  0.3490E+03
      2.107  0.1020E+02  0.3496E+03
      2.162  0.9676E+01  0.3501E+03
      2.216  0.8401E+01  0.3506E+03
      2.271  0.9970E+01  0.3511E+03
      2.326  0.1153E+02  0.3518E+03
      2.381  0.6242E+01  0.3521E+03
      2.436  0.9401E+01  0.3526E+03
      2.490  0.8721E+01  0.3531E+03
      2.545  0.8728E+01  0.3536E+03
      2.600  0.1371E+02  0.3543E+03
      2.655  0.7378E+01  0.3547E+03
      2.710  0.1036E+02  0.3553E+03
      2.765  0.7761E+01  0.3557E+03
      2.819  0.1059E+02  0.3563E+03
      2.874  0.8801E+01  0.3568E+03
      2.929  0.7992E+01  0.3572E+03
      2.984  0.1093E+02  0.3578E+03
      3.039  0.7488E+01  0.3582E+03
      3.094  0.1301E+02  0.3590E+03
      3.148  0.8744E+01  0.3594E+03
      3.203  0.8005E+01  0.3599E+03
      3.258  0.1017E+02  0.3604E+03
      3.313  0.4602E+01  0.3607E+03
      3.368  0.1129E+02  0.3613E+03
      3.423  0.1187E+02  0.3620E+03
      3.477  0.9243E+01  0.3625E+03
      3.532  0.7985E+01  0.3629E+03
      3.587  0.6235E+01  0.3632E+03
      3.642  0.9812E+01  0.3638E+03
      3.697  0.9570E+01  0.3643E+03
      3.751  0.9498E+01  0.3648E+03
      3.806  0.6773E+01  0.3652E+03
      3.861  0.9192E+01  0.3657E+03
      3.916  0.1073E+02  0.3663E+03
      3.971  0.1058E+02  0.3669E+03
      4.026  0.7991E+01  0.3673E+03
      4.080  0.5111E+01  0.3676E+03
      4.135  0.1213E+02  0.3682E+03
      4.190  0.7134E+01  0.3686E+03
      4.245  0.1048E+02  0.3692E+03
      4.300  0.1081E+02  0.3698E+03
      4.355  0.6378E+01  0.3702E+03
      4.409  0.1105E+02  0.3708E+03
      4.464  0.7503E+01  0.3712E+03
      4.519  0.6533E+01  0.3715E+03
      4.574  0.9677E+01  0.3721E+03
      4.629  0.5266E+01  0.3724E+03
      4.684  0.9890E+01  0.3729E+03
      4.738  0.9773E+01  0.3734E+03
      4.793  0.5936E+01  0.3738E+03
      4.848  0.9991E+01  0.3743E+03
      4.903  0.6707E+01  0.3747E+03
      4.958  0.5253E+01  0.3750E+03
      5.012  0.6071E+01  0.3753E+03
      5.067  0.8530E+01  0.3758E+03
      5.122  0.5984E+01  0.3761E+03
      5.177  0.8321E+01  0.3765E+03
      5.232  0.8232E+01  0.3770E+03
      5.287  0.1023E+02  0.3776E+03
      5.341  0.1136E+02  0.3782E+03
      5.396  0.7201E+01  0.3786E+03
      5.451  0.1098E+02  0.3792E+03
      5.506  0.1294E+02  0.3799E+03
      5.561  0.1150E+02  0.3805E+03
      5.616  0.1075E+02  0.3811E+03
      5.670  0.1248E+02  0.3818E+03
      5.725  0.1106E+02  0.3824E+03
      5.780  0.1123E+02  0.3830E+03
      5.835  0.1540E+02  0.3839E+03
      5.890  0.1032E+02  0.3844E+03
      5.945  0.1006E+02  0.3850E+03
      5.999  0.7432E+01  0.3854E+03
      6.054  0.1495E+02  0.3862E+03
      6.109  0.1247E+02  0.3869E+03
      6.164  0.9140E+01  0.3874E+03
      6.219  0.1153E+02  0.3880E+03
      6.274  0.1288E+02  0.3887E+03
      6.328  0.8727E+01  0.3892E+03
      6.383  0.1041E+02  0.3898E+03
      6.438  0.1200E+02  0.3904E+03
      6.493  0.1167E+02  0.3911E+03
      6.548  0.8247E+01  0.3915E+03
      6.602  0.1106E+02  0.3921E+03
      6.657  0.1049E+02  0.3927E+03
      6.712  0.1103E+02  0.3933E+03
      6.767  0.9914E+01  0.3939E+03
      6.822  0.1097E+02  0.3945E+03
      6.877  0.1102E+02  0.3951E+03
      6.931  0.9559E+01  0.3956E+03
      6.986  0.8795E+01  0.3961E+03
      7.041  0.1015E+02  0.3966E+03
      7.096  0.1140E+02  0.3972E+03
      7.151  0.7314E+01  0.3976E+03
      7.206  0.1237E+02  0.3983E+03
      7.260  0.7480E+01  0.3987E+03
      7.315  0.1031E+02  0.3993E+03
      7.370  0.1204E+02  0.4000E+03
      7.425  0.1026E+02  0.4005E+03
      7.480  0.7888E+01  0.4010E+03
      7.535  0.6365E+01  0.4013E+03
      7.589  0.1110E+02  0.4019E+03
      7.644  0.1095E+02  0.4025E+03
      7.699  0.8932E+01  0.4030E+03
      7.754  0.1129E+02  0.4036E+03
      7.809  0.1005E+02  0.4042E+03
      7.863  0.7837E+01  0.4046E+03
      7.918  0.6729E+01  0.4050E+03
      7.973  0.1106E+02  0.4056E+03
      8.028  0.1106E+02  0.4062E+03
      8.083  0.1144E+02  0.4068E+03
      8.138  0.1520E+02  0.4076E+03
      8.192  0.1125E+02  0.4083E+03
      8.247  0.1699E+02  0.4092E+03
      8.302  0.1259E+02  0.4099E+03
      8.357  0.1859E+02  0.4109E+03
      8.412  0.9466E+01  0.4114E+03
      8.467  0.1126E+02  0.4120E+03
      8.521  0.5795E+01  0.4124E+03
      8.576  0.8376E+01  0.4128E+03
      8.631  0.1197E+02  0.4135E+03
      8.686  0.1920E+02  0.4145E+03
      8.741  0.1405E+02  0.4153E+03
      8.796  0.1746E+02  0.4163E+03
      8.850  0.1560E+02  0.4171E+03
      8.905  0.1303E+02  0.4178E+03
      8.960  0.1261E+02  0.4185E+03
      9.015  0.1614E+02  0.4194E+03
      9.070  0.1181E+02  0.4200E+03
      9.124  0.1001E+02  0.4206E+03
      9.179  0.1404E+02  0.4214E+03
      9.234  0.1150E+02  0.4220E+03
      9.289  0.1430E+02  0.4228E+03
      9.344  0.2033E+02  0.4239E+03
      9.399  0.1872E+02  0.4249E+03
      9.453  0.1477E+02  0.4257E+03
      9.508  0.1126E+02  0.4263E+03
      9.563  0.1256E+02  0.4270E+03
      9.618  0.1075E+02  0.4276E+03
      9.673  0.8421E+01  0.4281E+03
      9.728  0.1017E+02  0.4286E+03
      9.782  0.1027E+02  0.4292E+03
      9.837  0.7839E+01  0.4296E+03
      9.892  0.9159E+01  0.4301E+03
      9.947  0.8992E+01  0.4306E+03
     10.002  0.9808E+01  0.4312E+03
     10.057  0.3952E+01  0.4314E+03
     10.111  0.3385E+01  0.4316E+03
     10.166  0.2343E+01  0.4317E+03
     10.221  0.1058E+01  0.4318E+03
     10.276  0.2889E+01  0.4319E+03
     10.331  0.1504E+00  0.4319E+03
     10.386  0.0000E+00  0.4319E+03
     10.440  0.4747E-07  0.4319E+03
     10.495  0.5620E+00  0.4320E+03
     10.550  0.7891E+00  0.4320E+03
     10.605  0.0000E+00  0.4320E+03
     10.660  0.0000E+00  0.4320E+03
     10.714  0.0000E+00  0.4320E+03
     10.769  0.0000E+00  0.4320E+03
     10.824  0.0000E+00  0.4320E+03
     10.879  0.0000E+00  0.4320E+03
     10.934  0.0000E+00  0.4320E+03
     10.989  0.0000E+00  0.4320E+03
     11.043  0.0000E+00  0.4320E+03
     11.098  0.0000E+00  0.4320E+03
     11.153  0.0000E+00  0.4320E+03
     11.208  0.0000E+00  0.4320E+03
     11.263  0.0000E+00  0.4320E+03
