   32   32    1    1
  0.1971248E+02  0.8576243E-09  0.8576243E-09  0.8576243E-09  0.5000000E-15
  1.000000000000000E-004
  CAR 
 unknown system                          
  352  196  216
 
  0.0000000E+00  0.0000000E+00  0.0000000E+00  0.5787037E-03
   1       -4.4376
   2       -3.2840
   3       -3.2840
   4       -3.2840
   5       -3.2656
   6       -3.2656
   7       -3.2656
   8       -3.2656
   9       -3.1940
  10       -3.1940
  11       -3.1940
  12       -2.8811
  13       -2.8795
  14       -2.8795
  15       -2.8795
  16       -2.8795
  17       -2.8780
  18       -2.6839
  19       -2.6826
  20       -2.6826
  21       -2.6826
  22       -2.6826
  23       -2.6813
  24       -2.6418
  25       -2.6405
  26       -2.6405
  27       -2.6404
  28       -2.6404
  29       -2.6391
  30       -2.4339
  31       -2.4339
  32       -2.4336
  33       -2.4330
  34       -2.4327
  35       -2.4327
  36       -2.4327
  37       -2.4327
  38       -2.4324
  39       -2.4318
  40       -2.4315
  41       -2.4315
  42       -2.2667
  43       -2.2650
  44       -2.2650
  45       -2.2643
  46       -2.2643
  47       -2.2643
  48       -2.2643
  49       -2.2643
  50       -2.2642
  51       -2.2635
  52       -2.2635
  53       -2.2619
  54       -2.2170
  55       -2.2170
  56       -2.2155
  57       -2.2155
  58       -2.2155
  59       -2.2155
  60       -2.2155
  61       -2.2154
  62       -2.2154
  63       -2.2154
  64       -2.2139
  65       -2.2139
  66       -2.0459
  67       -2.0458
  68       -2.0458
  69       -2.0458
  70       -2.0458
  71       -2.0458
  72       -2.0458
  73       -2.0458
  74       -2.0336
  75       -2.0336
  76       -2.0336
  77       -1.9041
  78       -1.9024
  79       -1.9021
  80       -1.9021
  81       -1.9020
  82       -1.9020
  83       -1.9020
  84       -1.9020
  85       -1.9018
  86       -1.9018
  87       -1.9016
  88       -1.8999
  89       -1.5153
  90       -1.5148
  91       -1.5141
  92       -1.5141
  93       -1.5138
  94       -1.5138
  95       -1.5137
  96       -1.5137
  97       -1.5134
  98       -1.5134
  99       -1.5127
 100       -1.5122
 101       -1.3499
 102       -1.3499
 103       -1.3484
 104       -1.3484
 105       -1.3482
 106       -1.3482
 107       -1.3482
 108       -1.3482
 109       -1.3481
 110       -1.3481
 111       -1.3466
 112       -1.3466
 113       -1.2356
 114       -1.2355
 115       -1.2192
 116       -1.2192
 117       -1.2177
 118       -1.2175
 119       -1.2174
 120       -1.2173
 121       -1.2173
 122       -1.2173
 123       -1.2173
 124       -1.2170
 125       -1.2156
 126       -1.2156
 127       -1.2101
 128       -1.2093
 129       -1.2093
 130       -1.2091
 131       -1.2091
 132       -1.2082
 133       -1.1048
 134       -1.1033
 135       -1.1033
 136       -1.1033
 137       -1.1033
 138       -1.1017
 139       -0.9476
 140       -0.9468
 141       -0.9468
 142       -0.9468
 143       -0.9468
 144       -0.9461
 145       -0.6457
 146       -0.6457
 147       -0.6457
 148       -0.6192
 149       -0.6192
 150       -0.6192
 151       -0.6192
 152       -0.6192
 153       -0.6192
 154       -0.6192
 155       -0.6192
 156       -0.4597
 157       -0.4595
 158       -0.4595
 159       -0.4595
 160       -0.4595
 161       -0.4595
 162       -0.4588
 163       -0.4587
 164       -0.4587
 165       -0.4587
 166       -0.4587
 167       -0.4585
 168        1.6892
 169        1.6902
 170        1.6902
 171        1.6911
 172        1.6914
 173        1.6914
 174        1.6914
 175        1.6914
 176        1.6917
 177        1.6926
 178        1.6926
 179        1.6936
 180        2.2989
 181        2.2989
 182        2.2989
 183        2.2989
 184        4.0707
 185        4.0707
 186        4.0708
 187        5.2039
 188        5.2039
 189        5.2039
 190        5.2039
 191        7.7695
 192        7.7695
 193        7.7720
 194        7.7720
 195        7.7723
 196        7.7723
 197        7.7723
 198        7.7723
 199        7.7726
 200        7.7726
 201        7.7750
 202        7.7750
 203        8.0276
 204        8.0276
 205        8.0276
 206        8.4244
 207        8.4244
 208        8.4244
 209        8.4245
 210        8.4245
 211        8.4245
 212        9.7526
 213        9.7537
 214        9.7538
 215        9.7538
 216        9.7552
 
  0.8333333E-01  0.0000000E+00  0.0000000E+00  0.1157407E-02
   1       -4.4214
   2       -3.2779
   3       -3.2761
   4       -3.2761
   5       -3.2582
   6       -3.2582
   7       -3.2582
   8       -3.2582
   9       -3.1895
  10       -3.1870
  11       -3.1870
  12       -2.9626
  13       -2.8694
  14       -2.8693
  15       -2.8693
  16       -2.8693
  17       -2.8529
  18       -2.7155
  19       -2.6971
  20       -2.6970
  21       -2.6769
  22       -2.6769
  23       -2.6769
  24       -2.6768
  25       -2.6365
  26       -2.6365
  27       -2.6365
  28       -2.6365
  29       -2.5645
  30       -2.4875
  31       -2.4875
  32       -2.4875
  33       -2.4875
  34       -2.4503
  35       -2.4503
  36       -2.4503
  37       -2.4503
  38       -2.4118
  39       -2.4118
  40       -2.4118
  41       -2.4118
  42       -2.3671
  43       -2.3671
  44       -2.2969
  45       -2.2969
  46       -2.2969
  47       -2.2969
  48       -2.2393
  49       -2.2386
  50       -2.2386
  51       -2.2386
  52       -2.2366
  53       -2.2366
  54       -2.2366
  55       -2.2360
  56       -2.2177
  57       -2.2177
  58       -2.2177
  59       -2.2177
  60       -2.2148
  61       -2.2148
  62       -2.2148
  63       -2.2146
  64       -2.0535
  65       -2.0535
  66       -2.0481
  67       -2.0481
  68       -2.0481
  69       -2.0481
  70       -2.0405
  71       -2.0405
  72       -2.0405
  73       -2.0405
  74       -2.0390
  75       -2.0283
  76       -2.0283
  77       -1.9390
  78       -1.9389
  79       -1.9389
  80       -1.9389
  81       -1.9130
  82       -1.9130
  83       -1.9130
  84       -1.9130
  85       -1.8644
  86       -1.8644
  87       -1.8644
  88       -1.8643
  89       -1.5388
  90       -1.5388
  91       -1.5388
  92       -1.5388
  93       -1.5053
  94       -1.5053
  95       -1.5052
  96       -1.5052
  97       -1.4792
  98       -1.4792
  99       -1.4792
 100       -1.4792
 101       -1.4469
 102       -1.4469
 103       -1.4170
 104       -1.4170
 105       -1.4170
 106       -1.4170
 107       -1.3486
 108       -1.3486
 109       -1.3486
 110       -1.3486
 111       -1.3067
 112       -1.2634
 113       -1.2634
 114       -1.2633
 115       -1.2633
 116       -1.2462
 117       -1.2462
 118       -1.2410
 119       -1.2331
 120       -1.2095
 121       -1.2094
 122       -1.2094
 123       -1.2093
 124       -1.1955
 125       -1.1954
 126       -1.1912
 127       -1.1912
 128       -1.1912
 129       -1.1911
 130       -1.1597
 131       -1.1597
 132       -1.1596
 133       -1.1596
 134       -1.0430
 135       -1.0430
 136       -1.0430
 137       -1.0430
 138       -0.9852
 139       -0.9333
 140       -0.9333
 141       -0.9333
 142       -0.9333
 143       -0.9083
 144       -0.8125
 145       -0.6529
 146       -0.6529
 147       -0.6483
 148       -0.6366
 149       -0.6366
 150       -0.6366
 151       -0.6366
 152       -0.6257
 153       -0.6257
 154       -0.6257
 155       -0.6256
 156       -0.4842
 157       -0.4842
 158       -0.4685
 159       -0.4685
 160       -0.4685
 161       -0.4685
 162       -0.4683
 163       -0.4683
 164       -0.4597
 165       -0.4595
 166       -0.4587
 167       -0.4585
 168        1.3394
 169        1.3394
 170        1.3394
 171        1.3394
 172        1.6966
 173        1.6966
 174        1.6966
 175        1.6966
 176        2.0735
 177        2.0735
 178        2.0735
 179        2.0735
 180        2.2770
 181        2.2770
 182        2.2770
 183        2.2770
 184        3.9346
 185        4.1096
 186        4.1096
 187        5.2674
 188        5.2674
 189        5.2674
 190        5.2674
 191        7.3119
 192        7.3119
 193        7.4214
 194        7.4214
 195        7.4214
 196        7.4214
 197        7.7969
 198        7.7969
 199        7.7969
 200        7.7969
 201        8.0311
 202        8.0311
 203        8.1908
 204        8.2424
 205        8.2424
 206        8.4096
 207        8.4097
 208        8.6478
 209        8.6478
 210        8.6478
 211        8.6478
 212        9.7947
 213        9.7947
 214        9.9173
 215        9.9175
 216        9.9178
 
  0.1666667E+00  0.0000000E+00  0.0000000E+00  0.1157407E-02
   1       -4.3728
   2       -3.2598
   3       -3.2527
   4       -3.2526
   5       -3.2361
   6       -3.2361
   7       -3.2361
   8       -3.2361
   9       -3.1759
  10       -3.1661
  11       -3.1661
  12       -3.1037
  13       -2.8685
  14       -2.8391
  15       -2.8391
  16       -2.8391
  17       -2.8391
  18       -2.7884
  19       -2.7377
  20       -2.7377
  21       -2.6602
  22       -2.6602
  23       -2.6602
  24       -2.6602
  25       -2.6247
  26       -2.6247
  27       -2.6247
  28       -2.6247
  29       -2.5924
  30       -2.5924
  31       -2.5924
  32       -2.5924
  33       -2.5075
  34       -2.5075
  35       -2.4889
  36       -2.4639
  37       -2.4639
  38       -2.4639
  39       -2.4639
  40       -2.3921
  41       -2.3921
  42       -2.3921
  43       -2.3921
  44       -2.3354
  45       -2.3353
  46       -2.3353
  47       -2.3353
  48       -2.2239
  49       -2.2239
  50       -2.2239
  51       -2.2239
  52       -2.2204
  53       -2.2200
  54       -2.2200
  55       -2.2200
  56       -2.2129
  57       -2.2129
  58       -2.2129
  59       -2.2126
  60       -2.2010
  61       -2.2010
  62       -2.2010
  63       -2.2009
  64       -2.0553
  65       -2.0547
  66       -2.0547
  67       -2.0547
  68       -2.0547
  69       -2.0247
  70       -2.0247
  71       -2.0247
  72       -2.0247
  73       -2.0126
  74       -2.0126
  75       -2.0027
  76       -2.0027
  77       -2.0027
  78       -2.0027
  79       -1.9634
  80       -1.9634
  81       -1.9634
  82       -1.9634
  83       -1.8824
  84       -1.8824
  85       -1.7644
  86       -1.7644
  87       -1.7644
  88       -1.7644
  89       -1.5965
  90       -1.5965
  91       -1.5965
  92       -1.5965
  93       -1.5409
  94       -1.5409
  95       -1.5371
  96       -1.5371
  97       -1.5371
  98       -1.5371
  99       -1.4562
 100       -1.4561
 101       -1.4561
 102       -1.4561
 103       -1.4247
 104       -1.4245
 105       -1.4245
 106       -1.4245
 107       -1.4219
 108       -1.3498
 109       -1.3498
 110       -1.3498
 111       -1.3497
 112       -1.2980
 113       -1.2980
 114       -1.2980
 115       -1.2979
 116       -1.2570
 117       -1.2259
 118       -1.2099
 119       -1.2099
 120       -1.2099
 121       -1.2098
 122       -1.1565
 123       -1.1565
 124       -1.1425
 125       -1.1425
 126       -1.1302
 127       -1.1302
 128       -1.1302
 129       -1.1302
 130       -1.0913
 131       -1.0913
 132       -1.0912
 133       -1.0912
 134       -1.0227
 135       -1.0105
 136       -1.0105
 137       -1.0105
 138       -1.0105
 139       -0.8701
 140       -0.8305
 141       -0.8305
 142       -0.8305
 143       -0.8305
 144       -0.6880
 145       -0.6880
 146       -0.6880
 147       -0.6880
 148       -0.6742
 149       -0.6742
 150       -0.6562
 151       -0.6448
 152       -0.6448
 153       -0.6448
 154       -0.6448
 155       -0.5558
 156       -0.5558
 157       -0.4973
 158       -0.4973
 159       -0.4972
 160       -0.4972
 161       -0.4946
 162       -0.4946
 163       -0.4597
 164       -0.4594
 165       -0.4588
 166       -0.4585
 167       -0.4484
 168        1.0156
 169        1.0156
 170        1.0156
 171        1.0156
 172        1.7123
 173        1.7124
 174        1.7124
 175        1.7124
 176        2.2180
 177        2.2181
 178        2.2181
 179        2.2181
 180        2.4870
 181        2.4870
 182        2.4870
 183        2.4871
 184        3.5795
 185        4.2234
 186        4.2234
 187        5.4506
 188        5.4506
 189        5.4506
 190        5.4506
 191        6.8355
 192        6.8355
 193        6.8355
 194        6.8355
 195        6.8640
 196        6.8640
 197        7.8701
 198        7.8701
 199        7.8701
 200        7.8701
 201        8.0415
 202        8.0416
 203        8.3704
 204        8.3704
 205        8.6270
 206        8.7194
 207        8.7194
 208        8.8774
 209        8.8774
 210        8.8774
 211        8.8774
 212        9.3809
 213        9.3809
 214        9.3809
 215        9.3809
 216        9.9053
 
  0.2500000E+00  0.0000000E+00  0.0000000E+00  0.1157407E-02
   1       -4.2924
   2       -3.2868
   3       -3.2303
   4       -3.2144
   5       -3.2144
   6       -3.1994
   7       -3.1994
   8       -3.1994
   9       -3.1994
  10       -3.1535
  11       -3.1313
  12       -3.1313
  13       -2.9098
  14       -2.8580
  15       -2.7986
  16       -2.7984
  17       -2.7901
  18       -2.7901
  19       -2.7900
  20       -2.7899
  21       -2.7054
  22       -2.7054
  23       -2.7054
  24       -2.7054
  25       -2.6360
  26       -2.6360
  27       -2.6339
  28       -2.6339
  29       -2.6338
  30       -2.6338
  31       -2.6054
  32       -2.6053
  33       -2.6053
  34       -2.6053
  35       -2.4749
  36       -2.4749
  37       -2.4749
  38       -2.4749
  39       -2.4151
  40       -2.3856
  41       -2.3856
  42       -2.3856
  43       -2.3856
  44       -2.3778
  45       -2.3778
  46       -2.3778
  47       -2.3778
  48       -2.2318
  49       -2.2318
  50       -2.2318
  51       -2.2318
  52       -2.2108
  53       -2.2100
  54       -2.2100
  55       -2.2100
  56       -2.2080
  57       -2.2079
  58       -2.2079
  59       -2.2072
  60       -2.1751
  61       -2.1751
  62       -2.1751
  63       -2.1750
  64       -2.0819
  65       -2.0735
  66       -2.0735
  67       -2.0735
  68       -2.0735
  69       -2.0654
  70       -2.0654
  71       -2.0654
  72       -2.0654
  73       -2.0182
  74       -2.0182
  75       -2.0182
  76       -2.0181
  77       -1.9985
  78       -1.9985
  79       -1.9985
  80       -1.9985
  81       -1.9865
  82       -1.9865
  83       -1.7040
  84       -1.7040
  85       -1.6655
  86       -1.6654
  87       -1.6654
  88       -1.6654
  89       -1.6584
  90       -1.6583
  91       -1.6583
  92       -1.6583
  93       -1.6290
  94       -1.6290
  95       -1.6280
  96       -1.6280
  97       -1.6279
  98       -1.6279
  99       -1.4669
 100       -1.3874
 101       -1.3874
 102       -1.3874
 103       -1.3874
 104       -1.3682
 105       -1.3682
 106       -1.3682
 107       -1.3682
 108       -1.3513
 109       -1.3513
 110       -1.3513
 111       -1.3513
 112       -1.3223
 113       -1.3223
 114       -1.3223
 115       -1.3223
 116       -1.2829
 117       -1.2140
 118       -1.2122
 119       -1.2122
 120       -1.2122
 121       -1.2121
 122       -1.0985
 123       -1.0985
 124       -1.0591
 125       -1.0561
 126       -1.0561
 127       -1.0561
 128       -1.0558
 129       -1.0388
 130       -1.0388
 131       -1.0304
 132       -1.0304
 133       -1.0304
 134       -1.0304
 135       -1.0139
 136       -1.0139
 137       -1.0139
 138       -1.0139
 139       -0.8331
 140       -0.7707
 141       -0.7707
 142       -0.7707
 143       -0.7707
 144       -0.7092
 145       -0.7092
 146       -0.6763
 147       -0.6763
 148       -0.6763
 149       -0.6763
 150       -0.6691
 151       -0.6673
 152       -0.6673
 153       -0.6626
 154       -0.6625
 155       -0.6625
 156       -0.6625
 157       -0.5434
 158       -0.5434
 159       -0.5434
 160       -0.5434
 161       -0.5375
 162       -0.5375
 163       -0.4597
 164       -0.4594
 165       -0.4588
 166       -0.4585
 167       -0.0268
 168        0.7176
 169        0.7176
 170        0.7176
 171        0.7176
 172        1.7390
 173        1.7390
 174        1.7391
 175        1.7391
 176        2.1371
 177        2.1371
 178        2.1371
 179        2.1371
 180        2.9325
 181        2.9325
 182        2.9325
 183        2.9325
 184        3.1008
 185        4.4052
 186        4.4052
 187        5.7356
 188        5.7356
 189        5.7356
 190        5.7357
 191        6.2206
 192        6.2206
 193        6.2206
 194        6.2206
 195        6.4317
 196        6.4317
 197        7.9904
 198        7.9904
 199        7.9904
 200        7.9904
 201        8.0592
 202        8.0592
 203        8.3174
 204        8.3174
 205        8.7415
 206        8.7415
 207        8.7415
 208        8.7415
 209        9.0222
 210        9.0222
 211        9.0222
 212        9.0222
 213        9.1999
 214        9.1999
 215        9.2412
 216        9.5379
 
  0.3333333E+00  0.0000000E+00  0.0000000E+00  0.1157407E-02
   1       -4.1815
   2       -3.4882
   3       -3.1904
   4       -3.1627
   5       -3.1627
   6       -3.1484
   7       -3.1484
   8       -3.1484
   9       -3.1484
  10       -3.1226
  11       -3.0827
  12       -3.0827
  13       -2.9649
  14       -2.9232
  15       -2.8714
  16       -2.8714
  17       -2.8147
  18       -2.8147
  19       -2.8147
  20       -2.8147
  21       -2.7517
  22       -2.7517
  23       -2.7244
  24       -2.7244
  25       -2.7244
  26       -2.7244
  27       -2.6004
  28       -2.6003
  29       -2.6003
  30       -2.6003
  31       -2.5790
  32       -2.5790
  33       -2.5790
  34       -2.5790
  35       -2.4867
  36       -2.4867
  37       -2.4867
  38       -2.4867
  39       -2.4223
  40       -2.4223
  41       -2.4223
  42       -2.4223
  43       -2.4116
  44       -2.4116
  45       -2.4116
  46       -2.4116
  47       -2.3444
  48       -2.2380
  49       -2.2380
  50       -2.2380
  51       -2.2380
  52       -2.2070
  53       -2.2065
  54       -2.2065
  55       -2.2065
  56       -2.2016
  57       -2.2016
  58       -2.2016
  59       -2.2011
  60       -2.1537
  61       -2.1536
  62       -2.1536
  63       -2.1536
  64       -2.1391
  65       -2.1391
  66       -2.1391
  67       -2.1390
  68       -2.1184
  69       -2.0794
  70       -2.0794
  71       -2.0794
  72       -2.0794
  73       -2.0407
  74       -2.0407
  75       -2.0407
  76       -2.0407
  77       -1.9625
  78       -1.9625
  79       -1.9625
  80       -1.9625
  81       -1.9502
  82       -1.9502
  83       -1.7711
  84       -1.7711
  85       -1.7711
  86       -1.7711
  87       -1.7355
  88       -1.7355
  89       -1.7355
  90       -1.7355
  91       -1.7100
  92       -1.7100
  93       -1.5204
  94       -1.5204
  95       -1.4747
  96       -1.4746
  97       -1.4746
  98       -1.4746
  99       -1.4656
 100       -1.3528
 101       -1.3528
 102       -1.3528
 103       -1.3527
 104       -1.3382
 105       -1.3382
 106       -1.3382
 107       -1.3382
 108       -1.3189
 109       -1.3187
 110       -1.3187
 111       -1.3187
 112       -1.3172
 113       -1.3134
 114       -1.3134
 115       -1.3133
 116       -1.3130
 117       -1.2182
 118       -1.2182
 119       -1.2182
 120       -1.2182
 121       -1.1975
 122       -1.0927
 123       -1.0675
 124       -1.0675
 125       -1.0675
 126       -1.0675
 127       -1.0291
 128       -1.0290
 129       -0.9792
 130       -0.9792
 131       -0.9792
 132       -0.9792
 133       -0.9371
 134       -0.9371
 135       -0.9304
 136       -0.9304
 137       -0.9304
 138       -0.9304
 139       -0.8806
 140       -0.8806
 141       -0.8806
 142       -0.8806
 143       -0.8095
 144       -0.8095
 145       -0.7979
 146       -0.7567
 147       -0.7567
 148       -0.7192
 149       -0.7192
 150       -0.7192
 151       -0.7192
 152       -0.6868
 153       -0.6045
 154       -0.6045
 155       -0.6045
 156       -0.6045
 157       -0.5954
 158       -0.5954
 159       -0.4729
 160       -0.4729
 161       -0.4729
 162       -0.4729
 163       -0.4596
 164       -0.4593
 165       -0.4589
 166       -0.4586
 167        0.4396
 168        0.4428
 169        0.4428
 170        0.4428
 171        0.4430
 172        1.7772
 173        1.7772
 174        1.7772
 175        1.7772
 176        2.0492
 177        2.0492
 178        2.0492
 179        2.0492
 180        2.5669
 181        3.4098
 182        3.4098
 183        3.4098
 184        3.4098
 185        4.6455
 186        4.6455
 187        5.6121
 188        5.6121
 189        5.6121
 190        5.6121
 191        6.0183
 192        6.0183
 193        6.1031
 194        6.1031
 195        6.1031
 196        6.1031
 197        8.0844
 198        8.0844
 199        8.1330
 200        8.1330
 201        8.1330
 202        8.1330
 203        8.1554
 204        8.1554
 205        8.1555
 206        8.1555
 207        8.2607
 208        8.2607
 209        9.1430
 210        9.1430
 211        9.1430
 212        9.1430
 213        9.1983
 214        9.1983
 215        9.1983
 216        9.1983
 
  0.4166667E+00  0.0000000E+00  0.0000000E+00  0.1157407E-02
   1       -4.0416
   2       -3.6887
   3       -3.1414
   4       -3.0995
   5       -3.0994
   6       -3.0836
   7       -3.0836
   8       -3.0836
   9       -3.0836
  10       -3.0835
  11       -3.0253
  12       -3.0202
  13       -3.0202
  14       -2.9831
  15       -2.9497
  16       -2.9497
  17       -2.9156
  18       -2.9156
  19       -2.9156
  20       -2.9156
  21       -2.8545
  22       -2.8545
  23       -2.6455
  24       -2.6455
  25       -2.6455
  26       -2.6455
  27       -2.5638
  28       -2.5637
  29       -2.5637
  30       -2.5637
  31       -2.5463
  32       -2.5463
  33       -2.5463
  34       -2.5463
  35       -2.5037
  36       -2.5037
  37       -2.5037
  38       -2.5037
  39       -2.4755
  40       -2.4755
  41       -2.4754
  42       -2.4754
  43       -2.4664
  44       -2.4664
  45       -2.4664
  46       -2.4664
  47       -2.2781
  48       -2.2374
  49       -2.2374
  50       -2.2374
  51       -2.2374
  52       -2.2036
  53       -2.2030
  54       -2.2030
  55       -2.2030
  56       -2.1995
  57       -2.1994
  58       -2.1994
  59       -2.1989
  60       -2.1909
  61       -2.1909
  62       -2.1909
  63       -2.1909
  64       -2.1639
  65       -2.1336
  66       -2.1336
  67       -2.1336
  68       -2.1336
  69       -2.0960
  70       -2.0960
  71       -2.0960
  72       -2.0960
  73       -2.0159
  74       -2.0159
  75       -2.0159
  76       -2.0159
  77       -1.9172
  78       -1.9172
  79       -1.9172
  80       -1.9171
  81       -1.9040
  82       -1.9040
  83       -1.8713
  84       -1.8713
  85       -1.8713
  86       -1.8713
  87       -1.8023
  88       -1.8023
  89       -1.8023
  90       -1.8023
  91       -1.7834
  92       -1.7834
  93       -1.4386
  94       -1.3572
  95       -1.3534
  96       -1.3534
  97       -1.3533
  98       -1.3533
  99       -1.3475
 100       -1.3475
 101       -1.3475
 102       -1.3475
 103       -1.3346
 104       -1.3346
 105       -1.3158
 106       -1.3158
 107       -1.3158
 108       -1.3157
 109       -1.2791
 110       -1.2790
 111       -1.2790
 112       -1.2790
 113       -1.2412
 114       -1.2412
 115       -1.2412
 116       -1.2412
 117       -1.2300
 118       -1.2300
 119       -1.2300
 120       -1.2300
 121       -1.1768
 122       -1.1240
 123       -1.1162
 124       -1.1162
 125       -1.1162
 126       -1.1162
 127       -1.0122
 128       -1.0121
 129       -1.0121
 130       -1.0121
 131       -0.9733
 132       -0.9733
 133       -0.9551
 134       -0.9551
 135       -0.9044
 136       -0.9044
 137       -0.9044
 138       -0.9044
 139       -0.8440
 140       -0.8440
 141       -0.8440
 142       -0.8440
 143       -0.8397
 144       -0.8397
 145       -0.8152
 146       -0.8152
 147       -0.7725
 148       -0.7725
 149       -0.7725
 150       -0.7725
 151       -0.7650
 152       -0.7090
 153       -0.6773
 154       -0.6773
 155       -0.6773
 156       -0.6773
 157       -0.6665
 158       -0.6665
 159       -0.4596
 160       -0.4592
 161       -0.4590
 162       -0.4586
 163       -0.2679
 164       -0.2678
 165       -0.2678
 166       -0.2678
 167        0.1885
 168        0.1885
 169        0.1885
 170        0.1885
 171        0.9415
 172        1.8275
 173        1.8276
 174        1.8276
 175        1.8276
 176        1.9650
 177        1.9650
 178        1.9650
 179        1.9650
 180        2.0164
 181        3.9183
 182        3.9183
 183        3.9183
 184        3.9183
 185        4.9348
 186        4.9348
 187        5.0222
 188        5.0222
 189        5.0222
 190        5.0222
 191        5.6277
 192        5.6277
 193        6.5369
 194        6.5369
 195        6.5369
 196        6.5369
 197        7.5594
 198        7.5594
 199        7.5594
 200        7.5594
 201        8.1174
 202        8.1174
 203        8.2065
 204        8.2065
 205        8.3621
 206        8.3621
 207        8.3621
 208        8.3621
 209        8.8870
 210        8.8870
 211        8.8870
 212        8.8870
 213        9.2689
 214        9.2689
 215        9.2689
 216        9.2689
 
  0.5000000E+00  0.0000000E+00  0.0000000E+00  0.5787037E-03
   1       -3.8769
   2       -3.8747
   3       -3.0863
   4       -3.0847
   5       -3.0376
   6       -3.0360
   7       -3.0284
   8       -3.0278
   9       -3.0267
  10       -3.0261
  11       -3.0067
  12       -3.0067
  13       -3.0065
  14       -3.0064
  15       -3.0050
  16       -3.0049
  17       -3.0048
  18       -3.0048
  19       -2.9450
  20       -2.9450
  21       -2.9432
  22       -2.9432
  23       -2.5609
  24       -2.5604
  25       -2.5594
  26       -2.5594
  27       -2.5590
  28       -2.5590
  29       -2.5581
  30       -2.5575
  31       -2.5317
  32       -2.5298
  33       -2.5298
  34       -2.5298
  35       -2.5297
  36       -2.5297
  37       -2.5297
  38       -2.5277
  39       -2.5094
  40       -2.5092
  41       -2.5092
  42       -2.5085
  43       -2.5081
  44       -2.5074
  45       -2.5074
  46       -2.5072
  47       -2.2245
  48       -2.2240
  49       -2.2240
  50       -2.2235
  51       -2.2235
  52       -2.2231
  53       -2.2231
  54       -2.2226
  55       -2.2179
  56       -2.2173
  57       -2.2019
  58       -2.2007
  59       -2.2007
  60       -2.2005
  61       -2.2002
  62       -2.2000
  63       -2.2000
  64       -2.1987
  65       -2.1147
  66       -2.1145
  67       -2.1145
  68       -2.1145
  69       -2.1141
  70       -2.1141
  71       -2.1141
  72       -2.1139
  73       -1.9561
  74       -1.9559
  75       -1.9559
  76       -1.9552
  77       -1.9551
  78       -1.9544
  79       -1.9544
  80       -1.9543
  81       -1.8648
  82       -1.8644
  83       -1.8644
  84       -1.8636
  85       -1.8632
  86       -1.8624
  87       -1.8624
  88       -1.8620
  89       -1.8490
  90       -1.8490
  91       -1.8474
  92       -1.8474
  93       -1.3999
  94       -1.3991
  95       -1.3523
  96       -1.3523
  97       -1.3522
  98       -1.3521
  99       -1.3519
 100       -1.3518
 101       -1.3517
 102       -1.3517
 103       -1.2504
 104       -1.2503
 105       -1.2498
 106       -1.2498
 107       -1.2497
 108       -1.2497
 109       -1.2492
 110       -1.2491
 111       -1.1756
 112       -1.1750
 113       -1.1750
 114       -1.1748
 115       -1.1745
 116       -1.1744
 117       -1.1744
 118       -1.1738
 119       -1.1601
 120       -1.1597
 121       -1.1597
 122       -1.1594
 123       -1.1593
 124       -1.1590
 125       -1.1590
 126       -1.1586
 127       -1.1528
 128       -1.1516
 129       -1.1510
 130       -1.1510
 131       -1.1500
 132       -1.1500
 133       -0.8826
 134       -0.8825
 135       -0.8824
 136       -0.8822
 137       -0.8356
 138       -0.8353
 139       -0.8353
 140       -0.8351
 141       -0.8345
 142       -0.8344
 143       -0.8344
 144       -0.8340
 145       -0.7594
 146       -0.7594
 147       -0.7586
 148       -0.7586
 149       -0.7582
 150       -0.7582
 151       -0.7575
 152       -0.7575
 153       -0.7489
 154       -0.7489
 155       -0.7484
 156       -0.7484
 157       -0.7354
 158       -0.7352
 159       -0.4596
 160       -0.4591
 161       -0.4591
 162       -0.4586
 163       -0.0486
 164       -0.0483
 165       -0.0478
 166       -0.0478
 167       -0.0477
 168       -0.0477
 169       -0.0472
 170       -0.0469
 171        1.4700
 172        1.4704
 173        1.8885
 174        1.8897
 175        1.8899
 176        1.8899
 177        1.8907
 178        1.8907
 179        1.8909
 180        1.8922
 181        4.4549
 182        4.4549
 183        4.4553
 184        4.4561
 185        4.4567
 186        4.4575
 187        4.4579
 188        4.4579
 189        5.2635
 190        5.2635
 191        5.2657
 192        5.2657
 193        7.0235
 194        7.0235
 195        7.0241
 196        7.0248
 197        7.0256
 198        7.0263
 199        7.0269
 200        7.0269
 201        8.1581
 202        8.1582
 203        8.1583
 204        8.1585
 205        8.6056
 206        8.6056
 207        8.6068
 208        8.6069
 209        8.6073
 210        8.6075
 211        8.6086
 212        8.6086
 213        9.4109
 214        9.4112
 215        9.4113
 216        9.4116
 
  0.0000000E+00  0.8333333E-01  0.0000000E+00  0.2314815E-02
   1       -4.4214
   2       -3.2779
   3       -3.2761
   4       -3.2761
   5       -3.2582
   6       -3.2582
   7       -3.2582
   8       -3.2582
   9       -3.1895
  10       -3.1870
  11       -3.1870
  12       -2.9626
  13       -2.8704
  14       -2.8693
  15       -2.8693
  16       -2.8682
  17       -2.8530
  18       -2.7155
  19       -2.6970
  20       -2.6970
  21       -2.6778
  22       -2.6769
  23       -2.6769
  24       -2.6759
  25       -2.6376
  26       -2.6365
  27       -2.6365
  28       -2.6354
  29       -2.5645
  30       -2.4876