       N       E                     dE             d eps       ncg     rms          rms(c)
DAV:   1     0.413113295744E+04    0.41311E+04   -0.21054E+05 84712   0.221E+03
DAV:   2     0.111735758231E+03   -0.40194E+04   -0.38306E+04 84672   0.528E+02
DAV:   3    -0.916037281598E+02   -0.20334E+03   -0.19460E+03 89408   0.142E+02
DAV:   4    -0.955188362169E+02   -0.39151E+01   -0.38896E+01 90968   0.191E+01
DAV:   5    -0.955417158530E+02   -0.22880E-01   -0.22855E-01 89912   0.121E+00    0.145E+01
DAV:   6    -0.895271263817E+02    0.60146E+01   -0.23894E+01 88968   0.184E+01    0.266E+00
DAV:   7    -0.894225769395E+02    0.10455E+00   -0.40434E-01 88184   0.159E+00    0.152E+00
DAV:   8    -0.893659928898E+02    0.56584E-01   -0.37591E-02 89088   0.765E-01    0.114E-01
DAV:   9    -0.893669432691E+02   -0.95038E-03   -0.20992E-03 90120   0.137E-01    0.708E-02
DAV:  10    -0.893668875141E+02    0.55755E-04   -0.18911E-04 88624   0.426E-02    0.970E-03
DAV:  11    -0.893668844262E+02    0.30879E-05   -0.64357E-06 90240   0.738E-03    0.255E-03
DAV:  12    -0.893668809247E+02    0.35016E-05   -0.29992E-07 88888   0.214E-03    0.736E-04
DAV:  13    -0.893668788695E+02    0.20551E-05   -0.45881E-08 77752   0.766E-04    0.139E-04
DAV:  14    -0.893668787823E+02    0.87195E-07   -0.10511E-09 46960   0.124E-04    0.761E-05
DAV:  15    -0.893668788128E+02   -0.30472E-07   -0.86485E-11 46648   0.533E-05    0.332E-05
DAV:  16    -0.893668788152E+02   -0.24302E-08    0.75533E-11 46424   0.334E-05
   1 F= -.89366879E+02 E0= -.89366688E+02  d E =-.381815E-03
