 vasp.4.6.28 25Jul05 complex 
 executed on             LinuxIFC date 2017.01.11  10:50:59
 running on    8 nodes
 distr:  one band on    1 nodes,    8 groups


--------------------------------------------------------------------------------------------------------


 INCAR:
 POTCAR:   PAW_PBE Ag 06Sep2000                   
 POTCAR:   PAW_PBE Ag 06Sep2000                   
   VRHFIN =Ag : s1 d10                                                          
   LEXCH  = PE                                                                  
   EATOM  =  1037.4134 eV,   76.2477 Ry                                         
                                                                                
   TITEL  = PAW_PBE Ag 06Sep2000                                                
   LULTRA =        F    use ultrasoft PP ?                                      
   IUNSCR =        1    unscreen: 0-lin 1-nonlin 2-no                           
   RPACOR =    2.000    partial core radius                                     
   POMASS =  107.868; ZVAL   =   11.000    mass and valenz                      
   RCORE  =    2.400    outmost cutoff radius                                   
   RWIGS  =    2.840; RWIGS  =    1.503    wigner-seitz radius (au A)           
   ENMAX  =  249.846; ENMIN  =  187.385 eV                                      
   RCLOC  =    1.962    cutoff for local pot                                    
   LCOR   =        T    correct aug charges                                     
   LPAW   =        T    paw PP                                                  
   EAUG   =  412.496                                                            
   DEXC   =    -.047                                                            
   RMAX   =    2.917    core radius for proj-oper                               
   RAUG   =    1.300    factor for augmentation sphere                          
   RDEP   =    2.416    radius for radial grids                                 
   QCUT   =   -4.285; QGAM   =    8.570    optimization parameters              
                                                                                
   Description                                                                  
     l     E      TYP  RCUT    TYP  RCUT                                        
     2   .000     23  2.400                                                     
     2   .000     23  2.400                                                     
     0   .000     23  2.400                                                     
     0   .000     23  2.400                                                     
     1  -.200     23  2.400                                                     
     1  1.500     23  2.400                                                     
     3   .000      7   .000                                                     
  local pseudopotential read in
  partial core-charges read in
  atomic valenz-charges read in
  non local Contribution for L=           2  read in
    real space projection operators read in
  non local Contribution for L=           2  read in
    real space projection operators read in
  non local Contribution for L=           0  read in
    real space projection operators read in
  non local Contribution for L=           0  read in
    real space projection operators read in
  non local Contribution for L=           1  read in
    real space projection operators read in
  non local Contribution for L=           1  read in
    real space projection operators read in
    PAW grid and wavefunctions read in
 
   number of l-projection  operators is LMAX  =           6
   number of lm-projection operators is LMMAX =          18
 

 ----------------------------------------------------------------------------- 
|                                                                             |
|  ADVICE TO THIS USER RUNNING 'VASP/VAMP'   (HEAR YOUR MASTER'S VOICE ...):  |
|                                                                             |
|      You have a (more or less) 'large supercell' and for larger cells       |
|      it might be more efficient to use real space projection operators      |
|      So try LREAL= Auto  in the INCAR   file.                               |
|      Mind: If you want to do an extremely accurate calculations keep the    |
|      reciprocal projection scheme          (i.e. LREAL=.FALSE.)             |
|                                                                             |
 ----------------------------------------------------------------------------- 

 PAW_PBE Ag 06Sep2000                   :
 energy of atom  1       EATOM=-1037.4134
 kinetic energy error for atom=    0.0010 (will be added to EATOM!!)
 
 EXHCAR: internal setup
 exchange correlation table for  LEXCH =        8
   RHO(1)=    0.500       N(1)  =     2000
   RHO(2)=  100.500       N(2)  =     4000
 
 POSCAR: Ag                                      
  positions in direct lattice
  No initial velocities read in
 


--------------------------------------------------------------------------------------------------------


 ion  position               nearest neighbor table
   1  0.001  0.000  0.000-  17 3.03  21 3.03   9 3.03  11 3.03  25 3.03  27 3.03  29 3.03  31 3.03
                            10 3.04  18 3.04  12 3.04  22 3.04
   2  0.500  0.000  0.000-   9 3.03  10 3.03  11 3.03  12 3.03  17 3.03  18 3.03  21 3.03  22 3.03
                            26 3.03  28 3.03  30 3.03  32 3.03
   3  0.000  0.500  0.000-   9 3.03  10 3.03  11 3.03  12 3.03  19 3.03  20 3.03  23 3.03  24 3.03
                            25 3.03  27 3.03  29 3.03  31 3.03
   4  0.500  0.500  0.000-   9 3.03  10 3.03  11 3.03  12 3.03  19 3.03  20 3.03  23 3.03  24 3.03
                            26 3.03  28 3.03  30 3.03  32 3.03
   5  0.000  0.000  0.500-  13 3.03  14 3.03  15 3.03  16 3.03  17 3.03  18 3.03  21 3.03  22 3.03
                            25 3.03  27 3.03  29 3.03  31 3.03
   6  0.500  0.000  0.500-  13 3.03  14 3.03  15 3.03  16 3.03  17 3.03  18 3.03  21 3.03  22 3.03
                            26 3.03  28 3.03  30 3.03  32 3.03
   7  0.000  0.500  0.500-  13 3.03  14 3.03  15 3.03  16 3.03  19 3.03  20 3.03  23 3.03  24 3.03
                            25 3.03  27 3.03  29 3.03  31 3.03
   8  0.500  0.500  0.500-  13 3.03  14 3.03  15 3.03  16 3.03  19 3.03  20 3.03  23 3.03  24 3.03
                            26 3.03  28 3.03  30 3.03  32 3.03
   9  0.250  0.250  0.000-   1 3.03   2 3.03   3 3.03   4 3.03  17 3.03  19 3.03  21 3.03  23 3.03
                            25 3.03  26 3.03  29 3.03  30 3.03
  10  0.750  0.250  0.000-   2 3.03   3 3.03   4 3.03  18 3.03  20 3.03  22 3.03  24 3.03  25 3.03
                            26 3.03  29 3.03  30 3.03   1 3.04
  11  0.250  0.750  0.000-   1 3.03   2 3.03   3 3.03   4 3.03  17 3.03  19 3.03  21 3.03  23 3.03
                            27 3.03  28 3.03  31 3.03  32 3.03
  12  0.750  0.750  0.000-   2 3.03   3 3.03   4 3.03  18 3.03  20 3.03  22 3.03  24 3.03  27 3.03
                            28 3.03  31 3.03  32 3.03   1 3.04
  13  0.250  0.250  0.500-   5 3.03   6 3.03   7 3.03   8 3.03  17 3.03  19 3.03  21 3.03  23 3.03
                            25 3.03  26 3.03  29 3.03  30 3.03
  14  0.750  0.250  0.500-   5 3.03   6 3.03   7 3.03   8 3.03  18 3.03  20 3.03  22 3.03  24 3.03
                            25 3.03  26 3.03  29 3.03  30 3.03
  15  0.250  0.750  0.500-   5 3.03   6 3.03   7 3.03   8 3.03  17 3.03  19 3.03  21 3.03  23 3.03
                            27 3.03  28 3.03  31 3.03  32 3.03
  16  0.750  0.750  0.500-   5 3.03   6 3.03   7 3.03   8 3.03  18 3.03  20 3.03  22 3.03  24 3.03
                            27 3.03  28 3.03  31 3.03  32 3.03
  17  0.250  0.000  0.250-   1 3.03   2 3.03   5 3.03   6 3.03   9 3.03  11 3.03  13 3.03  15 3.03
                            25 3.03  26 3.03  27 3.03  28 3.03
  18  0.750  0.000  0.250-   2 3.03   5 3.03   6 3.03  10 3.03  12 3.03  14 3.03  16 3.03  25 3.03
                            26 3.03  27 3.03  28 3.03   1 3.04
  19  0.250  0.500  0.250-   3 3.03   4 3.03   7 3.03   8 3.03   9 3.03  11 3.03  13 3.03  15 3.03
                            25 3.03  26 3.03  27 3.03  28 3.03
  20  0.750  0.500  0.250-   3 3.03   4 3.03   7 3.03   8 3.03  10 3.03  12 3.03  14 3.03  16 3.03
                            25 3.03  26 3.03  27 3.03  28 3.03
  21  0.250  0.000  0.750-   1 3.03   2 3.03   5 3.03   6 3.03   9 3.03  11 3.03  13 3.03  15 3.03
                            29 3.03  30 3.03  31 3.03  32 3.03
  22  0.750  0.000  0.750-   2 3.03   5 3.03   6 3.03  10 3.03  12 3.03  14 3.03  16 3.03  29 3.03
                            30 3.03  31 3.03  32 3.03   1 3.04
  23  0.250  0.500  0.750-   3 3.03   4 3.03   7 3.03   8 3.03   9 3.03  11 3.03  13 3.03  15 3.03
                            29 3.03  30 3.03  31 3.03  32 3.03
  24  0.750  0.500  0.750-   3 3.03   4 3.03   7 3.03   8 3.03  10 3.03  12 3.03  14 3.03  16 3.03
                            29 3.03  30 3.03  31 3.03  32 3.03
  25  0.000  0.250  0.250-   3 3.03   5 3.03   7 3.03   9 3.03  10 3.03  13 3.03  14 3.03  17 3.03
                            18 3.03  19 3.03  20 3.03   1 3.03
  26  0.500  0.250  0.250-   2 3.03   4 3.03   6 3.03   8 3.03   9 3.03  10 3.03  13 3.03  14 3.03
                            17 3.03  18 3.03  19 3.03  20 3.03
  27  0.000  0.750  0.250-   3 3.03   5 3.03   7 3.03  11 3.03  12 3.03  15 3.03  16 3.03  17 3.03
                            18 3.03  19 3.03  20 3.03   1 3.03
  28  0.500  0.750  0.250-   2 3.03   4 3.03   6 3.03   8 3.03  11 3.03  12 3.03  15 3.03  16 3.03
                            17 3.03  18 3.03  19 3.03  20 3.03
  29  0.000  0.250  0.750-   3 3.03   5 3.03   7 3.03   9 3.03  10 3.03  13 3.03  14 3.03  21 3.03
                            22 3.03  23 3.03  24 3.03   1 3.03
  30  0.500  0.250  0.750-   2 3.03   4 3.03   6 3.03   8 3.03   9 3.03  10 3.03  13 3.03  14 3.03
                            21 3.03  22 3.03  23 3.03  24 3.03
  31  0.000  0.750  0.750-   3 3.03   5 3.03   7 3.03  11 3.03  12 3.03  15 3.03  16 3.03  21 3.03
                            22 3.03  23 3.03  24 3.03   1 3.03
  32  0.500  0.750  0.750-   2 3.03   4 3.03   6 3.03   8 3.03  11 3.03  12 3.03  15 3.03  16 3.03
                            21 3.03  22 3.03  23 3.03  24 3.03
 
  LATTYP: Found a simple cubic cell.
 ALAT       =     8.5762430501
  
  Lattice vectors:
  
 A1 = (   8.5762430501,   0.0000000000,   0.0000000000)
 A2 = (   0.0000000000,   8.5762430501,   0.0000000000)
 A3 = (   0.0000000000,   0.0000000000,   8.5762430501)
 Subroutine PRICEL returns:
 Original cell was already a primitive cell.
 

Analysis of symmetry for initial positions (statically):

 Routine SETGRP: Setting up the symmetry group for a 
 simple cubic supercell.


 Subroutine GETGRP returns: Found  8 space group operations
 (whereof  8 operations were pure point group operations)
 out of a pool of 48 trial point group operations.


The static configuration has the point symmetry C_4v.

Analysis of symmetry for dynamics (positions and initial velocities):

 Subroutine DYNSYM returns: Found  8 space group operations
 (whereof  8 operations were pure point group operations)
 out of a pool of  8 trial space group operations
 (whereof  8 operations were pure point group operations)
 and found also     1 'primitive' translations


The dynamic configuration has the point symmetry C_4v.
 
 
 KPOINTS: Automatic mesh                          

Automatic generation of k-mesh.
 
 Subroutine IBZKPT returns following result:
 ===========================================
 
 Found    196 irreducible k-points:
 
 Following reciprocal coordinates:
            Coordinates               Weight
  0.000000  0.000000  0.000000      1.000000
  0.083333  0.000000  0.000000      2.000000
  0.166667  0.000000  0.000000      2.000000
  0.250000  0.000000  0.000000      2.000000
  0.333333  0.000000  0.000000      2.000000
  0.416667  0.000000  0.000000      2.000000
  0.500000  0.000000  0.000000      1.000000
  0.000000  0.083333  0.000000      4.000000
  0.083333  0.083333  0.000000      8.000000
  0.166667  0.083333  0.000000      8.000000
  0.250000  0.083333  0.000000      8.000000
  0.333333  0.083333  0.000000      8.000000
  0.416667  0.083333  0.000000      8.000000
  0.500000  0.083333  0.000000      4.000000
  0.000000  0.166667  0.000000      4.000000
  0.083333  0.166667  0.000000      8.000000
  0.166667  0.166667  0.000000      8.000000
  0.250000  0.166667  0.000000      8.000000
  0.333333  0.166667  0.000000      8.000000
  0.416667  0.166667  0.000000      8.000000
  0.500000  0.166667  0.000000      4.000000
  0.000000  0.250000  0.000000      4.000000
  0.083333  0.250000  0.000000      8.000000
  0.166667  0.250000  0.000000      8.000000
  0.250000  0.250000  0.000000      8.000000
  0.333333  0.250000  0.000000      8.000000
  0.416667  0.250000  0.000000      8.000000
  0.500000  0.250000  0.000000      4.000000
  0.000000  0.333333  0.000000      4.000000
  0.083333  0.333333  0.000000      8.000000
  0.166667  0.333333  0.000000      8.000000
  0.250000  0.333333  0.000000      8.000000
  0.333333  0.333333  0.000000      8.000000
  0.416667  0.333333  0.000000      8.000000
  0.500000  0.333333  0.000000      4.000000
  0.000000  0.416667  0.000000      4.000000
  0.083333  0.416667  0.000000      8.000000
  0.166667  0.416667  0.000000      8.000000
  0.250000  0.416667  0.000000      8.000000
  0.333333  0.416667  0.000000      8.000000
  0.416667  0.416667  0.000000      8.000000
  0.500000  0.416667  0.000000      4.000000
  0.000000  0.500000  0.000000      2.000000
  0.083333  0.500000  0.000000      4.000000
  0.166667  0.500000  0.000000      4.000000
  0.250000  0.500000  0.000000      4.000000
  0.333333  0.500000  0.000000      4.000000
  0.416667  0.500000  0.000000      4.000000
  0.500000  0.500000  0.000000      2.000000
  0.000000  0.083333  0.083333      4.000000
  0.083333  0.083333  0.083333      8.000000
  0.166667  0.083333  0.083333      8.000000
  0.250000  0.083333  0.083333      8.000000
  0.333333  0.083333  0.083333      8.000000
  0.416667  0.083333  0.083333      8.000000
  0.500000  0.083333  0.083333      4.000000
  0.000000  0.166667  0.083333      8.000000
  0.083333  0.166667  0.083333     16.000000
  0.166667  0.166667  0.083333     16.000000
  0.250000  0.166667  0.083333     16.000000
  0.333333  0.166667  0.083333     16.000000
  0.416667  0.166667  0.083333     16.000000
  0.500000  0.166667  0.083333      8.000000
  0.000000  0.250000  0.083333      8.000000
  0.083333  0.250000  0.083333     16.000000
  0.166667  0.250000  0.083333     16.000000
  0.250000  0.250000  0.083333     16.000000
  0.333333  0.250000  0.083333     16.000000
  0.416667  0.250000  0.083333     16.000000
  0.500000  0.250000  0.083333      8.000000
  0.000000  0.333333  0.083333      8.000000
  0.083333  0.333333  0.083333     16.000000
  0.166667  0.333333  0.083333     16.000000
  0.250000  0.333333  0.083333     16.000000
  0.333333  0.333333  0.083333     16.000000
  0.416667  0.333333  0.083333     16.000000
  0.500000  0.333333  0.083333      8.000000
  0.000000  0.416667  0.083333      8.000000
  0.083333  0.416667  0.083333     16.000000
  0.166667  0.416667  0.083333     16.000000
  0.250000  0.416667  0.083333     16.000000
  0.333333  0.416667  0.083333     16.000000
  0.416667  0.416667  0.083333     16.000000
  0.500000  0.416667  0.083333      8.000000
  0.000000  0.500000  0.083333      4.000000
  0.083333  0.500000  0.083333      8.000000
  0.166667  0.500000  0.083333      8.000000
  0.250000  0.500000  0.083333      8.000000
  0.333333  0.500000  0.083333      8.000000
  0.416667  0.500000  0.083333      8.000000
  0.500000  0.500000  0.083333      4.000000
  0.000000  0.166667  0.166667      4.000000
  0.083333  0.166667  0.166667      8.000000
  0.166667  0.166667  0.166667      8.000000
  0.250000  0.166667  0.166667      8.000000
  0.333333  0.166667  0.166667      8.000000
  0.416667  0.166667  0.166667      8.000000
  0.500000  0.166667  0.166667      4.000000
  0.000000  0.250000  0.166667      8.000000
  0.083333  0.250000  0.166667     16.000000
  0.166667  0.250000  0.166667     16.000000
  0.250000  0.250000  0.166667     16.000000
  0.333333  0.250000  0.166667     16.000000
  0.416667  0.250000  0.166667     16.000000
  0.500000  0.250000  0.166667      8.000000
  0.000000  0.333333  0.166667      8.000000
  0.083333  0.333333  0.166667     16.000000
  0.166667  0.333333  0.166667     16.000000
  0.250000  0.333333  0.166667     16.000000
  0.333333  0.333333  0.166667     16.000000
  0.416667  0.333333  0.166667     16.000000
  0.500000  0.333333  0.166667      8.000000
  0.000000  0.416667  0.166667      8.000000
  0.083333  0.416667  0.166667     16.000000
  0.166667  0.416667  0.166667     16.000000
  0.250000  0.416667  0.166667     16.000000
  0.333333  0.416667  0.166667     16.000000
  0.416667  0.416667  0.166667     16.000000
  0.500000  0.416667  0.166667      8.000000
  0.000000  0.500000  0.166667      4.000000
  0.083333  0.500000  0.166667      8.000000
  0.166667  0.500000  0.166667      8.000000
  0.250000  0.500000  0.166667      8.000000
  0.333333  0.500000  0.166667      8.000000
  0.416667  0.500000  0.166667      8.000000
  0.500000  0.500000  0.166667      4.000000
  0.000000  0.250000  0.250000      4.000000
  0.083333  0.250000  0.250000      8.000000
  0.166667  0.250000  0.250000      8.000000
  0.250000  0.250000  0.250000      8.000000
  0.333333  0.250000  0.250000      8.000000
  0.416667  0.250000  0.250000      8.000000
  0.500000  0.250000  0.250000      4.000000
  0.000000  0.333333  0.250000      8.000000
  0.083333  0.333333  0.250000     16.000000
  0.166667  0.333333  0.250000     16.000000
  0.250000  0.333333  0.250000     16.000000
  0.333333  0.333333  0.250000     16.000000
  0.416667  0.333333  0.250000     16.000000
  0.500000  0.333333  0.250000      8.000000
  0.000000  0.416667  0.250000      8.000000
  0.083333  0.416667  0.250000     16.000000
  0.166667  0.416667  0.250000     16.000000
  0.250000  0.416667  0.250000     16.000000
  0.333333  0.416667  0.250000     16.000000
  0.416667  0.416667  0.250000     16.000000
  0.500000  0.416667  0.250000      8.000000
  0.000000  0.500000  0.250000      4.000000
  0.083333  0.500000  0.250000      8.000000
  0.166667  0.500000  0.250000      8.000000
  0.250000  0.500000  0.250000      8.000000
  0.333333  0.500000  0.250000      8.000000
  0.416667  0.500000  0.250000      8.000000
  0.500000  0.500000  0.250000      4.000000
  0.000000  0.333333  0.333333      4.000000
  0.083333  0.333333  0.333333      8.000000
  0.166667  0.333333  0.333333      8.000000
  0.250000  0.333333  0.333333      8.000000
  0.333333  0.333333  0.333333      8.000000
  0.416667  0.333333  0.333333      8.000000
  0.500000  0.333333  0.333333      4.000000
  0.000000  0.416667  0.333333      8.000000
  0.083333  0.416667  0.333333     16.000000
  0.166667  0.416667  0.333333     16.000000
  0.250000  0.416667  0.333333     16.000000
  0.333333  0.416667  0.333333     16.000000
  0.416667  0.416667  0.333333     16.000000
  0.500000  0.416667  0.333333      8.000000
  0.000000  0.500000  0.333333      4.000000
  0.083333  0.500000  0.333333      8.000000
  0.166667  0.500000  0.333333      8.000000
  0.250000  0.500000  0.333333      8.000000
  0.333333  0.500000  0.333333      8.000000
  0.416667  0.500000  0.333333      8.000000
  0.500000  0.500000  0.333333      4.000000
  0.000000  0.416667  0.416667      4.000000
  0.083333  0.416667  0.416667      8.000000
  0.166667  0.416667  0.416667      8.000000
  0.250000  0.416667  0.416667      8.000000
  0.333333  0.416667  0.416667      8.000000
  0.416667  0.416667  0.416667      8.000000
  0.500000  0.416667  0.416667      4.000000
  0.000000  0.500000  0.416667      4.000000
  0.083333  0.500000  0.416667      8.000000
  0.166667  0.500000  0.416667      8.000000
  0.250000  0.500000  0.416667      8.000000
  0.333333  0.500000  0.416667      8.000000
  0.416667  0.500000  0.416667      8.000000
  0.500000  0.500000  0.416667      4.000000
  0.000000  0.500000  0.500000      1.000000
  0.083333  0.500000  0.500000      2.000000
  0.166667  0.500000  0.500000      2.000000
  0.250000  0.500000  0.500000      2.000000
  0.333333  0.500000  0.500000      2.000000
  0.416667  0.500000  0.500000      2.000000
  0.500000  0.500000  0.500000      1.000000
 
 Following cartesian coordinates:
            Coordinates               Weight
  0.000000  0.000000  0.000000      1.000000
  0.009717  0.000000  0.000000      2.000000
  0.019434  0.000000  0.000000      2.000000
  0.029150  0.000000  0.000000      2.000000
  0.038867  0.000000  0.000000      2.000000
  0.048584  0.000000  0.000000      2.000000
  0.058301  0.000000  0.000000      1.000000
  0.000000  0.009717  0.000000      4.000000
  0.009717  0.009717  0.000000      8.000000
  0.019434  0.009717  0.000000      8.000000
  0.029150  0.009717  0.000000      8.000000
  0.038867  0.009717  0.000000      8.000000
  0.048584  0.009717  0.000000      8.000000
  0.058301  0.009717  0.000000      4.000000
  0.000000  0.019434  0.000000      4.000000
  0.009717  0.019434  0.000000      8.000000
  0.019434  0.019434  0.000000      8.000000
  0.029150  0.019434  0.000000      8.000000
  0.038867  0.019434  0.000000      8.000000
  0.048584  0.019434  0.000000      8.000000
  0.058301  0.019434  0.000000      4.000000
  0.000000  0.029150  0.000000      4.000000
  0.009717  0.029150  0.000000      8.000000
  0.019434  0.029150  0.000000      8.000000
  0.029150  0.029150  0.000000      8.000000
  0.038867  0.029150  0.000000      8.000000
  0.048584  0.029150  0.000000      8.000000
  0.058301  0.029150  0.000000      4.000000
  0.000000  0.038867  0.000000      4.000000
  0.009717  0.038867  0.000000      8.000000
  0.019434  0.038867  0.000000      8.000000
  0.029150  0.038867  0.000000      8.000000
  0.038867  0.038867  0.000000      8.000000
  0.048584  0.038867  0.000000      8.000000
  0.058301  0.038867  0.000000      4.000000
  0.000000  0.048584  0.000000      4.000000
  0.009717  0.048584  0.000000      8.000000
  0.019434  0.048584  0.000000      8.000000
  0.029150  0.048584  0.000000      8.000000
  0.038867  0.048584  0.000000      8.000000
  0.048584  0.048584  0.000000      8.000000
  0.058301  0.048584  0.000000      4.000000
  0.000000  0.058301  0.000000      2.000000
  0.009717  0.058301  0.000000      4.000000
  0.019434  0.058301  0.000000      4.000000
  0.029150  0.058301  0.000000      4.000000
  0.038867  0.058301  0.000000      4.000000
  0.048584  0.058301  0.000000      4.000000
  0.058301  0.058301  0.000000      2.000000
  0.000000  0.009717  0.009717      4.000000
  0.009717  0.009717  0.009717      8.000000
  0.019434  0.009717  0.009717      8.000000
  0.029150  0.009717  0.009717      8.000000
  0.038867  0.009717  0.009717      8.000000
  0.048584  0.009717  0.009717      8.000000
  0.058301  0.009717  0.009717      4.000000
  0.000000  0.019434  0.009717      8.000000
  0.009717  0.019434  0.009717     16.000000
  0.019434  0.019434  0.009717     16.000000
  0.029150  0.019434  0.009717     16.000000
  0.038867  0.019434  0.009717     16.000000
  0.048584  0.019434  0.009717     16.000000
  0.058301  0.019434  0.009717      8.000000
  0.000000  0.029150  0.009717      8.000000
  0.009717  0.029150  0.009717     16.000000
  0.019434  0.029150  0.009717     16.000000
  0.029150  0.029150  0.009717     16.000000
  0.038867  0.029150  0.009717     16.000000
  0.048584  0.029150  0.009717     16.000000
  0.058301  0.029150  0.009717      8.000000
  0.000000  0.038867  0.009717      8.000000
  0.009717  0.038867  0.009717     16.000000
  0.019434  0.038867  0.009717     16.000000
  0.029150  0.038867  0.009717     16.000000
  0.038867  0.038867  0.009717     16.000000
  0.048584  0.038867  0.009717     16.000000
  0.058301  0.038867  0.009717      8.000000
  0.000000  0.048584  0.009717      8.000000
  0.009717  0.048584  0.009717     16.000000
  0.019434  0.048584  0.009717     16.000000
  0.029150  0.048584  0.009717     16.000000
  0.038867  0.048584  0.009717     16.000000
  0.048584  0.048584  0.009717     16.000000
  0.058301  0.048584  0.009717      8.000000
  0.000000  0.058301  0.009717      4.000000
  0.009717  0.058301  0.009717      8.000000
  0.019434  0.058301  0.009717      8.000000
  0.029150  0.058301  0.009717      8.000000
  0.038867  0.058301  0.009717      8.000000
  0.048584  0.058301  0.009717      8.000000
  0.058301  0.058301  0.009717      4.000000
  0.000000  0.019434  0.019434      4.000000
  0.009717  0.019434  0.019434      8.000000
  0.019434  0.019434  0.019434      8.000000
  0.029150  0.019434  0.019434      8.000000
  0.038867  0.019434  0.019434      8.000000
  0.048584  0.019434  0.019434      8.000000
  0.058301  0.019434  0.019434      4.000000
  0.000000  0.029150  0.019434      8.000000
  0.009717  0.029150  0.019434     16.000000
  0.019434  0.029150  0.019434     16.000000
  0.029150  0.029150  0.019434     16.000000
  0.038867  0.029150  0.019434     16.000000
  0.048584  0.029150  0.019434     16.000000
  0.058301  0.029150  0.019434      8.000000
  0.000000  0.038867  0.019434      8.000000
  0.009717  0.038867  0.019434     16.000000
  0.019434  0.038867  0.019434     16.000000
  0.029150  0.038867  0.019434     16.000000
  0.038867  0.038867  0.019434     16.000000
  0.048584  0.038867  0.019434     16.000000
  0.058301  0.038867  0.019434      8.000000
  0.000000  0.048584  0.019434      8.000000
  0.009717  0.048584  0.019434     16.000000
  0.019434  0.048584  0.019434     16.000000
  0.029150  0.048584  0.019434     16.000000
  0.038867  0.048584  0.019434     16.000000
  0.048584  0.048584  0.019434     16.000000
  0.058301  0.048584  0.019434      8.000000
  0.000000  0.058301  0.019434      4.000000
  0.009717  0.058301  0.019434      8.000000
  0.019434  0.058301  0.019434      8.000000
  0.029150  0.058301  0.019434      8.000000
  0.038867  0.058301  0.019434      8.000000
  0.048584  0.058301  0.019434      8.000000
  0.058301  0.058301  0.019434      4.000000
  0.000000  0.029150  0.029150      4.000000
  0.009717  0.029150  0.029150      8.000000
  0.019434  0.029150  0.029150      8.000000
  0.029150  0.029150  0.029150      8.000000
  0.038867  0.029150  0.029150      8.000000
  0.048584  0.029150  0.029150      8.000000
  0.058301  0.029150  0.029150      4.000000
  0.000000  0.038867  0.029150      8.000000
  0.009717  0.038867  0.029150     16.000000
  0.019434  0.038867  0.029150     16.000000
  0.029150  0.038867  0.029150     16.000000
  0.038867  0.038867  0.029150     16.000000
  0.048584  0.038867  0.029150     16.000000
  0.058301  0.038867  0.029150      8.000000
  0.000000  0.048584  0.029150      8.000000
  0.009717  0.048584  0.029150     16.000000
  0.019434  0.048584  0.029150     16.000000
  0.029150  0.048584  0.029150     16.000000
  0.038867  0.048584  0.029150     16.000000
  0.048584  0.048584  0.029150     16.000000
  0.058301  0.048584  0.029150      8.000000
  0.000000  0.058301  0.029150      4.000000
  0.009717  0.058301  0.029150      8.000000
  0.019434  0.058301  0.029150      8.000000
  0.029150  0.058301  0.029150      8.000000
  0.038867  0.058301  0.029150      8.000000
  0.048584  0.058301  0.029150      8.000000
  0.058301  0.058301  0.029150      4.000000
  0.000000  0.038867  0.038867      4.000000
  0.009717  0.038867  0.038867      8.000000
  0.019434  0.038867  0.038867      8.000000
  0.029150  0.038867  0.038867      8.000000
  0.038867  0.038867  0.038867      8.000000
  0.048584  0.038867  0.038867      8.000000
  0.058301  0.038867  0.038867      4.000000
  0.000000  0.048584  0.038867      8.000000
  0.009717  0.048584  0.038867     16.000000
  0.019434  0.048584  0.038867     16.000000
  0.029150  0.048584  0.038867     16.000000
  0.038867  0.048584  0.038867     16.000000
  0.048584  0.048584  0.038867     16.000000
  0.058301  0.048584  0.038867      8.000000
  0.000000  0.058301  0.038867      4.000000
  0.009717  0.058301  0.038867      8.000000
  0.019434  0.058301  0.038867      8.000000
  0.029150  0.058301  0.038867      8.000000
  0.038867  0.058301  0.038867      8.000000
  0.048584  0.058301  0.038867      8.000000
  0.058301  0.058301  0.038867      4.000000
  0.000000  0.048584  0.048584      4.000000
  0.009717  0.048584  0.048584      8.000000
  0.019434  0.048584  0.048584      8.000000
  0.029150  0.048584  0.048584      8.000000
  0.038867  0.048584  0.048584      8.000000
  0.048584  0.048584  0.048584      8.000000
  0.058301  0.048584  0.048584      4.000000
  0.000000  0.058301  0.048584      4.000000
  0.009717  0.058301  0.048584      8.000000
  0.019434  0.058301  0.048584      8.000000
  0.029150  0.058301  0.048584      8.000000
  0.038867  0.058301  0.048584      8.000000
  0.048584  0.058301  0.048584      8.000000
  0.058301  0.058301  0.048584      4.000000
  0.000000  0.058301  0.058301      1.000000
  0.009717  0.058301  0.058301      2.000000
  0.019434  0.058301  0.058301      2.000000
  0.029150  0.058301  0.058301      2.000000
  0.038867  0.058301  0.058301      2.000000
  0.048584  0.058301  0.058301      2.000000
  0.058301  0.058301  0.058301      1.000000
 


--------------------------------------------------------------------------------------------------------




 Dimension of arrays:
   k-Points           NKPTS =    196   number of bands    NBANDS=    216
   number of dos      NEDOS =    301   number of ions     NIONS =     32
   non local maximal  LDIM  =      6   non local SUM 2l+1 LMDIM =     18
   total plane-waves  NPLWV = 512000
   max r-space proj   IRMAX =      1   max aug-charges    IRDMAX= 319432
   dimension x,y,z NGX =    80 NGY =   80 NGZ =   80
   dimension x,y,z NGXF=   160 NGYF=  160 NGZF=  160
   support grid    NGXF=   320 NGYF=  320 NGZF=  320
   ions per type =              32
 NGX,Y,Z   is equivalent  to a cutoff of  15.51, 15.51, 15.51 a.u.
 NGXF,Y,Z  is equivalent  to a cutoff of  31.02, 31.02, 31.02 a.u.


 I would recommend the setting:
   dimension x,y,z NGX =    77 NGY =   77 NGZ =   77
 SYSTEM =  unknown system                          
 POSCAR =  Ag                                      

 Startparameter for this run:
   NWRITE =      2    write-flag & timer
   PREC   = accura    medium, high low
   ISTART =      0    job   : 0-new  1-cont  2-samecut
   ICHARG =      2    charge: 1-file 2-atom 10-const
   ISPIN  =      1    spin polarized calculation?
   LNONCOLLINEAR =      F non collinear calculations
   LSORBIT =      F    spin-orbit coupling
   INIWAV =      1    electr: 0-lowe 1-rand  2-diag
   LASPH  =      F    aspherical Exc in radial PAW
   METAGGA=      F    non-selfconsistent MetaGGA calc.

 Electronic Relaxation 1
   ENCUT  =  750.0 eV  55.12 Ry    7.42 a.u.  19.15 19.15 19.15*2*pi/ulx,y,z
   ENINI  =  750.0     initial cutoff
   ENAUG  =  412.5 eV  augmentation charge cutoff
   NELM   =     60;   NELMIN=  2; NELMDL=  0     # of ELM steps 
   EDIFF  = 0.1E-07   stopping-criterion for ELM
   LREAL  =      F    real-space projection
   LCOMPAT=      F    compatible to vasp.4.4
   LREAL_COMPAT= F    compatible to vasp.4.5.1-3
   GGA_COMPAT  = T    GGA compatible to vasp.4.4-vasp.4.6
   LMAXPAW     = -100 max onsite density
   LMAXMIX     =    2 max onsite mixed and CHGCAR
   VOSKOWN=      0    Vosko Wilk Nusair interpolation
   ROPT   =    0.00000
 Ionic relaxation
   EDIFFG = 0.1E-06   stopping-criterion for IOM
   NSW    =      0    number of steps for IOM
   NBLOCK =      1;   KBLOCK =      1    inner block; outer block 
   IBRION =     -1    ionic relax: 0-MD 1-quasi-New 2-CG
   NFREE  =      0    steps in history (QN), initial steepest desc. (CG)
   ISIF   =      2    stress and relaxation
   IWAVPR =     10    prediction:  0-non 1-charg 2-wave 3-comb
   ISYM   =      2    0-nonsym 1-usesym 2-fastsym
   LCORR  =      T    Harris-Foulkes like correction to forces

   POTIM  =   0.50    time-step for ionic-motion
   TEIN   =    0.0    initial temperature
   TEBEG  =    0.0;   TEEND  =   0.0 temperature during run
   SMASS  =  -3.00    Nose mass-parameter (am)
   estimated Nose-frequenzy (Omega)   =  0.10E-29 period in steps =****** mass=  -0.168E-26a.u.
   NPACO  =    256;   APACO  = 16.0  distance and # of slots for P.C.
   PSTRESS=    0.0 pullay stress

  Mass of Ions in am
   POMASS = 107.87
  Ionic Valenz
   ZVAL   =  11.00
  Atomic Wigner-Seitz radii
   RWIGS  =  -1.00
   NELECT =     352.0000    total number of electrons
   NUPDOWN=      -1.0000    fix difference up-down

 DOS related values:
   EMIN   =  10.00;   EMAX   =-10.00  energy-range for DOS
   ISMEAR =     0;   SIGMA  =   0.01  broadening in eV -4-tet -1-fermi 0-gaus

 Electronic relaxation 2 (details)
   IALGO  =     38    algorithm
   LDIAG  =      T    sub-space diagonalisation
   IMIX   =      4    mixing-type and parameters
     AMIX     =   0.40;   BMIX     =  1.00
     AMIX_MAG =   1.60;   BMIX_MAG =  1.00
     AMIN     =   0.10
     WC   =   100.;   INIMIX=   1;  MIXPRE=   1

 Intra band minimization:
   WEIMIN = 0.0000     energy-eigenvalue tresh-hold
   EBREAK =  0.12E-10  absolut break condition
   DEPER  =   0.30     relativ break condition  

   TIME   =   0.10     timestep for ELM

  volume/ion in A,a.u.               =      19.71       133.03
  Fermi-wavevector in a.u.,eV,Ry     =   1.347800 24.715848  1.816564

 Second variation
   LSECVAR=     F    do a second variation
 
 Write flags
   LWAVE  =      F    write WAVECAR
   LCHARG =      F    write CHGCAR
   LVTOT  =      F    write LOCPOT, local potential
   LELF   =      F    write electronic localiz. function (ELF)
   LORBIT =      0    0 simple, 1 ext, 2 COOP (PROOUT)


 Dipole corrections
   IDIPOL =      0    1-x, 2-y, 3-z
   LDIPOL =      F    correct potential



--------------------------------------------------------------------------------------------------------


 Static calculation
 charge density will be updated during run
 non-spin polarized calculation
 Variant of blocked Davidson
 Davidson routine will perform the subspace rotation
 performe sub-space diagonalisation
    after iterative eigenvector-optimisation
 modified Broyden-mixing scheme, WC =      100.0
 initial mixing is a Kerker type mixing with AMIX =  0.4000 and BMIX =      1.0000
 Hartree-type preconditioning will be used
 using additional bands           40
 reciprocal scheme for non local part
 use partial core corrections
 calculate Harris-corrections to forces 
   (improved forces if not selfconsistent)
 use gradient corrections 
 use of overlap-Matrix (Vanderbilt PP)
 Gauss-broadening in eV      SIGMA  =   0.01


--------------------------------------------------------------------------------------------------------


  energy-cutoff  :      750.00
  volume of cell :      630.80
      direct lattice vectors                 reciprocal lattice vectors
     8.576243050  0.000000000  0.000000000     0.116601173  0.000000000  0.000000000
     0.000000000  8.576243050  0.000000000     0.000000000  0.116601173  0.000000000
     0.000000000  0.000000000  8.576243050     0.000000000  0.000000000  0.116601173

  length of vectors
     8.576243050  8.576243050  8.576243050     0.116601173  0.116601173  0.116601173


 
 k-points in units of 2pi/SCALE and weight: Automatic mesh                          
   0.00000000  0.00000000  0.00000000       0.001
   0.00971676  0.00000000  0.00000000       0.001
   0.01943353  0.00000000  0.00000000       0.001
   0.02915029  0.00000000  0.00000000       0.001
   0.03886706  0.00000000  0.00000000       0.001
   0.04858382  0.00000000  0.00000000       0.001
   0.05830059  0.00000000  0.00000000       0.001
   0.00000000  0.00971676  0.00000000       0.002
   0.00971676  0.00971676  0.00000000       0.005
   0.01943353  0.00971676  0.00000000       0.005
   0.02915029  0.00971676  0.00000000       0.005
   0.03886706  0.00971676  0.00000000       0.005
   0.04858382  0.00971676  0.00000000       0.005
   0.05830059  0.00971676  0.00000000       0.002
   0.00000000  0.01943353  0.00000000       0.002
   0.00971676  0.01943353  0.00000000       0.005
   0.01943353  0.01943353  0.00000000       0.005
   0.02915029  0.01943353  0.00000000       0.005
   0.03886706  0.01943353  0.00000000       0.005
   0.04858382  0.01943353  0.00000000       0.005
   0.05830059  0.01943353  0.00000000       0.002
   0.00000000  0.02915029  0.00000000       0.002
   0.00971676  0.02915029  0.00000000       0.005
   0.01943353  0.02915029  0.00000000       0.005
   0.02915029  0.02915029  0.00000000       0.005
   0.03886706  0.02915029  0.00000000       0.005
   0.04858382  0.02915029  0.00000000       0.005
   0.05830059  0.02915029  0.00000000       0.002
   0.00000000  0.03886706  0.00000000       0.002
   0.00971676  0.03886706  0.00000000       0.005
   0.01943353  0.03886706  0.00000000       0.005
   0.02915029  0.03886706  0.00000000       0.005
   0.03886706  0.03886706  0.00000000       0.005
   0.04858382  0.03886706  0.00000000       0.005
   0.05830059  0.03886706  0.00000000       0.002
   0.00000000  0.04858382  0.00000000       0.002
   0.00971676  0.04858382  0.00000000       0.005
   0.01943353  0.04858382  0.00000000       0.005
   0.02915029  0.04858382  0.00000000       0.005
   0.03886706  0.04858382  0.00000000       0.005
   0.04858382  0.04858382  0.00000000       0.005
   0.05830059  0.04858382  0.00000000       0.002
   0.00000000  0.05830059  0.00000000       0.001
   0.00971676  0.05830059  0.00000000       0.002
   0.01943353  0.05830059  0.00000000       0.002
   0.02915029  0.05830059  0.00000000       0.002
   0.03886706  0.05830059  0.00000000       0.002
   0.04858382  0.05830059  0.00000000       0.002
   0.05830059  0.05830059  0.00000000       0.001
   0.00000000  0.00971676  0.00971676       0.002
   0.00971676  0.00971676  0.00971676       0.005
   0.01943353  0.00971676  0.00971676       0.005
   0.02915029  0.00971676  0.00971676       0.005
   0.03886706  0.00971676  0.00971676       0.005
   0.04858382  0.00971676  0.00971676       0.005
   0.05830059  0.00971676  0.00971676       0.002
   0.00000000  0.01943353  0.00971676       0.005
   0.00971676  0.01943353  0.00971676       0.009
   0.01943353  0.01943353  0.00971676       0.009
   0.02915029  0.01943353  0.00971676       0.009
   0.03886706  0.01943353  0.00971676       0.009
   0.04858382  0.01943353  0.00971676       0.009
   0.05830059  0.01943353  0.00971676       0.005
   0.00000000  0.02915029  0.00971676       0.005
   0.00971676  0.02915029  0.00971676       0.009
   0.01943353  0.02915029  0.00971676       0.009
   0.02915029  0.02915029  0.00971676       0.009
   0.03886706  0.02915029  0.00971676       0.009
   0.04858382  0.02915029  0.00971676       0.009
   0.05830059  0.02915029  0.00971676       0.005
   0.00000000  0.03886706  0.00971676       0.005
   0.00971676  0.03886706  0.00971676       0.009
   0.01943353  0.03886706  0.00971676       0.009
   0.02915029  0.03886706  0.00971676       0.009
   0.03886706  0.03886706  0.00971676       0.009
   0.04858382  0.03886706  0.00971676       0.009
   0.05830059  0.03886706  0.00971676       0.005
   0.00000000  0.04858382  0.00971676       0.005
   0.00971676  0.04858382  0.00971676       0.009
   0.01943353  0.04858382  0.00971676       0.009
   0.02915029  0.04858382  0.00971676       0.009
   0.03886706  0.04858382  0.00971676       0.009
   0.04858382  0.04858382  0.00971676       0.009
   0.05830059  0.04858382  0.00971676       0.005
   0.00000000  0.05830059  0.00971676       0.002
   0.00971676  0.05830059  0.00971676       0.005
   0.01943353  0.05830059  0.00971676       0.005
   0.02915029  0.05830059  0.00971676       0.005
   0.03886706  0.05830059  0.00971676       0.005
   0.04858382  0.05830059  0.00971676       0.005
   0.05830059  0.05830059  0.00971676       0.002
   0.00000000  0.01943353  0.01943353       0.002
   0.00971676  0.01943353  0.01943353       0.005
   0.01943353  0.01943353  0.01943353       0.005
   0.02915029  0.01943353  0.01943353       0.005
   0.03886706  0.01943353  0.01943353       0.005
   0.04858382  0.01943353  0.01943353       0.005
   0.05830059  0.01943353  0.01943353       0.002
   0.00000000  0.02915029  0.01943353       0.005
   0.00971676  0.02915029  0.01943353       0.009
   0.01943353  0.02915029  0.01943353       0.009
   0.02915029  0.02915029  0.01943353       0.009
   0.03886706  0.02915029  0.01943353       0.009
   0.04858382  0.02915029  0.01943353       0.009
   0.05830059  0.02915029  0.01943353       0.005
   0.00000000  0.03886706  0.01943353       0.005
   0.00971676  0.03886706  0.01943353       0.009
   0.01943353  0.03886706  0.01943353       0.009
   0.02915029  0.03886706  0.01943353       0.009
   0.03886706  0.03886706  0.01943353       0.009
   0.04858382  0.03886706  0.01943353       0.009
   0.05830059  0.03886706  0.01943353       0.005
   0.00000000  0.04858382  0.01943353       0.005
   0.00971676  0.04858382  0.01943353       0.009
   0.01943353  0.04858382  0.01943353       0.009
   0.02915029  0.04858382  0.01943353       0.009
   0.03886706  0.04858382  0.01943353       0.009
   0.04858382  0.04858382  0.01943353       0.009
   0.05830059  0.04858382  0.01943353       0.005
   0.00000000  0.05830059  0.01943353       0.002
   0.00971676  0.05830059  0.01943353       0.005
   0.01943353  0.05830059  0.01943353       0.005
   0.02915029  0.05830059  0.01943353       0.005
   0.03886706  0.05830059  0.01943353       0.005
   0.04858382  0.05830059  0.01943353       0.005
   0.05830059  0.05830059  0.01943353       0.002
   0.00000000  0.02915029  0.02915029       0.002
   0.00971676  0.02915029  0.02915029       0.005
   0.01943353  0.02915029  0.02915029       0.005
   0.02915029  0.02915029  0.02915029       0.005
   0.03886706  0.02915029  0.02915029       0.005
   0.04858382  0.02915029  0.02915029       0.005
   0.05830059  0.02915029  0.02915029       0.002
   0.00000000  0.03886706  0.02915029       0.005
   0.00971676  0.03886706  0.02915029       0.009
   0.01943353  0.03886706  0.02915029       0.009
   0.02915029  0.03886706  0.02915029       0.009
   0.03886706  0.03886706  0.02915029       0.009
   0.04858382  0.03886706  0.02915029       0.009
   0.05830059  0.03886706  0.02915029       0.005
   0.00000000  0.04858382  0.02915029       0.005
   0.00971676  0.04858382  0.02915029       0.009
   0.01943353  0.04858382  0.02915029       0.009
   0.02915029  0.04858382  0.02915029       0.009
   0.03886706  0.04858382  0.02915029       0.009
   0.04858382  0.04858382  0.02915029       0.009
   0.05830059  0.04858382  0.02915029       0.005
   0.00000000  0.05830059  0.02915029       0.002
   0.00971676  0.05830059  0.02915029       0.005
   0.01943353  0.05830059  0.02915029       0.005
   0.02915029  0.05830059  0.02915029       0.005
   0.03886706  0.05830059  0.02915029       0.005
   0.04858382  0.05830059  0.02915029       0.005
   0.05830059  0.05830059  0.02915029       0.002
   0.00000000  0.03886706  0.03886706       0.002
   0.00971676  0.03886706  0.03886706       0.005
   0.01943353  0.03886706  0.03886706       0.005
   0.02915029  0.03886706  0.03886706       0.005
   0.03886706  0.03886706  0.03886706       0.005
   0.04858382  0.03886706  0.03886706       0.005
   0.05830059  0.03886706  0.03886706       0.002
   0.00000000  0.04858382  0.03886706       0.005
   0.00971676  0.04858382  0.03886706       0.009
   0.01943353  0.04858382  0.03886706       0.009
   0.02915029  0.04858382  0.03886706       0.009
   0.03886706  0.04858382  0.03886706       0.009
   0.04858382  0.04858382  0.03886706       0.009
   0.05830059  0.04858382  0.03886706       0.005
   0.00000000  0.05830059  0.03886706       0.002
   0.00971676  0.05830059  0.03886706       0.005
   0.01943353  0.05830059  0.03886706       0.005
   0.02915029  0.05830059  0.03886706       0.005
   0.03886706  0.05830059  0.03886706       0.005
   0.04858382  0.05830059  0.03886706       0.005
   0.05830059  0.05830059  0.03886706       0.002
   0.00000000  0.04858382  0.04858382       0.002
   0.00971676  0.04858382  0.04858382       0.005
   0.01943353  0.04858382  0.04858382       0.005
   0.02915029  0.04858382  0.04858382       0.005
   0.03886706  0.04858382  0.04858382       0.005
   0.04858382  0.04858382  0.04858382       0.005
   0.05830059  0.04858382  0.04858382       0.002
   0.00000000  0.05830059  0.04858382       0.002
   0.00971676  0.05830059  0.04858382       0.005
   0.01943353  0.05830059  0.04858382       0.005
   0.02915029  0.05830059  0.04858382       0.005
   0.03886706  0.05830059  0.04858382       0.005
   0.04858382  0.05830059  0.04858382       0.005
   0.05830059  0.05830059  0.04858382       0.002
   0.00000000  0.05830059  0.05830059       0.001
   0.00971676  0.05830059  0.05830059       0.001
   0.01943353  0.05830059  0.05830059       0.001
   0.02915029  0.05830059  0.05830059       0.001
   0.03886706  0.05830059  0.05830059       0.001
   0.04858382  0.05830059  0.05830059       0.001
   0.05830059  0.05830059  0.05830059       0.001
 
 k-points in reciprocal lattice and weights: Automatic mesh                          
   0.00000000  0.00000000  0.00000000       0.001
   0.08333333  0.00000000  0.00000000       0.001
   0.16666667  0.00000000  0.00000000       0.001
   0.25000000  0.00000000  0.00000000       0.001
   0.33333333  0.00000000  0.00000000       0.001
   0.41666667  0.00000000  0.00000000       0.001
   0.50000000  0.00000000  0.00000000       0.001
   0.00000000  0.08333333  0.00000000       0.002
   0.08333333  0.08333333  0.00000000       0.005
   0.16666667  0.08333333  0.00000000       0.005
   0.25000000  0.08333333  0.00000000       0.005
   0.33333333  0.08333333  0.00000000       0.005
   0.41666667  0.08333333  0.00000000       0.005
   0.50000000  0.08333333  0.00000000       0.002
   0.00000000  0.16666667  0.00000000       0.002
   0.08333333  0.16666667  0.00000000       0.005
   0.16666667  0.16666667  0.00000000       0.005
   0.25000000  0.16666667  0.00000000       0.005
   0.33333333  0.16666667  0.00000000       0.005
   0.41666667  0.16666667  0.00000000       0.005
   0.50000000  0.16666667  0.00000000       0.002
   0.00000000  0.25000000  0.00000000       0.002
   0.08333333  0.25000000  0.00000000       0.005
   0.16666667  0.25000000  0.00000000       0.005
   0.25000000  0.25000000  0.00000000       0.005
   0.33333333  0.25000000  0.00000000       0.005
   0.41666667  0.25000000  0.00000000       0.005
   0.50000000  0.25000000  0.00000000       0.002
   0.00000000  0.33333333  0.00000000       0.002
   0.08333333  0.33333333  0.00000000       0.005
   0.16666667  0.33333333  0.00000000       0.005
   0.25000000  0.33333333  0.00000000       0.005
   0.33333333  0.33333333  0.00000000       0.005
   0.41666667  0.33333333  0.00000000       0.005
   0.50000000  0.33333333  0.00000000       0.002
   0.00000000  0.41666667  0.00000000       0.002
   0.08333333  0.41666667  0.00000000       0.005
   0.16666667  0.41666667  0.00000000       0.005
   0.25000000  0.41666667  0.00000000       0.005
   0.33333333  0.41666667  0.00000000       0.005
   0.41666667  0.41666667  0.00000000       0.005
   0.50000000  0.41666667  0.00000000       0.002
   0.00000000  0.50000000  0.00000000       0.001
   0.08333333  0.50000000  0.00000000       0.002
   0.16666667  0.50000000  0.00000000       0.002
   0.25000000  0.50000000  0.00000000       0.002
   0.33333333  0.50000000  0.00000000       0.002
   0.41666667  0.50000000  0.00000000       0.002
   0.50000000  0.50000000  0.00000000       0.001
   0.00000000  0.08333333  0.08333333       0.002
   0.08333333  0.08333333  0.08333333       0.005
   0.16666667  0.08333333  0.08333333       0.005
   0.25000000  0.08333333  0.08333333       0.005
   0.33333333  0.08333333  0.08333333       0.005
   0.41666667  0.08333333  0.08333333       0.005
   0.50000000  0.08333333  0.08333333       0.002
   0.00000000  0.16666667  0.08333333       0.005
   0.08333333  0.16666667  0.08333333       0.009
   0.16666667  0.16666667  0.08333333       0.009
   0.25000000  0.16666667  0.08333333       0.009
   0.33333333  0.16666667  0.08333333       0.009
   0.41666667  0.16666667  0.08333333       0.009
   0.50000000  0.16666667  0.08333333       0.005
   0.00000000  0.25000000  0.08333333       0.005
   0.08333333  0.25000000  0.08333333       0.009
   0.16666667  0.25000000  0.08333333       0.009
   0.25000000  0.25000000  0.08333333       0.009
   0.33333333  0.25000000  0.08333333       0.009
   0.41666667  0.25000000  0.08333333       0.009
   0.50000000  0.25000000  0.08333333       0.005
   0.00000000  0.33333333  0.08333333       0.005
   0.08333333  0.33333333  0.08333333       0.009
   0.16666667  0.33333333  0.08333333       0.009
   0.25000000  0.33333333  0.08333333       0.009
   0.33333333  0.33333333  0.08333333       0.009
   0.41666667  0.33333333  0.08333333       0.009
   0.50000000  0.33333333  0.08333333       0.005
   0.00000000  0.41666667  0.08333333       0.005
   0.08333333  0.41666667  0.08333333       0.009
   0.16666667  0.41666667  0.08333333       0.009
   0.25000000  0.41666667  0.08333333       0.009
   0.33333333  0.41666667  0.08333333       0.009
   0.41666667  0.41666667  0.08333333       0.009
   0.50000000  0.41666667  0.08333333       0.005
   0.00000000  0.50000000  0.08333333       0.002
   0.08333333  0.50000000  0.08333333       0.005
   0.16666667  0.50000000  0.08333333       0.005
   0.25000000  0.50000000  0.08333333       0.005
   0.33333333  0.50000000  0.08333333       0.005
   0.41666667  0.50000000  0.08333333       0.005
   0.50000000  0.50000000  0.08333333       0.002
   0.00000000  0.16666667  0.16666667       0.002
   0.08333333  0.16666667  0.16666667       0.005
   0.16666667  0.16666667  0.16666667       0.005
   0.25000000  0.16666667  0.16666667       0.005
   0.33333333  0.16666667  0.16666667       0.005
   0.41666667  0.16666667  0.16666667       0.005
   0.50000000  0.16666667  0.16666667       0.002
   0.00000000  0.25000000  0.16666667       0.005
   0.08333333  0.25000000  0.16666667       0.009
   0.16666667  0.25000000  0.16666667       0.009
   0.25000000  0.25000000  0.16666667       0.009
   0.33333333  0.25000000  0.16666667       0.009
   0.41666667  0.25000000  0.16666667       0.009
   0.50000000  0.25000000  0.16666667       0.005
   0.00000000  0.33333333  0.16666667       0.005
   0.08333333  0.33333333  0.16666667       0.009
   0.16666667  0.33333333  0.16666667       0.009
   0.25000000  0.33333333  0.16666667       0.009
   0.33333333  0.33333333  0.16666667       0.009
   0.41666667  0.33333333  0.16666667       0.009
   0.50000000  0.33333333  0.16666667       0.005
   0.00000000  0.41666667  0.16666667       0.005
   0.08333333  0.41666667  0.16666667       0.009
   0.16666667  0.41666667  0.16666667       0.009
   0.25000000  0.41666667  0.16666667       0.009
   0.33333333  0.41666667  0.16666667       0.009
   0.41666667  0.41666667  0.16666667       0.009
   0.50000000  0.41666667  0.16666667       0.005
   0.00000000  0.50000000  0.16666667       0.002
   0.08333333  0.50000000  0.16666667       0.005
   0.16666667  0.50000000  0.16666667       0.005
   0.25000000  0.50000000  0.16666667       0.005
   0.33333333  0.50000000  0.16666667       0.005
   0.41666667  0.50000000  0.16666667       0.005
   0.50000000  0.50000000  0.16666667       0.002
   0.00000000  0.25000000  0.25000000       0.002
   0.08333333  0.25000000  0.25000000       0.005
   0.16666667  0.25000000  0.25000000       0.005
   0.25000000  0.25000000  0.25000000       0.005
   0.33333333  0.25000000  0.25000000       0.005
   0.41666667  0.25000000  0.25000000       0.005
   0.50000000  0.25000000  0.25000000       0.002
   0.00000000  0.33333333  0.25000000       0.005
   0.08333333  0.33333333  0.25000000       0.009
   0.16666667  0.33333333  0.25000000       0.009
   0.25000000  0.33333333  0.25000000       0.009
   0.33333333  0.33333333  0.25000000       0.009
   0.41666667  0.33333333  0.25000000       0.009
   0.50000000  0.33333333  0.25000000       0.005
   0.00000000  0.41666667  0.25000000       0.005
   0.08333333  0.41666667  0.25000000       0.009
   0.16666667  0.41666667  0.25000000       0.009
   0.25000000  0.41666667  0.25000000       0.009
   0.33333333  0.41666667  0.25000000       0.009
   0.41666667  0.41666667  0.25000000       0.009
   0.50000000  0.41666667  0.25000000       0.005
   0.00000000  0.50000000  0.25000000       0.002
   0.08333333  0.50000000  0.25000000       0.005
   0.16666667  0.50000000  0.25000000       0.005
   0.25000000  0.50000000  0.25000000       0.005
   0.33333333  0.50000000  0.25000000       0.005
   0.41666667  0.50000000  0.25000000       0.005
   0.50000000  0.50000000  0.25000000       0.002
   0.00000000  0.33333333  0.33333333       0.002
   0.08333333  0.33333333  0.33333333       0.005
   0.16666667  0.33333333  0.33333333       0.005
   0.25000000  0.33333333  0.33333333       0.005
   0.33333333  0.33333333  0.33333333       0.005
   0.41666667  0.33333333  0.33333333       0.005
   0.50000000  0.33333333  0.33333333       0.002
   0.00000000  0.41666667  0.33333333       0.005
   0.08333333  0.41666667  0.33333333       0.009
   0.16666667  0.41666667  0.33333333       0.009
   0.25000000  0.41666667  0.33333333       0.009
   0.33333333  0.41666667  0.33333333       0.009
   0.41666667  0.41666667  0.33333333       0.009
   0.50000000  0.41666667  0.33333333       0.005
   0.00000000  0.50000000  0.33333333       0.002
   0.08333333  0.50000000  0.33333333       0.005
   0.16666667  0.50000000  0.33333333       0.005
   0.25000000  0.50000000  0.33333333       0.005
   0.33333333  0.50000000  0.33333333       0.005
   0.41666667  0.50000000  0.33333333       0.005
   0.50000000  0.50000000  0.33333333       0.002
   0.00000000  0.41666667  0.41666667       0.002
   0.08333333  0.41666667  0.41666667       0.005
   0.16666667  0.41666667  0.41666667       0.005
   0.25000000  0.41666667  0.41666667       0.005
   0.33333333  0.41666667  0.41666667       0.005
   0.41666667  0.41666667  0.41666667       0.005
   0.50000000  0.41666667  0.41666667       0.002
   0.00000000  0.50000000  0.41666667       0.002
   0.08333333  0.50000000  0.41666667       0.005
   0.16666667  0.50000000  0.41666667       0.005
   0.25000000  0.50000000  0.41666667       0.005
   0.33333333  0.50000000  0.41666667       0.005
   0.41666667  0.50000000  0.41666667       0.005
   0.50000000  0.50000000  0.41666667       0.002
   0.00000000  0.50000000  0.50000000       0.001
   0.08333333  0.50000000  0.50000000       0.001
   0.16666667  0.50000000  0.50000000       0.001
   0.25000000  0.50000000  0.50000000       0.001
   0.33333333  0.50000000  0.50000000       0.001
   0.41666667  0.50000000  0.50000000       0.001
   0.50000000  0.50000000  0.50000000       0.001
 
 position of ions in fractional coordinates (direct lattice) 
   0.00116601  0.00000000  0.00000000
   0.50000000  0.00000000  0.00000000
   0.00000000  0.50000000  0.00000000
   0.50000000  0.50000000  0.00000000
   0.00000000  0.00000000  0.50000000
   0.50000000  0.00000000  0.50000000
   0.00000000  0.50000000  0.50000000
   0.50000000  0.50000000  0.50000000
   0.25000000  0.25000000  0.00000000
   0.75000000  0.25000000  0.00000000
   0.25000000  0.75000000  0.00000000
   0.75000000  0.75000000  0.00000000
   0.25000000  0.25000000  0.50000000
   0.75000000  0.25000000  0.50000000
   0.25000000  0.75000000  0.50000000
   0.75000000  0.75000000  0.50000000
   0.25000000  0.00000000  0.25000000
   0.75000000  0.00000000  0.25000000
   0.25000000  0.50000000  0.25000000
   0.75000000  0.50000000  0.25000000
   0.25000000  0.00000000  0.75000000
   0.75000000  0.00000000  0.75000000
   0.25000000  0.50000000  0.75000000
   0.75000000  0.50000000  0.75000000
   0.00000000  0.25000000  0.25000000
   0.50000000  0.25000000  0.25000000
   0.00000000  0.75000000  0.25000000
   0.50000000  0.75000000  0.25000000
   0.00000000  0.25000000  0.75000000
   0.50000000  0.25000000  0.75000000
   0.00000000  0.75000000  0.75000000
   0.50000000  0.75000000  0.75000000
 
 position of ions in cartesian coordinates  (Angst):
   0.01000000  0.00000000  0.00000000
   4.28812153  0.00000000  0.00000000
   0.00000000  4.28812153  0.00000000
   4.28812153  4.28812153  0.00000000
   0.00000000  0.00000000  4.28812153
   4.28812153  0.00000000  4.28812153
   0.00000000  4.28812153  4.28812153
   4.28812153  4.28812153  4.28812153
   2.14406076  2.14406076  0.00000000
   6.43218229  2.14406076  0.00000000
   2.14406076  6.43218229  0.00000000
   6.43218229  6.43218229  0.00000000
   2.14406076  2.14406076  4.28812153
   6.43218229  2.14406076  4.28812153
   2.14406076  6.43218229  4.28812153
   6.43218229  6.43218229  4.28812153
   2.14406076  0.00000000  2.14406076
   6.43218229  0.00000000  2.14406076
   2.14406076  4.28812153  2.14406076
   6.43218229  4.28812153  2.14406076
   2.14406076  0.00000000  6.43218229
   6.43218229  0.00000000  6.43218229
   2.14406076  4.28812153  6.43218229
   6.43218229  4.28812153  6.43218229
   0.00000000  2.14406076  2.14406076
   4.28812153  2.14406076  2.14406076
   0.00000000  6.43218229  2.14406076
   4.28812153  6.43218229  2.14406076
   0.00000000  2.14406076  6.43218229
   4.28812153  2.14406076  6.43218229
   0.00000000  6.43218229  6.43218229
   4.28812153  6.43218229  6.43218229
 


--------------------------------------------------------------------------------------------------------


 k-point  1 :  0.00000.00000.0000  plane waves:  29423
 k-point  2 :  0.08330.00000.0000  plane waves:  29347
 k-point  3 :  0.16670.00000.0000  plane waves:  29406
 k-point  4 :  0.25000.00000.0000  plane waves:  29422
 k-point  5 :  0.33330.00000.0000  plane waves:  29390
 k-point  6 :  0.41670.00000.0000  plane waves:  29414
 k-point  7 :  0.50000.00000.0000  plane waves:  29350
 k-point  8 :  0.00000.08330.0000  plane waves:  29347
 k-point  9 :  0.08330.08330.0000  plane waves:  29377
 k-point 10 :  0.16670.08330.0000  plane waves:  29371
 k-point 11 :  0.25000.08330.0000  plane waves:  29405
 k-point 12 :  0.33330.08330.0000  plane waves:  29418
 k-point 13 :  0.41670.08330.0000  plane waves:  29421
 k-point 14 :  0.50000.08330.0000  plane waves:  29406
 k-point 15 :  0.00000.16670.0000  plane waves:  29406
 k-point 16 :  0.08330.16670.0000  plane waves:  29371
 k-point 17 :  0.16670.16670.0000  plane waves:  29401
 k-point 18 :  0.25000.16670.0000  plane waves:  29397
 k-point 19 :  0.33330.16670.0000  plane waves:  29413
 k-point 20 :  0.41670.16670.0000  plane waves:  29439
 k-point 21 :  0.50000.16670.0000  plane waves:  29452
 k-point 22 :  0.00000.25000.0000  plane waves:  29422
 k-point 23 :  0.08330.25000.0000  plane waves:  29405
 k-point 24 :  0.16670.25000.0000  plane waves:  29397
 k-point 25 :  0.25000.25000.0000  plane waves:  29439
 k-point 26 :  0.33330.25000.0000  plane waves:  29448
 k-point 27 :  0.41670.25000.0000  plane waves:  29439
 k-point 28 :  0.50000.25000.0000  plane waves:  29398
 k-point 29 :  0.00000.33330.0000  plane waves:  29390
 k-point 30 :  0.08330.33330.0000  plane waves:  29418
 k-point 31 :  0.16670.33330.0000  plane waves:  29413
 k-point 32 :  0.25000.33330.0000  plane waves:  29448
 k-point 33 :  0.33330.33330.0000  plane waves:  29421
 k-point 34 :  0.41670.33330.0000  plane waves:  29409
 k-point 35 :  0.50000.33330.0000  plane waves:  29446
 k-point 36 :  0.00000.41670.0000  plane waves:  29414
 k-point 37 :  0.08330.41670.0000  plane waves:  29421
 k-point 38 :  0.16670.41670.0000  plane waves:  29439
 k-point 39 :  0.25000.41670.0000  plane waves:  29439
 k-point 40 :  0.33330.41670.0000  plane waves:  29409
 k-point 41 :  0.41670.41670.0000  plane waves:  29409
 k-point 42 :  0.50000.41670.0000  plane waves:  29438
 k-point 43 :  0.00000.50000.0000  plane waves:  29350
 k-point 44 :  0.08330.50000.0000  plane waves:  29406
 k-point 45 :  0.16670.50000.0000  plane waves:  29452
 k-point 46 :  0.25000.50000.0000  plane waves:  29398
 k-point 47 :  0.33330.50000.0000  plane waves:  29446
 k-point 48 :  0.41670.50000.0000  plane waves:  29438
 k-point 49 :  0.50000.50000.0000  plane waves:  29520
 k-point 50 :  0.00000.08330.0833  plane waves:  29377
 k-point 51 :  0.08330.08330.0833  plane waves:  29386
 k-point 52 :  0.16670.08330.0833  plane waves:  29376
 k-point 53 :  0.25000.08330.0833  plane waves:  29407
 k-point 54 :  0.33330.08330.0833  plane waves:  29428
 k-point 55 :  0.41670.08330.0833  plane waves:  29444
 k-point 56 :  0.50000.08330.0833  plane waves:  29414
 k-point 57 :  0.00000.16670.0833  plane waves:  29371
 k-point 58 :  0.08330.16670.0833  plane waves:  29376
 k-point 59 :  0.16670.16670.0833  plane waves:  29406
 k-point 60 :  0.25000.16670.0833  plane waves:  29410
 k-point 61 :  0.33330.16670.0833  plane waves:  29423
 k-point 62 :  0.41670.16670.0833  plane waves:  29438
 k-point 63 :  0.50000.16670.0833  plane waves:  29418
 k-point 64 :  0.00000.25000.0833  plane waves:  29405
 k-point 65 :  0.08330.25000.0833  plane waves:  29407
 k-point 66 :  0.16670.25000.0833  plane waves:  29410
 k-point 67 :  0.25000.25000.0833  plane waves:  29417
 k-point 68 :  0.33330.25000.0833  plane waves:  29423
 k-point 69 :  0.41670.25000.0833  plane waves:  29431
 k-point 70 :  0.50000.25000.0833  plane waves:  29412
 k-point 71 :  0.00000.33330.0833  plane waves:  29418
 k-point 72 :  0.08330.33330.0833  plane waves:  29428
 k-point 73 :  0.16670.33330.0833  plane waves:  29423
 k-point 74 :  0.25000.33330.0833  plane waves:  29423
 k-point 75 :  0.33330.33330.0833  plane waves:  29429
 k-point 76 :  0.41670.33330.0833  plane waves:  29415
 k-point 77 :  0.50000.33330.0833  plane waves:  29424
 k-point 78 :  0.00000.41670.0833  plane waves:  29421
 k-point 79 :  0.08330.41670.0833  plane waves:  29444
 k-point 80 :  0.16670.41670.0833  plane waves:  29438
 k-point 81 :  0.25000.41670.0833  plane waves:  29431
 k-point 82 :  0.33330.41670.0833  plane waves:  29415
 k-point 83 :  0.41670.41670.0833  plane waves:  29431
 k-point 84 :  0.50000.41670.0833  plane waves:  29442
 k-point 85 :  0.00000.50000.0833  plane waves:  29406
 k-point 86 :  0.08330.50000.0833  plane waves:  29414
 k-point 87 :  0.16670.50000.0833  plane waves:  29418
 k-point 88 :  0.25000.50000.0833  plane waves:  29412
 k-point 89 :  0.33330.50000.0833  plane waves:  29424
 k-point 90 :  0.41670.50000.0833  plane waves:  29442
 k-point 91 :  0.50000.50000.0833  plane waves:  29468
 k-point 92 :  0.00000.16670.1667  plane waves:  29401
 k-point 93 :  0.08330.16670.1667  plane waves:  29406
 k-point 94 :  0.16670.16670.1667  plane waves:  29395
 k-point 95 :  0.25000.16670.1667  plane waves:  29400
 k-point 96 :  0.33330.16670.1667  plane waves:  29413
 k-point 97 :  0.41670.16670.1667  plane waves:  29418
 k-point 98 :  0.50000.16670.1667  plane waves:  29374
 k-point 99 :  0.00000.25000.1667  plane waves:  29397
 k-point ** :  0.08330.25000.1667  plane waves:  29410
 k-point ** :  0.16670.25000.1667  plane waves:  29400
 k-point ** :  0.25000.25000.1667  plane waves:  29393
 k-point ** :  0.33330.25000.1667  plane waves:  29419
 k-point ** :  0.41670.25000.1667  plane waves:  29413
 k-point ** :  0.50000.25000.1667  plane waves:  29412
 k-point ** :  0.00000.33330.1667  plane waves:  29413
 k-point ** :  0.08330.33330.1667  plane waves:  29423
 k-point ** :  0.16670.33330.1667  plane waves:  29413
 k-point ** :  0.25000.33330.1667  plane waves:  29419
 k-point ** :  0.33330.33330.1667  plane waves:  29413
 k-point ** :  0.41670.33330.1667  plane waves:  29423
 k-point ** :  0.50000.33330.1667  plane waves:  29440
 k-point ** :  0.00000.41670.1667  plane waves:  29439
 k-point ** :  0.08330.41670.1667  plane waves:  29438
 k-point ** :  0.16670.41670.1667  plane waves:  29418
 k-point ** :  0.25000.41670.1667  plane waves:  29413
 k-point ** :  0.33330.41670.1667  plane waves:  29423
 k-point ** :  0.41670.41670.1667  plane waves:  29443
 k-point ** :  0.50000.41670.1667  plane waves:  29424
 k-point ** :  0.00000.50000.1667  plane waves:  29452
 k-point ** :  0.08330.50000.1667  plane waves:  29418
 k-point ** :  0.16670.50000.1667  plane waves:  29374
 k-point ** :  0.25000.50000.1667  plane waves:  29412
 k-point ** :  0.33330.50000.1667  plane waves:  29440
 k-point ** :  0.41670.50000.1667  plane waves:  29424
 k-point ** :  0.50000.50000.1667  plane waves:  29436
 k-point ** :  0.00000.25000.2500  plane waves:  29439
 k-point ** :  0.08330.25000.2500  plane waves:  29417
 k-point ** :  0.16670.25000.2500  plane waves:  29393
 k-point ** :  0.25000.25000.2500  plane waves:  29461
 k-point ** :  0.33330.25000.2500  plane waves:  29427
 k-point ** :  0.41670.25000.2500  plane waves:  29423
 k-point ** :  0.50000.25000.2500  plane waves:  29402
 k-point ** :  0.00000.33330.2500  plane waves:  29448
 k-point ** :  0.08330.33330.2500  plane waves:  29423
 k-point ** :  0.16670.33330.2500  plane waves:  29419
 k-point ** :  0.25000.33330.2500  plane waves:  29427
 k-point ** :  0.33330.33330.2500  plane waves:  29415
 k-point ** :  0.41670.33330.2500  plane waves:  29418
 k-point ** :  0.50000.33330.2500  plane waves:  29416
 k-point ** :  0.00000.41670.2500  plane waves:  29439
 k-point ** :  0.08330.41670.2500  plane waves:  29431
 k-point ** :  0.16670.41670.2500  plane waves:  29413
 k-point ** :  0.25000.41670.2500  plane waves:  29423
 k-point ** :  0.33330.41670.2500  plane waves:  29418
 k-point ** :  0.41670.41670.2500  plane waves:  29447
 k-point ** :  0.50000.41670.2500  plane waves:  29434
 k-point ** :  0.00000.50000.2500  plane waves:  29398
 k-point ** :  0.08330.50000.2500  plane waves:  29412
 k-point ** :  0.16670.50000.2500  plane waves:  29412
 k-point ** :  0.25000.50000.2500  plane waves:  29402
 k-point ** :  0.33330.50000.2500  plane waves:  29416
 k-point ** :  0.41670.50000.2500  plane waves:  29434
 k-point ** :  0.50000.50000.2500  plane waves:  29460
 k-point ** :  0.00000.33330.3333  plane waves:  29421
 k-point ** :  0.08330.33330.3333  plane waves:  29429
 k-point ** :  0.16670.33330.3333  plane waves:  29413
 k-point ** :  0.25000.33330.3333  plane waves:  29415
 k-point ** :  0.33330.33330.3333  plane waves:  29452
 k-point ** :  0.41670.33330.3333  plane waves:  29433
 k-point ** :  0.50000.33330.3333  plane waves:  29406
 k-point ** :  0.00000.41670.3333  plane waves:  29409
 k-point ** :  0.08330.41670.3333  plane waves:  29415
 k-point ** :  0.16670.41670.3333  plane waves:  29423
 k-point ** :  0.25000.41670.3333  plane waves:  29418
 k-point ** :  0.33330.41670.3333  plane waves:  29433
 k-point ** :  0.41670.41670.3333  plane waves:  29405
 k-point ** :  0.50000.41670.3333  plane waves:  29424
 k-point ** :  0.00000.50000.3333  plane waves:  29446
 k-point ** :  0.08330.50000.3333  plane waves:  29424
 k-point ** :  0.16670.50000.3333  plane waves:  29440
 k-point ** :  0.25000.50000.3333  plane waves:  29416
 k-point ** :  0.33330.50000.3333  plane waves:  29406
 k-point ** :  0.41670.50000.3333  plane waves:  29424
 k-point ** :  0.50000.50000.3333  plane waves:  29420
 k-point ** :  0.00000.41670.4167  plane waves:  29409
 k-point ** :  0.08330.41670.4167  plane waves:  29431
 k-point ** :  0.16670.41670.4167  plane waves:  29443
 k-point ** :  0.25000.41670.4167  plane waves:  29447
 k-point ** :  0.33330.41670.4167  plane waves:  29405
 k-point ** :  0.41670.41670.4167  plane waves:  29413
 k-point ** :  0.50000.41670.4167  plane waves:  29408
 k-point ** :  0.00000.50000.4167  plane waves:  29438
 k-point ** :  0.08330.50000.4167  plane waves:  29442
 k-point ** :  0.16670.50000.4167  plane waves:  29424
 k-point ** :  0.25000.50000.4167  plane waves:  29434
 k-point ** :  0.33330.50000.4167  plane waves:  29424
 k-point ** :  0.41670.50000.4167  plane waves:  29408
 k-point ** :  0.50000.50000.4167  plane waves:  29436
 k-point ** :  0.00000.50000.5000  plane waves:  29520
 k-point ** :  0.08330.50000.5000  plane waves:  29468
 k-point ** :  0.16670.50000.5000  plane waves:  29436
 k-point ** :  0.25000.50000.5000  plane waves:  29460
 k-point ** :  0.33330.50000.5000  plane waves:  29420
 k-point ** :  0.41670.50000.5000  plane waves:  29436
 k-point ** :  0.50000.50000.5000  plane waves:  29344

 maximum and minimum number of plane-waves per node :  29520 29344

 maximum number of plane-waves:  29520
 maximal index in each direction: 
   IXMAX= 19   IYMAX= 19   IZMAX= 19
   IXMIN=-19   IYMIN=-19   IZMIN=-19

 NGX is ok and might be reduce to  78
 NGY is ok and might be reduce to  78
 NGZ is ok and might be reduce to  78

 parallel 3dFFT wavefunction:
    minimum data exchange during FFTs selected (reduces bandwidth)
 parallel 3dFFT charge:
    minimum data exchange during FFTs selected (reduces bandwidth)

 For storing wavefunctions ******* MBYTES are necessary
 For predicting wavefunctions  214.11 MBYTES are necessary
Broyden mixing: mesh for mixing (old mesh)
   NGX = 39   NGY = 39   NGZ = 39
  (NGX  =160   NGY  =160   NGZ  =160)
 gives a total of  59319 points
 initial charge density was supplied:
 charge density of overlapping atoms calculated
 number of electron  352.0000000 magnetization 
 keeping initial charge density in first step


--------------------------------------------------------------------------------------------------------


 Maximum index for augmentation-charges        38775 (set IRDMAX)


--------------------------------------------------------------------------------------------------------


 First call to EWALD:  gamma=   0.207
 Maximum number of real-space cells 3x 3x 3
 Maximum number of reciprocal cells 3x 3x 3

    FEWALD:  VPU time    0.00: CPU time    0.00


----------------------------------------- Iteration    1(   1)  ---------------------------------------


    POTLOK:  VPU time    0.38: CPU time    0.38
    SETDIJ:  VPU time    0.56: CPU time    0.56
    EDDAV :  VPU time 1939.04: CPU time 1942.24
    DOS   :  VPU time   -0.00: CPU time   -0.00
    ------------------------------------------
      LOOP:  VPU time 1940.07: CPU time 1943.28

 eigenvalue-minimisations  : 84712
 total energy-change (2. order) : 0.4131133E+04  (-0.2105416E+05)
 number of electron  352.0000000 magnetization 
 augmentation part   352.0000000 magnetization 

 Free energy of the ion-electron system (eV)
  ---------------------------------------------------
  alpha Z        PSCENC =      2882.68482356
  Ewald energy   TEWEN  =    -29807.14681617
  -1/2 Hartree   DENC   =     -7207.59930620
  -V(xc)+E(xc)   XCENC  =      -354.12103459
  PAW double counting   =     27861.41421209   -26376.63839568
  entropy T*S    EENTRO =        -0.00046490
  eigenvalues    EBANDS =      3935.34303761
  atomic energy  EATOM  =     33197.19690173
  ---------------------------------------------------
  free energy    TOTEN  =      4131.13295744 eV

  energy without entropy =     4131.13342234  energy(sigma->0) =     4131.13318989


--------------------------------------------------------------------------------------------------------




----------------------------------------- Iteration    1(   2)  ---------------------------------------


    EDDAV :  VPU time 1936.23: CPU time 1939.71
    DOS   :  VPU time    0.00: CPU time   -0.00
    ------------------------------------------
      LOOP:  VPU time 1936.33: CPU time 1939.82

 eigenvalue-minimisations  : 84672
 total energy-change (2. order) :-0.4019397E+04  (-0.3830567E+04)
 number of electron  352.0000000 magnetization 
 augmentation part   352.0000000 magnetization 

 Free energy of the ion-electron system (eV)
  ---------------------------------------------------
  alpha Z        PSCENC =      2882.68482356
  Ewald energy   TEWEN  =    -29807.14681617
  -1/2 Hartree   DENC   =     -7207.59930620
  -V(xc)+E(xc)   XCENC  =      -354.12103459
  PAW double counting   =     27861.41421209   -26376.63839568
  entropy T*S    EENTRO =        -0.00046683
  eigenvalues    EBANDS =       -84.05415968
  atomic energy  EATOM  =     33197.19690173
  ---------------------------------------------------
  free energy    TOTEN  =       111.73575823 eV

  energy without entropy =      111.73622506  energy(sigma->0) =      111.73599165


--------------------------------------------------------------------------------------------------------




----------------------------------------- Iteration    1(   3)  ---------------------------------------


    EDDAV :  VPU time 2020.61: CPU time 2024.86
    DOS   :  VPU time    0.00: CPU time   -0.00
    ------------------------------------------
      LOOP:  VPU time 2020.71: CPU time 2024.96

 eigenvalue-minimisations  : 89408
 total energy-change (2. order) :-0.2033395E+03  (-0.1946025E+03)
 number of electron  352.0000000 magnetization 
 augmentation part   352.0000000 magnetization 

 Free energy of the ion-electron system (eV)
  ---------------------------------------------------
  alpha Z        PSCENC =      2882.68482356
  Ewald energy   TEWEN  =    -29807.14681617
  -1/2 Hartree   DENC   =     -7207.59930620
  -V(xc)+E(xc)   XCENC  =      -354.12103459
  PAW double counting   =     27861.41421209   -26376.63839568
  entropy T*S    EENTRO =        -0.00052969
  eigenvalues    EBANDS =      -287.39358321
  atomic energy  EATOM  =     33197.19690173
  ---------------------------------------------------
  free energy    TOTEN  =       -91.60372816 eV

  energy without entropy =      -91.60319847  energy(sigma->0) =      -91.60346332


--------------------------------------------------------------------------------------------------------




----------------------------------------- Iteration    1(   4)  ---------------------------------------


    EDDAV :  VPU time 2045.94: CPU time 2050.25
    DOS   :  VPU time    0.00: CPU time   -0.00
    ------------------------------------------
      LOOP:  VPU time 2046.04: CPU time 2050.35

 eigenvalue-minimisations  : 90968
 total energy-change (2. order) :-0.3915108E+01  (-0.3889588E+01)
 number of electron  352.0000000 magnetization 
 augmentation part   352.0000000 magnetization 

 Free energy of the ion-electron system (eV)
  ---------------------------------------------------
  alpha Z        PSCENC =      2882.68482356
  Ewald energy   TEWEN  =    -29807.14681617
  -1/2 Hartree   DENC   =     -7207.59930620
  -V(xc)+E(xc)   XCENC  =      -354.12103459
  PAW double counting   =     27861.41421209   -26376.63839568
  entropy T*S    EENTRO =        -0.00059471
  eigenvalues    EBANDS =      -291.30862624
  atomic energy  EATOM  =     33197.19690173
  ---------------------------------------------------
  free energy    TOTEN  =       -95.51883622 eV

  energy without entropy =      -95.51824151  energy(sigma->0) =      -95.51853886


--------------------------------------------------------------------------------------------------------




----------------------------------------- Iteration    1(   5)  ---------------------------------------


    EDDAV :  VPU time 2027.81: CPU time 2031.35
    DOS   :  VPU time    0.00: CPU time   -0.00
    CHARGE:  VPU time   62.33: CPU time   62.43
    MIXING:  VPU time    0.01: CPU time    0.01
    ------------------------------------------
      LOOP:  VPU time 2090.24: CPU time 2093.88

 eigenvalue-minimisations  : 89912
 total energy-change (2. order) :-0.2287964E-01  (-0.2285480E-01)
 number of electron  352.0000008 magnetization 
 augmentation part   163.9655803 magnetization 

 Broyden mixing:
  rms(total) = 0.14462E+01    rms(broyden)= 0.14462E+01
  rms(prec ) = 0.21784E+01
  weight for this iteration     100.00

 Free energy of the ion-electron system (eV)
  ---------------------------------------------------
  alpha Z        PSCENC =      2882.68482356
  Ewald energy   TEWEN  =    -29807.14681617
  -1/2 Hartree   DENC   =     -7207.59930620
  -V(xc)+E(xc)   XCENC  =      -354.12103459
  PAW double counting   =     27861.41421209   -26376.63839568
  entropy T*S    EENTRO =        -0.00059504
  eigenvalues    EBANDS =      -291.33150555
  atomic energy  EATOM  =     33197.19690173
  ---------------------------------------------------
  free energy    TOTEN  =       -95.54171585 eV

  energy without entropy =      -95.54112081  energy(sigma->0) =      -95.54141833


--------------------------------------------------------------------------------------------------------




----------------------------------------- Iteration    1(   6)  ---------------------------------------


    POTLOK:  VPU time    0.38: CPU time    0.38
    SETDIJ:  VPU time    0.56: CPU time    0.56
    EDDAV :  VPU time 2010.46: CPU time 2014.22
    DOS   :  VPU time    0.00: CPU time   -0.00
    CHARGE:  VPU time   62.80: CPU time   62.90
    MIXING:  VPU time    0.01: CPU time    0.01
    ------------------------------------------
      LOOP:  VPU time 2074.31: CPU time 2078.18

 eigenvalue-minimisations  : 88968
 total energy-change (2. order) : 0.6014589E+01  (-0.2389396E+01)
 number of electron  352.0000009 magnetization 
 augmentation part   169.1710866 magnetization 

 Broyden mixing:
  rms(total) = 0.26640E+00    rms(broyden)= 0.26640E+00
  rms(prec ) = 0.35396E+00
  weight for this iteration     100.00

 eigenvalues of (default mixing * dielectric matrix)
  average eigenvalue GAMMA=   1.0248
  1.0248

 Free energy of the ion-electron system (eV)
  ---------------------------------------------------
  alpha Z        PSCENC =      2882.68482356
  Ewald energy   TEWEN  =    -29807.14681617
  -1/2 Hartree   DENC   =     -6921.03198870
  -V(xc)+E(xc)   XCENC  =      -364.56072589
  PAW double counting   =     27416.48643483   -25950.54435147
  entropy T*S    EENTRO =        -0.00034273
  eigenvalues    EBANDS =      -542.61106154
  atomic energy  EATOM  =     33197.19690173
  ---------------------------------------------------
  free energy    TOTEN  =       -89.52712638 eV

  energy without entropy =      -89.52678365  energy(sigma->0) =      -89.52695502


--------------------------------------------------------------------------------------------------------




----------------------------------------- Iteration    1(   7)  ---------------------------------------


    POTLOK:  VPU time    0.37: CPU time    0.37
    SETDIJ:  VPU time    0.55: CPU time    0.55
    EDDAV :  VPU time 1996.83: CPU time 2000.35
    DOS   :  VPU time    0.00: CPU time   -0.00
    CHARGE:  VPU time   64.51: CPU time   64.61
    MIXING:  VPU time    0.01: CPU time    0.01
    ------------------------------------------
      LOOP:  VPU time 2062.37: CPU time 2066.00

 eigenvalue-minimisations  : 88184
 total energy-change (2. order) : 0.1045494E+00  (-0.4043350E-01)
 number of electron  352.0000009 magnetization 
 augmentation part   169.3499001 magnetization 

 Broyden mixing:
  rms(total) = 0.15160E+00    rms(broyden)= 0.15160E+00
  rms(prec ) = 0.19633E+00
  weight for this iteration     100.00

 eigenvalues of (default mixing * dielectric matrix)
  average eigenvalue GAMMA=   1.7319
  1.0222  2.4415

 Free energy of the ion-electron system (eV)
  ---------------------------------------------------
  alpha Z        PSCENC =      2882.68482356
  Ewald energy   TEWEN  =    -29807.14681617
  -1/2 Hartree   DENC   =     -6889.40115050
  -V(xc)+E(xc)   XCENC  =      -365.84222104
  PAW double counting   =     27467.08141192   -26016.99041965
  entropy T*S    EENTRO =        -0.00035654
  eigenvalues    EBANDS =      -557.00475024
  atomic energy  EATOM  =     33197.19690173
[...]
     72      -1.8734      2.00000
     73      -1.7318      2.00000
     74      -1.7315      2.00000
     75      -1.7304      2.00000
     76      -1.7304      2.00000
     77      -1.7303      2.00000
     78      -1.7303      2.00000
     79      -1.7292      2.00000
     80      -1.7289      2.00000
     81      -1.6132      2.00000
     82      -1.6132      2.00000
     83      -1.6121      2.00000
     84      -1.6120      2.00000
     85      -1.6109      2.00000
     86      -1.6108      2.00000
     87      -1.6108      2.00000
     88      -1.6108      2.00000
     89      -1.6108      2.00000
     90      -1.6107      2.00000
     91      -1.6106      2.00000
     92      -1.6106      2.00000
     93      -1.6106      2.00000
     94      -1.6106      2.00000
     95      -1.6105      2.00000
     96      -1.6105      2.00000
     97      -1.6105      2.00000
     98      -1.6105      2.00000
     99      -1.6105      2.00000
    100      -1.6104      2.00000
    101      -1.6093      2.00000
    102      -1.6091      2.00000
    103      -1.6081      2.00000
    104      -1.6081      2.00000
    105      -1.3782      2.00000
    106      -1.3773      2.00000
    107      -1.3773      2.00000
    108      -1.3759      2.00000
    109      -1.3758      2.00000
    110      -1.3758      2.00000
    111      -1.3758      2.00000
    112      -1.3756      2.00000
    113      -1.3755      2.00000
    114      -1.3755      2.00000
    115      -1.3755      2.00000
    116      -1.3755      2.00000
    117      -1.3754      2.00000
    118      -1.3754      2.00000
    119      -1.3754      2.00000
    120      -1.3754      2.00000
    121      -1.3753      2.00000
    122      -1.3751      2.00000
    123      -1.3751      2.00000
    124      -1.3751      2.00000
    125      -1.3749      2.00000
    126      -1.3735      2.00000
    127      -1.3735      2.00000
    128      -1.3727      2.00000
    129      -1.1334      2.00000
    130      -1.1324      2.00000
    131      -1.1324      2.00000
    132      -1.1324      2.00000
    133      -1.1317      2.00000
    134      -1.1317      2.00000
    135      -1.1316      2.00000
    136      -1.1315      2.00000
    137      -1.1314      2.00000
    138      -1.1314      2.00000
    139      -1.1312      2.00000
    140      -1.1312      2.00000
    141      -1.1305      2.00000
    142      -1.1305      2.00000
    143      -1.1305      2.00000
    144      -1.1295      2.00000
    145      -0.5760      2.00000
    146      -0.5760      2.00000
    147      -0.5759      2.00000
    148      -0.5758      2.00000
    149      -0.5757      2.00000
    150      -0.5757      2.00000
    151      -0.5757      2.00000
    152      -0.5757      2.00000
    153      -0.5756      2.00000
    154      -0.5756      2.00000
    155      -0.5756      2.00000
    156      -0.5755      2.00000
    157      -0.5754      2.00000
    158      -0.5754      2.00000
    159      -0.5754      2.00000
    160      -0.5753      2.00000
    161      -0.5753      2.00000
    162      -0.5753      2.00000
    163      -0.5753      2.00000
    164      -0.5752      2.00000
    165      -0.5752      2.00000
    166      -0.5751      2.00000
    167      -0.5749      2.00000
    168      -0.5749      2.00000
    169       3.1908      0.00000
    170       3.1930      0.00000
    171       3.1930      0.00000
    172       3.1952      0.00000
    173       3.1954      0.00000
    174       3.1956      0.00000
    175       3.1956      0.00000
    176       3.1957      0.00000
    177       3.1957      0.00000
    178       3.1957      0.00000
    179       3.1957      0.00000
    180       3.1957      0.00000
    181       3.1958      0.00000
    182       3.1959      0.00000
    183       3.1959      0.00000
    184       3.1959      0.00000
    185       3.1959      0.00000
    186       3.1960      0.00000
    187       3.1960      0.00000
    188       3.1962      0.00000
    189       3.1964      0.00000
    190       3.1985      0.00000
    191       3.1985      0.00000
    192       3.2008      0.00000
    193       7.8040      0.00000
    194       7.8040      0.00000
    195       7.8061      0.00000
    196       7.8076      0.00000
    197       7.8077      0.00000
    198       7.8081      0.00000
    199       7.8081      0.00000
    200       7.8084      0.00000
    201       7.8085      0.00000
    202       7.8085      0.00000
    203       7.8085      0.00000
    204       7.8085      0.00000
    205       7.8086      0.00000
    206       7.8086      0.00000
    207       7.8086      0.00000
    208       7.8087      0.00000
    209       7.8087      0.00000
    210       7.8090      0.00000
    211       7.8090      0.00000
    212       7.8094      0.00000
    213       7.8096      0.00000
    214       7.8111      0.00000
    215       7.8131      0.00000
    216       7.8131      0.00000


--------------------------------------------------------------------------------------------------------


 soft charge-density along one line, spin component           1
         0         1         2         3         4         5         6         7         8         9
 total charge-density along one line
 
 pseudopotential strength for first ion, spin component:           1
-12.461  -0.000   0.000  -0.000   0.000   0.186   0.000  -0.000
 -0.000 -12.461   0.000  -0.000   0.000   0.000   0.186  -0.000
  0.000   0.000 -12.452   0.000  -0.000  -0.000  -0.000   0.184
 -0.000  -0.000   0.000 -12.461  -0.000   0.000   0.000  -0.000
  0.000   0.000  -0.000  -0.000 -12.452  -0.000  -0.000   0.000
  0.186   0.000  -0.000   0.000  -0.000   0.447  -0.000   0.000
  0.000   0.186  -0.000   0.000  -0.000  -0.000   0.447   0.000
 -0.000  -0.000   0.184  -0.000   0.000   0.000   0.000   0.447
  0.000   0.000  -0.000   0.186   0.000  -0.000  -0.000   0.000
 -0.000  -0.000   0.000   0.000   0.184   0.000   0.000  -0.000
  0.000   0.000   0.000   0.000  -0.000  -0.000  -0.000  -0.000
 -0.000  -0.000  -0.000  -0.000   0.000   0.000   0.000   0.000
 -0.000  -0.000   0.000  -0.000  -0.000   0.000   0.000  -0.000
 -0.000  -0.000   0.000  -0.000  -0.000   0.000   0.000   0.000
 -0.000  -0.000   0.000  -0.000  -0.000   0.000   0.000  -0.000
  0.000   0.000  -0.000   0.000   0.000  -0.000  -0.000   0.000
  0.000  -0.000  -0.000   0.000   0.000  -0.000  -0.000   0.000
  0.000   0.000  -0.000   0.000   0.000  -0.000  -0.000   0.000
 total augmentation occupancy for first ion, spin component:           1
  1.941   0.000  -0.000  -0.000  -0.000  -0.031  -0.000  -0.000   0.000   0.000   0.003  -0.001   0.000   0.000   0.000  -0.000
  0.000   1.944  -0.001  -0.000  -0.001  -0.000  -0.034   0.001   0.000  -0.000   0.002  -0.001  -0.000   0.000  -0.000  -0.000
 -0.000  -0.001   1.967  -0.001  -0.002  -0.000   0.001  -0.058   0.001   0.002   0.012   0.001  -0.000  -0.000  -0.000  -0.000
 -0.000  -0.000  -0.001   1.946  -0.000   0.000   0.000   0.001  -0.036   0.001   0.002  -0.001   0.000   0.000  -0.000  -0.000
 -0.000  -0.001  -0.002  -0.000   1.960   0.000  -0.000   0.002   0.001  -0.053   0.007   0.000   0.000   0.000   0.000   0.000
 -0.031  -0.000  -0.000   0.000   0.000   0.056   0.000   0.001   0.000  -0.000  -0.000   0.001   0.001  -0.000  -0.000  -0.000
 -0.000  -0.034   0.001   0.000  -0.000   0.000   0.058  -0.002  -0.000   0.001   0.000   0.001   0.000  -0.000   0.000   0.000
 -0.000   0.001  -0.058   0.001   0.002   0.001  -0.002   0.050  -0.001  -0.001  -0.009   0.000   0.000   0.000  -0.000   0.000
  0.000   0.000   0.001  -0.036   0.001   0.000  -0.000  -0.001   0.060  -0.001   0.001   0.001  -0.000   0.001   0.000   0.000
  0.000  -0.000   0.002   0.001  -0.053  -0.000   0.001  -0.001  -0.001   0.047  -0.005   0.000  -0.000  -0.000   0.000   0.000
  0.003   0.002   0.012   0.002   0.007  -0.000   0.000  -0.009   0.001  -0.005   0.976  -0.303   0.000  -0.000   0.002  -0.000
 -0.001  -0.001   0.001  -0.001   0.000   0.001   0.001   0.000   0.001   0.000  -0.303   0.144   0.000   0.000  -0.001  -0.000
  0.000  -0.000  -0.000   0.000   0.000   0.001   0.000   0.000  -0.000  -0.000   0.000   0.000   0.087   0.000   0.002  -0.005
  0.000   0.000  -0.000   0.000   0.000  -0.000  -0.000   0.000   0.001  -0.000  -0.000   0.000   0.000   0.091  -0.001  -0.000
  0.000  -0.000  -0.000  -0.000   0.000  -0.000   0.000  -0.000   0.000   0.000   0.002  -0.001   0.002  -0.001   0.089  -0.000
 -0.000  -0.000  -0.000  -0.000   0.000  -0.000   0.000   0.000   0.000   0.000  -0.000  -0.000  -0.005  -0.000  -0.000   0.000
 -0.000  -0.000   0.000  -0.000   0.000   0.000   0.000  -0.000  -0.000   0.000   0.000   0.000  -0.000  -0.005  -0.000   0.000
  0.000  -0.000   0.000   0.000  -0.000  -0.000  -0.000   0.000  -0.000  -0.000  -0.000   0.000  -0.000  -0.000  -0.005   0.000


------------------------ aborting loop because EDIFF is reached ----------------------------------------




--------------------------------------------------------------------------------------------------------


    CHARGE:  VPU time   63.63: CPU time   63.73
    FORLOC:  VPU time    0.06: CPU time    0.06
    FORNL :  VPU time  393.48: CPU time  394.02
    STRESS:  VPU time 2361.31: CPU time 2365.04
    FORCOR:  VPU time    0.41: CPU time    0.41
    FORHAR:  VPU time    0.13: CPU time    0.13
    MIXING:  VPU time    0.01: CPU time    0.01


--------------------------------------------------------------------------------------------------------



  FREE ENERGIE OF THE ION-ELECTRON SYSTEM (eV)
  ---------------------------------------------------
  free  energy   TOTEN  =       -89.366879 eV

  energy  without entropy=      -89.366497  energy(sigma->0) =      -89.366688
 

  FORCE on cell =-STRESS in cart. coord.  units (eV/reduce length):
  Direction    X        Y        Z        XY       YZ       ZX
  --------------------------------------------------------------------------------------
  Alpha Z   2882.68   2882.68   2882.68
  Ewald    -9935.78  -9935.75  -9935.75      0.00      0.00      0.00
  Hartree   2284.65   2284.68   2284.68     -0.00     -0.00     -0.00
  E(xc)    -1854.43  -1854.43  -1854.43     -0.00     -0.00     -0.00
  Local     3060.76   3060.70   3060.70     -0.00     -0.00      0.00
  n-local  -2147.13  -2150.73  -2143.54      1.51      0.84      0.16
  augment   1337.89   1337.89   1337.89     -0.00     -0.00     -0.00
  Kinetic   4347.47   4341.48   4353.47      0.75     -0.61     -1.98
  -------------------------------------------------------------------------------------
  Total      -23.89    -23.89    -23.89     -0.00      0.00      0.00
  in kB      -60.68    -60.68    -60.68     -0.00      0.00      0.00
  external pressure =      -60.68 kB  Pullay stress =        0.00 kB


 VOLUME and BASIS-vectors are now :
 -----------------------------------------------------------------------------
  energy-cutoff  :      750.00
  volume of cell :      630.80
      direct lattice vectors                 reciprocal lattice vectors
     8.576243050  0.000000000  0.000000000     0.116601173  0.000000000  0.000000000
     0.000000000  8.576243050  0.000000000     0.000000000  0.116601173  0.000000000
     0.000000000  0.000000000  8.576243050     0.000000000  0.000000000  0.116601173

  length of vectors
     8.576243050  8.576243050  8.576243050     0.116601173  0.116601173  0.116601173


 FORCES acting on ions
    electron-ion (+dipol)            ewald-force                    non-local-force                 convergence-correction
 -----------------------------------------------------------------------------------------------
   0.359E+01 0.626E-13 0.714E-07   -.359E+01 0.711E-13 -.142E-13   -.318E-01 0.381E-19 -.830E-20   -.200E-04 0.696E-13 -.119E-12
   -.938E+00 0.225E-12 -.714E-07   0.947E+00 0.426E-13 -.142E-13   -.743E-02 -.698E-21 -.115E-20   0.133E-05 0.657E-13 -.214E-12
   0.299E+00 -.111E-12 -.364E-10   -.300E+00 0.639E-13 -.711E-14   0.961E-03 -.758E-21 0.256E-20   -.133E-05 -.241E-12 -.637E-13
   -.239E+00 0.892E-12 -.362E-10   0.235E+00 0.711E-13 -.142E-13   0.315E-02 -.281E-20 -.155E-20   0.292E-06 -.239E-12 -.105E-12
   0.299E+00 0.574E-13 -.923E-10   -.300E+00 0.462E-13 0.249E-13   0.961E-03 -.226E-20 -.619E-21   -.903E-06 0.715E-13 -.118E-13
   -.239E+00 0.750E-14 -.910E-10   0.235E+00 0.426E-13 0.284E-13   0.315E-02 -.853E-21 -.205E-20   0.208E-06 0.696E-13 0.581E-13
   0.125E+00 -.104E-12 0.509E-10   -.124E+00 0.639E-13 0.355E-13   -.127E-02 -.576E-20 0.123E-20   0.752E-06 -.247E-12 -.860E-13
   -.116E+00 -.664E-11 0.527E-10   0.116E+00 0.711E-13 0.426E-13   -.110E-03 -.279E-21 0.417E-22   0.102E-05 -.244E-12 -.627E-13
   -.457E+00 -.874E+00 -.128E-10   0.455E+00 0.874E+00 0.995E-13   0.504E-02 0.396E-02 -.101E-20   0.323E-05 0.428E-05 -.154E-12
   -.459E+00 0.867E+00 -.213E-10   0.458E+00 -.867E+00 0.426E-13   0.503E-02 -.394E-02 0.340E-20   0.586E-05 -.568E-05 -.123E-12
   -.457E+00 0.874E+00 -.130E-10   0.455E+00 -.874E+00 -.284E-13   0.504E-02 -.396E-02 0.132E-20   0.323E-05 -.428E-05 -.114E-12
   -.459E+00 -.867E+00 -.544E-11   0.458E+00 0.867E+00 -.284E-13   0.503E-02 0.394E-02 -.349E-20   0.586E-05 0.568E-05 -.983E-13
   -.126E-01 -.720E-01 0.914E-11   0.139E-01 0.718E-01 0.284E-13   -.101E-02 0.179E-03 -.163E-20   -.171E-05 -.871E-07 0.231E-13
   -.140E-01 0.719E-01 0.970E-11   0.152E-01 -.717E-01 0.142E-13   -.101E-02 -.182E-03 -.272E-21   0.741E-06 -.608E-06 -.289E-13
   -.126E-01 0.720E-01 0.936E-11   0.139E-01 -.718E-01 0.426E-13   -.101E-02 -.179E-03 -.170E-20   -.171E-05 0.871E-07 -.326E-13
   -.140E-01 -.719E-01 -.602E-11   0.152E-01 0.717E-01 0.426E-13   -.101E-02 0.182E-03 0.192E-20   0.741E-06 0.608E-06 -.649E-13
   -.457E+00 0.290E-13 -.874E+00   0.455E+00 0.497E-13 0.874E+00   0.504E-02 -.242E-20 0.396E-02   0.315E-05 0.299E-13 0.434E-05
   -.459E+00 0.379E-13 0.867E+00   0.458E+00 0.497E-13 -.867E+00   0.503E-02 0.545E-20 -.394E-02   0.578E-05 0.710E-13 -.575E-05
   -.126E-01 0.799E-12 -.720E-01   0.139E-01 0.639E-13 0.718E-01   -.101E-02 0.533E-21 0.179E-03   -.168E-05 -.209E-12 -.199E-07
   -.140E-01 0.928E-11 0.719E-01   0.152E-01 0.639E-13 -.717E-01   -.101E-02 0.943E-21 -.182E-03   0.762E-06 -.242E-12 -.675E-06
   -.457E+00 0.104E-12 0.874E+00   0.455E+00 0.426E-13 -.874E+00   0.504E-02 0.671E-21 -.396E-02   0.315E-05 0.783E-13 -.434E-05
   -.459E+00 0.655E-13 -.867E+00   0.458E+00 0.426E-13 0.867E+00   0.503E-02 -.234E-20 0.394E-02   0.578E-05 0.993E-13 0.575E-05
   -.126E-01 0.115E-11 0.720E-01   0.139E-01 0.568E-13 -.718E-01   -.101E-02 0.222E-21 -.179E-03   -.168E-05 -.256E-12 0.199E-07
   -.140E-01 -.706E-11 -.719E-01   0.152E-01 0.568E-13 0.717E-01   -.101E-02 -.754E-21 0.182E-03   0.762E-06 -.271E-12 0.675E-06
   0.564E+00 0.208E-02 0.208E-02   -.565E+00 -.207E-02 -.207E-02   0.111E-02 -.112E-04 -.112E-04   -.323E-05 -.614E-06 -.614E-06
   -.316E+00 -.608E-03 -.608E-03   0.318E+00 0.621E-03 0.621E-03   -.107E-02 -.107E-04 -.107E-04   -.122E-06 -.512E-06 -.511E-06
   0.564E+00 -.208E-02 0.208E-02   -.565E+00 0.207E-02 -.207E-02   0.111E-02 0.112E-04 -.112E-04   -.323E-05 0.614E-06 -.614E-06
   -.316E+00 0.608E-03 -.608E-03   0.318E+00 -.621E-03 0.621E-03   -.107E-02 0.107E-04 -.107E-04   -.122E-06 0.512E-06 -.511E-06
   0.564E+00 0.208E-02 -.208E-02   -.565E+00 -.207E-02 0.207E-02   0.111E-02 -.112E-04 0.112E-04   -.323E-05 -.614E-06 0.614E-06
   -.316E+00 -.608E-03 0.608E-03   0.318E+00 0.621E-03 -.621E-03   -.107E-02 -.107E-04 0.107E-04   -.122E-06 -.512E-06 0.511E-06
   0.564E+00 -.208E-02 -.208E-02   -.565E+00 0.207E-02 0.207E-02   0.111E-02 0.112E-04 0.112E-04   -.323E-05 0.614E-06 0.614E-06
   -.316E+00 0.608E-03 0.608E-03   0.318E+00 -.621E-03 -.621E-03   -.107E-02 0.107E-04 0.107E-04   -.122E-06 0.512E-06 0.511E-06
 -----------------------------------------------------------------------------------------------
   0.151E-06 0.121E-11 -.731E-10   0.175E-13 0.115E-12 -.637E-13   -.447E-06 0.832E-18 -.114E-18   0.177E-06 -.817E-12 -.352E-12
 
 
 POSITION                                       TOTAL-FORCE (eV/Angst)
 -----------------------------------------------------------------------------------
      0.01000      0.00000      0.00000        -0.026936      0.000000     -0.000000
      4.28812      0.00000      0.00000         0.001016      0.000000      0.000000
      0.00000      4.28812      0.00000        -0.000289     -0.000000      0.000000
      4.28812      4.28812      0.00000        -0.000453     -0.000000     -0.000000
      0.00000      0.00000      4.28812        -0.000289     -0.000000     -0.000000
      4.28812      0.00000      4.28812        -0.000453     -0.000000     -0.000000
      0.00000      4.28812      4.28812        -0.000015      0.000000     -0.000000
      4.28812      4.28812      4.28812        -0.000149     -0.000000     -0.000000
      2.14406      2.14406      0.00000         0.003304      0.003862     -0.000000
      6.43218      2.14406      0.00000         0.003175     -0.003694      0.000000
      2.14406      6.43218      0.00000         0.003304     -0.003862     -0.000000
      6.43218      6.43218      0.00000         0.003175      0.003694     -0.000000
      2.14406      2.14406      4.28812         0.000229      0.000061     -0.000000
      6.43218      2.14406      4.28812         0.000228     -0.000061     -0.000000
      2.14406      6.43218      4.28812         0.000229     -0.000061     -0.000000
      6.43218      6.43218      4.28812         0.000228      0.000061      0.000000
      2.14406      0.00000      2.14406         0.003304      0.000000      0.003862
      6.43218      0.00000      2.14406         0.003175      0.000000     -0.003694
      2.14406      4.28812      2.14406         0.000229     -0.000000      0.000061
      6.43218      4.28812      2.14406         0.000228     -0.000000     -0.000061
      2.14406      0.00000      6.43218         0.003304     -0.000000     -0.003862
      6.43218      0.00000      6.43218         0.003175     -0.000000      0.003694
      2.14406      4.28812      6.43218         0.000229     -0.000000     -0.000061
      6.43218      4.28812      6.43218         0.000228      0.000000      0.000061
      0.00000      2.14406      2.14406        -0.000597     -0.000004     -0.000004
      4.28812      2.14406      2.14406         0.000555      0.000002      0.000002
      0.00000      6.43218      2.14406        -0.000597      0.000004     -0.000004
      4.28812      6.43218      2.14406         0.000555     -0.000002      0.000002
      0.00000      2.14406      6.43218        -0.000597     -0.000004      0.000004
      4.28812      2.14406      6.43218         0.000555      0.000002     -0.000002
      0.00000      6.43218      6.43218        -0.000597      0.000004      0.000004
      4.28812      6.43218      6.43218         0.000555     -0.000002     -0.000002
 -----------------------------------------------------------------------------------
    total drift:                               -0.000000      0.000000     -0.000000


--------------------------------------------------------------------------------------------------------



 mean value of Nose-termostat <S>:     1.000 mean value of <T> :     0.000
 mean temperature <T/S>/<1/S>  :     0.000

     LOOP+:  VPU time33227.62: CPU time33287.58
  
  
 General timing and accounting informations for this job:
 ========================================================
  
                  Total CPU time used (sec):    33565.033
                            User time (sec):    33127.531
                          System time (sec):      437.502
                         Elapsed time (sec):    33625.853
  
                   Maximum memory used (kb):     8592236.
                   Average memory used (kb):           0.
  
                          Minor page faults:      1137092
                          Major page faults:            5
                 Voluntary context switches:         1160
