<?xml version="1.0" encoding="ISO-8859-1"?>
<modeling>
 <generator>
  <i name="program" type="string">vasp</i>
  <i name="version" type="string">4.6.28 </i>
  <i name="subversion" type="string">25Jul05 complex  parallel</i>
  <i name="platform" type="string">LinuxIFC</i>
  <i name="date" type="string">2017 01 11</i>
  <i name="time" type="string">10:50:59</i>
 </generator>
 <incar>
  <i type="string" name="PREC">accurate</i>
  <i type="int" name="IALGO">    38</i>
  <i type="logical" name="ADDGRID"> T  </i>
  <i name="EDIFF">      0.00000001</i>
  <i type="int" name="IBRION">    -1</i>
  <i name="ENCUT">    750.00000000</i>
  <i type="logical" name="LREAL"> F  </i>
  <i type="int" name="ISMEAR">     0</i>
  <i name="SIGMA">      0.01000000</i>
  <i type="logical" name="LWAVE"> F  </i>
  <i type="logical" name="LCHARG"> F  </i>
 </incar>
 <kpoints>
  <generation param="Gamma">
   <v type="int" name="divisions">      12      12      12</v>
   <v name="usershift">      0.00000000      0.00000000      0.00000000</v>
   <v name="genvec1">      0.08333333      0.00000000      0.00000000</v>
   <v name="genvec2">      0.00000000      0.08333333      0.00000000</v>
   <v name="genvec3">      0.00000000      0.00000000      0.08333333</v>
   <v name="shift">      0.00000000      0.00000000      0.00000000</v>
  </generation>
  <varray name="kpointlist" >
   <v>       0.00000000      0.00000000      0.00000000</v>
   <v>       0.08333333      0.00000000      0.00000000</v>
   <v>       0.16666667      0.00000000      0.00000000</v>
   <v>       0.25000000      0.00000000      0.00000000</v>
   <v>       0.33333333      0.00000000      0.00000000</v>
   <v>       0.41666667      0.00000000      0.00000000</v>
   <v>       0.50000000      0.00000000      0.00000000</v>
   <v>       0.00000000      0.08333333      0.00000000</v>
   <v>       0.08333333      0.08333333      0.00000000</v>
   <v>       0.16666667      0.08333333      0.00000000</v>
   <v>       0.25000000      0.08333333      0.00000000</v>
   <v>       0.33333333      0.08333333      0.00000000</v>
   <v>       0.41666667      0.08333333      0.00000000</v>
   <v>       0.50000000      0.08333333      0.00000000</v>
   <v>       0.00000000      0.16666667      0.00000000</v>
   <v>       0.08333333      0.16666667      0.00000000</v>
   <v>       0.16666667      0.16666667      0.00000000</v>
   <v>       0.25000000      0.16666667      0.00000000</v>
   <v>       0.33333333      0.16666667      0.00000000</v>
   <v>       0.41666667      0.16666667      0.00000000</v>
   <v>       0.50000000      0.16666667      0.00000000</v>
   <v>       0.00000000      0.25000000      0.00000000</v>
   <v>       0.08333333      0.25000000      0.00000000</v>
   <v>       0.16666667      0.25000000      0.00000000</v>
   <v>       0.25000000      0.25000000      0.00000000</v>
   <v>       0.33333333      0.25000000      0.00000000</v>
   <v>       0.41666667      0.25000000      0.00000000</v>
   <v>       0.50000000      0.25000000      0.00000000</v>
   <v>       0.00000000      0.33333333      0.00000000</v>
   <v>       0.08333333      0.33333333      0.00000000</v>
   <v>       0.16666667      0.33333333      0.00000000</v>
   <v>       0.25000000      0.33333333      0.00000000</v>
   <v>       0.33333333      0.33333333      0.00000000</v>
   <v>       0.41666667      0.33333333      0.00000000</v>
   <v>       0.50000000      0.33333333      0.00000000</v>
   <v>       0.00000000      0.41666667      0.00000000</v>
   <v>       0.08333333      0.41666667      0.00000000</v>
   <v>       0.16666667      0.41666667      0.00000000</v>
   <v>       0.25000000      0.41666667      0.00000000</v>
   <v>       0.33333333      0.41666667      0.00000000</v>
   <v>       0.41666667      0.41666667      0.00000000</v>
   <v>       0.50000000      0.41666667      0.00000000</v>
   <v>       0.00000000      0.50000000      0.00000000</v>
   <v>       0.08333333      0.50000000      0.00000000</v>
   <v>       0.16666667      0.50000000      0.00000000</v>
   <v>       0.25000000      0.50000000      0.00000000</v>
   <v>       0.33333333      0.50000000      0.00000000</v>
   <v>       0.41666667      0.50000000      0.00000000</v>
   <v>       0.50000000      0.50000000      0.00000000</v>
   <v>       0.00000000      0.08333333      0.08333333</v>
   <v>       0.08333333      0.08333333      0.08333333</v>
   <v>       0.16666667      0.08333333      0.08333333</v>
   <v>       0.25000000      0.08333333      0.08333333</v>
   <v>       0.33333333      0.08333333      0.08333333</v>
   <v>       0.41666667      0.08333333      0.08333333</v>
   <v>       0.50000000      0.08333333      0.08333333</v>
   <v>       0.00000000      0.16666667      0.08333333</v>
   <v>       0.08333333      0.16666667      0.08333333</v>
   <v>       0.16666667      0.16666667      0.08333333</v>
   <v>       0.25000000      0.16666667      0.08333333</v>
   <v>       0.33333333      0.16666667      0.08333333</v>
   <v>       0.41666667      0.16666667      0.08333333</v>
   <v>       0.50000000      0.16666667      0.08333333</v>
   <v>       0.00000000      0.25000000      0.08333333</v>
   <v>       0.08333333      0.25000000      0.08333333</v>
   <v>       0.16666667      0.25000000      0.08333333</v>
   <v>       0.25000000      0.25000000      0.08333333</v>
   <v>       0.33333333      0.25000000      0.08333333</v>
   <v>       0.41666667      0.25000000      0.08333333</v>
   <v>       0.50000000      0.25000000      0.08333333</v>
   <v>       0.00000000      0.33333333      0.08333333</v>
   <v>       0.08333333      0.33333333      0.08333333</v>
   <v>       0.16666667      0.33333333      0.08333333</v>
   <v>       0.25000000      0.33333333      0.08333333</v>
   <v>       0.33333333      0.33333333      0.08333333</v>
   <v>       0.41666667      0.33333333      0.08333333</v>
   <v>       0.50000000      0.33333333      0.08333333</v>
   <v>       0.00000000      0.41666667      0.08333333</v>
   <v>       0.08333333      0.41666667      0.08333333</v>
   <v>       0.16666667      0.41666667      0.08333333</v>
   <v>       0.25000000      0.41666667      0.08333333</v>
   <v>       0.33333333      0.41666667      0.08333333</v>
   <v>       0.41666667      0.41666667      0.08333333</v>
   <v>       0.50000000      0.41666667      0.08333333</v>
   <v>       0.00000000      0.50000000      0.08333333</v>
   <v>       0.08333333      0.50000000      0.08333333</v>
   <v>       0.16666667      0.50000000      0.08333333</v>
   <v>       0.25000000      0.50000000      0.08333333</v>
   <v>       0.33333333      0.50000000      0.08333333</v>
   <v>       0.41666667      0.50000000      0.08333333</v>
   <v>       0.50000000      0.50000000      0.08333333</v>
   <v>       0.00000000      0.16666667      0.16666667</v>
   <v>       0.08333333      0.16666667      0.16666667</v>
   <v>       0.16666667      0.16666667      0.16666667</v>
   <v>       0.25000000      0.16666667      0.16666667</v>
   <v>       0.33333333      0.16666667      0.16666667</v>
   <v>       0.41666667      0.16666667      0.16666667</v>
   <v>       0.50000000      0.16666667      0.16666667</v>
   <v>       0.00000000      0.25000000      0.16666667</v>
   <v>       0.08333333      0.25000000      0.16666667</v>
   <v>       0.16666667      0.25000000      0.16666667</v>
   <v>       0.25000000      0.25000000      0.16666667</v>
   <v>       0.33333333      0.25000000      0.16666667</v>
   <v>       0.41666667      0.25000000      0.16666667</v>
   <v>       0.50000000      0.25000000      0.16666667</v>
   <v>       0.00000000      0.33333333      0.16666667</v>
   <v>       0.08333333      0.33333333      0.16666667</v>
   <v>       0.16666667      0.33333333      0.16666667</v>
   <v>       0.25000000      0.33333333      0.16666667</v>
   <v>       0.33333333      0.33333333      0.16666667</v>
   <v>       0.41666667      0.33333333      0.16666667</v>
   <v>       0.50000000      0.33333333      0.16666667</v>
   <v>       0.00000000      0.41666667      0.16666667</v>
   <v>       0.08333333      0.41666667      0.16666667</v>
   <v>       0.16666667      0.41666667      0.16666667</v>
   <v>       0.25000000      0.41666667      0.16666667</v>
   <v>       0.33333333      0.41666667      0.16666667</v>
   <v>       0.41666667      0.41666667      0.16666667</v>
   <v>       0.50000000      0.41666667      0.16666667</v>
   <v>       0.00000000      0.50000000      0.16666667</v>
   <v>       0.08333333      0.50000000      0.16666667</v>
   <v>       0.16666667      0.50000000      0.16666667</v>
   <v>       0.25000000      0.50000000      0.16666667</v>
   <v>       0.33333333      0.50000000      0.16666667</v>
   <v>       0.41666667      0.50000000      0.16666667</v>
   <v>       0.50000000      0.50000000      0.16666667</v>
   <v>       0.00000000      0.25000000      0.25000000</v>
   <v>       0.08333333      0.25000000      0.25000000</v>
   <v>       0.16666667      0.25000000      0.25000000</v>
   <v>       0.25000000      0.25000000      0.25000000</v>
   <v>       0.33333333      0.25000000      0.25000000</v>
   <v>       0.41666667      0.25000000      0.25000000</v>
   <v>       0.50000000      0.25000000      0.25000000</v>
   <v>       0.00000000      0.33333333      0.25000000</v>
   <v>       0.08333333      0.33333333      0.25000000</v>
   <v>       0.16666667      0.33333333      0.25000000</v>
   <v>       0.25000000      0.33333333      0.25000000</v>
   <v>       0.33333333      0.33333333      0.25000000</v>
   <v>       0.41666667      0.33333333      0.25000000</v>
   <v>       0.50000000      0.33333333      0.25000000</v>
   <v>       0.00000000      0.41666667      0.25000000</v>
   <v>       0.08333333      0.41666667      0.25000000</v>
   <v>       0.16666667      0.41666667      0.25000000</v>
   <v>       0.25000000      0.41666667      0.25000000</v>
   <v>       0.33333333      0.41666667      0.25000000</v>
   <v>       0.41666667      0.41666667      0.25000000</v>
   <v>       0.50000000      0.41666667      0.25000000</v>
   <v>       0.00000000      0.50000000      0.25000000</v>
   <v>       0.08333333      0.50000000      0.25000000</v>
   <v>       0.16666667      0.50000000      0.25000000</v>
   <v>       0.25000000      0.50000000      0.25000000</v>
   <v>       0.33333333      0.50000000      0.25000000</v>
   <v>       0.41666667      0.50000000      0.25000000</v>
   <v>       0.50000000      0.50000000      0.25000000</v>
   <v>       0.00000000      0.33333333      0.33333333</v>
   <v>       0.08333333      0.33333333      0.33333333</v>
   <v>       0.16666667      0.33333333      0.33333333</v>
   <v>       0.25000000      0.33333333      0.33333333</v>
   <v>       0.33333333      0.33333333      0.33333333</v>
   <v>       0.41666667      0.33333333      0.33333333</v>
   <v>       0.50000000      0.33333333      0.33333333</v>
   <v>       0.00000000      0.41666667      0.33333333</v>
   <v>       0.08333333      0.41666667      0.33333333</v>
   <v>       0.16666667      0.41666667      0.33333333</v>
   <v>       0.25000000      0.41666667      0.33333333</v>
   <v>       0.33333333      0.41666667      0.33333333</v>
   <v>       0.41666667      0.41666667      0.33333333</v>
   <v>       0.50000000      0.41666667      0.33333333</v>
   <v>       0.00000000      0.50000000      0.33333333</v>
   <v>       0.08333333      0.50000000      0.33333333</v>
   <v>       0.16666667      0.50000000      0.33333333</v>
   <v>       0.25000000      0.50000000      0.33333333</v>
   <v>       0.33333333      0.50000000      0.33333333</v>
   <v>       0.41666667      0.50000000      0.33333333</v>
   <v>       0.50000000      0.50000000      0.33333333</v>
   <v>       0.00000000      0.41666667      0.41666667</v>
   <v>       0.08333333      0.41666667      0.41666667</v>
   <v>       0.16666667      0.41666667      0.41666667</v>
   <v>       0.25000000      0.41666667      0.41666667</v>
   <v>       0.33333333      0.41666667      0.41666667</v>
   <v>       0.41666667      0.41666667      0.41666667</v>
   <v>       0.50000000      0.41666667      0.41666667</v>
   <v>       0.00000000      0.50000000      0.41666667</v>
   <v>       0.08333333      0.50000000      0.41666667</v>
   <v>       0.16666667      0.50000000      0.41666667</v>
   <v>       0.25000000      0.50000000      0.41666667</v>
   <v>       0.33333333      0.50000000      0.41666667</v>
   <v>       0.41666667      0.50000000      0.41666667</v>
   <v>       0.50000000      0.50000000      0.41666667</v>
   <v>       0.00000000      0.50000000      0.50000000</v>
   <v>       0.08333333      0.50000000      0.50000000</v>
   <v>       0.16666667      0.50000000      0.50000000</v>
   <v>       0.25000000      0.50000000      0.50000000</v>
   <v>       0.33333333      0.50000000      0.50000000</v>
   <v>       0.41666667      0.50000000      0.50000000</v>
   <v>       0.50000000      0.50000000      0.50000000</v>
  </varray>
  <varray name="weights" >
   <v>       0.00057870</v>
   <v>       0.00115741</v>
   <v>       0.00115741</v>
   <v>       0.00115741</v>
   <v>       0.00115741</v>
   <v>       0.00115741</v>
   <v>       0.00057870</v>
   <v>       0.00231481</v>
   <v>       0.00462963</v>
   <v>       0.00462963</v>
   <v>       0.00462963</v>
   <v>       0.00462963</v>
   <v>       0.00462963</v>
   <v>       0.00231481</v>
   <v>       0.00231481</v>
   <v>       0.00462963</v>
   <v>       0.00462963</v>
   <v>       0.00462963</v>
   <v>       0.00462963</v>
   <v>       0.00462963</v>
   <v>       0.00231481</v>
   <v>       0.00231481</v>
   <v>       0.00462963</v>
   <v>       0.00462963</v>
   <v>       0.00462963</v>
   <v>       0.00462963</v>
   <v>       0.00462963</v>
   <v>       0.00231481</v>
   <v>       0.00231481</v>
   <v>       0.00462963</v>
   <v>       0.00462963</v>
   <v>       0.00462963</v>
   <v>       0.00462963</v>
   <v>       0.00462963</v>
   <v>       0.00231481</v>
   <v>       0.00231481</v>
   <v>       0.00462963</v>
   <v>       0.00462963</v>
   <v>       0.00462963</v>
   <v>       0.00462963</v>
   <v>       0.00462963</v>
   <v>       0.00231481</v>
   <v>       0.00115741</v>
   <v>       0.00231481</v>
   <v>       0.00231481</v>
   <v>       0.00231481</v>
   <v>       0.00231481</v>
   <v>       0.00231481</v>
   <v>       0.00115741</v>
   <v>       0.00231481</v>
   <v>       0.00462963</v>
   <v>       0.00462963</v>
   <v>       0.00462963</v>
   <v>       0.00462963</v>
   <v>       0.00462963</v>
   <v>       0.00231481</v>
   <v>       0.00462963</v>
   <v>       0.00925926</v>
   <v>       0.00925926</v>
   <v>       0.00925926</v>
   <v>       0.00925926</v>
   <v>       0.00925926</v>
   <v>       0.00462963</v>
   <v>       0.00462963</v>
   <v>       0.00925926</v>
   <v>       0.00925926</v>
   <v>       0.00925926</v>
   <v>       0.00925926</v>
   <v>       0.00925926</v>
   <v>       0.00462963</v>
   <v>       0.00462963</v>
   <v>       0.00925926</v>
   <v>       0.00925926</v>
   <v>       0.00925926</v>
   <v>       0.00925926</v>
   <v>       0.00925926</v>
   <v>       0.00462963</v>
   <v>       0.00462963</v>
   <v>       0.00925926</v>
   <v>       0.00925926</v>
   <v>       0.00925926</v>
   <v>       0.00925926</v>
   <v>       0.00925926</v>
   <v>       0.00462963</v>
   <v>       0.00231481</v>
   <v>       0.00462963</v>
   <v>       0.00462963</v>
   <v>       0.00462963</v>
   <v>       0.00462963</v>
   <v>       0.00462963</v>
   <v>       0.00231481</v>
   <v>       0.00231481</v>
   <v>       0.00462963</v>
   <v>       0.00462963</v>
   <v>       0.00462963</v>
   <v>       0.00462963</v>
   <v>       0.00462963</v>
   <v>       0.00231481</v>
   <v>       0.00462963</v>
   <v>       0.00925926</v>
   <v>       0.00925926</v>
   <v>       0.00925926</v>
   <v>       0.00925926</v>
   <v>       0.00925926</v>
   <v>       0.00462963</v>
   <v>       0.00462963</v>
   <v>       0.00925926</v>
   <v>       0.00925926</v>
   <v>       0.00925926</v>
   <v>       0.00925926</v>
   <v>       0.00925926</v>
   <v>       0.00462963</v>
   <v>       0.00462963</v>
   <v>       0.00925926</v>
   <v>       0.00925926</v>
   <v>       0.00925926</v>
   <v>       0.00925926</v>
   <v>       0.00925926</v>
   <v>       0.00462963</v>
   <v>       0.00231481</v>
   <v>       0.00462963</v>
   <v>       0.00462963</v>
   <v>       0.00462963</v>
   <v>       0.00462963</v>
   <v>       0.00462963</v>
   <v>       0.00231481</v>
   <v>       0.00231481</v>
   <v>       0.00462963</v>
   <v>       0.00462963</v>
   <v>       0.00462963</v>
   <v>       0.00462963</v>
   <v>       0.00462963</v>
   <v>       0.00231481</v>
   <v>       0.00462963</v>
   <v>       0.00925926</v>
   <v>       0.00925926</v>
   <v>       0.00925926</v>
   <v>       0.00925926</v>
   <v>       0.00925926</v>
   <v>       0.00462963</v>
   <v>       0.00462963</v>
   <v>       0.00925926</v>
   <v>       0.00925926</v>
   <v>       0.00925926</v>
   <v>       0.00925926</v>
   <v>       0.00925926</v>
   <v>       0.00462963</v>
   <v>       0.00231481</v>
   <v>       0.00462963</v>
   <v>       0.00462963</v>
   <v>       0.00462963</v>
   <v>       0.00462963</v>
   <v>       0.00462963</v>
   <v>       0.00231481</v>
   <v>       0.00231481</v>
   <v>       0.00462963</v>
   <v>       0.00462963</v>
   <v>       0.00462963</v>
   <v>       0.00462963</v>
   <v>       0.00462963</v>
   <v>       0.00231481</v>
   <v>       0.00462963</v>
   <v>       0.00925926</v>
   <v>       0.00925926</v>
   <v>       0.00925926</v>
   <v>       0.00925926</v>
   <v>       0.00925926</v>
   <v>       0.00462963</v>
   <v>       0.00231481</v>
   <v>       0.00462963</v>
   <v>       0.00462963</v>
   <v>       0.00462963</v>
   <v>       0.00462963</v>
   <v>       0.00462963</v>
   <v>       0.00231481</v>
   <v>       0.00231481</v>
   <v>       0.00462963</v>
   <v>       0.00462963</v>
   <v>       0.00462963</v>
   <v>       0.00462963</v>
   <v>       0.00462963</v>
   <v>       0.00231481</v>
   <v>       0.00231481</v>
   <v>       0.00462963</v>
   <v>       0.00462963</v>
   <v>       0.00462963</v>
   <v>       0.00462963</v>
   <v>       0.00462963</v>
   <v>       0.00231481</v>
   <v>       0.00057870</v>
   <v>       0.00115741</v>
   <v>       0.00115741</v>
   <v>       0.00115741</v>
   <v>       0.00115741</v>
   <v>       0.00115741</v>
   <v>       0.00057870</v>
  </varray>
 </kpoints>
 <parameters>
  <separator name="general" >
   <i type="string" name="SYSTEM">unknown system</i>
   <i type="logical" name="LCOMPAT"> F  </i>
  </separator>
  <separator name="electronic" >
   <i type="string" name="PREC">accura</i>
   <i name="ENMAX">    750.00000000</i>
   <i name="ENAUG">    412.49600000</i>
   <i name="EDIFF">      0.00000001</i>
   <i type="int" name="IALGO">    38</i>
   <i type="int" name="IWAVPR">    10</i>
   <i type="int" name="NBANDS">   211</i>
   <i name="NELECT">    352.00000000</i>
   <separator name="electronic smearing" >
    <i type="int" name="ISMEAR">     0</i>
    <i name="SIGMA">      0.01000000</i>
   </separator>
   <separator name="electronic projectors" >
    <i type="logical" name="LREAL"> F  </i>
    <v name="ROPT">      0.00000000</v>
    <i type="int" name="LMAXPAW">  -100</i>
    <i type="int" name="LMAXMIX">     2</i>
   </separator>
   <separator name="electronic startup" >
    <i type="int" name="ISTART">     0</i>
    <i type="int" name="ICHARG">     2</i>
    <i type="int" name="INIWAV">     1</i>
   </separator>
   <separator name="electronic spin" >
    <i type="int" name="ISPIN">     1</i>
    <i type="logical" name="LNONCOLLINEAR"> F  </i>
    <v name="MAGMOM">      1.00000000      1.00000000      1.00000000      1.00000000      1.00000000      1.00000000      1.00000000      1.00000000      1.00000000      1.00000000      1.00000000      1.00000000      1.00000000      1.00000000      1.00000000      1.00000000      1.00000000      1.00000000      1.00000000      1.00000000
      1.00000000      1.00000000      1.00000000      1.00000000      1.00000000      1.00000000      1.00000000      1.00000000      1.00000000      1.00000000      1.00000000      1.00000000</v>
    <i name="NUPDOWN">     -1.00000000</i>
    <i type="logical" name="LSORBIT"> F  </i>
    <v name="SAXIS">      0.00000000      0.00000000      1.00000000</v>
    <i type="logical" name="LSPIRAL"> F  </i>
    <v name="QSPIRAL">      0.00000000      0.00000000      0.00000000</v>
    <i type="logical" name="LZEROZ"> F  </i>
   </separator>
   <separator name="electronic exchange-correlation" >
    <i type="string" name="GGA">--</i>
    <i type="int" name="VOSKOWN">     0</i>
    <i type="logical" name="LASPH"> F  </i>
    <i type="logical" name="LMETAGGA"> F  </i>
    <i type="string" name="GGA2">--</i>
   </separator>
   <separator name="electronic convergence" >
    <i type="int" name="NELM">    60</i>
    <i type="int" name="NELMDL">     0</i>
    <i type="int" name="NELMIN">     2</i>
    <i name="ENINI">    750.00000000</i>
    <separator name="electronic convergence detail" >
     <i type="logical" name="LDIAG"> T  </i>
     <i name="WEIMIN">      0.00000000</i>
     <i name="EBREAK">      0.00000000</i>
     <i name="DEPER">      0.30000000</i>
     <i type="int" name="NRMM">     4</i>
     <i name="TIME">      0.10000000</i>
    </separator>
   </separator>
   <separator name="electronic mixer" >
    <i name="AMIX">      0.40000000</i>
    <i name="BMIX">      1.00000000</i>
    <i name="AMIN">      0.10000000</i>
    <i name="AMIX_MAG">      1.60000000</i>
    <i name="BMIX_MAG">      1.00000000</i>
    <separator name="electronic mixer details" >
     <i type="int" name="IMIX">     4</i>
     <i type="int" name="MAXMIX">   -45</i>
     <i name="WC">    100.00000000</i>
     <i type="int" name="INIMIX">     1</i>
     <i type="int" name="MIXPRE">     1</i>
     <i type="int" name="MREMOVE">     5</i>
    </separator>
   </separator>
   <separator name="electronic dipolcorrection" >
    <i type="int" name="IDIPOL">     0</i>
    <i type="logical" name="LDIPOL"> F  </i>
    <v name="DIPOL">   -100.00000000</v>
    <i name="EFIELD">      0.00000000</i>
   </separator>
  </separator>
  <separator name="grids" >
   <i type="int" name="NGX">    80</i>
   <i type="int" name="NGY">    80</i>
   <i type="int" name="NGZ">    80</i>
   <i type="int" name="NGXF">   160</i>
   <i type="int" name="NGYF">   160</i>
   <i type="int" name="NGZF">   160</i>
   <i type="logical" name="ADDGRID"> T  </i>
  </separator>
  <separator name="ionic" >
   <i type="int" name="NSW">     0</i>
   <i type="int" name="IBRION">    -1</i>
   <i type="int" name="ISIF">     2</i>
   <i name="PSTRESS">      0.00000000</i>
   <i name="EDIFFG">      0.00000010</i>
   <i type="int" name="NFREE">     0</i>
   <i name="POTIM">      0.50000000</i>
   <i name="SMASS">     -3.00000000</i>
  </separator>
  <separator name="ionic md" >
   <i name="TEBEG">      0.00010000</i>
   <i name="TEEND">      0.00010000</i>
   <i type="int" name="NBLOCK">     1</i>
   <i type="int" name="KBLOCK">     1</i>
   <i type="int" name="NPACO">   256</i>
   <i name="APACO">     16.00000000</i>
  </separator>
  <separator name="symmetry" >
   <i type="int" name="ISYM">     2</i>
   <i name="SYMPREC">      0.00001000</i>
  </separator>
  <separator name="dos" >
   <i type="logical" name="LORBIT"> F  </i>
   <v name="RWIGS">     -1.00000000</v>
   <i type="int" name="NEDOS">   301</i>
   <i name="EMIN">     10.00000000</i>
   <i name="EMAX">    -10.00000000</i>
  </separator>
  <separator name="writing" >
   <i type="int" name="NWRITE">     2</i>
   <i type="logical" name="LWAVE"> F  </i>
   <i type="logical" name="LCHARG"> F  </i>
   <i type="logical" name="LPARD"> F  </i>
   <i type="logical" name="LVTOT"> F  </i>
   <i type="logical" name="LELF"> F  </i>
   <i type="logical" name="LOPTICS"> F  </i>
   <i name="STM">      0.00000000</i>
  </separator>
  <separator name="performance" >
   <i type="int" name="NPAR">     8</i>
   <i type="int" name="NSIM">     4</i>
   <i type="int" name="NBLK">   256</i>
   <i type="logical" name="LPLANE"> T  </i>
   <i type="logical" name="LCRITICAL_MEM"> F  </i>
   <i type="logical" name="LSCALAPACK"> F  </i>
   <i type="logical" name="LSCALU"> F  </i>
   <i type="logical" name="LASYNC"> F  </i>
  </separator>
  <separator name="miscellaneous" >
   <i type="int" name="IDIOT">     3</i>
   <i type="logical" name="LMUSIC"> F  </i>
   <v name="POMASS">    107.86800000</v>
   <i type="logical" name="LCORR"> T  </i>
  </separator>
  <i type="logical" name="LREAL_COMPAT"> F  </i>
  <i type="logical" name="GGA_COMPAT"> T  </i>
  <i type="logical" name="LBERRY"> F  </i>
  <i type="int" name="ICORELEVEL">     0</i>
  <i type="logical" name="LDAU"> F  </i>
  <i type="int" name="I_CONSTRAINED_M">     0</i>
 </parameters>
 <atominfo>
  <atoms>      32</atoms>
  <types>       1</types>
  <array name="atoms" >
   <dimension dim="1">ion</dimension>
   <field type="string">element</field>
   <field type="int">atomtype</field>
   <set>
    <rc><c>Ag</c><c>   1</c></rc>
    <rc><c>Ag</c><c>   1</c></rc>
    <rc><c>Ag</c><c>   1</c></rc>
    <rc><c>Ag</c><c>   1</c></rc>
    <rc><c>Ag</c><c>   1</c></rc>
    <rc><c>Ag</c><c>   1</c></rc>
    <rc><c>Ag</c><c>   1</c></rc>
    <rc><c>Ag</c><c>   1</c></rc>
    <rc><c>Ag</c><c>   1</c></rc>
    <rc><c>Ag</c><c>   1</c></rc>
    <rc><c>Ag</c><c>   1</c></rc>
    <rc><c>Ag</c><c>   1</c></rc>
    <rc><c>Ag</c><c>   1</c></rc>
    <rc><c>Ag</c><c>   1</c></rc>
    <rc><c>Ag</c><c>   1</c></rc>
    <rc><c>Ag</c><c>   1</c></rc>
    <rc><c>Ag</c><c>   1</c></rc>
    <rc><c>Ag</c><c>   1</c></rc>
    <rc><c>Ag</c><c>   1</c></rc>
    <rc><c>Ag</c><c>   1</c></rc>
    <rc><c>Ag</c><c>   1</c></rc>
    <rc><c>Ag</c><c>   1</c></rc>
    <rc><c>Ag</c><c>   1</c></rc>
    <rc><c>Ag</c><c>   1</c></rc>
    <rc><c>Ag</c><c>   1</c></rc>
    <rc><c>Ag</c><c>   1</c></rc>
    <rc><c>Ag</c><c>   1</c></rc>
    <rc><c>Ag</c><c>   1</c></rc>
    <rc><c>Ag</c><c>   1</c></rc>
    <rc><c>Ag</c><c>   1</c></rc>
    <rc><c>Ag</c><c>   1</c></rc>
    <rc><c>Ag</c><c>   1</c></rc>
   </set>
  </array>
  <array name="atomtypes" >
   <dimension dim="1">type</dimension>
   <field type="int">atomspertype</field>
   <field type="string">element</field>
   <field>mass</field>
   <field>valence</field>
   <field type="string">pseudopotential</field>
   <set>
    <rc><c>  32</c><c>Ag</c><c>    107.86800000</c><c>     11.00000000</c><c> PAW_PBE Ag 06Sep2000                   </c></rc>
   </set>
  </array>
 </atominfo>
 <structure name="initialpos" >
  <crystal>
   <varray name="basis" >
    <v>       8.57624305      0.00000000      0.00000000</v>
    <v>       0.00000000      8.57624305      0.00000000</v>
    <v>       0.00000000      0.00000000      8.57624305</v>
   </varray>
   <i name="volume">    630.79935589</i>
   <varray name="rec_basis" >
    <v>       0.11660117      0.00000000      0.00000000</v>
    <v>       0.00000000      0.11660117      0.00000000</v>
    <v>       0.00000000      0.00000000      0.11660117</v>
   </varray>
  </crystal>
  <varray name="positions" >
   <v>       0.00116601      0.00000000      0.00000000</v>
   <v>       0.50000000      0.00000000      0.00000000</v>
   <v>       0.00000000      0.50000000      0.00000000</v>
   <v>       0.50000000      0.50000000      0.00000000</v>
   <v>       0.00000000      0.00000000      0.50000000</v>
   <v>       0.50000000      0.00000000      0.50000000</v>
   <v>       0.00000000      0.50000000      0.50000000</v>
   <v>       0.50000000      0.50000000      0.50000000</v>
   <v>       0.25000000      0.25000000      0.00000000</v>
   <v>       0.75000000      0.25000000      0.00000000</v>
   <v>       0.25000000      0.75000000      0.00000000</v>
   <v>       0.75000000      0.75000000      0.00000000</v>
   <v>       0.25000000      0.25000000      0.50000000</v>
   <v>       0.75000000      0.25000000      0.50000000</v>
   <v>       0.25000000      0.75000000      0.50000000</v>
   <v>       0.75000000      0.75000000      0.50000000</v>
   <v>       0.25000000      0.00000000      0.25000000</v>
   <v>       0.75000000      0.00000000      0.25000000</v>
   <v>       0.25000000      0.50000000      0.25000000</v>
   <v>       0.75000000      0.50000000      0.25000000</v>
   <v>       0.25000000      0.00000000      0.75000000</v>
   <v>       0.75000000      0.00000000      0.75000000</v>
   <v>       0.25000000      0.50000000      0.75000000</v>
   <v>       0.75000000      0.50000000      0.75000000</v>
   <v>       0.00000000      0.25000000      0.25000000</v>
   <v>       0.50000000      0.25000000      0.25000000</v>
   <v>       0.00000000      0.75000000      0.25000000</v>
   <v>       0.50000000      0.75000000      0.25000000</v>
   <v>       0.00000000      0.25000000      0.75000000</v>
   <v>       0.50000000      0.25000000      0.75000000</v>
   <v>       0.00000000      0.75000000      0.75000000</v>
   <v>       0.50000000      0.75000000      0.75000000</v>
  </varray>
 </structure>
 <calculation>
  <scstep>
   <time name="dav"> 1939.04 1942.24</time>
   <time name="total"> 1940.07 1943.28</time>
   <energy>
    <i name="alphaZ">   2882.68482356</i>
    <i name="ewald"> -29807.14681617</i>
    <i name="hartreedc">  -7207.59930620</i>
    <i name="XCdc">   -354.12103459</i>
    <i name="pawpsdc">  27861.41421209</i>
    <i name="pawaedc"> -26376.63839568</i>
    <i name="eentropy">     -0.00046490</i>
    <i name="bandstr">   3935.34303761</i>
    <i name="atom">  33197.19690173</i>
    <i name="e_fr_energy">   4131.13295744</i>
    <i name="e_wo_entrp">   4131.13342234</i>
    <i name="e_0_energy">   4131.13318989</i>
   </energy>
  </scstep>
  <scstep>
   <time name="dav"> 1936.23 1939.71</time>
   <time name="total"> 1936.33 1939.82</time>
   <energy>
    <i name="e_fr_energy">    111.73575823</i>
    <i name="e_wo_entrp">    111.73622506</i>
    <i name="e_0_energy">    111.73599165</i>
   </energy>
  </scstep>
  <scstep>
   <time name="dav"> 2020.61 2024.86</time>
   <time name="total"> 2020.71 2024.96</time>
   <energy>
    <i name="e_fr_energy">    -91.60372816</i>
    <i name="e_wo_entrp">    -91.60319847</i>
    <i name="e_0_energy">    -91.60346332</i>
   </energy>
  </scstep>
  <scstep>
   <time name="dav"> 2045.94 2050.25</time>
   <time name="total"> 2046.04 2050.35</time>
   <energy>
    <i name="e_fr_energy">    -95.51883622</i>
    <i name="e_wo_entrp">    -95.51824151</i>
    <i name="e_0_energy">    -95.51853886</i>
   </energy>
  </scstep>
  <scstep>
   <time name="dav"> 2027.81 2031.35</time>
   <time name="total"> 2090.24 2093.88</time>
   <energy>
    <i name="e_fr_energy">    -95.54171585</i>
    <i name="e_wo_entrp">    -95.54112081</i>
    <i name="e_0_energy">    -95.54141833</i>
   </energy>
  </scstep>
  <scstep>
   <time name="dav"> 2010.46 2014.22</time>
   <time name="total"> 2074.31 2078.18</time>
   <energy>
    <i name="e_fr_energy">    -89.52712638</i>
    <i name="e_wo_entrp">    -89.52678365</i>
    <i name="e_0_energy">    -89.52695502</i>
   </energy>
  </scstep>
  <scstep>
   <time name="dav"> 1996.83 2000.35</time>
   <time name="total"> 2062.37 2066.00</time>
   <energy>
    <i name="e_fr_energy">    -89.42257694</i>
    <i name="e_wo_entrp">    -89.42222040</i>
    <i name="e_0_energy">    -89.42239867</i>
   </energy>
  </scstep>
  <scstep>
   <time name="dav"> 2015.19 2018.48</time>
   <time name="total"> 2079.18 2082.57</time>
   <energy>
    <i name="e_fr_energy">    -89.36599289</i>
    <i name="e_wo_entrp">    -89.36561831</i>
    <i name="e_0_energy">    -89.36580560</i>
   </energy>
  </scstep>
  <scstep>
   <time name="dav"> 2032.46 2035.91</time>
   <time name="total"> 2096.25 2099.81</time>
   <energy>
    <i name="e_fr_energy">    -89.36694327</i>
    <i name="e_wo_entrp">    -89.36655135</i>
    <i name="e_0_energy">    -89.36674731</i>
   </energy>
  </scstep>
  <scstep>
   <time name="dav"> 2007.25 2010.65</time>
   <time name="total"> 2071.15 2074.65</time>
   <energy>
    <i name="e_fr_energy">    -89.36688751</i>
    <i name="e_wo_entrp">    -89.36650417</i>
    <i name="e_0_energy">    -89.36669584</i>
   </energy>
  </scstep>
  <scstep>
   <time name="dav"> 2029.70 2034.06</time>
   <time name="total"> 2093.58 2098.07</time>
   <energy>
    <i name="e_fr_energy">    -89.36688443</i>
    <i name="e_wo_entrp">    -89.36650225</i>
    <i name="e_0_energy">    -89.36669334</i>
   </energy>
  </scstep>
  <scstep>
   <time name="dav"> 2006.51 2010.87</time>
   <time name="total"> 2069.84 2074.33</time>
   <energy>
    <i name="e_fr_energy">    -89.36688092</i>
    <i name="e_wo_entrp">    -89.36649910</i>
    <i name="e_0_energy">    -89.36669001</i>
   </energy>
  </scstep>
  <scstep>
   <time name="dav"> 1813.87 1816.95</time>
   <time name="total"> 1877.21 1880.40</time>
   <energy>
    <i name="e_fr_energy">    -89.36687887</i>
    <i name="e_wo_entrp">    -89.36649708</i>
    <i name="e_0_energy">    -89.36668797</i>
   </energy>
  </scstep>
  <scstep>
   <time name="dav"> 1279.82 1281.89</time>
   <time name="total"> 1343.45 1345.62</time>
   <energy>
    <i name="e_fr_energy">    -89.36687878</i>
    <i name="e_wo_entrp">    -89.36649698</i>
    <i name="e_0_energy">    -89.36668788</i>
   </energy>
  </scstep>
  <scstep>
   <time name="dav"> 1273.00 1275.18</time>
   <time name="total"> 1336.29 1338.58</time>
   <energy>
    <i name="e_fr_energy">    -89.36687881</i>
    <i name="e_wo_entrp">    -89.36649700</i>
    <i name="e_0_energy">    -89.36668791</i>
   </energy>
  </scstep>
  <scstep>
   <time name="dav"> 1270.34 1272.43</time>
   <time name="total"> 1271.45 1273.54</time>
   <energy>
    <i name="alphaZ">   2882.68482356</i>
    <i name="ewald"> -29807.14681617</i>
    <i name="hartreedc">  -6854.00707142</i>
    <i name="XCdc">   -367.31644928</i>
    <i name="pawpsdc">  27593.89855356</i>
    <i name="pawaedc"> -26163.07052088</i>
    <i name="eentropy">     -0.00038182</i>
    <i name="bandstr">   -571.60591809</i>
    <i name="atom">  33197.19690173</i>
    <i name="e_fr_energy">    -89.36687882</i>
    <i name="e_wo_entrp">    -89.36649700</i>
    <i name="e_0_energy">    -89.36668791</i>
   </energy>
  </scstep>
  <structure>
   <crystal>
    <varray name="basis" >
     <v>       8.57624305      0.00000000      0.00000000</v>
     <v>       0.00000000      8.57624305      0.00000000</v>
     <v>       0.00000000      0.00000000      8.57624305</v>
    </varray>
    <i name="volume">    630.79935589</i>
    <varray name="rec_basis" >
     <v>       0.11660117      0.00000000      0.00000000</v>
     <v>       0.00000000      0.11660117      0.00000000</v>
     <v>       0.00000000      0.00000000      0.11660117</v>
    </varray>
   </crystal>
   <varray name="positions" >
    <v>       0.00116601      0.00000000      0.00000000</v>
    <v>       0.50000000      0.00000000      0.00000000</v>
    <v>       0.00000000      0.50000000      0.00000000</v>
    <v>       0.50000000      0.50000000      0.00000000</v>
    <v>       0.00000000      0.00000000      0.50000000</v>
    <v>       0.50000000      0.00000000      0.50000000</v>
    <v>       0.00000000      0.50000000      0.50000000</v>
    <v>       0.50000000      0.50000000      0.50000000</v>
    <v>       0.25000000      0.25000000      0.00000000</v>
    <v>       0.75000000      0.25000000      0.00000000</v>
    <v>       0.25000000      0.75000000      0.00000000</v>
    <v>       0.75000000      0.75000000      0.00000000</v>
    <v>       0.25000000      0.25000000      0.50000000</v>
    <v>       0.75000000      0.25000000      0.50000000</v>
    <v>       0.25000000      0.75000000      0.50000000</v>
    <v>       0.75000000      0.75000000      0.50000000</v>
    <v>       0.25000000      0.00000000      0.25000000</v>
    <v>       0.75000000      0.00000000      0.25000000</v>
    <v>       0.25000000      0.50000000      0.25000000</v>
    <v>       0.75000000      0.50000000      0.25000000</v>
    <v>       0.25000000      0.00000000      0.75000000</v>
    <v>       0.75000000      0.00000000      0.75000000</v>
    <v>       0.25000000      0.50000000      0.75000000</v>
    <v>       0.75000000      0.50000000      0.75000000</v>
    <v>       0.00000000      0.25000000      0.25000000</v>
    <v>       0.50000000      0.25000000      0.25000000</v>
    <v>       0.00000000      0.75000000      0.25000000</v>
    <v>       0.50000000      0.75000000      0.25000000</v>
    <v>       0.00000000      0.25000000      0.75000000</v>
    <v>       0.50000000      0.25000000      0.75000000</v>
    <v>       0.00000000      0.75000000      0.75000000</v>
    <v>       0.50000000      0.75000000      0.75000000</v>
   </varray>
  </structure>
  <varray name="forces" >
   <v>      -0.02693590      0.00000000     -0.00000000</v>
   <v>       0.00101620      0.00000000      0.00000000</v>
   <v>      -0.00028869     -0.00000000      0.00000000</v>
   <v>      -0.00045326     -0.00000000     -0.00000000</v>
   <v>      -0.00028869     -0.00000000     -0.00000000</v>
   <v>      -0.00045326     -0.00000000     -0.00000000</v>
   <v>      -0.00001507      0.00000000     -0.00000000</v>
   <v>      -0.00014937     -0.00000000     -0.00000000</v>
   <v>       0.00330350      0.00386211     -0.00000000</v>
   <v>       0.00317476     -0.00369390      0.00000000</v>
   <v>       0.00330350     -0.00386211     -0.00000000</v>
   <v>       0.00317476      0.00369390     -0.00000000</v>
   <v>       0.00022860      0.00006136     -0.00000000</v>
   <v>       0.00022782     -0.00006122     -0.00000000</v>
   <v>       0.00022860     -0.00006136     -0.00000000</v>
   <v>       0.00022782      0.00006122      0.00000000</v>
   <v>       0.00330350      0.00000000      0.00386211</v>
   <v>       0.00317476      0.00000000     -0.00369390</v>
   <v>       0.00022860     -0.00000000      0.00006136</v>
   <v>       0.00022782     -0.00000000     -0.00006122</v>
   <v>       0.00330350     -0.00000000     -0.00386211</v>
   <v>       0.00317476     -0.00000000      0.00369390</v>
   <v>       0.00022860     -0.00000000     -0.00006136</v>
   <v>       0.00022782      0.00000000      0.00006122</v>
   <v>      -0.00059729     -0.00000402     -0.00000402</v>
   <v>       0.00055462      0.00000172      0.00000172</v>
   <v>      -0.00059729      0.00000402     -0.00000402</v>
   <v>       0.00055462     -0.00000172      0.00000172</v>
   <v>      -0.00059729     -0.00000402      0.00000402</v>
   <v>       0.00055462      0.00000172     -0.00000172</v>
   <v>      -0.00059729      0.00000402      0.00000402</v>
   <v>       0.00055462     -0.00000172     -0.00000172</v>
  </varray>
  <varray name="stress" >
   <v>     -60.67660387      0.00000000      0.00000000</v>
   <v>      -0.00000000    -60.67679426      0.00000000</v>
   <v>       0.00000000      0.00000000    -60.67679426</v>
  </varray>
  <energy>
   <i name="e_fr_energy">    -89.36687882</i>
   <i name="e_wo_entrp">    -89.36668791</i>
   <i name="e_0_energy">     -0.00038182</i>
  </energy>
  <eigenvalues>
   <array>
    <dimension dim="1">band</dimension>
    <dimension dim="2">kpoint</dimension>
    <dimension dim="3">spin</dimension>
    <field>eigene</field>
    <field>occ</field>
    <set>
     <set comment="spin 1">
      <set comment="kpoint 1">
       <r>  -4.4376  1.0000</r>
       <r>  -3.2840  1.0000</r>
       <r>  -3.2840  1.0000</r>
       <r>  -3.2840  1.0000</r>
       <r>  -3.2656  1.0000</r>
       <r>  -3.2656  1.0000</r>
       <r>  -3.2656  1.0000</r>
       <r>  -3.2656  1.0000</r>
       <r>  -3.1940  1.0000</r>
       <r>  -3.1940  1.0000</r>
       <r>  -3.1940  1.0000</r>
       <r>  -2.8811  1.0000</r>
       <r>  -2.8795  1.0000</r>
       <r>  -2.8795  1.0000</r>
       <r>  -2.8795  1.0000</r>
       <r>  -2.8795  1.0000</r>
       <r>  -2.8780  1.0000</r>
       <r>  -2.6839  1.0000</r>
       <r>  -2.6826  1.0000</r>
       <r>  -2.6826  1.0000</r>
       <r>  -2.6826  1.0000</r>
       <r>  -2.6826  1.0000</r>
       <r>  -2.6813  1.0000</r>
       <r>  -2.6418  1.0000</r>
       <r>  -2.6405  1.0000</r>
       <r>  -2.6405  1.0000</r>
       <r>  -2.6404  1.0000</r>
       <r>  -2.6404  1.0000</r>
       <r>  -2.6391  1.0000</r>
       <r>  -2.4339  1.0000</r>
       <r>  -2.4339  1.0000</r>
       <r>  -2.4336  1.0000</r>
       <r>  -2.4330  1.0000</r>
       <r>  -2.4327  1.0000</r>
       <r>  -2.4327  1.0000</r>
       <r>  -2.4327  1.0000</r>
       <r>  -2.4327  1.0000</r>
       <r>  -2.4324  1.0000</r>
       <r>  -2.4318  1.0000</r>
       <r>  -2.4315  1.0000</r>
       <r>  -2.4315  1.0000</r>
       <r>  -2.2667  1.0000</r>
       <r>  -2.2650  1.0000</r>
       <r>  -2.2650  1.0000</r>
       <r>  -2.2643  1.0000</r>
       <r>  -2.2643  1.0000</r>
       <r>  -2.2643  1.0000</r>
       <r>  -2.2643  1.0000</r>
       <r>  -2.2643  1.0000</r>
       <r>  -2.2642  1.0000</r>
       <r>  -2.2635  1.0000</r>
       <r>  -2.2635  1.0000</r>
       <r>  -2.2619  1.0000</r>
       <r>  -2.2170  1.0000</r>
       <r>  -2.2170  1.0000</r>
       <r>  -2.2155  1.0000</r>
       <r>  -2.2155  1.0000</r>
       <r>  -2.2155  1.0000</r>
       <r>  -2.2155  1.0000</r>
       <r>  -2.2155  1.0000</r>
       <r>  -2.2154  1.0000</r>
       <r>  -2.2154  1.0000</r>
       <r>  -2.2154  1.0000</r>
       <r>  -2.2139  1.0000</r>
       <r>  -2.2139  1.0000</r>
       <r>  -2.0459  1.0000</r>
       <r>  -2.0458  1.0000</r>
       <r>  -2.0458  1.0000</r>
       <r>  -2.0458  1.0000</r>
       <r>  -2.0458  1.0000</r>
       <r>  -2.0458  1.0000</r>
       <r>  -2.0458  1.0000</r>
       <r>  -2.0458  1.0000</r>
       <r>  -2.0336  1.0000</r>
       <r>  -2.0336  1.0000</r>
       <r>  -2.0336  1.0000</r>
       <r>  -1.9041  1.0000</r>
       <r>  -1.9024  1.0000</r>
       <r>  -1.9021  1.0000</r>
       <r>  -1.9021  1.0000</r>
       <r>  -1.9020  1.0000</r>
       <r>  -1.9020  1.0000</r>
       <r>  -1.9020  1.0000</r>
       <r>  -1.9020  1.0000</r>
       <r>  -1.9018  1.0000</r>
       <r>  -1.9018  1.0000</r>
       <r>  -1.9016  1.0000</r>
       <r>  -1.8999  1.0000</r>
       <r>  -1.5153  1.0000</r>
       <r>  -1.5148  1.0000</r>
       <r>  -1.5141  1.0000</r>
       <r>  -1.5141  1.0000</r>
       <r>  -1.5138  1.0000</r>
       <r>  -1.5138  1.0000</r>
       <r>  -1.5137  1.0000</r>
       <r>  -1.5137  1.0000</r>
       <r>  -1.5134  1.0000</r>
       <r>  -1.5134  1.0000</r>
       <r>  -1.5127  1.0000</r>
       <r>  -1.5122  1.0000</r>
       <r>  -1.3499  1.0000</r>
       <r>  -1.3499  1.0000</r>
       <r>  -1.3484  1.0000</r>
       <r>  -1.3484  1.0000</r>
       <r>  -1.3482  1.0000</r>
       <r>  -1.3482  1.0000</r>
       <r>  -1.3482  1.0000</r>
       <r>  -1.3482  1.0000</r>
       <r>  -1.3481  1.0000</r>
       <r>  -1.3481  1.0000</r>
       <r>  -1.3466  1.0000</r>
       <r>  -1.3466  1.0000</r>
       <r>  -1.2356  1.0000</r>
       <r>  -1.2355  1.0000</r>
       <r>  -1.2192  1.0000</r>
       <r>  -1.2192  1.0000</r>
       <r>  -1.2177  1.0000</r>
       <r>  -1.2175  1.0000</r>
       <r>  -1.2174  1.0000</r>
       <r>  -1.2173  1.0000</r>
       <r>  -1.2173  1.0000</r>
       <r>  -1.2173  1.0000</r>
       <r>  -1.2173  1.0000</r>
       <r>  -1.2170  1.0000</r>
       <r>  -1.2156  1.0000</r>
       <r>  -1.2156  1.0000</r>
       <r>  -1.2101  1.0000</r>
       <r>  -1.2093  1.0000</r>
       <r>  -1.2093  1.0000</r>
       <r>  -1.2091  1.0000</r>
       <r>  -1.2091  1.0000</r>
       <r>  -1.2082  1.0000</r>
       <r>  -1.1048  1.0000</r>
       <r>  -1.1033  1.0000</r>
       <r>  -1.1033  1.0000</r>
       <r>  -1.1033  1.0000</r>
       <r>  -1.1033  1.0000</r>
       <r>  -1.1017  1.0000</r>
       <r>  -0.9476  1.0000</r>
       <r>  -0.9468  1.0000</r>
       <r>  -0.9468  1.0000</r>
       <r>  -0.9468  1.0000</r>
       <r>  -0.9468  1.0000</r>
       <r>  -0.9461  1.0000</r>
       <r>  -0.6457  1.0000</r>
       <r>  -0.6457  1.0000</r>
       <r>  -0.6457  1.0000</r>
       <r>  -0.6192  1.0000</r>
       <r>  -0.6192  1.0000</r>
       <r>  -0.6192  1.0000</r>
       <r>  -0.6192  1.0000</r>
       <r>  -0.6192  1.0000</r>
       <r>  -0.6192  1.0000</r>
       <r>  -0.6192  1.0000</r>
       <r>  -0.6192  1.0000</r>
       <r>  -0.4597  1.0000</r>
       <r>  -0.4595  1.0000</r>
       <r>  -0.4595  1.0000</r>
       <r>  -0.4595  1.0000</r>
       <r>  -0.4595  1.0000</r>
       <r>  -0.4595  1.0000</r>
       <r>  -0.4588  1.0000</r>
       <r>  -0.4587  1.0000</r>
       <r>  -0.4587  1.0000</r>
       <r>  -0.4587  1.0000</r>
       <r>  -0.4587  1.0000</r>
       <r>  -0.4585  1.0000</r>
       <r>   1.6892  1.0000</r>
       <r>   1.6902  1.0000</r>
       <r>   1.6902  1.0000</r>
       <r>   1.6911  1.0000</r>
       <r>   1.6914  1.0000</r>
       <r>   1.6914  1.0000</r>
       <r>   1.6914  1.0000</r>
       <r>   1.6914  1.0000</r>
       <r>   1.6917  1.0000</r>
       <r>   1.6926  1.0000</r>
       <r>   1.6926  1.0000</r>
       <r>   1.6936  1.0000</r>
       <r>   2.2989  1.0000</r>
       <r>   2.2989  1.0000</r>
       <r>   2.2989  1.0000</r>
       <r>   2.2989  1.0000</r>
       <r>   4.0707  0.0000</r>
       <r>   4.0707  0.0000</r>
       <r>   4.0708  0.0000</r>
       <r>   5.2039  0.0000</r>
       <r>   5.2039  0.0000</r>
       <r>   5.2039  0.0000</r>
       <r>   5.2039  0.0000</r>
       <r>   7.7695  0.0000</r>
       <r>   7.7695  0.0000</r>
       <r>   7.7720  0.0000</r>
       <r>   7.7720  0.0000</r>
       <r>   7.7723  0.0000</r>
       <r>   7.7723  0.0000</r>
       <r>   7.7723  0.0000</r>
       <r>   7.7723  0.0000</r>
       <r>   7.7726  0.0000</r>
       <r>   7.7726  0.0000</r>
       <r>   7.7750  0.0000</r>
       <r>   7.7750  0.0000</r>
       <r>   8.0276  0.0000</r>
       <r>   8.0276  0.0000</r>
       <r>   8.0276  0.0000</r>
       <r>   8.4244  0.0000</r>
       <r>   8.4244  0.0000</r>
       <r>   8.4244  0.0000</r>
       <r>   8.4245  0.0000</r>
       <r>   8.4245  0.0000</r>
       <r>   8.4245  0.0000</r>
       <r>   9.7526  0.0000</r>
       <r>   9.7537  0.0000</r>
       <r>   9.7538  0.0000</r>
       <r>   9.7538  0.0000</r>
       <r>   9.7552  0.0000</r>
      </set>
      <set comment="kpoint 2">
       <r>  -4.4214  1.0000</r>
       <r>  -3.2779  1.0000</r>
       <r>  -3.2761  1.0000</r>
       <r>  -3.2761  1.0000</r>
       <r>  -3.2582  1.0000</r>
       <r>  -3.2582  1.0000</r>
       <r>  -3.2582  1.0000</r>
       <r>  -3.2582  1.0000</r>
       <r>  -3.1895  1.0000</r>
       <r>  -3.1870  1.0000</r>
       <r>  -3.1870  1.0000</r>
       <r>  -2.9626  1.0000</r>
       <r>  -2.8694  1.0000</r>
       <r>  -2.8693  1.0000</r>
       <r>  -2.8693  1.0000</r>
       <r>  -2.8693  1.0000</r>
       <r>  -2.8529  1.0000</r>
       <r>  -2.7155  1.0000</r>
       <r>  -2.6971  1.0000</r>
       <r>  -2.6970  1.0000</r>
       <r>  -2.6769  1.0000</r>
       <r>  -2.6769  1.0000</r>
       <r>  -2.6769  1.0000</r>
       <r>  -2.6768  1.0000</r>
       <r>  -2.6365  1.0000</r>
       <r>  -2.6365  1.0000</r>
       <r>  -2.6365  1.0000</r>
       <r>  -2.6365  1.0000</r>
       <r>  -2.5645  1.0000</r>
       <r>  -2.4875  1.0000</r>
       <r>  -2.4875  1.0000</r>
       <r>  -2.4875  1.0000</r>
       <r>  -2.4875  1.0000</r>
       <r>  -2.4503  1.0000</r>
       <r>  -2.4503  1.0000</r>
       <r>  -2.4503  1.0000</r>
       <r>  -2.4503  1.0000</r>
       <r>  -2.4118  1.0000</r>
       <r>  -2.4118  1.0000</r>
       <r>  -2.4118  1.0000</r>
       <r>  -2.4118  1.0000</r>
       <r>  -2.3671  1.0000</r>
       <r>  -2.3671  1.0000</r>
       <r>  -2.2969  1.0000</r>
       <r>  -2.2969  1.0000</r>
       <r>  -2.2969  1.0000</r>
       <r>  -2.2969  1.0000</r>
       <r>  -2.2393  1.0000</r>
       <r>  -2.2386  1.0000</r>
       <r>  -2.2386  1.0000</r>
       <r>  -2.2386  1.0000</r>
       <r>  -2.2366  1.0000</r>
       <r>  -2.2366  1.0000</r>
       <r>  -2.2366  1.0000</r>
       <r>  -2.2360  1.0000</r>
       <r>  -2.2177  1.0000</r>
       <r>  -2.2177  1.0000</r>
       <r>  -2.2177  1.0000</r>
       <r>  -2.2177  1.0000</r>
       <r>  -2.2148  1.0000</r>
       <r>  -2.2148  1.0000</r>
       <r>  -2.2148  1.0000</r>
       <r>  -2.2146  1.0000</r>
       <r>  -2.0535  1.0000</r>
       <r>  -2.0535  1.0000</r>
       <r>  -2.0481  1.0000</r>
       <r>  -2.0481  1.0000</r>
       <r>  -2.0481  1.0000</r>
       <r>  -2.0481  1.0000</r>
       <r>  -2.0405  1.0000</r>
       <r>  -2.0405  1.0000</r>
       <r>  -2.0405  1.0000</r>
       <r>  -2.0405  1.0000</r>
       <r>  -2.0390  1.0000</r>
       <r>  -2.0283  1.0000</r>
       <r>  -2.0283  1.0000</r>
       <r>  -1.9390  1.0000</r>
       <r>  -1.9389  1.0000</r>
       <r>  -1.9389  1.0000</r>
       <r>  -1.9389  1.0000</r>
       <r>  -1.9130  1.0000</r>
       <r>  -1.9130  1.0000</r>
       <r>  -1.9130  1.0000</r>
       <r>  -1.9130  1.0000</r>
       <r>  -1.8644  1.0000</r>
       <r>  -1.8644  1.0000</r>
       <r>  -1.8644  1.0000</r>
       <r>  -1.8643  1.0000</r>
       <r>  -1.5388  1.0000</r>
       <r>  -1.5388  1.0000</r>
       <r>  -1.5388  1.0000</r>
       <r>  -1.5388  1.0000</r>
       <r>  -1.5053  1.0000</r>
       <r>  -1.5053  1.0000</r>
       <r>  -1.5052  1.0000</r>
       <r>  -1.5052  1.0000</r>
       <r>  -1.4792  1.0000</r>
       <r>  -1.4792  1.0000</r>
       <r>  -1.4792  1.0000</r>
       <r>  -1.4792  1.0000</r>
       <r>  -1.4469  1.0000</r>
       <r>  -1.4469  1.0000</r>
       <r>  -1.4170  1.0000</r>
       <r>  -1.4170  1.0000</r>
       <r>  -1.4170  1.0000</r>
       <r>  -1.4170  1.0000</r>
       <r>  -1.3486  1.0000</r>
       <r>  -1.3486  1.0000</r>
       <r>  -1.3486  1.0000</r>
       <r>  -1.3486  1.0000</r>
       <r>  -1.3067  1.0000</r>
       <r>  -1.2634  1.0000</r>
       <r>  -1.2634  1.0000</r>
       <r>  -1.2633  1.0000</r>
       <r>  -1.2633  1.0000</r>
       <r>  -1.2462  1.0000</r>
       <r>  -1.2462  1.0000</r>
       <r>  -1.2410  1.0000</r>
       <r>  -1.2331  1.0000</r>
       <r>  -1.2095  1.0000</r>
       <r>  -1.2094  1.0000</r>
       <r>  -1.2094  1.0000</r>
       <r>  -1.2093  1.0000</r>
       <r>  -1.1955  1.0000</r>
       <r>  -1.1954  1.0000</r>
       <r>  -1.1912  1.0000</r>
       <r>  -1.1912  1.0000</r>
       <r>  -1.1912  1.0000</r>
       <r>  -1.1911  1.0000</r>
       <r>  -1.1597  1.0000</r>
       <r>  -1.1597  1.0000</r>
       <r>  -1.1596  1.0000</r>
       <r>  -1.1596  1.0000</r>
       <r>  -1.0430  1.0000</r>
       <r>  -1.0430  1.0000</r>
       <r>  -1.0430  1.0000</r>
       <r>  -1.0430  1.0000</r>
       <r>  -0.9852  1.0000</r>
       <r>  -0.9333  1.0000</r>
       <r>  -0.9333  1.0000</r>
       <r>  -0.9333  1.0000</r>
       <r>  -0.9333  1.0000</r>
       <r>  -0.9083  1.0000</r>
       <r>  -0.8125  1.0000</r>
       <r>  -0.6529  1.0000</r>
       <r>  -0.6529  1.0000</r>
       <r>  -0.6483  1.0000</r>
       <r>  -0.6366  1.0000</r>
       <r>  -0.6366  1.0000</r>
       <r>  -0.6366  1.0000</r>
       <r>  -0.6366  1.0000</r>
       <r>  -0.6257  1.0000</r>
       <r>  -0.6257  1.0000</r>
       <r>  -0.6257  1.0000</r>
       <r>  -0.6256  1.0000</r>
       <r>  -0.4842  1.0000</r>
       <r>  -0.4842  1.0000</r>
       <r>  -0.4685  1.0000</r>
       <r>  -0.4685  1.0000</r>
       <r>  -0.4685  1.0000</r>
       <r>  -0.4685  1.0000</r>
       <r>  -0.4683  1.0000</r>
       <r>  -0.4683  1.0000</r>
       <r>  -0.4597  1.0000</r>
       <r>  -0.4595  1.0000</r>
       <r>  -0.4587  1.0000</r>
       <r>  -0.4585  1.0000</r>
       <r>   1.3394  1.0000</r>
       <r>   1.3394  1.0000</r>
       <r>   1.3394  1.0000</r>
       <r>   1.3394  1.0000</r>
       <r>   1.6966  1.0000</r>
       <r>   1.6966  1.0000</r>
       <r>   1.6966  1.0000</r>
       <r>   1.6966  1.0000</r>
       <r>   2.0735  1.0000</r>
       <r>   2.0735  1.0000</r>
       <r>   2.0735  1.0000</r>
       <r>   2.0735  1.0000</r>
       <r>   2.2770  1.0000</r>
       <r>   2.2770  1.0000</r>
       <r>   2.2770  1.0000</r>
       <r>   2.2770  1.0000</r>
       <r>   3.9346  0.0000</r>
       <r>   4.1096  0.0000</r>
       <r>   4.1096  0.0000</r>
       <r>   5.2674  0.0000</r>
       <r>   5.2674  0.0000</r>
       <r>   5.2674  0.0000</r>
       <r>   5.2674  0.0000</r>
       <r>   7.3119  0.0000</r>
       <r>   7.3119  0.0000</r>
       <r>   7.4214  0.0000</r>
       <r>   7.4214  0.0000</r>
       <r>   7.4214  0.0000</r>
       <r>   7.4214  0.0000</r>
       <r>   7.7969  0.0000</r>
       <r>   7.7969  0.0000</r>
       <r>   7.7969  0.0000</r>
       <r>   7.7969  0.0000</r>
       <r>   8.0311  0.0000</r>
       <r>   8.0311  0.0000</r>
       <r>   8.1908  0.0000</r>
       <r>   8.2424  0.0000</r>
       <r>   8.2424  0.0000</r>
       <r>   8.4096  0.0000</r>
       <r>   8.4097  0.0000</r>
       <r>   8.6478  0.0000</r>
       <r>   8.6478  0.0000</r>
       <r>   8.6478  0.0000</r>
       <r>   8.6478  0.0000</r>
       <r>   9.7947  0.0000</r>
       <r>   9.7947  0.0000</r>
       <r>   9.9173  0.0000</r>
       <r>   9.9175  0.0000</r>
       <r>   9.9178  0.0000</r>
      </set>
      <set comment="kpoint 3">
       <r>  -4.3728  1.0000</r>
       <r>  -3.2598  1.0000</r>
       <r>  -3.2527  1.0000</r>
       <r>  -3.2526  1.0000</r>
       <r>  -3.2361  1.0000</r>
       <r>  -3.2361  1.0000</r>
       <r>  -3.2361  1.0000</r>
       <r>  -3.2361  1.0000</r>
       <r>  -3.1759  1.0000</r>
       <r>  -3.1661  1.0000</r>
       <r>  -3.1661  1.0000</r>
       <r>  -3.1037  1.0000</r>
       <r>  -2.8685  1.0000</r>
       <r>  -2.8391  1.0000</r>
       <r>  -2.8391  1.0000</r>
       <r>  -2.8391  1.0000</r>
       <r>  -2.8391  1.0000</r>
       <r>  -2.7884  1.0000</r>
       <r>  -2.7377  1.0000</r>
       <r>  -2.7377  1.0000</r>
       <r>  -2.6602  1.0000</r>
       <r>  -2.6602  1.0000</r>
       <r>  -2.6602  1.0000</r>
       <r>  -2.6602  1.0000</r>
       <r>  -2.6247  1.0000</r>
       <r>  -2.6247  1.0000</r>
       <r>  -2.6247  1.0000</r>
       <r>  -2.6247  1.0000</r>
       <r>  -2.5924  1.0000</r>
       <r>  -2.5924  1.0000</r>
       <r>  -2.5924  1.0000</r>
       <r>  -2.5924  1.0000</r>
       <r>  -2.5075  1.0000</r>
       <r>  -2.5075  1.0000</r>
       <r>  -2.4889  1.0000</r>
       <r>  -2.4639  1.0000</r>
       <r>  -2.4639  1.0000</r>
       <r>  -2.4639  1.0000</r>
       <r>  -2.4639  1.0000</r>
       <r>  -2.3921  1.0000</r>
       <r>  -2.3921  1.0000</r>
       <r>  -2.3921  1.0000</r>
       <r>  -2.3921  1.0000</r>
       <r>  -2.3354  1.0000</r>
       <r>  -2.3353  1.0000</r>
       <r>  -2.3353  1.0000</r>
       <r>  -2.3353  1.0000</r>
       <r>  -2.2239  1.0000</r>
       <r>  -2.2239  1.0000</r>
       <r>  -2.2239  1.0000</r>
       <r>  -2.2239  1.0000</r>
       <r>  -2.2204  1.0000</r>
       <r>  -2.2200  1.0000</r>
       <r>  -2.2200  1.0000</r>
       <r>  -2.2200  1.0000</r>
       <r>  -2.2129  1.0000</r>
       <r>  -2.2129  1.0000</r>
       <r>  -2.2129  1.0000</r>
       <r>  -2.2126  1.0000</r>
       <r>  -2.2010  1.0000</r>
       <r>  -2.2010  1.0000</r>
       <r>  -2.2010  1.0000</r>
       <r>  -2.2009  1.0000</r>
       <r>  -2.0553  1.0000</r>
       <r>  -2.0547  1.0000</r>
       <r>  -2.0547  1.0000</r>
       <r>  -2.0547  1.0000</r>
       <r>  -2.0547  1.0000</r>
       <r>  -2.0247  1.0000</r>
       <r>  -2.0247  1.0000</r>
       <r>  -2.0247  1.0000</r>
       <r>  -2.0247  1.0000</r>
       <r>  -2.0126  1.0000</r>
       <r>  -2.0126  1.0000</r>
       <r>  -2.0027  1.0000</r>
       <r>  -2.0027  1.0000</r>
       <r>  -2.0027  1.0000</r>
       <r>  -2.0027  1.0000</r>
       <r>  -1.9634  1.0000</r>
       <r>  -1.9634  1.0000</r>
       <r>  -1.9634  1.0000</r>
       <r>  -1.9634  1.0000</r>
       <r>  -1.8824  1.0000</r>
       <r>  -1.8824  1.0000</r>
       <r>  -1.7644  1.0000</r>
       <r>  -1.7644  1.0000</r>
       <r>  -1.7644  1.0000</r>
       <r>  -1.7644  1.0000</r>
       <r>  -1.5965  1.0000</r>
       <r>  -1.5965  1.0000</r>
       <r>  -1.5965  1.0000</r>
       <r>  -1.5965  1.0000</r>
       <r>  -1.5409  1.0000</r>
       <r>  -1.5409  1.0000</r>
       <r>  -1.5371  1.0000</r>
       <r>  -1.5371  1.0000</r>
       <r>  -1.5371  1.0000</r>
       <r>  -1.5371  1.0000</r>
       <r>  -1.4562  1.0000</r>
       <r>  -1.4561  1.0000</r>
       <r>  -1.4561  1.0000</r>
       <r>  -1.4561  1.0000</r>
       <r>  -1.4247  1.0000</r>
       <r>  -1.4245  1.0000</r>
       <r>  -1.4245  1.0000</r>
       <r>  -1.4245  1.0000</r>
       <r>  -1.4219  1.0000</r>
       <r>  -1.3498  1.0000</r>
       <r>  -1.3498  1.0000</r>
       <r>  -1.3498  1.0000</r>
       <r>  -1.3497  1.0000</r>
       <r>  -1.2980  1.0000</r>
       <r>  -1.2980  1.0000</r>
       <r>  -1.2980  1.0000</r>
       <r>  -1.2979  1.0000</r>
       <r>  -1.2570  1.0000</r>
       <r>  -1.2259  1.0000</r>
       <r>  -1.2099  1.0000</r>
       <r>  -1.2099  1.0000</r>
       <r>  -1.2099  1.0000</r>
       <r>  -1.2098  1.0000</r>
       <r>  -1.1565  1.0000</r>
       <r>  -1.1565  1.0000</r>
       <r>  -1.1425  1.0000</r>
       <r>  -1.1425  1.0000</r>
       <r>  -1.1302  1.0000</r>
       <r>  -1.1302  1.0000</r>
       <r>  -1.1302  1.0000</r>
       <r>  -1.1302  1.0000</r>
       <r>  -1.0913  1.0000</r>
       <r>  -1.0913  1.0000</r>
       <r>  -1.0912  1.0000</r>
       <r>  -1.0912  1.0000</r>
       <r>  -1.0227  1.0000</r>
       <r>  -1.0105  1.0000</r>
       <r>  -1.0105  1.0000</r>
       <r>  -1.0105  1.0000</r>
       <r>  -1.0105  1.0000</r>
       <r>  -0.8701  1.0000</r>
       <r>  -0.8305  1.0000</r>
       <r>  -0.8305  1.0000</r>
       <r>  -0.8305  1.0000</r>
       <r>  -0.8305  1.0000</r>
       <r>  -0.6880  1.0000</r>
       <r>  -0.6880  1.0000</r>
       <r>  -0.6880  1.0000</r>
       <r>  -0.6880  1.0000</r>
       <r>  -0.6742  1.0000</r>
       <r>  -0.6742  1.0000</r>
       <r>  -0.6562  1.0000</r>
       <r>  -0.6448  1.0000</r>
       <r>  -0.6448  1.0000</r>
       <r>  -0.6448  1.0000</r>
       <r>  -0.6448  1.0000</r>
       <r>  -0.5558  1.0000</r>
       <r>  -0.5558  1.0000</r>
       <r>  -0.4973  1.0000</r>
       <r>  -0.4973  1.0000</r>
       <r>  -0.4972  1.0000</r>
       <r>  -0.4972  1.0000</r>
       <r>  -0.4946  1.0000</r>
       <r>  -0.4946  1.0000</r>
       <r>  -0.4597  1.0000</r>
       <r>  -0.4594  1.0000</r>
       <r>  -0.4588  1.0000</r>
       <r>  -0.4585  1.0000</r>
       <r>  -0.4484  1.0000</r>
       <r>   1.0156  1.0000</r>
       <r>   1.0156  1.0000</r>
       <r>   1.0156  1.0000</r>
       <r>   1.0156  1.0000</r>
       <r>   1.7123  1.0000</r>
       <r>   1.7124  1.0000</r>
       <r>   1.7124  1.0000</r>
       <r>   1.7124  1.0000</r>
       <r>   2.2180  1.0000</r>
       <r>   2.2181  1.0000</r>
       <r>   2.2181  1.0000</r>
       <r>   2.2181  1.0000</r>
       <r>   2.4870  0.0000</r>
       <r>   2.4870  0.0000</r>
       <r>   2.4870  0.0000</r>
       <r>   2.4871  0.0000</r>
       <r>   3.5795  0.0000</r>
       <r>   4.2234  0.0000</r>
       <r>   4.2234  0.0000</r>
       <r>   5.4506  0.0000</r>
       <r>   5.4506  0.0000</r>
       <r>   5.4506  0.0000</r>
       <r>   5.4506  0.0000</r>
       <r>   6.8355  0.0000</r>
       <r>   6.8355  0.0000</r>
       <r>   6.8355  0.0000</r>
       <r>   6.8355  0.0000</r>
       <r>   6.8640  0.0000</r>
       <r>   6.8640  0.0000</r>
       <r>   7.8701  0.0000</r>
       <r>   7.8701  0.0000</r>
       <r>   7.8701  0.0000</r>
       <r>   7.8701  0.0000</r>
       <r>   8.0415  0.0000</r>
       <r>   8.0416  0.0000</r>
       <r>   8.3704  0.0000</r>
       <r>   8.3704  0.0000</r>
       <r>   8.6270  0.0000</r>
       <r>   8.7194  0.0000</r>
       <r>   8.7194  0.0000</r>
       <r>   8.8774  0.0000</r>
       <r>   8.8774  0.0000</r>
       <r>   8.8774  0.0000</r>
       <r>   8.8774  0.0000</r>
       <r>   9.3809  0.0000</r>
       <r>   9.3809  0.0000</r>
       <r>   9.3809  0.0000</r>
       <r>   9.3809  0.0000</r>
       <r>   9.9053  0.0000</r>
      </set>
      <set comment="kpoint 4">
       <r>  -4.2924  1.0000</r>
       <r>  -3.2868  1.0000</r>
       <r>  -3.2303  1.0000</r>
       <r>  -3.2144  1.0000</r>
       <r>  -3.2144  1.0000</r>
       <r>  -3.1994  1.0000</r>
       <r>  -3.1994  1.0000</r>
       <r>  -3.1994  1.0000</r>
       <r>  -3.1994  1.0000</r>
       <r>  -3.1535  1.0000</r>
       <r>  -3.1313  1.0000</r>
       <r>  -3.1313  1.0000</r>
       <r>  -2.9098  1.0000</r>
       <r>  -2.8580  1.0000</r>
       <r>  -2.7986  1.0000</r>
       <r>  -2.7984  1.0000</r>
       <r>  -2.7901  1.0000</r>
       <r>  -2.7901  1.0000</r>
       <r>  -2.7900  1.0000</r>
       <r>  -2.7899  1.0000</r>
       <r>  -2.7054  1.0000</r>
       <r>  -2.7054  1.0000</r>
       <r>  -2.7054  1.0000</r>
       <r>  -2.7054  1.0000</r>
       <r>  -2.6360  1.0000</r>
       <r>  -2.6360  1.0000</r>
       <r>  -2.6339  1.0000</r>
       <r>  -2.6339  1.0000</r>
       <r>  -2.6338  1.0000</r>
       <r>  -2.6338  1.0000</r>
       <r>  -2.6054  1.0000</r>
       <r>  -2.6053  1.0000</r>
       <r>  -2.6053  1.0000</r>
       <r>  -2.6053  1.0000</r>
       <r>  -2.4749  1.0000</r>
       <r>  -2.4749  1.0000</r>
       <r>  -2.4749  1.0000</r>
       <r>  -2.4749  1.0000</r>
       <r>  -2.4151  1.0000</r>
       <r>  -2.3856  1.0000</r>
       <r>  -2.3856  1.0000</r>
       <r>  -2.3856  1.0000</r>
       <r>  -2.3856  1.0000</r>
       <r>  -2.3778  1.0000</r>
       <r>  -2.3778  1.0000</r>
       <r>  -2.3778  1.0000</r>
       <r>  -2.3778  1.0000</r>
       <r>  -2.2318  1.0000</r>
       <r>  -2.2318  1.0000</r>
       <r>  -2.2318  1.0000</r>
       <r>  -2.2318  1.0000</r>
       <r>  -2.2108  1.0000</r>
       <r>  -2.2100  1.0000</r>
       <r>  -2.2100  1.0000</r>
       <r>  -2.2100  1.0000</r>
       <r>  -2.2080  1.0000</r>
       <r>  -2.2079  1.0000</r>
       <r>  -2.2079  1.0000</r>
       <r>  -2.2072  1.0000</r>
       <r>  -2.1751  1.0000</r>
       <r>  -2.1751  1.0000</r>
       <r>  -2.1751  1.0000</r>
       <r>  -2.1750  1.0000</r>
       <r>  -2.0819  1.0000</r>
       <r>  -2.0735  1.0000</r>
       <r>  -2.0735  1.0000</r>
       <r>  -2.0735  1.0000</r>
       <r>  -2.0735  1.0000</r>
       <r>  -2.0654  1.0000</r>
       <r>  -2.0654  1.0000</r>
       <r>  -2.0654  1.0000</r>
       <r>  -2.0654  1.0000</r>
       <r>  -2.0182  1.0000</r>
       <r>  -2.0182  1.0000</r>
       <r>  -2.0182  1.0000</r>
       <r>  -2.0181  1.0000</r>
       <r>  -1.9985  1.0000</r>
       <r>  -1.9985  1.0000</r>
       <r>  -1.9985  1.0000</r>
       <r>  -1.9985  1.0000</r>
       <r>  -1.9865  1.0000</r>
       <r>  -1.9865  1.0000</r>
       <r>  -1.7040  1.0000</r>
       <r>  -1.7040  1.0000</r>
       <r>  -1.6655  1.0000</r>
       <r>  -1.6654  1.0000</r>
       <r>  -1.6654  1.0000</r>
       <r>  -1.6654  1.0000</r>
       <r>  -1.6584  1.0000</r>
       <r>  -1.6583  1.0000</r>
       <r>  -1.6583  1.0000</r>
       <r>  -1.6583  1.0000</r>
       <r>  -1.6290  1.0000</r>
       <r>  -1.6290  1.0000</r>
       <r>  -1.6280  1.0000</r>
       <r>  -1.6280  1.0000</r>
       <r>  -1.6279  1.0000</r>
       <r>  -1.6279  1.0000</r>
       <r>  -1.4669  1.0000</r>
       <r>  -1.3874  1.0000</r>
       <r>  -1.3874  1.0000</r>
       <r>  -1.3874  1.0000</r>
       <r>  -1.3874  1.0000</r>
       <r>  -1.3682  1.0000</r>
       <r>  -1.3682  1.0000</r>
       <r>  -1.3682  1.0000</r>
       <r>  -1.3682  1.0000</r>
       <r>  -1.3513  1.0000</r>
       <r>  -1.3513  1.0000</r>
       <r>  -1.3513  1.0000</r>
       <r>  -1.3513  1.0000</r>
       <r>  -1.3223  1.0000</r>
       <r>  -1.3223  1.0000</r>
       <r>  -1.3223  1.0000</r>
       <r>  -1.3223  1.0000</r>
       <r>  -1.2829  1.0000</r>
       <r>  -1.2140  1.0000</r>
       <r>  -1.2122  1.0000</r>
       <r>  -1.2122  1.0000</r>
       <r>  -1.2122  1.0000</r>
       <r>  -1.2121  1.0000</r>
       <r>  -1.0985  1.0000</r>
       <r>  -1.0985  1.0000</r>
       <r>  -1.0591  1.0000</r>
       <r>  -1.0561  1.0000</r>
       <r>  -1.0561  1.0000</r>
       <r>  -1.0561  1.0000</r>
       <r>  -1.0558  1.0000</r>
       <r>  -1.0388  1.0000</r>
       <r>  -1.0388  1.0000</r>
       <r>  -1.0304  1.0000</r>
       <r>  -1.0304  1.0000</r>
       <r>  -1.0304  1.0000</r>
       <r>  -1.0304  1.0000</r>
       <r>  -1.0139  1.0000</r>
       <r>  -1.0139  1.0000</r>
       <r>  -1.0139  1.0000</r>
       <r>  -1.0139  1.0000</r>
       <r>  -0.8331  1.0000</r>
       <r>  -0.7707  1.0000</r>
       <r>  -0.7707  1.0000</r>
       <r>  -0.7707  1.0000</r>
       <r>  -0.7707  1.0000</r>
       <r>  -0.7092  1.0000</r>
       <r>  -0.7092  1.0000</r>
       <r>  -0.6763  1.0000</r>
       <r>  -0.6763  1.0000</r>
       <r>  -0.6763  1.0000</r>
       <r>  -0.6763  1.0000</r>
       <r>  -0.6691  1.0000</r>
       <r>  -0.6673  1.0000</r>
       <r>  -0.6673  1.0000</r>
       <r>  -0.6626  1.0000</r>
       <r>  -0.6625  1.0000</r>
       <r>  -0.6625  1.0000</r>
       <r>  -0.6625  1.0000</r>
       <r>  -0.5434  1.0000</r>
       <r>  -0.5434  1.0000</r>
       <r>  -0.5434  1.0000</r>
       <r>  -0.5434  1.0000</r>
       <r>  -0.5375  1.0000</r>
       <r>  -0.5375  1.0000</r>
       <r>  -0.4597  1.0000</r>
       <r>  -0.4594  1.0000</r>
       <r>  -0.4588  1.0000</r>
       <r>  -0.4585  1.0000</r>
       <r>  -0.0268  1.0000</r>
       <r>   0.7176  1.0000</r>
       <r>   0.7176  1.0000</r>
       <r>   0.7176  1.0000</r>
       <r>   0.7176  1.0000</r>
       <r>   1.7390  1.0000</r>
       <r>   1.7390  1.0000</r>
       <r>   1.7391  1.0000</r>
       <r>   1.7391  1.0000</r>
       <r>   2.1371  1.0000</r>
       <r>   2.1371  1.0000</r>
       <r>   2.1371  1.0000</r>
       <r>   2.1371  1.0000</r>
       <r>   2.9325  0.0000</r>
       <r>   2.9325  0.0000</r>
       <r>   2.9325  0.0000</r>
       <r>   2.9325  0.0000</r>
       <r>   3.1008  0.0000</r>
       <r>   4.4052  0.0000</r>
       <r>   4.4052  0.0000</r>
       <r>   5.7356  0.0000</r>
       <r>   5.7356  0.0000</r>
       <r>   5.7356  0.0000</r>
       <r>   5.7357  0.0000</r>
       <r>   6.2206  0.0000</r>
       <r>   6.2206  0.0000</r>
       <r>   6.2206  0.0000</r>
       <r>   6.2206  0.0000</r>
       <r>   6.4317  0.0000</r>
       <r>   6.4317  0.0000</r>
       <r>   7.9904  0.0000</r>
       <r>   7.9904  0.0000</r>
       <r>   7.9904  0.0000</r>
       <r>   7.9904  0.0000</r>
       <r>   8.0592  0.0000</r>
       <r>   8.0592  0.0000</r>
       <r>   8.3174  0.0000</r>
       <r>   8.3174  0.0000</r>
       <r>   8.7415  0.0000</r>
       <r>   8.7415  0.0000</r>
       <r>   8.7415  0.0000</r>
       <r>   8.7415  0.0000</r>
       <r>   9.0222  0.0000</r>
       <r>   9.0222  0.0000</r>
       <r>   9.0222  0.0000</r>
       <r>   9.0222  0.0000</r>
       <r>   9.1999  0.0000</r>
       <r>   9.1999  0.0000</r>
       <r>   9.2412  0.0000</r>
       <r>   9.5379  0.0000</r>
      </set>
      <set comment="kpoint 5">
       <r>  -4.1815  1.0000</r>
       <r>  -3.4882  1.0000</r>
       <r>  -3.1904  1.0000</r>
       <r>  -3.1627  1.0000</r>
       <r>  -3.1627  1.0000</r>
       <r>  -3.1484  1.0000</r>
       <r>  -3.1484  1.0000</r>
       <r>  -3.1484  1.0000</r>
       <r>  -3.1484  1.0000</r>
       <r>  -3.1226  1.0000</r>
       <r>  -3.0827  1.0000</r>
       <r>  -3.0827  1.0000</r>
       <r>  -2.9649  1.0000</r>
       <r>  -2.9232  1.0000</r>
       <r>  -2.8714  1.0000</r>
       <r>  -2.8714  1.0000</r>
       <r>  -2.8147  1.0000</r>
       <r>  -2.8147  1.0000</r>
       <r>  -2.8147  1.0000</r>
       <r>  -2.8147  1.0000</r>
       <r>  -2.7517  1.0000</r>
       <r>  -2.7517  1.0000</r>
       <r>  -2.7244  1.0000</r>
       <r>  -2.7244  1.0000</r>
       <r>  -2.7244  1.0000</r>
       <r>  -2.7244  1.0000</r>
       <r>  -2.6004  1.0000</r>
       <r>  -2.6003  1.0000</r>
       <r>  -2.6003  1.0000</r>
       <r>  -2.6003  1.0000</r>
       <r>  -2.5790  1.0000</r>
       <r>  -2.5790  1.0000</r>
       <r>  -2.5790  1.0000</r>
       <r>  -2.5790  1.0000</r>
       <r>  -2.4867  1.0000</r>
       <r>  -2.4867  1.0000</r>
       <r>  -2.4867  1.0000</r>
       <r>  -2.4867  1.0000</r>
       <r>  -2.4223  1.0000</r>
       <r>  -2.4223  1.0000</r>
       <r>  -2.4223  1.0000</r>
       <r>  -2.4223  1.0000</r>
       <r>  -2.4116  1.0000</r>
       <r>  -2.4116  1.0000</r>
       <r>  -2.4116  1.0000</r>
       <r>  -2.4116  1.0000</r>
       <r>  -2.3444  1.0000</r>
       <r>  -2.2380  1.0000</r>
       <r>  -2.2380  1.0000</r>
       <r>  -2.2380  1.0000</r>
       <r>  -2.2380  1.0000</r>
       <r>  -2.2070  1.0000</r>
       <r>  -2.2065  1.0000</r>
       <r>  -2.2065  1.0000</r>
       <r>  -2.2065  1.0000</r>
       <r>  -2.2016  1.0000</r>
       <r>  -2.2016  1.0000</r>
       <r>  -2.2016  1.0000</r>
       <r>  -2.2011  1.0000</r>
       <r>  -2.1537  1.0000</r>
       <r>  -2.1536  1.0000</r>
       <r>  -2.1536  1.0000</r>
       <r>  -2.1536  1.0000</r>
       <r>  -2.1391  1.0000</r>
       <r>  -2.1391  1.0000</r>
       <r>  -2.1391  1.0000</r>
       <r>  -2.1390  1.0000</r>
       <r>  -2.1184  1.0000</r>
       <r>  -2.0794  1.0000</r>
       <r>  -2.0794  1.0000</r>
       <r>  -2.0794  1.0000</r>
       <r>  -2.0794  1.0000</r>
       <r>  -2.0407  1.0000</r>
       <r>  -2.0407  1.0000</r>
       <r>  -2.0407  1.0000</r>
       <r>  -2.0407  1.0000</r>
       <r>  -1.9625  1.0000</r>
       <r>  -1.9625  1.0000</r>
       <r>  -1.9625  1.0000</r>
       <r>  -1.9625  1.0000</r>
       <r>  -1.9502  1.0000</r>
       <r>  -1.9502  1.0000</r>
       <r>  -1.7711  1.0000</r>
       <r>  -1.7711  1.0000</r>
       <r>  -1.7711  1.0000</r>
       <r>  -1.7711  1.0000</r>
       <r>  -1.7355  1.0000</r>
       <r>  -1.7355  1.0000</r>
       <r>  -1.7355  1.0000</r>
       <r>  -1.7355  1.0000</r>
       <r>  -1.7100  1.0000</r>
       <r>  -1.7100  1.0000</r>
       <r>  -1.5204  1.0000</r>
       <r>  -1.5204  1.0000</r>
       <r>  -1.4747  1.0000</r>
       <r>  -1.4746  1.0000</r>
       <r>  -1.4746  1.0000</r>
       <r>  -1.4746  1.0000</r>
       <r>  -1.4656  1.0000</r>
       <r>  -1.3528  1.0000</r>
       <r>  -1.3528  1.0000</r>
       <r>  -1.3528  1.0000</r>
       <r>  -1.3527  1.0000</r>
       <r>  -1.3382  1.0000</r>
       <r>  -1.3382  1.0000</r>
       <r>  -1.3382  1.0000</r>
       <r>  -1.3382  1.0000</r>
       <r>  -1.3189  1.0000</r>
       <r>  -1.3187  1.0000</r>
       <r>  -1.3187  1.0000</r>
       <r>  -1.3187  1.0000</r>
       <r>  -1.3172  1.0000</r>
       <r>  -1.3134  1.0000</r>
       <r>  -1.3134  1.0000</r>
       <r>  -1.3133  1.0000</r>
       <r>  -1.3130  1.0000</r>
       <r>  -1.2182  1.0000</r>
       <r>  -1.2182  1.0000</r>
       <r>  -1.2182  1.0000</r>
       <r>  -1.2182  1.0000</r>
       <r>  -1.1975  1.0000</r>
       <r>  -1.0927  1.0000</r>
       <r>  -1.0675  1.0000</r>
       <r>  -1.0675  1.0000</r>
       <r>  -1.0675  1.0000</r>
       <r>  -1.0675  1.0000</r>
       <r>  -1.0291  1.0000</r>
       <r>  -1.0290  1.0000</r>
       <r>  -0.9792  1.0000</r>
       <r>  -0.9792  1.0000</r>
       <r>  -0.9792  1.0000</r>
       <r>  -0.9792  1.0000</r>
       <r>  -0.9371  1.0000</r>
       <r>  -0.9371  1.0000</r>
       <r>  -0.9304  1.0000</r>
       <r>  -0.9304  1.0000</r>
       <r>  -0.9304  1.0000</r>
       <r>  -0.9304  1.0000</r>
       <r>  -0.8806  1.0000</r>
       <r>  -0.8806  1.0000</r>
       <r>  -0.8806  1.0000</r>
       <r>  -0.8806  1.0000</r>
       <r>  -0.8095  1.0000</r>
       <r>  -0.8095  1.0000</r>
       <r>  -0.7979  1.0000</r>
       <r>  -0.7567  1.0000</r>
       <r>  -0.7567  1.0000</r>
       <r>  -0.7192  1.0000</r>
       <r>  -0.7192  1.0000</r>
       <r>  -0.7192  1.0000</r>
       <r>  -0.7192  1.0000</r>
       <r>  -0.6868  1.0000</r>
       <r>  -0.6045  1.0000</r>
       <r>  -0.6045  1.0000</r>
       <r>  -0.6045  1.0000</r>
       <r>  -0.6045  1.0000</r>
       <r>  -0.5954  1.0000</r>
       <r>  -0.5954  1.0000</r>
       <r>  -0.4729  1.0000</r>
       <r>  -0.4729  1.0000</r>
       <r>  -0.4729  1.0000</r>
       <r>  -0.4729  1.0000</r>
       <r>  -0.4596  1.0000</r>
       <r>  -0.4593  1.0000</r>
       <r>  -0.4589  1.0000</r>
       <r>  -0.4586  1.0000</r>
       <r>   0.4396  1.0000</r>
       <r>   0.4428  1.0000</r>
       <r>   0.4428  1.0000</r>
       <r>   0.4428  1.0000</r>
       <r>   0.4430  1.0000</r>
       <r>   1.7772  1.0000</r>
       <r>   1.7772  1.0000</r>
       <r>   1.7772  1.0000</r>
       <r>   1.7772  1.0000</r>
       <r>   2.0492  1.0000</r>
       <r>   2.0492  1.0000</r>
       <r>   2.0492  1.0000</r>
       <r>   2.0492  1.0000</r>
       <r>   2.5669  0.0000</r>
       <r>   3.4098  0.0000</r>
       <r>   3.4098  0.0000</r>
       <r>   3.4098  0.0000</r>
       <r>   3.4098  0.0000</r>
       <r>   4.6455  0.0000</r>
       <r>   4.6455  0.0000</r>
       <r>   5.6121  0.0000</r>
       <r>   5.6121  0.0000</r>
       <r>   5.6121  0.0000</r>
       <r>   5.6121  0.0000</r>
       <r>   6.0183  0.0000</r>
       <r>   6.0183  0.0000</r>
       <r>   6.1031  0.0000</r>
       <r>   6.1031  0.0000</r>
       <r>   6.1031  0.0000</r>
       <r>   6.1031  0.0000</r>
       <r>   8.0844  0.0000</r>
       <r>   8.0844  0.0000</r>
       <r>   8.1330  0.0000</r>
       <r>   8.1330  0.0000</r>
       <r>   8.1330  0.0000</r>
       <r>   8.1330  0.0000</r>
       <r>   8.1554  0.0000</r>
       <r>   8.1554  0.0000</r>
       <r>   8.1555  0.0000</r>
       <r>   8.1555  0.0000</r>
       <r>   8.2607  0.0000</r>
       <r>   8.2607  0.0000</r>
       <r>   9.1430  0.0000</r>
       <r>   9.1430  0.0000</r>
       <r>   9.1430  0.0000</r>
       <r>   9.1430  0.0000</r>
       <r>   9.1983  0.0000</r>
       <r>   9.1983  0.0000</r>
       <r>   9.1983  0.0000</r>
       <r>   9.1983  0.0000</r>
      </set>
      <set comment="kpoint 6">
       <r>  -4.0416  1.0000</r>
       <r>  -3.6887  1.0000</r>
       <r>  -3.1414  1.0000</r>
       <r>  -3.0995  1.0000</r>
       <r>  -3.0994  1.0000</r>
       <r>  -3.0836  1.0000</r>
       <r>  -3.0836  1.0000</r>
       <r>  -3.0836  1.0000</r>
       <r>  -3.0836  1.0000</r>
       <r>  -3.0835  1.0000</r>
       <r>  -3.0253  1.0000</r>
       <r>  -3.0202  1.0000</r>
       <r>  -3.0202  1.0000</r>
       <r>  -2.9831  1.0000</r>
       <r>  -2.9497  1.0000</r>
       <r>  -2.9497  1.0000</r>
       <r>  -2.9156  1.0000</r>
       <r>  -2.9156  1.0000</r>
       <r>  -2.9156  1.0000</r>
       <r>  -2.9156  1.0000</r>
       <r>  -2.8545  1.0000</r>
       <r>  -2.8545  1.0000</r>
       <r>  -2.6455  1.0000</r>
       <r>  -2.6455  1.0000</r>
       <r>  -2.6455  1.0000</r>
       <r>  -2.6455  1.0000</r>
       <r>  -2.5638  1.0000</r>
       <r>  -2.5637  1.0000</r>
       <r>  -2.5637  1.0000</r>
       <r>  -2.5637  1.0000</r>
       <r>  -2.5463  1.0000</r>
       <r>  -2.5463  1.0000</r>
       <r>  -2.5463  1.0000</r>
       <r>  -2.5463  1.0000</r>
       <r>  -2.5037  1.0000</r>
       <r>  -2.5037  1.0000</r>
       <r>  -2.5037  1.0000</r>
       <r>  -2.5037  1.0000</r>
       <r>  -2.4755  1.0000</r>
       <r>  -2.4755  1.0000</r>
       <r>  -2.4754  1.0000</r>
       <r>  -2.4754  1.0000</r>
       <r>  -2.4664  1.0000</r>
       <r>  -2.4664  1.0000</r>
       <r>  -2.4664  1.0000</r>
       <r>  -2.4664  1.0000</r>
       <r>  -2.2781  1.0000</r>
       <r>  -2.2374  1.0000</r>
       <r>  -2.2374  1.0000</r>
       <r>  -2.2374  1.0000</r>
       <r>  -2.2374  1.0000</r>
       <r>  -2.2036  1.0000</r>
       <r>  -2.2030  1.0000</r>
       <r>  -2.2030  1.0000</r>
       <r>  -2.2030  1.0000</r>
       <r>  -2.1995  1.0000</r>
       <r>  -2.1994  1.0000</r>
       <r>  -2.1994  1.0000</r>
       <r>  -2.1989  1.0000</r>
       <r>  -2.1909  1.0000</r>
       <r>  -2.1909  1.0000</r>
       <r>  -2.1909  1.0000</r>
       <r>  -2.1909  1.0000</r>
       <r>  -2.1639  1.0000</r>
       <r>  -2.1336  1.0000</r>
       <r>  -2.1336  1.0000</r>
       <r>  -2.1336  1.0000</r>
       <r>  -2.1336  1.0000</r>
       <r>  -2.0960  1.0000</r>
       <r>  -2.0960  1.0000</r>
       <r>  -2.0960  1.0000</r>
       <r>  -2.0960  1.0000</r>
       <r>  -2.0159  1.0000</r>
       <r>  -2.0159  1.0000</r>
       <r>  -2.0159  1.0000</r>
       <r>  -2.0159  1.0000</r>
       <r>  -1.9172  1.0000</r>
       <r>  -1.9172  1.0000</r>
       <r>  -1.9172  1.0000</r>
       <r>  -1.9171  1.0000</r>
       <r>  -1.9040  1.0000</r>
       <r>  -1.9040  1.0000</r>
       <r>  -1.8713  1.0000</r>
       <r>  -1.8713  1.0000</r>
       <r>  -1.8713  1.0000</r>
       <r>  -1.8713  1.0000</r>
       <r>  -1.8023  1.0000</r>
       <r>  -1.8023  1.0000</r>
       <r>  -1.8023  1.0000</r>
       <r>  -1.8023  1.0000</r>
       <r>  -1.7834  1.0000</r>
       <r>  -1.7834  1.0000</r>
       <r>  -1.4386  1.0000</r>
       <r>  -1.3572  1.0000</r>
       <r>  -1.3534  1.0000</r>
       <r>  -1.3534  1.0000</r>
       <r>  -1.3533  1.0000</r>
       <r>  -1.3533  1.0000</r>
       <r>  -1.3475  1.0000</r>
       <r>  -1.3475  1.0000</r>
       <r>  -1.3475  1.0000</r>
       <r>  -1.3475  1.0000</r>
       <r>  -1.3346  1.0000</r>
       <r>  -1.3346  1.0000</r>
       <r>  -1.3158  1.0000</r>
       <r>  -1.3158  1.0000</r>
       <r>  -1.3158  1.0000</r>
       <r>  -1.3157  1.0000</r>
       <r>  -1.2791  1.0000</r>
       <r>  -1.2790  1.0000</r>
       <r>  -1.2790  1.0000</r>
       <r>  -1.2790  1.0000</r>
       <r>  -1.2412  1.0000</r>
       <r>  -1.2412  1.0000</r>
       <r>  -1.2412  1.0000</r>
       <r>  -1.2412  1.0000</r>
       <r>  -1.2300  1.0000</r>
       <r>  -1.2300  1.0000</r>
       <r>  -1.2300  1.0000</r>
       <r>  -1.2300  1.0000</r>
       <r>  -1.1768  1.0000</r>
       <r>  -1.1240  1.0000</r>
       <r>  -1.1162  1.0000</r>
       <r>  -1.1162  1.0000</r>
       <r>  -1.1162  1.0000</r>
       <r>  -1.1162  1.0000</r>
       <r>  -1.0122  1.0000</r>
       <r>  -1.0121  1.0000</r>
       <r>  -1.0121  1.0000</r>
       <r>  -1.0121  1.0000</r>
       <r>  -0.9733  1.0000</r>
       <r>  -0.9733  1.0000</r>
       <r>  -0.9551  1.0000</r>
       <r>  -0.9551  1.0000</r>
       <r>  -0.9044  1.0000</r>
       <r>  -0.9044  1.0000</r>
       <r>  -0.9044  1.0000</r>
       <r>  -0.9044  1.0000</r>
       <r>  -0.8440  1.0000</r>
       <r>  -0.8440  1.0000</r>
       <r>  -0.8440  1.0000</r>
       <r>  -0.8440  1.0000</r>
       <r>  -0.8397  1.0000</r>
       <r>  -0.8397  1.0000</r>
       <r>  -0.8152  1.0000</r>
       <r>  -0.8152  1.0000</r>
       <r>  -0.7725  1.0000</r>
       <r>  -0.7725  1.0000</r>
       <r>  -0.7725  1.0000</r>
       <r>  -0.7725  1.0000</r>
       <r>  -0.7650  1.0000</r>
       <r>  -0.7090  1.0000</r>
       <r>  -0.6773  1.0000</r>
       <r>  -0.6773  1.0000</r>
       <r>  -0.6773  1.0000</r>
       <r>  -0.6773  1.0000</r>
       <r>  -0.6665  1.0000</r>
       <r>  -0.6665  1.0000</r>
       <r>  -0.4596  1.0000</r>
       <r>  -0.4592  1.0000</r>
       <r>  -0.4590  1.0000</r>
       <r>  -0.4586  1.0000</r>
       <r>  -0.2679  1.0000</r>
       <r>  -0.2678  1.0000</r>
       <r>  -0.2678  1.0000</r>
       <r>  -0.2678  1.0000</r>
       <r>   0.1885  1.0000</r>
       <r>   0.1885  1.0000</r>
       <r>   0.1885  1.0000</r>
       <r>   0.1885  1.0000</r>
       <r>   0.9415  1.0000</r>
[...]
       <r>  -1.4546  1.0000</r>
       <r>  -1.4546  1.0000</r>
       <r>  -1.4544  1.0000</r>
       <r>  -1.4544  1.0000</r>
       <r>  -1.4544  1.0000</r>
       <r>  -1.4544  1.0000</r>
       <r>  -1.4542  1.0000</r>
       <r>  -1.4542  1.0000</r>
       <r>  -1.2693  1.0000</r>
       <r>  -1.2692  1.0000</r>
       <r>  -1.2692  1.0000</r>
       <r>  -1.2692  1.0000</r>
       <r>  -1.2295  1.0000</r>
       <r>  -1.2295  1.0000</r>
       <r>  -1.2295  1.0000</r>
       <r>  -1.2295  1.0000</r>
       <r>  -1.2146  1.0000</r>
       <r>  -1.2146  1.0000</r>
       <r>  -1.2143  1.0000</r>
       <r>  -1.2143  1.0000</r>
       <r>  -1.2143  1.0000</r>
       <r>  -1.2142  1.0000</r>
       <r>  -1.2140  1.0000</r>
       <r>  -1.2140  1.0000</r>
       <r>  -1.0789  1.0000</r>
       <r>  -1.0789  1.0000</r>
       <r>  -1.0789  1.0000</r>
       <r>  -1.0789  1.0000</r>
       <r>  -0.9895  1.0000</r>
       <r>  -0.9895  1.0000</r>
       <r>  -0.9895  1.0000</r>
       <r>  -0.9895  1.0000</r>
       <r>  -0.9870  1.0000</r>
       <r>  -0.9870  1.0000</r>
       <r>  -0.9870  1.0000</r>
       <r>  -0.9870  1.0000</r>
       <r>  -0.6087  1.0000</r>
       <r>  -0.6087  1.0000</r>
       <r>  -0.6085  1.0000</r>
       <r>  -0.6085  1.0000</r>
       <r>  -0.6085  1.0000</r>
       <r>  -0.6085  1.0000</r>
       <r>  -0.6084  1.0000</r>
       <r>  -0.6084  1.0000</r>
       <r>  -0.5993  1.0000</r>
       <r>  -0.5993  1.0000</r>
       <r>  -0.5993  1.0000</r>
       <r>  -0.5993  1.0000</r>
       <r>  -0.5890  1.0000</r>
       <r>  -0.5890  1.0000</r>
       <r>  -0.5890  1.0000</r>
       <r>  -0.5889  1.0000</r>
       <r>  -0.5852  1.0000</r>
       <r>  -0.5852  1.0000</r>
       <r>  -0.5851  1.0000</r>
       <r>  -0.5851  1.0000</r>
       <r>  -0.5850  1.0000</r>
       <r>  -0.5850  1.0000</r>
       <r>  -0.5849  1.0000</r>
       <r>  -0.5849  1.0000</r>
       <r>   2.0944  1.0000</r>
       <r>   2.0944  1.0000</r>
       <r>   2.0944  1.0000</r>
       <r>   2.0944  1.0000</r>
       <r>   2.8210  0.0000</r>
       <r>   2.8210  0.0000</r>
       <r>   2.8212  0.0000</r>
       <r>   2.8212  0.0000</r>
       <r>   2.8212  0.0000</r>
       <r>   2.8212  0.0000</r>
       <r>   2.8214  0.0000</r>
       <r>   2.8214  0.0000</r>
       <r>   3.6640  0.0000</r>
       <r>   3.6640  0.0000</r>
       <r>   3.6646  0.0000</r>
       <r>   3.6646  0.0000</r>
       <r>   3.6646  0.0000</r>
       <r>   3.6646  0.0000</r>
       <r>   3.6652  0.0000</r>
       <r>   3.6652  0.0000</r>
       <r>   4.3819  0.0000</r>
       <r>   4.3819  0.0000</r>
       <r>   4.3819  0.0000</r>
       <r>   4.3819  0.0000</r>
       <r>   6.8449  0.0000</r>
       <r>   6.8449  0.0000</r>
       <r>   6.8453  0.0000</r>
       <r>   6.8453  0.0000</r>
       <r>   6.8453  0.0000</r>
       <r>   6.8453  0.0000</r>
       <r>   6.8456  0.0000</r>
       <r>   6.8456  0.0000</r>
       <r>   7.4098  0.0000</r>
       <r>   7.4098  0.0000</r>
       <r>   7.4098  0.0000</r>
       <r>   7.4098  0.0000</r>
       <r>   8.3371  0.0000</r>
       <r>   8.3371  0.0000</r>
       <r>   8.3371  0.0000</r>
       <r>   8.3371  0.0000</r>
       <r>   8.8915  0.0000</r>
       <r>   8.8915  0.0000</r>
       <r>   8.8916  0.0000</r>
       <r>   8.8916  0.0000</r>
       <r>   8.8917  0.0000</r>
       <r>   8.8917  0.0000</r>
       <r>   8.8918  0.0000</r>
       <r>   8.8918  0.0000</r>
      </set>
      <set comment="kpoint 195">
       <r>  -3.2783  1.0000</r>
       <r>  -3.2783  1.0000</r>
       <r>  -3.2783  1.0000</r>
       <r>  -3.2783  1.0000</r>
       <r>  -3.1869  1.0000</r>
       <r>  -3.1869  1.0000</r>
       <r>  -3.1869  1.0000</r>
       <r>  -3.1869  1.0000</r>
       <r>  -2.9022  1.0000</r>
       <r>  -2.9020  1.0000</r>
       <r>  -2.9020  1.0000</r>
       <r>  -2.9018  1.0000</r>
       <r>  -2.9017  1.0000</r>
       <r>  -2.9017  1.0000</r>
       <r>  -2.9016  1.0000</r>
       <r>  -2.9016  1.0000</r>
       <r>  -2.9003  1.0000</r>
       <r>  -2.9001  1.0000</r>
       <r>  -2.9001  1.0000</r>
       <r>  -2.9000  1.0000</r>
       <r>  -2.8816  1.0000</r>
       <r>  -2.8816  1.0000</r>
       <r>  -2.8815  1.0000</r>
       <r>  -2.8815  1.0000</r>
       <r>  -2.8672  1.0000</r>
       <r>  -2.8672  1.0000</r>
       <r>  -2.8669  1.0000</r>
       <r>  -2.8669  1.0000</r>
       <r>  -2.8669  1.0000</r>
       <r>  -2.8668  1.0000</r>
       <r>  -2.8666  1.0000</r>
       <r>  -2.8666  1.0000</r>
       <r>  -2.4994  1.0000</r>
       <r>  -2.4994  1.0000</r>
       <r>  -2.4991  1.0000</r>
       <r>  -2.4991  1.0000</r>
       <r>  -2.4991  1.0000</r>
       <r>  -2.4990  1.0000</r>
       <r>  -2.4987  1.0000</r>
       <r>  -2.4987  1.0000</r>
       <r>  -2.4835  1.0000</r>
       <r>  -2.4835  1.0000</r>
       <r>  -2.4835  1.0000</r>
       <r>  -2.4835  1.0000</r>
       <r>  -2.3701  1.0000</r>
       <r>  -2.3701  1.0000</r>
       <r>  -2.3698  1.0000</r>
       <r>  -2.3697  1.0000</r>
       <r>  -2.3697  1.0000</r>
       <r>  -2.3697  1.0000</r>
       <r>  -2.3694  1.0000</r>
       <r>  -2.3694  1.0000</r>
       <r>  -2.3657  1.0000</r>
       <r>  -2.3657  1.0000</r>
       <r>  -2.3657  1.0000</r>
       <r>  -2.3657  1.0000</r>
       <r>  -1.9017  1.0000</r>
       <r>  -1.9017  1.0000</r>
       <r>  -1.9017  1.0000</r>
       <r>  -1.9017  1.0000</r>
       <r>  -1.8877  1.0000</r>
       <r>  -1.8877  1.0000</r>
       <r>  -1.8877  1.0000</r>
       <r>  -1.8877  1.0000</r>
       <r>  -1.8756  1.0000</r>
       <r>  -1.8755  1.0000</r>
       <r>  -1.8755  1.0000</r>
       <r>  -1.8755  1.0000</r>
       <r>  -1.8659  1.0000</r>
       <r>  -1.8659  1.0000</r>
       <r>  -1.8659  1.0000</r>
       <r>  -1.8658  1.0000</r>
       <r>  -1.8265  1.0000</r>
       <r>  -1.8265  1.0000</r>
       <r>  -1.8265  1.0000</r>
       <r>  -1.8265  1.0000</r>
       <r>  -1.6577  1.0000</r>
       <r>  -1.6577  1.0000</r>
       <r>  -1.6567  1.0000</r>
       <r>  -1.6567  1.0000</r>
       <r>  -1.6566  1.0000</r>
       <r>  -1.6566  1.0000</r>
       <r>  -1.6559  1.0000</r>
       <r>  -1.6559  1.0000</r>
       <r>  -1.6546  1.0000</r>
       <r>  -1.6546  1.0000</r>
       <r>  -1.6543  1.0000</r>
       <r>  -1.6543  1.0000</r>
       <r>  -1.6114  1.0000</r>
       <r>  -1.6114  1.0000</r>
       <r>  -1.6114  1.0000</r>
       <r>  -1.6114  1.0000</r>
       <r>  -1.5736  1.0000</r>
       <r>  -1.5736  1.0000</r>
       <r>  -1.5729  1.0000</r>
       <r>  -1.5729  1.0000</r>
       <r>  -1.5729  1.0000</r>
       <r>  -1.5728  1.0000</r>
       <r>  -1.5722  1.0000</r>
       <r>  -1.5722  1.0000</r>
       <r>  -1.5654  1.0000</r>
       <r>  -1.5654  1.0000</r>
       <r>  -1.5653  1.0000</r>
       <r>  -1.5653  1.0000</r>
       <r>  -1.4490  1.0000</r>
       <r>  -1.4490  1.0000</r>
       <r>  -1.4490  1.0000</r>
       <r>  -1.4490  1.0000</r>
       <r>  -1.4224  1.0000</r>
       <r>  -1.4224  1.0000</r>
       <r>  -1.4221  1.0000</r>
       <r>  -1.4221  1.0000</r>
       <r>  -1.4220  1.0000</r>
       <r>  -1.4220  1.0000</r>
       <r>  -1.4217  1.0000</r>
       <r>  -1.4217  1.0000</r>
       <r>  -1.3061  1.0000</r>
       <r>  -1.3061  1.0000</r>
       <r>  -1.3058  1.0000</r>
       <r>  -1.3057  1.0000</r>
       <r>  -1.3057  1.0000</r>
       <r>  -1.3057  1.0000</r>
       <r>  -1.3053  1.0000</r>
       <r>  -1.3053  1.0000</r>
       <r>  -1.3015  1.0000</r>
       <r>  -1.3014  1.0000</r>
       <r>  -1.3014  1.0000</r>
       <r>  -1.3014  1.0000</r>
       <r>  -1.2022  1.0000</r>
       <r>  -1.2022  1.0000</r>
       <r>  -1.2022  1.0000</r>
       <r>  -1.2022  1.0000</r>
       <r>  -1.1110  1.0000</r>
       <r>  -1.1106  1.0000</r>
       <r>  -1.1106  1.0000</r>
       <r>  -1.1106  1.0000</r>
       <r>  -1.1090  1.0000</r>
       <r>  -1.1090  1.0000</r>
       <r>  -1.1090  1.0000</r>
       <r>  -1.1085  1.0000</r>
       <r>  -1.0591  1.0000</r>
       <r>  -1.0591  1.0000</r>
       <r>  -1.0591  1.0000</r>
       <r>  -1.0591  1.0000</r>
       <r>  -0.5884  1.0000</r>
       <r>  -0.5884  1.0000</r>
       <r>  -0.5884  1.0000</r>
       <r>  -0.5884  1.0000</r>
       <r>  -0.5884  1.0000</r>
       <r>  -0.5884  1.0000</r>
       <r>  -0.5883  1.0000</r>
       <r>  -0.5883  1.0000</r>
       <r>  -0.5833  1.0000</r>
       <r>  -0.5832  1.0000</r>
       <r>  -0.5832  1.0000</r>
       <r>  -0.5832  1.0000</r>
       <r>  -0.5772  1.0000</r>
       <r>  -0.5772  1.0000</r>
       <r>  -0.5772  1.0000</r>
       <r>  -0.5772  1.0000</r>
       <r>  -0.5735  1.0000</r>
       <r>  -0.5735  1.0000</r>
       <r>  -0.5735  1.0000</r>
       <r>  -0.5735  1.0000</r>
       <r>  -0.5735  1.0000</r>
       <r>  -0.5735  1.0000</r>
       <r>  -0.5734  1.0000</r>
       <r>  -0.5734  1.0000</r>
       <r>   2.6324  0.0000</r>
       <r>   2.6324  0.0000</r>
       <r>   2.6324  0.0000</r>
       <r>   2.6324  0.0000</r>
       <r>   2.9941  0.0000</r>
       <r>   2.9941  0.0000</r>
       <r>   2.9945  0.0000</r>
       <r>   2.9945  0.0000</r>
       <r>   2.9945  0.0000</r>
       <r>   2.9945  0.0000</r>
       <r>   2.9948  0.0000</r>
       <r>   2.9948  0.0000</r>
       <r>   3.4203  0.0000</r>
       <r>   3.4203  0.0000</r>
       <r>   3.4208  0.0000</r>
       <r>   3.4208  0.0000</r>
       <r>   3.4208  0.0000</r>
       <r>   3.4208  0.0000</r>
       <r>   3.4213  0.0000</r>
       <r>   3.4213  0.0000</r>
       <r>   3.7809  0.0000</r>
       <r>   3.7809  0.0000</r>
       <r>   3.7810  0.0000</r>
       <r>   3.7810  0.0000</r>
       <r>   7.3101  0.0000</r>
       <r>   7.3101  0.0000</r>
       <r>   7.3104  0.0000</r>
       <r>   7.3104  0.0000</r>
       <r>   7.3104  0.0000</r>
       <r>   7.3104  0.0000</r>
       <r>   7.3107  0.0000</r>
       <r>   7.3107  0.0000</r>
       <r>   7.5918  0.0000</r>
       <r>   7.5918  0.0000</r>
       <r>   7.5918  0.0000</r>
       <r>   7.5918  0.0000</r>
       <r>   8.0578  0.0000</r>
       <r>   8.0578  0.0000</r>
       <r>   8.0578  0.0000</r>
       <r>   8.0578  0.0000</r>
       <r>   8.3364  0.0000</r>
       <r>   8.3364  0.0000</r>
       <r>   8.3365  0.0000</r>
       <r>   8.3365  0.0000</r>
       <r>   8.3365  0.0000</r>
       <r>   8.3366  0.0000</r>
       <r>   8.3368  0.0000</r>
       <r>   8.3368  0.0000</r>
      </set>
      <set comment="kpoint 196">
       <r>  -3.2359  1.0000</r>
       <r>  -3.2345  1.0000</r>
       <r>  -3.2345  1.0000</r>
       <r>  -3.2345  1.0000</r>
       <r>  -3.2337  1.0000</r>
       <r>  -3.2337  1.0000</r>
       <r>  -3.2336  1.0000</r>
       <r>  -3.2323  1.0000</r>
       <r>  -2.8908  1.0000</r>
       <r>  -2.8903  1.0000</r>
       <r>  -2.8903  1.0000</r>
       <r>  -2.8902  1.0000</r>
       <r>  -2.8894  1.0000</r>
       <r>  -2.8890  1.0000</r>
       <r>  -2.8889  1.0000</r>
       <r>  -2.8888  1.0000</r>
       <r>  -2.8888  1.0000</r>
       <r>  -2.8887  1.0000</r>
       <r>  -2.8887  1.0000</r>
       <r>  -2.8887  1.0000</r>
       <r>  -2.8886  1.0000</r>
       <r>  -2.8886  1.0000</r>
       <r>  -2.8886  1.0000</r>
       <r>  -2.8885  1.0000</r>
       <r>  -2.8885  1.0000</r>
       <r>  -2.8885  1.0000</r>
       <r>  -2.8884  1.0000</r>
       <r>  -2.8880  1.0000</r>
       <r>  -2.8872  1.0000</r>
       <r>  -2.8871  1.0000</r>
       <r>  -2.8871  1.0000</r>
       <r>  -2.8866  1.0000</r>
       <r>  -2.4329  1.0000</r>
       <r>  -2.4302  1.0000</r>
       <r>  -2.4301  1.0000</r>
       <r>  -2.4300  1.0000</r>
       <r>  -2.4300  1.0000</r>
       <r>  -2.4295  1.0000</r>
       <r>  -2.4293  1.0000</r>
       <r>  -2.4293  1.0000</r>
       <r>  -2.4292  1.0000</r>
       <r>  -2.4291  1.0000</r>
       <r>  -2.4291  1.0000</r>
       <r>  -2.4291  1.0000</r>
       <r>  -2.4291  1.0000</r>
       <r>  -2.4291  1.0000</r>
       <r>  -2.4291  1.0000</r>
       <r>  -2.4290  1.0000</r>
       <r>  -2.4289  1.0000</r>
       <r>  -2.4289  1.0000</r>
       <r>  -2.4287  1.0000</r>
       <r>  -2.4282  1.0000</r>
       <r>  -2.4282  1.0000</r>
       <r>  -2.4281  1.0000</r>
       <r>  -2.4281  1.0000</r>
       <r>  -2.4254  1.0000</r>
       <r>  -1.8754  1.0000</r>
       <r>  -1.8754  1.0000</r>
       <r>  -1.8752  1.0000</r>
       <r>  -1.8750  1.0000</r>
       <r>  -1.8746  1.0000</r>
       <r>  -1.8746  1.0000</r>
       <r>  -1.8745  1.0000</r>
       <r>  -1.8745  1.0000</r>
       <r>  -1.8743  1.0000</r>
       <r>  -1.8743  1.0000</r>
       <r>  -1.8742  1.0000</r>
       <r>  -1.8742  1.0000</r>
       <r>  -1.8738  1.0000</r>
       <r>  -1.8737  1.0000</r>
       <r>  -1.8734  1.0000</r>
       <r>  -1.8734  1.0000</r>
       <r>  -1.7318  1.0000</r>
       <r>  -1.7315  1.0000</r>
       <r>  -1.7304  1.0000</r>
       <r>  -1.7304  1.0000</r>
       <r>  -1.7303  1.0000</r>
       <r>  -1.7303  1.0000</r>
       <r>  -1.7292  1.0000</r>
       <r>  -1.7289  1.0000</r>
       <r>  -1.6132  1.0000</r>
       <r>  -1.6132  1.0000</r>
       <r>  -1.6121  1.0000</r>
       <r>  -1.6120  1.0000</r>
       <r>  -1.6109  1.0000</r>
       <r>  -1.6108  1.0000</r>
       <r>  -1.6108  1.0000</r>
       <r>  -1.6108  1.0000</r>
       <r>  -1.6108  1.0000</r>
       <r>  -1.6107  1.0000</r>
       <r>  -1.6106  1.0000</r>
       <r>  -1.6106  1.0000</r>
       <r>  -1.6106  1.0000</r>
       <r>  -1.6106  1.0000</r>
       <r>  -1.6105  1.0000</r>
       <r>  -1.6105  1.0000</r>
       <r>  -1.6105  1.0000</r>
       <r>  -1.6105  1.0000</r>
       <r>  -1.6105  1.0000</r>
       <r>  -1.6104  1.0000</r>
       <r>  -1.6093  1.0000</r>
       <r>  -1.6091  1.0000</r>
       <r>  -1.6081  1.0000</r>
       <r>  -1.6081  1.0000</r>
       <r>  -1.3782  1.0000</r>
       <r>  -1.3773  1.0000</r>
       <r>  -1.3773  1.0000</r>
       <r>  -1.3759  1.0000</r>
       <r>  -1.3758  1.0000</r>
       <r>  -1.3758  1.0000</r>
       <r>  -1.3758  1.0000</r>
       <r>  -1.3756  1.0000</r>
       <r>  -1.3755  1.0000</r>
       <r>  -1.3755  1.0000</r>
       <r>  -1.3755  1.0000</r>
       <r>  -1.3755  1.0000</r>
       <r>  -1.3754  1.0000</r>
       <r>  -1.3754  1.0000</r>
       <r>  -1.3754  1.0000</r>
       <r>  -1.3754  1.0000</r>
       <r>  -1.3753  1.0000</r>
       <r>  -1.3751  1.0000</r>
       <r>  -1.3751  1.0000</r>
       <r>  -1.3751  1.0000</r>
       <r>  -1.3749  1.0000</r>
       <r>  -1.3735  1.0000</r>
       <r>  -1.3735  1.0000</r>
       <r>  -1.3727  1.0000</r>
       <r>  -1.1334  1.0000</r>
       <r>  -1.1324  1.0000</r>
       <r>  -1.1324  1.0000</r>
       <r>  -1.1324  1.0000</r>
       <r>  -1.1317  1.0000</r>
       <r>  -1.1317  1.0000</r>
       <r>  -1.1316  1.0000</r>
       <r>  -1.1315  1.0000</r>
       <r>  -1.1314  1.0000</r>
       <r>  -1.1314  1.0000</r>
       <r>  -1.1312  1.0000</r>
       <r>  -1.1312  1.0000</r>
       <r>  -1.1305  1.0000</r>
       <r>  -1.1305  1.0000</r>
       <r>  -1.1305  1.0000</r>
       <r>  -1.1295  1.0000</r>
       <r>  -0.5760  1.0000</r>
       <r>  -0.5760  1.0000</r>
       <r>  -0.5759  1.0000</r>
       <r>  -0.5758  1.0000</r>
       <r>  -0.5757  1.0000</r>
       <r>  -0.5757  1.0000</r>
       <r>  -0.5757  1.0000</r>
       <r>  -0.5757  1.0000</r>
       <r>  -0.5756  1.0000</r>
       <r>  -0.5756  1.0000</r>
       <r>  -0.5756  1.0000</r>
       <r>  -0.5755  1.0000</r>
       <r>  -0.5754  1.0000</r>
       <r>  -0.5754  1.0000</r>
       <r>  -0.5754  1.0000</r>
       <r>  -0.5753  1.0000</r>
       <r>  -0.5753  1.0000</r>
       <r>  -0.5753  1.0000</r>
       <r>  -0.5753  1.0000</r>
       <r>  -0.5752  1.0000</r>
       <r>  -0.5752  1.0000</r>
       <r>  -0.5751  1.0000</r>
       <r>  -0.5749  1.0000</r>
       <r>  -0.5749  1.0000</r>
       <r>   3.1908  0.0000</r>
       <r>   3.1930  0.0000</r>
       <r>   3.1930  0.0000</r>
       <r>   3.1952  0.0000</r>
       <r>   3.1954  0.0000</r>
       <r>   3.1956  0.0000</r>
       <r>   3.1956  0.0000</r>
       <r>   3.1957  0.0000</r>
       <r>   3.1957  0.0000</r>
       <r>   3.1957  0.0000</r>
       <r>   3.1957  0.0000</r>
       <r>   3.1957  0.0000</r>
       <r>   3.1958  0.0000</r>
       <r>   3.1959  0.0000</r>
       <r>   3.1959  0.0000</r>
       <r>   3.1959  0.0000</r>
       <r>   3.1959  0.0000</r>
       <r>   3.1960  0.0000</r>
       <r>   3.1960  0.0000</r>
       <r>   3.1962  0.0000</r>
       <r>   3.1964  0.0000</r>
       <r>   3.1985  0.0000</r>
       <r>   3.1985  0.0000</r>
       <r>   3.2008  0.0000</r>
       <r>   7.8040  0.0000</r>
       <r>   7.8040  0.0000</r>
       <r>   7.8061  0.0000</r>
       <r>   7.8076  0.0000</r>
       <r>   7.8077  0.0000</r>
       <r>   7.8081  0.0000</r>
       <r>   7.8081  0.0000</r>
       <r>   7.8084  0.0000</r>
       <r>   7.8085  0.0000</r>
       <r>   7.8085  0.0000</r>
       <r>   7.8085  0.0000</r>
       <r>   7.8085  0.0000</r>
       <r>   7.8086  0.0000</r>
       <r>   7.8086  0.0000</r>
       <r>   7.8086  0.0000</r>
       <r>   7.8087  0.0000</r>
       <r>   7.8087  0.0000</r>
       <r>   7.8090  0.0000</r>
       <r>   7.8090  0.0000</r>
       <r>   7.8094  0.0000</r>
       <r>   7.8096  0.0000</r>
       <r>   7.8111  0.0000</r>
       <r>   7.8131  0.0000</r>
       <r>   7.8131  0.0000</r>
      </set>
     </set>
    </set>
   </array>
  </eigenvalues>
 </calculation>
 <structure name="finalpos" >
  <crystal>
   <varray name="basis" >
    <v>       8.57624305      0.00000000      0.00000000</v>
    <v>       0.00000000      8.57624305      0.00000000</v>
    <v>       0.00000000      0.00000000      8.57624305</v>
   </varray>
   <i name="volume">    630.79935589</i>
   <varray name="rec_basis" >
    <v>       0.11660117      0.00000000      0.00000000</v>
    <v>       0.00000000      0.11660117      0.00000000</v>
    <v>       0.00000000      0.00000000      0.11660117</v>
   </varray>
  </crystal>
  <varray name="positions" >
   <v>       0.00116601      0.00000000      0.00000000</v>
   <v>       0.50000000      0.00000000      0.00000000</v>
   <v>       0.00000000      0.50000000      0.00000000</v>
   <v>       0.50000000      0.50000000      0.00000000</v>
   <v>       0.00000000      0.00000000      0.50000000</v>
   <v>       0.50000000      0.00000000      0.50000000</v>
   <v>       0.00000000      0.50000000      0.50000000</v>
   <v>       0.50000000      0.50000000      0.50000000</v>
   <v>       0.25000000      0.25000000      0.00000000</v>
   <v>       0.75000000      0.25000000      0.00000000</v>
   <v>       0.25000000      0.75000000      0.00000000</v>
   <v>       0.75000000      0.75000000      0.00000000</v>
   <v>       0.25000000      0.25000000      0.50000000</v>
   <v>       0.75000000      0.25000000      0.50000000</v>
   <v>       0.25000000      0.75000000      0.50000000</v>
   <v>       0.75000000      0.75000000      0.50000000</v>
   <v>       0.25000000      0.00000000      0.25000000</v>
   <v>       0.75000000      0.00000000      0.25000000</v>
   <v>       0.25000000      0.50000000      0.25000000</v>
   <v>       0.75000000      0.50000000      0.25000000</v>
   <v>       0.25000000      0.00000000      0.75000000</v>
   <v>       0.75000000      0.00000000      0.75000000</v>
   <v>       0.25000000      0.50000000      0.75000000</v>
   <v>       0.75000000      0.50000000      0.75000000</v>
   <v>       0.00000000      0.25000000      0.25000000</v>
   <v>       0.50000000      0.25000000      0.25000000</v>
   <v>       0.00000000      0.75000000      0.25000000</v>
   <v>       0.50000000      0.75000000      0.25000000</v>
   <v>       0.00000000      0.25000000      0.75000000</v>
   <v>       0.50000000      0.25000000      0.75000000</v>
   <v>       0.00000000      0.75000000      0.75000000</v>
   <v>       0.50000000      0.75000000      0.75000000</v>
  </varray>
 </structure>
</modeling>
