32   
1    

1    
  0.0100000000000000   0.0000000000000000   0.0000000000000000
  -0.1066906700    0.0000000000   -0.0000000000
   0.0058138700    0.0000000000   -0.0000000000
  -0.0010232700    0.0000000000   -0.0000000000
  -0.0018318400   -0.0000000000   -0.0000000000
  -0.0010232700    0.0000000000    0.0000000000
  -0.0018318400   -0.0000000000   -0.0000000000
   0.0001359600    0.0000000000   -0.0000000000
   0.0001045400    0.0000000000    0.0000000000
   0.0157676900    0.0194308700   -0.0000000000
   0.0153394800   -0.0188078600   -0.0000000000
   0.0157676900   -0.0194308700    0.0000000000
   0.0153394800    0.0188078600   -0.0000000000
   0.0000429300    0.0002077700   -0.0000000000
   0.0000416700   -0.0002052600   -0.0000000000
   0.0000429300   -0.0002077700   -0.0000000000
   0.0000416700    0.0002052600    0.0000000000
   0.0157676900    0.0000000000    0.0194308700
   0.0153394800    0.0000000000   -0.0188078600
   0.0000429300   -0.0000000000    0.0002077700
   0.0000416700   -0.0000000000   -0.0002052600
   0.0157676900   -0.0000000000   -0.0194308700
   0.0153394800    0.0000000000    0.0188078600
   0.0000429300    0.0000000000   -0.0002077700
   0.0000416700   -0.0000000000    0.0002052600
  -0.0052568500   -0.0000303200   -0.0000303200
   0.0006517000    0.0000004700    0.0000004700
  -0.0052568500    0.0000303200   -0.0000303200
   0.0006517000   -0.0000004700    0.0000004700
  -0.0052568500   -0.0000303200    0.0000303200
   0.0006517000    0.0000004700   -0.0000004700
  -0.0052568500    0.0000303200    0.0000303200
   0.0006517000   -0.0000004700   -0.0000004700
