mesh: [    48,    48,    48 ]
nqpoint: 2600   
reciprocal_lattice:
- [   0.24962944,   0.00000000,   0.00000000 ] # a*
- [   0.00000000,   0.24962944,   0.00000000 ] # b*
- [   0.00000000,   0.00000000,   0.24962944 ] # c*
natom:   4      
lattice:
- [     4.005937826222273,     0.000000000000000,     0.000000000000000 ] # a
- [     0.000000000000000,     4.005937826222273,     0.000000000000000 ] # b
- [     0.000000000000000,     0.000000000000000,     4.005937826222273 ] # c
points:
- symbol: Au # 1
  coordinates: [  0.000000000000000,  0.000000000000000,  0.000000000000000 ]
  mass: 196.966569
- symbol: Au # 2
  coordinates: [  0.500000000000000,  0.500000000000000,  0.000000000000000 ]
  mass: 196.966569
- symbol: Au # 3
  coordinates: [  0.500000000000000,  0.000000000000000,  0.500000000000000 ]
  mass: 196.966569
- symbol: Au # 4
  coordinates: [  0.000000000000000,  0.500000000000000,  0.500000000000000 ]
  mass: 196.966569
phonon:
- q-position: [    0.0104167,    0.0104167,    0.0104167 ]
  weight: 8    
  band:
  - # 1
    frequency:     0.0620992522
  - # 2
    frequency:     0.0620992522
  - # 3
    frequency:     0.1861756055
  - # 4
    frequency:     3.3016247569
  - # 5
    frequency:     3.3016247569
  - # 6
    frequency:     3.3016247569
  - # 7
    frequency:     3.3047317887
  - # 8
    frequency:     3.3047317887
  - # 9
    frequency:     3.3047317887
  - # 10
    frequency:     5.5626897208
  - # 11
    frequency:     5.5626897208
  - # 12
    frequency:     5.5626897208

- q-position: [    0.0312500,    0.0104167,    0.0104167 ]
  weight: 24   
  band:
  - # 1
    frequency:     0.1299688143
  - # 2
    frequency:     0.1483742092
  - # 3
    frequency:     0.3410452620
  - # 4
    frequency:     3.2973053475
  - # 5
    frequency:     3.3004031348
  - # 6
    frequency:     3.3004583026
  - # 7
    frequency:     3.3004583026
  - # 8
    frequency:     3.3113724448
  - # 9
    frequency:     3.3113724448
  - # 10
    frequency:     5.5576692896
  - # 11
    frequency:     5.5583070687
  - # 12
    frequency:     5.5583070687

- q-position: [    0.0520833,    0.0104167,    0.0104167 ]
  weight: 24   
  band:
  - # 1
    frequency:     0.2271063775
  - # 2
    frequency:     0.2414967464
  - # 3
    frequency:     0.5201224198
  - # 4
    frequency:     3.2886781544
  - # 5
    frequency:     3.2917574925
  - # 6
    frequency:     3.2998562987
  - # 7
    frequency:     3.2998562987
  - # 8
    frequency:     3.3228841388
  - # 9
    frequency:     3.3228841388
  - # 10
    frequency:     5.5476243900
  - # 11
    frequency:     5.5495569996
  - # 12
    frequency:     5.5495569996

- q-position: [    0.0729167,    0.0104167,    0.0104167 ]
  weight: 24   
  band:
  - # 1
    frequency:     0.3247729604
  - # 2
    frequency:     0.3357822780
  - # 3
    frequency:     0.7062601192
  - # 4
    frequency:     3.2757663618
  - # 5
    frequency:     3.2788181248
  - # 6
    frequency:     3.2993769008
  - # 7
    frequency:     3.2993769008
  - # 8
    frequency:     3.3396321281
  - # 9
    frequency:     3.3396321281
  - # 10
    frequency:     5.5325470563
  - # 11
    frequency:     5.5364699370
  - # 12
    frequency:     5.5364699370

- q-position: [    0.0937500,    0.0104167,    0.0104167 ]
  weight: 24   
  band:
  - # 1
    frequency:     0.4217263941
  - # 2
    frequency:     0.4304225225
  - # 3
    frequency:     0.8946942618
  - # 4
    frequency:     3.2586045789
  - # 5
    frequency:     3.2616197572
  - # 6
    frequency:     3.2988838158
  - # 7
    frequency:     3.2988838158
  - # 8
    frequency:     3.3616398732
  - # 9
    frequency:     3.3616398732
  - # 10
    frequency:     5.5124256120
  - # 11
    frequency:     5.5190914012
  - # 12
    frequency:     5.5190914012

- q-position: [    0.1145833,    0.0104167,    0.0104167 ]
  weight: 24   
  band:
  - # 1
    frequency:     0.5181121353
  - # 2
    frequency:     0.5251721303
  - # 3
    frequency:     1.0834947666
  - # 4
    frequency:     3.2372386410
  - # 5
    frequency:     3.2402083746
  - # 6
    frequency:     3.2983365334
  - # 7
    frequency:     3.2983365334
  - # 8
    frequency:     3.3888011214
  - # 9
    frequency:     3.3888011214
  - # 10
    frequency:     5.4872449914
  - # 11
    frequency:     5.4974818719
  - # 12
    frequency:     5.4974818719

- q-position: [    0.1354167,    0.0104167,    0.0104167 ]
  weight: 24   
  band:
  - # 1
    frequency:     0.6140730881
  - # 2
    frequency:     0.6199178502
  - # 3
    frequency:     1.2716568407
  - # 4
    frequency:     3.2117253448
  - # 5
    frequency:     3.2146409540
  - # 6
    frequency:     3.2977252866
  - # 7
    frequency:     3.2977252866
  - # 8
    frequency:     3.4209478166
  - # 9
    frequency:     3.4209478166
  - # 10
    frequency:     5.4569871613
  - # 11
    frequency:     5.4717166078
  - # 12
    frequency:     5.4717166078

- q-position: [    0.1562500,    0.0104167,    0.0104167 ]
  weight: 24   
  band:
  - # 1
    frequency:     0.7096854259
  - # 2
    frequency:     0.7145876764
  - # 3
    frequency:     1.4585421973
  - # 4
    frequency:     3.1821321208
  - # 5
    frequency:     3.1849851318
  - # 6
    frequency:     3.2970519903
  - # 7
    frequency:     3.2970519903
  - # 8
    frequency:     3.4578724256
  - # 9
    frequency:     3.4578724256
  - # 10
    frequency:     5.4216316370
  - # 11
    frequency:     5.4418854252
  - # 12
    frequency:     5.4418854252

- q-position: [    0.1770833,    0.0104167,    0.0104167 ]
  weight: 24   
  band:
  - # 1
    frequency:     0.8049786035
  - # 2
    frequency:     0.8091231604
  - # 3
    frequency:     1.6436815522
  - # 4
    frequency:     3.1485366437
  - # 5
    frequency:     3.1513188094
  - # 6
    frequency:     3.2963239068
  - # 7
    frequency:     3.2963239068
  - # 8
    frequency:     3.4993377719
  - # 9
    frequency:     3.4993377719
  - # 10
    frequency:     5.3811560850
  - # 11
    frequency:     5.4080924363
  - # 12
    frequency:     5.4080924363

- q-position: [    0.1979167,    0.0104167,    0.0104167 ]
  weight: 24   
  band:
  - # 1
    frequency:     0.8999515831
  - # 2
    frequency:     0.9034687524
  - # 3
    frequency:     1.8266943384
  - # 4
    frequency:     3.1110263833
  - # 5
    frequency:     3.1137296978
  - # 6
    frequency:     3.2955511766
  - # 7
    frequency:     3.2955511766
  - # 8
    frequency:     3.5450830781
  - # 9
    frequency:     3.5450830781
  - # 10
    frequency:     5.3355370050
  - # 11
    frequency:     5.3704557526
  - # 12
    frequency:     5.3704557526

- q-position: [    0.2187500,    0.0104167,    0.0104167 ]
  weight: 24   
  band:
  - # 1
    frequency:     0.9945821512
  - # 2
    frequency:     0.9975669411
  - # 3
    frequency:     2.0072524358
  - # 4
    frequency:     3.0696980975
  - # 5
    frequency:     3.0723148051
  - # 6
    frequency:     3.2947456684
  - # 7
    frequency:     3.2947456684
  - # 8
    frequency:     3.5948286253
  - # 9
    frequency:     3.5948286253
  - # 10
    frequency:     5.2847504797
  - # 11
    frequency:     5.3291071539
  - # 12
    frequency:     5.3291071539

- q-position: [    0.2395833,    0.0104167,    0.0104167 ]
  weight: 24   
  band:
  - # 1
    frequency:     1.0888320658
  - # 2
    frequency:     1.0913557409
  - # 3
    frequency:     2.1850624352
  - # 4
    frequency:     3.0246572710
  - # 5
    frequency:     3.0271798690
  - # 6
    frequency:     3.2939203315
  - # 7
    frequency:     3.2939203315
  - # 8
    frequency:     3.6482797325
  - # 9
    frequency:     3.6482797325
  - # 10
    frequency:     5.2287729855
  - # 11
    frequency:     5.2841917290
  - # 12
    frequency:     5.2841917290

- q-position: [    0.2604167,    0.0104167,    0.0104167 ]
  weight: 24   
  band:
  - # 1
    frequency:     1.1826499523
  - # 2
    frequency:     1.1847672726
  - # 3
    frequency:     2.3598564438
  - # 4
    frequency:     2.9760175031
  - # 5
    frequency:     2.9784387372
  - # 6
    frequency:     3.2930887539
  - # 7
    frequency:     3.2930887539
  - # 8
    frequency:     3.7051302676
  - # 9
    frequency:     3.7051302676
  - # 10
    frequency:     5.1675822509
  - # 11
    frequency:     5.2358674899
  - # 12
    frequency:     5.2358674899

- q-position: [    0.2812500,    0.0104167,    0.0104167 ]
  weight: 24   
  band:
  - # 1
    frequency:     1.2759730023
  - # 2
    frequency:     1.2777269297
  - # 3
    frequency:     2.5313871159
  - # 4
    frequency:     2.9238998463
  - # 5
    frequency:     2.9262126999
  - # 6
    frequency:     3.2922648145
  - # 7
    frequency:     3.2922648145
  - # 8
    frequency:     3.7650657482
  - # 9
    frequency:     3.7650657482
  - # 10
    frequency:     5.1011581522
  - # 11
    frequency:     5.1843049659
  - # 12
    frequency:     5.1843049659

- q-position: [    0.3020833,    0.0104167,    0.0104167 ]
  weight: 24   
  band:
  - # 1
    frequency:     1.3687280389
  - # 2
    frequency:     1.3701528978
  - # 3
    frequency:     2.6994248917
  - # 4
    frequency:     2.8684321017
  - # 5
    frequency:     2.8706297784
  - # 6
    frequency:     3.2914623802
  - # 7
    frequency:     3.2914623802
  - # 8
    frequency:     3.8277660537
  - # 9
    frequency:     3.8277660537
  - # 10
    frequency:     5.0294836363
  - # 11
    frequency:     5.1296867797
  - # 12
    frequency:     5.1296867797

- q-position: [    0.3229167,    0.0104167,    0.0104167 ]
  weight: 24   
  band:
  - # 1
    frequency:     1.4608322551
  - # 2
    frequency:     1.4619559168
  - # 3
    frequency:     2.8097480743
  - # 4
    frequency:     2.8118239730
  - # 5
    frequency:     2.8637564344
  - # 6
    frequency:     3.2906950306
  - # 7
    frequency:     3.2906950306
  - # 8
    frequency:     3.8929077641
  - # 9
    frequency:     3.8929077641
  - # 10
    frequency:     4.9525456572
  - # 11
    frequency:     5.0722072132
  - # 12
    frequency:     5.0722072132

- q-position: [    0.3437500,    0.0104167,    0.0104167 ]
  weight: 24   
  band:
  - # 1
    frequency:     1.5521937929
  - # 2
    frequency:     1.5530392250
  - # 3
    frequency:     2.7479867929
  - # 4
    frequency:     2.7499344763
  - # 5
    frequency:     3.0241837325
  - # 6
    frequency:     3.2899758007
  - # 7
    frequency:     3.2899758007
  - # 8
    frequency:     3.9601661478
  - # 9
    frequency:     3.9601661478
  - # 10
    frequency:     4.8703361175
  - # 11
    frequency:     5.0120717664
  - # 12
    frequency:     5.0120717664

- q-position: [    0.3645833,    0.0104167,    0.0104167 ]
  weight: 24   
  band:
  - # 1
    frequency:     1.6427122607
  - # 2
    frequency:     1.6432986502
  - # 3
    frequency:     2.6832916994
  - # 4
    frequency:     2.6851048549
  - # 5
    frequency:     3.1805235717
  - # 6
    frequency:     3.2893169416
  - # 7
    frequency:     3.2893169416
  - # 8
    frequency:     4.0292168274
  - # 9
    frequency:     4.0292168274
  - # 10
    frequency:     4.7828528014
  - # 11
    frequency:     4.9494967167
  - # 12
    frequency:     4.9494967167

- q-position: [    0.3854167,    0.0104167,    0.0104167 ]
  weight: 24   
  band:
  - # 1
    frequency:     1.7322792406
  - # 2
    frequency:     1.7326228273
  - # 3
    frequency:     2.6158098139
  - # 4
    frequency:     2.6174822067
  - # 5
    frequency:     3.2887296991
  - # 6
    frequency:     3.2887296991
  - # 7
    frequency:     3.3326072039
  - # 8
    frequency:     4.0997371550
  - # 9
    frequency:     4.0997371550
  - # 10
    frequency:     4.6901002907
  - # 11
    frequency:     4.8847086878
  - # 12
    frequency:     4.8847086878

- q-position: [    0.4062500,    0.0104167,    0.0104167 ]
  weight: 24   
  band:
  - # 1
    frequency:     1.8207788192
  - # 2
    frequency:     1.8208935238
  - # 3
    frequency:     2.5456908797
  - # 4
    frequency:     2.5472162985
  - # 5
    frequency:     3.2882241125
  - # 6
    frequency:     3.2882241125
  - # 7
    frequency:     3.4802801120
  - # 8
    frequency:     4.1714073222
  - # 9
    frequency:     4.1714073222
  - # 10
    frequency:     4.5920908531
  - # 11
    frequency:     4.8179442477
  - # 12
    frequency:     4.8179442477

- q-position: [    0.4270833,    0.0104167,    0.0104167 ]
  weight: 24   
  band:
  - # 1
    frequency:     1.9079860632
  - # 2
    frequency:     1.9080881556
  - # 3
    frequency:     2.4730864961
  - # 4
    frequency:     2.4744586889
  - # 5
    frequency:     3.2878088352
  - # 6
    frequency:     3.2878088352
  - # 7
    frequency:     3.6234018058
  - # 8
    frequency:     4.2439111949
  - # 9
    frequency:     4.2439111949
  - # 10
    frequency:     4.4888452933
  - # 11
    frequency:     4.7494495874
  - # 12
    frequency:     4.7494495874

- q-position: [    0.4479167,    0.0104167,    0.0104167 ]
  weight: 24   
  band:
  - # 1
    frequency:     1.9937698341
  - # 2
    frequency:     1.9940780960
  - # 3
    frequency:     2.3981492439
  - # 4
    frequency:     2.3993618442
  - # 5
    frequency:     3.2874909818
  - # 6
    frequency:     3.2874909818
  - # 7
    frequency:     3.7618456084
  - # 8
    frequency:     4.3169367013
  - # 9
    frequency:     4.3169367013
  - # 10
    frequency:     4.3803937596
  - # 11
    frequency:     4.6794804922
  - # 12
    frequency:     4.6794804922

- q-position: [    0.4687500,    0.0104167,    0.0104167 ]
  weight: 24   
  band:
  - # 1
    frequency:     2.0781088748
  - # 2
    frequency:     2.0786138362
  - # 3
    frequency:     2.3210318122
  - # 4
    frequency:     2.3220782533
  - # 5
    frequency:     3.2872760013
  - # 6
    frequency:     3.2872760013
  - # 7
    frequency:     3.8954984094
  - # 8
    frequency:     4.2667764978
  - # 9
    frequency:     4.3901744797
  - # 10
    frequency:     4.3901744797
  - # 11
    frequency:     4.6083039377
  - # 12
    frequency:     4.6083039377

- q-position: [    0.4895833,    0.0104167,    0.0104167 ]
  weight: 24   
  band:
  - # 1
    frequency:     2.1608625244
  - # 2
    frequency:     2.1615556310
  - # 3
    frequency:     2.2418861318
  - # 4
    frequency:     2.2427595470
  - # 5
    frequency:     3.2871675810
  - # 6
    frequency:     3.2871675810
  - # 7
    frequency:     4.0242603664
  - # 8
    frequency:     4.1480445460
  - # 9
    frequency:     4.4632922352
  - # 10
    frequency:     4.4632922352
  - # 11
    frequency:     4.5362238873
  - # 12
    frequency:     4.5362238873

- q-position: [    0.0312500,    0.0312500,    0.0104167 ]
  weight: 24   
  band:
  - # 1
    frequency:     0.1286727977
  - # 2
    frequency:     0.1969647498
  - # 3
    frequency:     0.4610127492
  - # 4
    frequency:     3.2947025891
  - # 5
    frequency:     3.2961332367
  - # 6
    frequency:     3.2961332367
  - # 7
    frequency:     3.3070322805
  - # 8
    frequency:     3.3070322805
  - # 9
    frequency:     3.3225400826
  - # 10
    frequency:     5.5533293872
  - # 11
    frequency:     5.5533293872
  - # 12
    frequency:     5.5539242836

- q-position: [    0.0520833,    0.0312500,    0.0104167 ]
  weight: 48   
  band:
  - # 1
    frequency:     0.1968858991
  - # 2
    frequency:     0.2739834356
  - # 3
    frequency:     0.6155503685
  - # 4
    frequency:     3.2874946396
  - # 5
    frequency:     3.2902297990
  - # 6
    frequency:     3.2955037100
  - # 7
    frequency:     3.2983638005
  - # 8
    frequency:     3.3185369867
  - # 9
    frequency:     3.3377993228
  - # 10
    frequency:     5.5433698261
  - # 11
    frequency:     5.5446648040
  - # 12
    frequency:     5.5451739554

- q-position: [    0.0729167,    0.0312500,    0.0104167 ]
  weight: 48   
  band:
  - # 1
    frequency:     0.2913681557
  - # 2
    frequency:     0.3599396797
  - # 3
    frequency:     0.7838039456
  - # 4
    frequency:     3.2745655112
  - # 5
    frequency:     3.2853906335
  - # 6
    frequency:     3.2869541912
  - # 7
    frequency:     3.2949764948
  - # 8
    frequency:     3.3352805914
  - # 9
    frequency:     3.3571618821
  - # 10
    frequency:     5.5284201034
  - # 11
    frequency:     5.5317059365
  - # 12
    frequency:     5.5320865225

- q-position: [    0.0937500,    0.0312500,    0.0104167 ]
  weight: 48   
  band:
  - # 1
    frequency:     0.3906976457
  - # 2
    frequency:     0.4496376639
  - # 3
    frequency:     0.9590761156
  - # 4
    frequency:     3.2573801786
  - # 5
    frequency:     3.2681480502
  - # 6
    frequency:     3.2845379010
  - # 7
    frequency:     3.2944164057
  - # 8
    frequency:     3.3572849387
  - # 9
    frequency:     3.3808564712
  - # 10
    frequency:     5.5084680801
  - # 11
    frequency:     5.5144982637
  - # 12
    frequency:     5.5147075265

- q-position: [    0.1145833,    0.0312500,    0.0104167 ]
  weight: 48   
  band:
  - # 1
    frequency:     0.4903898323
  - # 2
    frequency:     0.5411603663
  - # 3
    frequency:     1.1379894967
  - # 4
    frequency:     3.2359840888
  - # 5
    frequency:     3.2466827593
  - # 6
    frequency:     3.2827137343
  - # 7
    frequency:     3.2937830386
  - # 8
    frequency:     3.3844430162
  - # 9
    frequency:     3.4090081362
  - # 10
    frequency:     5.4834980963
  - # 11
    frequency:     5.4930974764
  - # 12
    frequency:     5.4931022082

- q-position: [    0.1354167,    0.0312500,    0.0104167 ]
  weight: 48   
  band:
  - # 1
    frequency:     0.5895016401
  - # 2
    frequency:     0.6336547061
  - # 3
    frequency:     1.3185330904
  - # 4
    frequency:     3.2104335355
  - # 5
    frequency:     3.2210526362
  - # 6
    frequency:     3.2812943331
  - # 7
    frequency:     3.2930661934
  - # 8
    frequency:     3.4165864221
  - # 9
    frequency:     3.4416317453
  - # 10
    frequency:     5.4534914114
  - # 11
    frequency:     5.4673316675
  - # 12
    frequency:     5.4675929554

- q-position: [    0.1562500,    0.0312500,    0.0104167 ]
  weight: 48   
  band:
  - # 1
    frequency:     0.6878792432
  - # 2
    frequency:     0.7266777415
  - # 3
    frequency:     1.4993967004
  - # 4
    frequency:     3.1807953186
  - # 5
    frequency:     3.1913263877
  - # 6
    frequency:     3.2801542582
  - # 7
    frequency:     3.2922670734
  - # 8
    frequency:     3.4535074550
  - # 9
    frequency:     3.4786529352
  - # 10
    frequency:     5.4184267428
  - # 11
    frequency:     5.4374999604
  - # 12
    frequency:     5.4380602286

- q-position: [    0.1770833,    0.0312500,    0.0104167 ]
  weight: 48   
  band:
  - # 1
    frequency:     0.7855466306
  - # 2
    frequency:     0.8199664062
  - # 3
    frequency:     1.6796632701
  - # 4
    frequency:     3.1471463411
  - # 5
    frequency:     3.1575831554
  - # 6
    frequency:     3.2792116622
  - # 7
    frequency:     3.2913920758
  - # 8
    frequency:     3.4949688496
  - # 9
    frequency:     3.5199296980
  - # 10
    frequency:     5.3782808940
  - # 11
    frequency:     5.4037065200
  - # 12
    frequency:     5.4046080266

- q-position: [    0.1979167,    0.0312500,    0.0104167 ]
  weight: 48   
  band:
  - # 1
    frequency:     0.8825521412
  - # 2
    frequency:     0.9133436994
  - # 3
    frequency:     1.8586493542
  - # 4
    frequency:     3.1095731437
  - # 5
    frequency:     3.1199120581
  - # 6
    frequency:     3.2784142299
  - # 7
    frequency:     3.2904503919
  - # 8
    frequency:     3.5407097789
  - # 9
    frequency:     3.5652697865
  - # 10
    frequency:     5.3330294654
  - # 11
    frequency:     5.3660695198
  - # 12
    frequency:     5.3673543229

- q-position: [    0.2187500,    0.0312500,    0.0104167 ]
  weight: 48   
  band:
  - # 1
    frequency:     0.9789294357
  - # 2
    frequency:     1.0066757901
  - # 3
    frequency:     2.0358176036
  - # 4
    frequency:     3.0681713805
  - # 5
    frequency:     3.0784116782
  - # 6
    frequency:     3.2777293722
  - # 7
    frequency:     3.2894529097
  - # 8
    frequency:     3.5904504933
  - # 9
    frequency:     3.6144438280
  - # 10
    frequency:     5.2826476355
  - # 11
    frequency:     5.3247208123
  - # 12
    frequency:     5.3264307324

- q-position: [    0.2395833,    0.0312500,    0.0104167 ]
  weight: 48   
  band:
  - # 1
    frequency:     1.0746895836
  - # 2
    frequency:     1.0998505208
  - # 3
    frequency:     2.2107267972
  - # 4
    frequency:     3.0230452400
  - # 5
    frequency:     3.0331894930
  - # 6
    frequency:     3.2771376337
  - # 7
    frequency:     3.2884116089
  - # 8
    frequency:     3.6438962894
  - # 9
    frequency:     3.6671950768
  - # 10
    frequency:     5.2271110049
  - # 11
    frequency:     5.2798055723
  - # 12
    frequency:     5.2819821479

- q-position: [    0.2604167,    0.0312500,    0.0104167 ]
  weight: 48   
  band:
  - # 1
    frequency:     1.1698215898
  - # 2
    frequency:     1.1927658232
  - # 3
    frequency:     2.3830023299
  - # 4
    frequency:     2.9743068144
  - # 5
    frequency:     2.9843612545
  - # 6
    frequency:     3.2766283044
  - # 7
    frequency:     3.2873391612
  - # 8
    frequency:     3.7007410108
  - # 9
    frequency:     3.7232467370
  - # 10
    frequency:     5.1663964899
  - # 11
    frequency:     5.2314819153
  - # 12
    frequency:     5.2341663512

- q-position: [    0.2812500,    0.0312500,    0.0104167 ]
  weight: 48   
  band:
  - # 1
    frequency:     1.2642948350
  - # 2
    frequency:     1.2853231119
  - # 3
    frequency:     2.5523182517
  - # 4
    frequency:     2.9220754230
  - # 5
    frequency:     2.9320503197
  - # 6
    frequency:     3.2761964810
  - # 7
    frequency:     3.2862486230
  - # 8
    frequency:     3.7606701392
  - # 9
    frequency:     3.7823075577
  - # 10
    frequency:     5.1004832550
  - # 11
    frequency:     5.1799204980
  - # 12
    frequency:     5.1831536043

- q-position: [    0.3020833,    0.0312500,    0.0104167 ]
  weight: 48   
  band:
  - # 1
    frequency:     1.3580615875
  - # 2
    frequency:     1.3774233645
  - # 3
    frequency:     2.7183860386
  - # 4
    frequency:     2.8664768938
  - # 5
    frequency:     2.8763869352
  - # 6
    frequency:     3.2758410648
  - # 7
    frequency:     3.2851531735
  - # 8
    frequency:     3.8233634919
  - # 9
    frequency:     3.8440761782
  - # 10
    frequency:     5.0293536742
  - # 11
    frequency:     5.1253041071
  - # 12
    frequency:     5.1291262258

- q-position: [    0.3229167,    0.0312500,    0.0104167 ]
  weight: 48   
  band:
  - # 1
    frequency:     1.4510591477
  - # 2
    frequency:     1.4689647423
  - # 3
    frequency:     2.8076428110
  - # 4
    frequency:     2.8175074766
  - # 5
    frequency:     2.8809473985
  - # 6
    frequency:     3.2755633689
  - # 7
    frequency:     3.2840658786
  - # 8
    frequency:     3.8884975388
  - # 9
    frequency:     3.9082445458
  - # 10
    frequency:     4.9529943086
  - # 11
    frequency:     5.0678272451
  - # 12
    frequency:     5.0722781619

- q-position: [    0.3437500,    0.0312500,    0.0104167 ]
  weight: 48   
  band:
  - # 1
    frequency:     1.5432116061
  - # 2
    frequency:     1.5598411516
  - # 3
    frequency:     2.7457097333
  - # 4
    frequency:     2.7555536476
  - # 5
    frequency:     3.0397695512
  - # 6
    frequency:     3.2753661231
  - # 7
    frequency:     3.2829994742
  - # 8
    frequency:     3.9557473525
  - # 9
    frequency:     3.9745006147
  - # 10
    frequency:     4.8713968897
  - # 11
    frequency:     5.0076957278
  - # 12
    frequency:     5.0128145640

- q-position: [    0.3645833,    0.0312500,    0.0104167 ]
  weight: 48   
  band:
  - # 1
    frequency:     1.6344312967
  - # 2
    frequency:     1.6499414067
  - # 3
    frequency:     2.6808183900
  - # 4
    frequency:     2.6906716417
  - # 5
    frequency:     3.1946420552
  - # 6
    frequency:     3.2752527438
  - # 7
    frequency:     3.2819661645
  - # 8
    frequency:     4.0247882049
  - # 9
    frequency:     4.0425304628
  - # 10
    frequency:     4.7845592986
  - # 11
    frequency:     4.9451263183
  - # 12
    frequency:     4.9509513952

- q-position: [    0.3854167,    0.0312500,    0.0104167 ]
  weight: 48   
  band:
  - # 1
    frequency:     1.7246200371
  - # 2
    frequency:     1.7391488029
  - # 3
    frequency:     2.6131128605
  - # 4
    frequency:     2.6230112705
  - # 5
    frequency:     3.2752267860
  - # 6
    frequency:     3.2809774369
  - # 7
    frequency:     3.3453746145
  - # 8
    frequency:     4.0952968018
  - # 9
    frequency:     4.1120198886
  - # 10
    frequency:     4.6924865320
  - # 11
    frequency:     4.8803464552
  - # 12
    frequency:     4.8869151152

- q-position: [    0.4062500,    0.0312500,    0.0104167 ]
  weight: 48   
  band:
  - # 1
    frequency:     1.8136702316
  - # 2
    frequency:     1.8273409766
  - # 3
    frequency:     2.5427397416
  - # 4
    frequency:     2.5527250667
  - # 5
    frequency:     3.2752915230
  - # 6
    frequency:     3.2800438955
  - # 7
    frequency:     3.4917955075
  - # 8
    frequency:     4.1669520693
  - # 9
    frequency:     4.1826554304
  - # 10
    frequency:     4.5951916448
  - # 11
    frequency:     4.8135942263
  - # 12
    frequency:     4.8209425722

- q-position: [    0.4270833,    0.0312500,    0.0104167 ]
  weight: 48   
  band:
  - # 1
    frequency:     1.9014658931
  - # 2
    frequency:     1.9143899786
  - # 3
    frequency:     2.4698473038
  - # 4
    frequency:     2.4799673696
  - # 5
    frequency:     3.2754496216
  - # 6
    frequency:     3.2791751138
  - # 7
    frequency:     3.6337504121
  - # 8
    frequency:     4.2394351298
  - # 9
    frequency:     4.2541243831
  - # 10
    frequency:     4.4926966637
  - # 11
    frequency:     4.7451190852
  - # 12
    frequency:     4.7532815064

- q-position: [    0.4479167,    0.0312500,    0.0104167 ]
  weight: 48   
  band:
  - # 1
    frequency:     1.9878836185
  - # 2
    frequency:     2.0001625120
  - # 3
    frequency:     2.3945846394
  - # 4
    frequency:     2.4048934058
  - # 5
    frequency:     3.2757028892
  - # 6
    frequency:     3.2783795110
  - # 7
    frequency:     3.7711014750
  - # 8
    frequency:     4.3124268479
  - # 9
    frequency:     4.3261117461
  - # 10
    frequency:     4.3850334654
  - # 11
    frequency:     4.6751854405
  - # 12
    frequency:     4.6841933271

- q-position: [    0.4687500,    0.0312500,    0.0104167 ]
  weight: 48   
  band:
  - # 1
    frequency:     2.0727935447
  - # 2
    frequency:     2.0845202998
  - # 3
    frequency:     2.3171007980
  - # 4
    frequency:     2.3276583792
  - # 5
    frequency:     3.2760520808
  - # 6
    frequency:     3.2776642522
  - # 7
    frequency:     3.9037265279
  - # 8
    frequency:     4.2722446140
  - # 9
    frequency:     4.3855929424
  - # 10
    frequency:     4.3982800985
  - # 11
    frequency:     4.6040931674
  - # 12
    frequency:     4.6139681980

- q-position: [    0.4895833,    0.0312500,    0.0104167 ]
  weight: 48   
  band:
  - # 1
    frequency:     2.1560602932
  - # 2
    frequency:     2.1673205615
  - # 3
    frequency:     2.2375439100
  - # 4
    frequency:     2.2484165847
  - # 5
    frequency:     3.2764967555
  - # 6
    frequency:     3.2770351767
  - # 7
    frequency:     4.0315183822
  - # 8
    frequency:     4.1543841576
  - # 9
    frequency:     4.4584097016
  - # 10
    frequency:     4.4699582845
  - # 11
    frequency:     4.5324891982
  - # 12
    frequency:     4.5430994271

- q-position: [    0.0520833,    0.0520833,    0.0104167 ]
  weight: 24   
  band:
  - # 1
    frequency:     0.2055705533
  - # 2
    frequency:     0.3338305041
  - # 3
    frequency:     0.7504419910
  - # 4
    frequency:     3.2809670383
  - # 5
    frequency:     3.2868099965
  - # 6
    frequency:     3.2868099965
  - # 7
    frequency:     3.3098548062
  - # 8
    frequency:     3.3098548062
  - # 9
    frequency:     3.3576046050
  - # 10
    frequency:     5.5348758765
  - # 11
    frequency:     5.5348758765
  - # 12
    frequency:     5.5364231238

- q-position: [    0.0729167,    0.0520833,    0.0104167 ]
  weight: 48   
  band:
  - # 1
    frequency:     0.2674762865
  - # 2
    frequency:     0.4075650461
  - # 3
    frequency:     0.9023319487
  - # 4
    frequency:     3.2731885460
  - # 5
    frequency:     3.2737980171
  - # 6
    frequency:     3.2861872483
  - # 7
    frequency:     3.2968617679
  - # 8
    frequency:     3.3265898954
  - # 9
    frequency:     3.3811104045
  - # 10
    frequency:     5.5201812690
  - # 11
    frequency:     5.5221728497
  - # 12
    frequency:     5.5233349716

- q-position: [    0.0937500,    0.0520833,    0.0104167 ]
  weight: 48   
  band:
  - # 1
    frequency:     0.3551072237
  - # 2
    frequency:     0.4888424778
  - # 3
    frequency:     1.0635759057
  - # 4
    frequency:     3.2565018879
  - # 5
    frequency:     3.2668439376
  - # 6
    frequency:     3.2795939374
  - # 7
    frequency:     3.2854934808
  - # 8
    frequency:     3.3485876848
  - # 9
    frequency:     3.4082651010
  - # 10
    frequency:     5.5005678686
  - # 11
    frequency:     5.5053060892
  - # 12
    frequency:     5.5059550841

- q-position: [    0.1145833,    0.0520833,    0.0104167 ]
  weight: 48   
  band:
  - # 1
    frequency:     0.4518307883
  - # 2
    frequency:     0.5744121974
  - # 3
    frequency:     1.2304750050
  - # 4
    frequency:     3.2349667774
  - # 5
    frequency:     3.2580990483
  - # 6
    frequency:     3.2617449904
  - # 7
    frequency:     3.2846885663
  - # 8
    frequency:     3.3757396616
  - # 9
    frequency:     3.4391237508
  - # 10
    frequency:     5.4760187626
  - # 11
    frequency:     5.4843358318
  - # 12
    frequency:     5.4843440285

- q-position: [    0.1354167,    0.0520833,    0.0104167 ]
  weight: 48   
  band:
  - # 1
    frequency:     0.5514590602