<?xml version="1.0" encoding="ISO-8859-1"?>
<modeling>
 <generator>
  <i name="program" type="string">vasp</i>
  <i name="version" type="string">4.6.28 </i>
  <i name="subversion" type="string">25Jul05 complex  parallel</i>
  <i name="platform" type="string">LinuxIFC</i>
  <i name="date" type="string">2017 01 10</i>
  <i name="time" type="string">08:54:07</i>
 </generator>
 <incar>
  <i type="string" name="PREC">accurate</i>
  <i type="int" name="IALGO">    38</i>
  <i type="logical" name="ADDGRID"> T  </i>
  <i name="EDIFF">      0.00000001</i>
  <i type="int" name="IBRION">    -1</i>
  <i name="ENCUT">    750.00000000</i>
  <i type="logical" name="LREAL"> F  </i>
  <i type="int" name="ISMEAR">     0</i>
  <i name="SIGMA">      0.01000000</i>
  <i type="logical" name="LWAVE"> F  </i>
  <i type="logical" name="LCHARG"> F  </i>
 </incar>
 <kpoints>
  <generation param="Gamma">
   <v type="int" name="divisions">      12      12      12</v>
   <v name="usershift">      0.00000000      0.00000000      0.00000000</v>
   <v name="genvec1">      0.08333333      0.00000000      0.00000000</v>
   <v name="genvec2">      0.00000000      0.08333333      0.00000000</v>
   <v name="genvec3">      0.00000000      0.00000000      0.08333333</v>
   <v name="shift">      0.00000000      0.00000000      0.00000000</v>
  </generation>
  <varray name="kpointlist" >
   <v>       0.00000000      0.00000000      0.00000000</v>
   <v>       0.08333333      0.00000000      0.00000000</v>
   <v>       0.16666667      0.00000000      0.00000000</v>
   <v>       0.25000000      0.00000000      0.00000000</v>
   <v>       0.33333333      0.00000000      0.00000000</v>
   <v>       0.41666667      0.00000000      0.00000000</v>
   <v>       0.50000000      0.00000000      0.00000000</v>
   <v>       0.00000000      0.08333333      0.00000000</v>
   <v>       0.08333333      0.08333333      0.00000000</v>
   <v>       0.16666667      0.08333333      0.00000000</v>
   <v>       0.25000000      0.08333333      0.00000000</v>
   <v>       0.33333333      0.08333333      0.00000000</v>
   <v>       0.41666667      0.08333333      0.00000000</v>
   <v>       0.50000000      0.08333333      0.00000000</v>
   <v>       0.00000000      0.16666667      0.00000000</v>
   <v>       0.08333333      0.16666667      0.00000000</v>
   <v>       0.16666667      0.16666667      0.00000000</v>
   <v>       0.25000000      0.16666667      0.00000000</v>
   <v>       0.33333333      0.16666667      0.00000000</v>
   <v>       0.41666667      0.16666667      0.00000000</v>
   <v>       0.50000000      0.16666667      0.00000000</v>
   <v>       0.00000000      0.25000000      0.00000000</v>
   <v>       0.08333333      0.25000000      0.00000000</v>
   <v>       0.16666667      0.25000000      0.00000000</v>
   <v>       0.25000000      0.25000000      0.00000000</v>
   <v>       0.33333333      0.25000000      0.00000000</v>
   <v>       0.41666667      0.25000000      0.00000000</v>
   <v>       0.50000000      0.25000000      0.00000000</v>
   <v>       0.00000000      0.33333333      0.00000000</v>
   <v>       0.08333333      0.33333333      0.00000000</v>
   <v>       0.16666667      0.33333333      0.00000000</v>
   <v>       0.25000000      0.33333333      0.00000000</v>
   <v>       0.33333333      0.33333333      0.00000000</v>
   <v>       0.41666667      0.33333333      0.00000000</v>
   <v>       0.50000000      0.33333333      0.00000000</v>
   <v>       0.00000000      0.41666667      0.00000000</v>
   <v>       0.08333333      0.41666667      0.00000000</v>
   <v>       0.16666667      0.41666667      0.00000000</v>
   <v>       0.25000000      0.41666667      0.00000000</v>
   <v>       0.33333333      0.41666667      0.00000000</v>
   <v>       0.41666667      0.41666667      0.00000000</v>
   <v>       0.50000000      0.41666667      0.00000000</v>
   <v>       0.00000000      0.50000000      0.00000000</v>
   <v>       0.08333333      0.50000000      0.00000000</v>
   <v>       0.16666667      0.50000000      0.00000000</v>
   <v>       0.25000000      0.50000000      0.00000000</v>
   <v>       0.33333333      0.50000000      0.00000000</v>
   <v>       0.41666667      0.50000000      0.00000000</v>
   <v>       0.50000000      0.50000000      0.00000000</v>
   <v>       0.00000000      0.08333333      0.08333333</v>
   <v>       0.08333333      0.08333333      0.08333333</v>
   <v>       0.16666667      0.08333333      0.08333333</v>
   <v>       0.25000000      0.08333333      0.08333333</v>
   <v>       0.33333333      0.08333333      0.08333333</v>
   <v>       0.41666667      0.08333333      0.08333333</v>
   <v>       0.50000000      0.08333333      0.08333333</v>
   <v>       0.00000000      0.16666667      0.08333333</v>
   <v>       0.08333333      0.16666667      0.08333333</v>
   <v>       0.16666667      0.16666667      0.08333333</v>
   <v>       0.25000000      0.16666667      0.08333333</v>
   <v>       0.33333333      0.16666667      0.08333333</v>
   <v>       0.41666667      0.16666667      0.08333333</v>
   <v>       0.50000000      0.16666667      0.08333333</v>
   <v>       0.00000000      0.25000000      0.08333333</v>
   <v>       0.08333333      0.25000000      0.08333333</v>
   <v>       0.16666667      0.25000000      0.08333333</v>
   <v>       0.25000000      0.25000000      0.08333333</v>
   <v>       0.33333333      0.25000000      0.08333333</v>
   <v>       0.41666667      0.25000000      0.08333333</v>
   <v>       0.50000000      0.25000000      0.08333333</v>
   <v>       0.00000000      0.33333333      0.08333333</v>
   <v>       0.08333333      0.33333333      0.08333333</v>
   <v>       0.16666667      0.33333333      0.08333333</v>
   <v>       0.25000000      0.33333333      0.08333333</v>
   <v>       0.33333333      0.33333333      0.08333333</v>
   <v>       0.41666667      0.33333333      0.08333333</v>
   <v>       0.50000000      0.33333333      0.08333333</v>
   <v>       0.00000000      0.41666667      0.08333333</v>
   <v>       0.08333333      0.41666667      0.08333333</v>
   <v>       0.16666667      0.41666667      0.08333333</v>
   <v>       0.25000000      0.41666667      0.08333333</v>
   <v>       0.33333333      0.41666667      0.08333333</v>
   <v>       0.41666667      0.41666667      0.08333333</v>
   <v>       0.50000000      0.41666667      0.08333333</v>
   <v>       0.00000000      0.50000000      0.08333333</v>
   <v>       0.08333333      0.50000000      0.08333333</v>
   <v>       0.16666667      0.50000000      0.08333333</v>
   <v>       0.25000000      0.50000000      0.08333333</v>
   <v>       0.33333333      0.50000000      0.08333333</v>
   <v>       0.41666667      0.50000000      0.08333333</v>
   <v>       0.50000000      0.50000000      0.08333333</v>
   <v>       0.00000000      0.16666667      0.16666667</v>
   <v>       0.08333333      0.16666667      0.16666667</v>
   <v>       0.16666667      0.16666667      0.16666667</v>
   <v>       0.25000000      0.16666667      0.16666667</v>
   <v>       0.33333333      0.16666667      0.16666667</v>
   <v>       0.41666667      0.16666667      0.16666667</v>
   <v>       0.50000000      0.16666667      0.16666667</v>
   <v>       0.00000000      0.25000000      0.16666667</v>
   <v>       0.08333333      0.25000000      0.16666667</v>
   <v>       0.16666667      0.25000000      0.16666667</v>
   <v>       0.25000000      0.25000000      0.16666667</v>
   <v>       0.33333333      0.25000000      0.16666667</v>
   <v>       0.41666667      0.25000000      0.16666667</v>
   <v>       0.50000000      0.25000000      0.16666667</v>
   <v>       0.00000000      0.33333333      0.16666667</v>
   <v>       0.08333333      0.33333333      0.16666667</v>
   <v>       0.16666667      0.33333333      0.16666667</v>
   <v>       0.25000000      0.33333333      0.16666667</v>
   <v>       0.33333333      0.33333333      0.16666667</v>
   <v>       0.41666667      0.33333333      0.16666667</v>
   <v>       0.50000000      0.33333333      0.16666667</v>
   <v>       0.00000000      0.41666667      0.16666667</v>
   <v>       0.08333333      0.41666667      0.16666667</v>
   <v>       0.16666667      0.41666667      0.16666667</v>
   <v>       0.25000000      0.41666667      0.16666667</v>
   <v>       0.33333333      0.41666667      0.16666667</v>
   <v>       0.41666667      0.41666667      0.16666667</v>
   <v>       0.50000000      0.41666667      0.16666667</v>
   <v>       0.00000000      0.50000000      0.16666667</v>
   <v>       0.08333333      0.50000000      0.16666667</v>
   <v>       0.16666667      0.50000000      0.16666667</v>
   <v>       0.25000000      0.50000000      0.16666667</v>
   <v>       0.33333333      0.50000000      0.16666667</v>
   <v>       0.41666667      0.50000000      0.16666667</v>
   <v>       0.50000000      0.50000000      0.16666667</v>
   <v>       0.00000000      0.25000000      0.25000000</v>
   <v>       0.08333333      0.25000000      0.25000000</v>
   <v>       0.16666667      0.25000000      0.25000000</v>
   <v>       0.25000000      0.25000000      0.25000000</v>
   <v>       0.33333333      0.25000000      0.25000000</v>
   <v>       0.41666667      0.25000000      0.25000000</v>
   <v>       0.50000000      0.25000000      0.25000000</v>
   <v>       0.00000000      0.33333333      0.25000000</v>
   <v>       0.08333333      0.33333333      0.25000000</v>
   <v>       0.16666667      0.33333333      0.25000000</v>
   <v>       0.25000000      0.33333333      0.25000000</v>
   <v>       0.33333333      0.33333333      0.25000000</v>
   <v>       0.41666667      0.33333333      0.25000000</v>
   <v>       0.50000000      0.33333333      0.25000000</v>
   <v>       0.00000000      0.41666667      0.25000000</v>
   <v>       0.08333333      0.41666667      0.25000000</v>
   <v>       0.16666667      0.41666667      0.25000000</v>
   <v>       0.25000000      0.41666667      0.25000000</v>
   <v>       0.33333333      0.41666667      0.25000000</v>
   <v>       0.41666667      0.41666667      0.25000000</v>
   <v>       0.50000000      0.41666667      0.25000000</v>
   <v>       0.00000000      0.50000000      0.25000000</v>
   <v>       0.08333333      0.50000000      0.25000000</v>
   <v>       0.16666667      0.50000000      0.25000000</v>
   <v>       0.25000000      0.50000000      0.25000000</v>
   <v>       0.33333333      0.50000000      0.25000000</v>
   <v>       0.41666667      0.50000000      0.25000000</v>
   <v>       0.50000000      0.50000000      0.25000000</v>
   <v>       0.00000000      0.33333333      0.33333333</v>
   <v>       0.08333333      0.33333333      0.33333333</v>
   <v>       0.16666667      0.33333333      0.33333333</v>
   <v>       0.25000000      0.33333333      0.33333333</v>
   <v>       0.33333333      0.33333333      0.33333333</v>
   <v>       0.41666667      0.33333333      0.33333333</v>
   <v>       0.50000000      0.33333333      0.33333333</v>
   <v>       0.00000000      0.41666667      0.33333333</v>
   <v>       0.08333333      0.41666667      0.33333333</v>
   <v>       0.16666667      0.41666667      0.33333333</v>
   <v>       0.25000000      0.41666667      0.33333333</v>
   <v>       0.33333333      0.41666667      0.33333333</v>
   <v>       0.41666667      0.41666667      0.33333333</v>
   <v>       0.50000000      0.41666667      0.33333333</v>
   <v>       0.00000000      0.50000000      0.33333333</v>
   <v>       0.08333333      0.50000000      0.33333333</v>
   <v>       0.16666667      0.50000000      0.33333333</v>
   <v>       0.25000000      0.50000000      0.33333333</v>
   <v>       0.33333333      0.50000000      0.33333333</v>
   <v>       0.41666667      0.50000000      0.33333333</v>
   <v>       0.50000000      0.50000000      0.33333333</v>
   <v>       0.00000000      0.41666667      0.41666667</v>
   <v>       0.08333333      0.41666667      0.41666667</v>
   <v>       0.16666667      0.41666667      0.41666667</v>
   <v>       0.25000000      0.41666667      0.41666667</v>
   <v>       0.33333333      0.41666667      0.41666667</v>
   <v>       0.41666667      0.41666667      0.41666667</v>
   <v>       0.50000000      0.41666667      0.41666667</v>
   <v>       0.00000000      0.50000000      0.41666667</v>
   <v>       0.08333333      0.50000000      0.41666667</v>
   <v>       0.16666667      0.50000000      0.41666667</v>
   <v>       0.25000000      0.50000000      0.41666667</v>
   <v>       0.33333333      0.50000000      0.41666667</v>
   <v>       0.41666667      0.50000000      0.41666667</v>
   <v>       0.50000000      0.50000000      0.41666667</v>
   <v>       0.00000000      0.50000000      0.50000000</v>
   <v>       0.08333333      0.50000000      0.50000000</v>
   <v>       0.16666667      0.50000000      0.50000000</v>
   <v>       0.25000000      0.50000000      0.50000000</v>
   <v>       0.33333333      0.50000000      0.50000000</v>
   <v>       0.41666667      0.50000000      0.50000000</v>
   <v>       0.50000000      0.50000000      0.50000000</v>
  </varray>
  <varray name="weights" >
   <v>       0.00057870</v>
   <v>       0.00115741</v>
   <v>       0.00115741</v>
   <v>       0.00115741</v>
   <v>       0.00115741</v>
   <v>       0.00115741</v>
   <v>       0.00057870</v>
   <v>       0.00231481</v>
   <v>       0.00462963</v>
   <v>       0.00462963</v>
   <v>       0.00462963</v>
   <v>       0.00462963</v>
   <v>       0.00462963</v>
   <v>       0.00231481</v>
   <v>       0.00231481</v>
   <v>       0.00462963</v>
   <v>       0.00462963</v>
   <v>       0.00462963</v>
   <v>       0.00462963</v>
   <v>       0.00462963</v>
   <v>       0.00231481</v>
   <v>       0.00231481</v>
   <v>       0.00462963</v>
   <v>       0.00462963</v>
   <v>       0.00462963</v>
   <v>       0.00462963</v>
   <v>       0.00462963</v>
   <v>       0.00231481</v>
   <v>       0.00231481</v>
   <v>       0.00462963</v>
   <v>       0.00462963</v>
   <v>       0.00462963</v>
   <v>       0.00462963</v>
   <v>       0.00462963</v>
   <v>       0.00231481</v>
   <v>       0.00231481</v>
   <v>       0.00462963</v>
   <v>       0.00462963</v>
   <v>       0.00462963</v>
   <v>       0.00462963</v>
   <v>       0.00462963</v>
   <v>       0.00231481</v>
   <v>       0.00115741</v>
   <v>       0.00231481</v>
   <v>       0.00231481</v>
   <v>       0.00231481</v>
   <v>       0.00231481</v>
   <v>       0.00231481</v>
   <v>       0.00115741</v>
   <v>       0.00231481</v>
   <v>       0.00462963</v>
   <v>       0.00462963</v>
   <v>       0.00462963</v>
   <v>       0.00462963</v>
   <v>       0.00462963</v>
   <v>       0.00231481</v>
   <v>       0.00462963</v>
   <v>       0.00925926</v>
   <v>       0.00925926</v>
   <v>       0.00925926</v>
   <v>       0.00925926</v>
   <v>       0.00925926</v>
   <v>       0.00462963</v>
   <v>       0.00462963</v>
   <v>       0.00925926</v>
   <v>       0.00925926</v>
   <v>       0.00925926</v>
   <v>       0.00925926</v>
   <v>       0.00925926</v>
   <v>       0.00462963</v>
   <v>       0.00462963</v>
   <v>       0.00925926</v>
   <v>       0.00925926</v>
   <v>       0.00925926</v>
   <v>       0.00925926</v>
   <v>       0.00925926</v>
   <v>       0.00462963</v>
   <v>       0.00462963</v>
   <v>       0.00925926</v>
   <v>       0.00925926</v>
   <v>       0.00925926</v>
   <v>       0.00925926</v>
   <v>       0.00925926</v>
   <v>       0.00462963</v>
   <v>       0.00231481</v>
   <v>       0.00462963</v>
   <v>       0.00462963</v>
   <v>       0.00462963</v>
   <v>       0.00462963</v>
   <v>       0.00462963</v>
   <v>       0.00231481</v>
   <v>       0.00231481</v>
   <v>       0.00462963</v>
   <v>       0.00462963</v>
   <v>       0.00462963</v>
   <v>       0.00462963</v>
   <v>       0.00462963</v>
   <v>       0.00231481</v>
   <v>       0.00462963</v>
   <v>       0.00925926</v>
   <v>       0.00925926</v>
   <v>       0.00925926</v>
   <v>       0.00925926</v>
   <v>       0.00925926</v>
   <v>       0.00462963</v>
   <v>       0.00462963</v>
   <v>       0.00925926</v>
   <v>       0.00925926</v>
   <v>       0.00925926</v>
   <v>       0.00925926</v>
   <v>       0.00925926</v>
   <v>       0.00462963</v>
   <v>       0.00462963</v>
   <v>       0.00925926</v>
   <v>       0.00925926</v>
   <v>       0.00925926</v>
   <v>       0.00925926</v>
   <v>       0.00925926</v>
   <v>       0.00462963</v>
   <v>       0.00231481</v>
   <v>       0.00462963</v>
   <v>       0.00462963</v>
   <v>       0.00462963</v>
   <v>       0.00462963</v>
   <v>       0.00462963</v>
   <v>       0.00231481</v>
   <v>       0.00231481</v>
   <v>       0.00462963</v>
   <v>       0.00462963</v>
   <v>       0.00462963</v>
   <v>       0.00462963</v>
   <v>       0.00462963</v>
   <v>       0.00231481</v>
   <v>       0.00462963</v>
   <v>       0.00925926</v>
   <v>       0.00925926</v>
   <v>       0.00925926</v>
   <v>       0.00925926</v>
   <v>       0.00925926</v>
   <v>       0.00462963</v>
   <v>       0.00462963</v>
   <v>       0.00925926</v>
   <v>       0.00925926</v>
   <v>       0.00925926</v>
   <v>       0.00925926</v>
   <v>       0.00925926</v>
   <v>       0.00462963</v>
   <v>       0.00231481</v>
   <v>       0.00462963</v>
   <v>       0.00462963</v>
   <v>       0.00462963</v>
   <v>       0.00462963</v>
   <v>       0.00462963</v>
   <v>       0.00231481</v>
   <v>       0.00231481</v>
   <v>       0.00462963</v>
   <v>       0.00462963</v>
   <v>       0.00462963</v>
   <v>       0.00462963</v>
   <v>       0.00462963</v>
   <v>       0.00231481</v>
   <v>       0.00462963</v>
   <v>       0.00925926</v>
   <v>       0.00925926</v>
   <v>       0.00925926</v>
   <v>       0.00925926</v>
   <v>       0.00925926</v>
   <v>       0.00462963</v>
   <v>       0.00231481</v>
   <v>       0.00462963</v>
   <v>       0.00462963</v>
   <v>       0.00462963</v>
   <v>       0.00462963</v>
   <v>       0.00462963</v>
   <v>       0.00231481</v>
   <v>       0.00231481</v>
   <v>       0.00462963</v>
   <v>       0.00462963</v>
   <v>       0.00462963</v>
   <v>       0.00462963</v>
   <v>       0.00462963</v>
   <v>       0.00231481</v>
   <v>       0.00231481</v>
   <v>       0.00462963</v>
   <v>       0.00462963</v>
   <v>       0.00462963</v>
   <v>       0.00462963</v>
   <v>       0.00462963</v>
   <v>       0.00231481</v>
   <v>       0.00057870</v>
   <v>       0.00115741</v>
   <v>       0.00115741</v>
   <v>       0.00115741</v>
   <v>       0.00115741</v>
   <v>       0.00115741</v>
   <v>       0.00057870</v>
  </varray>
 </kpoints>
 <parameters>
  <separator name="general" >
   <i type="string" name="SYSTEM">unknown system</i>
   <i type="logical" name="LCOMPAT"> F  </i>
  </separator>
  <separator name="electronic" >
   <i type="string" name="PREC">accura</i>
   <i name="ENMAX">    750.00000000</i>
   <i name="ENAUG">    356.67000000</i>
   <i name="EDIFF">      0.00000001</i>
   <i type="int" name="IALGO">    38</i>
   <i type="int" name="IWAVPR">    10</i>
   <i type="int" name="NBANDS">   211</i>
   <i name="NELECT">    352.00000000</i>
   <separator name="electronic smearing" >
    <i type="int" name="ISMEAR">     0</i>
    <i name="SIGMA">      0.01000000</i>
   </separator>
   <separator name="electronic projectors" >
    <i type="logical" name="LREAL"> F  </i>
    <v name="ROPT">      0.00000000</v>
    <i type="int" name="LMAXPAW">  -100</i>
    <i type="int" name="LMAXMIX">     2</i>
   </separator>
   <separator name="electronic startup" >
    <i type="int" name="ISTART">     0</i>
    <i type="int" name="ICHARG">     2</i>
    <i type="int" name="INIWAV">     1</i>
   </separator>
   <separator name="electronic spin" >
    <i type="int" name="ISPIN">     1</i>
    <i type="logical" name="LNONCOLLINEAR"> F  </i>
    <v name="MAGMOM">      1.00000000      1.00000000      1.00000000      1.00000000      1.00000000      1.00000000      1.00000000      1.00000000      1.00000000      1.00000000      1.00000000      1.00000000      1.00000000      1.00000000      1.00000000      1.00000000      1.00000000      1.00000000      1.00000000      1.00000000
      1.00000000      1.00000000      1.00000000      1.00000000      1.00000000      1.00000000      1.00000000      1.00000000      1.00000000      1.00000000      1.00000000      1.00000000</v>
    <i name="NUPDOWN">     -1.00000000</i>
    <i type="logical" name="LSORBIT"> F  </i>
    <v name="SAXIS">      0.00000000      0.00000000      1.00000000</v>
    <i type="logical" name="LSPIRAL"> F  </i>
    <v name="QSPIRAL">      0.00000000      0.00000000      0.00000000</v>
    <i type="logical" name="LZEROZ"> F  </i>
   </separator>
   <separator name="electronic exchange-correlation" >
    <i type="string" name="GGA">--</i>
    <i type="int" name="VOSKOWN">     0</i>
    <i type="logical" name="LASPH"> F  </i>
    <i type="logical" name="LMETAGGA"> F  </i>
    <i type="string" name="GGA2">--</i>
   </separator>
   <separator name="electronic convergence" >
    <i type="int" name="NELM">    60</i>
    <i type="int" name="NELMDL">     0</i>
    <i type="int" name="NELMIN">     2</i>
    <i name="ENINI">    750.00000000</i>
    <separator name="electronic convergence detail" >
     <i type="logical" name="LDIAG"> T  </i>
     <i name="WEIMIN">      0.00000000</i>
     <i name="EBREAK">      0.00000000</i>
     <i name="DEPER">      0.30000000</i>
     <i type="int" name="NRMM">     4</i>
     <i name="TIME">      0.10000000</i>
    </separator>
   </separator>
   <separator name="electronic mixer" >
    <i name="AMIX">      0.40000000</i>
    <i name="BMIX">      1.00000000</i>
    <i name="AMIN">      0.10000000</i>
    <i name="AMIX_MAG">      1.60000000</i>
    <i name="BMIX_MAG">      1.00000000</i>
    <separator name="electronic mixer details" >
     <i type="int" name="IMIX">     4</i>
     <i type="int" name="MAXMIX">   -45</i>
     <i name="WC">    100.00000000</i>
     <i type="int" name="INIMIX">     1</i>
     <i type="int" name="MIXPRE">     1</i>
     <i type="int" name="MREMOVE">     5</i>
    </separator>
   </separator>
   <separator name="electronic dipolcorrection" >
    <i type="int" name="IDIPOL">     0</i>
    <i type="logical" name="LDIPOL"> F  </i>
    <v name="DIPOL">   -100.00000000</v>
    <i name="EFIELD">      0.00000000</i>
   </separator>
  </separator>
  <separator name="grids" >
   <i type="int" name="NGX">    72</i>
   <i type="int" name="NGY">    72</i>
   <i type="int" name="NGZ">    72</i>
   <i type="int" name="NGXF">   144</i>
   <i type="int" name="NGYF">   144</i>
   <i type="int" name="NGZF">   144</i>
   <i type="logical" name="ADDGRID"> T  </i>
  </separator>
  <separator name="ionic" >
   <i type="int" name="NSW">     0</i>
   <i type="int" name="IBRION">    -1</i>
   <i type="int" name="ISIF">     2</i>
   <i name="PSTRESS">      0.00000000</i>
   <i name="EDIFFG">      0.00000010</i>
   <i type="int" name="NFREE">     0</i>
   <i name="POTIM">      0.50000000</i>
   <i name="SMASS">     -3.00000000</i>
  </separator>
  <separator name="ionic md" >
   <i name="TEBEG">      0.00010000</i>
   <i name="TEEND">      0.00010000</i>
   <i type="int" name="NBLOCK">     1</i>
   <i type="int" name="KBLOCK">     1</i>
   <i type="int" name="NPACO">   256</i>
   <i name="APACO">     16.00000000</i>
  </separator>
  <separator name="symmetry" >
   <i type="int" name="ISYM">     2</i>
   <i name="SYMPREC">      0.00001000</i>
  </separator>
  <separator name="dos" >
   <i type="logical" name="LORBIT"> F  </i>
   <v name="RWIGS">     -1.00000000</v>
   <i type="int" name="NEDOS">   301</i>
   <i name="EMIN">     10.00000000</i>
   <i name="EMAX">    -10.00000000</i>
  </separator>
  <separator name="writing" >
   <i type="int" name="NWRITE">     2</i>
   <i type="logical" name="LWAVE"> F  </i>
   <i type="logical" name="LCHARG"> F  </i>
   <i type="logical" name="LPARD"> F  </i>
   <i type="logical" name="LVTOT"> F  </i>
   <i type="logical" name="LELF"> F  </i>
   <i type="logical" name="LOPTICS"> F  </i>
   <i name="STM">      0.00000000</i>
  </separator>
  <separator name="performance" >
   <i type="int" name="NPAR">     4</i>
   <i type="int" name="NSIM">     4</i>
   <i type="int" name="NBLK">   256</i>
   <i type="logical" name="LPLANE"> T  </i>
   <i type="logical" name="LCRITICAL_MEM"> F  </i>
   <i type="logical" name="LSCALAPACK"> F  </i>
   <i type="logical" name="LSCALU"> F  </i>
   <i type="logical" name="LASYNC"> F  </i>
  </separator>
  <separator name="miscellaneous" >
   <i type="int" name="IDIOT">     3</i>
   <i type="logical" name="LMUSIC"> F  </i>
   <v name="POMASS">    196.96600000</v>
   <i type="logical" name="LCORR"> T  </i>
  </separator>
  <i type="logical" name="LREAL_COMPAT"> F  </i>
  <i type="logical" name="GGA_COMPAT"> T  </i>
  <i type="logical" name="LBERRY"> F  </i>
  <i type="int" name="ICORELEVEL">     0</i>
  <i type="logical" name="LDAU"> F  </i>
  <i type="int" name="I_CONSTRAINED_M">     0</i>
 </parameters>
 <atominfo>
  <atoms>      32</atoms>
  <types>       1</types>
  <array name="atoms" >
   <dimension dim="1">ion</dimension>
   <field type="string">element</field>
   <field type="int">atomtype</field>
   <set>
    <rc><c>Au</c><c>   1</c></rc>
    <rc><c>Au</c><c>   1</c></rc>
    <rc><c>Au</c><c>   1</c></rc>
    <rc><c>Au</c><c>   1</c></rc>
    <rc><c>Au</c><c>   1</c></rc>
    <rc><c>Au</c><c>   1</c></rc>
    <rc><c>Au</c><c>   1</c></rc>
    <rc><c>Au</c><c>   1</c></rc>
    <rc><c>Au</c><c>   1</c></rc>
    <rc><c>Au</c><c>   1</c></rc>
    <rc><c>Au</c><c>   1</c></rc>
    <rc><c>Au</c><c>   1</c></rc>
    <rc><c>Au</c><c>   1</c></rc>
    <rc><c>Au</c><c>   1</c></rc>
    <rc><c>Au</c><c>   1</c></rc>
    <rc><c>Au</c><c>   1</c></rc>
    <rc><c>Au</c><c>   1</c></rc>
    <rc><c>Au</c><c>   1</c></rc>
    <rc><c>Au</c><c>   1</c></rc>
    <rc><c>Au</c><c>   1</c></rc>
    <rc><c>Au</c><c>   1</c></rc>
    <rc><c>Au</c><c>   1</c></rc>
    <rc><c>Au</c><c>   1</c></rc>
    <rc><c>Au</c><c>   1</c></rc>
    <rc><c>Au</c><c>   1</c></rc>
    <rc><c>Au</c><c>   1</c></rc>
    <rc><c>Au</c><c>   1</c></rc>
    <rc><c>Au</c><c>   1</c></rc>
    <rc><c>Au</c><c>   1</c></rc>
    <rc><c>Au</c><c>   1</c></rc>
    <rc><c>Au</c><c>   1</c></rc>
    <rc><c>Au</c><c>   1</c></rc>
   </set>
  </array>
  <array name="atomtypes" >
   <dimension dim="1">type</dimension>
   <field type="int">atomspertype</field>
   <field type="string">element</field>
   <field>mass</field>
   <field>valence</field>
   <field type="string">pseudopotential</field>
   <set>
    <rc><c>  32</c><c>Au</c><c>    196.96600000</c><c>     11.00000000</c><c> PAW_PBE Au 06Sep2000                   </c></rc>
   </set>
  </array>
 </atominfo>
 <structure name="initialpos" >
  <crystal>
   <varray name="basis" >
    <v>       8.01187565      0.00000000      0.00000000</v>
    <v>       0.00000000      8.01187565      0.00000000</v>
    <v>       0.00000000      0.00000000      8.01187565</v>
   </varray>
   <i name="volume">    514.28351169</i>
   <varray name="rec_basis" >
    <v>       0.12481472      0.00000000      0.00000000</v>
    <v>       0.00000000      0.12481472      0.00000000</v>
    <v>       0.00000000      0.00000000      0.12481472</v>
   </varray>
  </crystal>
  <varray name="positions" >
   <v>       0.00124815      0.00000000      0.00000000</v>
   <v>       0.50000000      0.00000000      0.00000000</v>
   <v>       0.00000000      0.50000000      0.00000000</v>
   <v>       0.50000000      0.50000000      0.00000000</v>
   <v>       0.00000000      0.00000000      0.50000000</v>
   <v>       0.50000000      0.00000000      0.50000000</v>
   <v>       0.00000000      0.50000000      0.50000000</v>
   <v>       0.50000000      0.50000000      0.50000000</v>
   <v>       0.25000000      0.25000000      0.00000000</v>
   <v>       0.75000000      0.25000000      0.00000000</v>
   <v>       0.25000000      0.75000000      0.00000000</v>
   <v>       0.75000000      0.75000000      0.00000000</v>
   <v>       0.25000000      0.25000000      0.50000000</v>
   <v>       0.75000000      0.25000000      0.50000000</v>
   <v>       0.25000000      0.75000000      0.50000000</v>
   <v>       0.75000000      0.75000000      0.50000000</v>
   <v>       0.25000000      0.00000000      0.25000000</v>
   <v>       0.75000000      0.00000000      0.25000000</v>
   <v>       0.25000000      0.50000000      0.25000000</v>
   <v>       0.75000000      0.50000000      0.25000000</v>
   <v>       0.25000000      0.00000000      0.75000000</v>
   <v>       0.75000000      0.00000000      0.75000000</v>
   <v>       0.25000000      0.50000000      0.75000000</v>
   <v>       0.75000000      0.50000000      0.75000000</v>
   <v>       0.00000000      0.25000000      0.25000000</v>
   <v>       0.50000000      0.25000000      0.25000000</v>
   <v>       0.00000000      0.75000000      0.25000000</v>
   <v>       0.50000000      0.75000000      0.25000000</v>
   <v>       0.00000000      0.25000000      0.75000000</v>
   <v>       0.50000000      0.25000000      0.75000000</v>
   <v>       0.00000000      0.75000000      0.75000000</v>
   <v>       0.50000000      0.75000000      0.75000000</v>
  </varray>
 </structure>
 <calculation>
  <scstep>
   <time name="dav"> 2084.82 2110.89</time>
   <time name="total"> 2087.80 2116.01</time>
   <energy>
    <i name="alphaZ">   3729.00947824</i>
    <i name="ewald"> -31906.79990361</i>
    <i name="hartreedc">  -3726.53406491</i>
    <i name="XCdc">    498.84440510</i>
    <i name="pawpsdc">  23920.39735419</i>
    <i name="pawaedc"> -23172.13309131</i>
    <i name="eentropy">     -0.00049900</i>
    <i name="bandstr">   6012.12869076</i>
    <i name="atom">  29633.78979189</i>
    <i name="e_fr_energy">   4988.70216137</i>
    <i name="e_wo_entrp">   4988.70266037</i>
    <i name="e_0_energy">   4988.70241087</i>
   </energy>
  </scstep>
  <scstep>
   <time name="dav"> 1449.97 1517.64</time>
   <time name="total"> 1450.20 1518.10</time>
   <energy>
    <i name="e_fr_energy">    187.42464223</i>
    <i name="e_wo_entrp">    187.42520778</i>
    <i name="e_0_energy">    187.42492500</i>
   </energy>
  </scstep>
  <scstep>
   <time name="dav"> 1384.43 1402.32</time>
   <time name="total"> 1384.66 1402.55</time>
   <energy>
    <i name="e_fr_energy">    -98.40186068</i>
    <i name="e_wo_entrp">    -98.40137926</i>
    <i name="e_0_energy">    -98.40161997</i>
   </energy>
  </scstep>
  <scstep>
   <time name="dav"> 4979.15 9380.56</time>
   <time name="total"> 4983.49 9414.02</time>
   <energy>
    <i name="e_fr_energy">   -108.15668835</i>
    <i name="e_wo_entrp">   -108.15574173</i>
    <i name="e_0_energy">   -108.15621504</i>
   </energy>
  </scstep>
  <scstep>
   <time name="dav"> 3669.19 6117.04</time>
   <time name="total"> 3989.82 6943.05</time>
   <energy>
    <i name="e_fr_energy">   -108.33652602</i>
    <i name="e_wo_entrp">   -108.33555564</i>
    <i name="e_0_energy">   -108.33604083</i>
   </energy>
  </scstep>
  <scstep>
   <time name="dav"> 2368.52 3460.83</time>
   <time name="total"> 2467.57 3722.62</time>
   <energy>
    <i name="e_fr_energy">   -101.15855553</i>
    <i name="e_wo_entrp">   -101.15790422</i>
    <i name="e_0_energy">   -101.15822987</i>
   </energy>
  </scstep>
  <scstep>
   <time name="dav"> 3631.86 6946.03</time>
   <time name="total"> 3733.64 7212.41</time>
   <energy>
    <i name="e_fr_energy">   -100.41075084</i>
    <i name="e_wo_entrp">   -100.41041857</i>
    <i name="e_0_energy">   -100.41058470</i>
   </energy>
  </scstep>
  <scstep>
   <time name="dav"> 1912.88 2324.50</time>
   <time name="total"> 1993.07 2417.26</time>
   <energy>
    <i name="e_fr_energy">   -100.28557872</i>
    <i name="e_wo_entrp">   -100.28524525</i>
    <i name="e_0_energy">   -100.28541198</i>
   </energy>
  </scstep>
  <scstep>
   <time name="dav"> 2217.38 2241.08</time>
   <time name="total"> 2306.84 2333.42</time>
   <energy>
    <i name="e_fr_energy">   -100.28556281</i>
    <i name="e_wo_entrp">   -100.28520861</i>
    <i name="e_0_energy">   -100.28538571</i>
   </energy>
  </scstep>
  <scstep>
   <time name="dav"> 2713.29 2721.68</time>
   <time name="total"> 2802.63 2811.36</time>
   <energy>
    <i name="e_fr_energy">   -100.28566449</i>
    <i name="e_wo_entrp">   -100.28531646</i>
    <i name="e_0_energy">   -100.28549047</i>
   </energy>
  </scstep>
  <scstep>
   <time name="dav"> 2756.55 2772.12</time>
   <time name="total"> 2856.69 2884.58</time>
   <energy>
    <i name="e_fr_energy">   -100.28567719</i>
    <i name="e_wo_entrp">   -100.28532973</i>
    <i name="e_0_energy">   -100.28550346</i>
   </energy>
  </scstep>
  <scstep>
   <time name="dav"> 2573.40 2672.94</time>
   <time name="total"> 2681.67 2784.55</time>
   <energy>
    <i name="e_fr_energy">   -100.28568320</i>
    <i name="e_wo_entrp">   -100.28533579</i>
    <i name="e_0_energy">   -100.28550949</i>
   </energy>
  </scstep>
  <scstep>
   <time name="dav"> 2414.67 2572.34</time>
   <time name="total"> 2525.19 2689.29</time>
   <energy>
    <i name="e_fr_energy">   -100.28568150</i>
    <i name="e_wo_entrp">   -100.28533413</i>
    <i name="e_0_energy">   -100.28550782</i>
   </energy>
  </scstep>
  <scstep>
   <time name="dav"> 1765.13 1948.48</time>
   <time name="total"> 1879.03 2115.14</time>
   <energy>
    <i name="e_fr_energy">   -100.28568064</i>
    <i name="e_wo_entrp">   -100.28533329</i>
    <i name="e_0_energy">   -100.28550696</i>
   </energy>
  </scstep>
  <scstep>
   <time name="dav"> 1716.16 2021.92</time>
   <time name="total"> 1942.39 2406.26</time>
   <energy>
    <i name="e_fr_energy">   -100.28568069</i>
    <i name="e_wo_entrp">   -100.28533334</i>
    <i name="e_0_energy">   -100.28550701</i>
   </energy>
  </scstep>
  <scstep>
   <time name="dav"> 1763.22 2159.14</time>
   <time name="total"> 1902.53 2900.32</time>
   <energy>
    <i name="e_fr_energy">   -100.28568070</i>
    <i name="e_wo_entrp">   -100.28533335</i>
    <i name="e_0_energy">   -100.28550702</i>
   </energy>
  </scstep>
  <scstep>
   <time name="dav"> 2203.58 4100.21</time>
   <time name="total"> 2209.03 4106.11</time>
   <energy>
    <i name="alphaZ">   3729.00947824</i>
    <i name="ewald"> -31906.79990361</i>
    <i name="hartreedc">  -3380.96013012</i>
    <i name="XCdc">    483.59824651</i>
    <i name="pawpsdc">  24527.40663830</i>
    <i name="pawaedc"> -23878.34632031</i>
    <i name="eentropy">     -0.00034735</i>
    <i name="bandstr">    692.01686577</i>
    <i name="atom">  29633.78979189</i>
    <i name="e_fr_energy">   -100.28568069</i>
    <i name="e_wo_entrp">   -100.28533334</i>
    <i name="e_0_energy">   -100.28550702</i>
   </energy>
  </scstep>
  <structure>
   <crystal>
    <varray name="basis" >
     <v>       8.01187565      0.00000000      0.00000000</v>
     <v>       0.00000000      8.01187565      0.00000000</v>
     <v>       0.00000000      0.00000000      8.01187565</v>
    </varray>
    <i name="volume">    514.28351169</i>
    <varray name="rec_basis" >
     <v>       0.12481472      0.00000000      0.00000000</v>
     <v>       0.00000000      0.12481472      0.00000000</v>
     <v>       0.00000000      0.00000000      0.12481472</v>
    </varray>
   </crystal>
   <varray name="positions" >
    <v>       0.00124815      0.00000000      0.00000000</v>
    <v>       0.50000000      0.00000000      0.00000000</v>
    <v>       0.00000000      0.50000000      0.00000000</v>
    <v>       0.50000000      0.50000000      0.00000000</v>
    <v>       0.00000000      0.00000000      0.50000000</v>
    <v>       0.50000000      0.00000000      0.50000000</v>
    <v>       0.00000000      0.50000000      0.50000000</v>
    <v>       0.50000000      0.50000000      0.50000000</v>
    <v>       0.25000000      0.25000000      0.00000000</v>
    <v>       0.75000000      0.25000000      0.00000000</v>
    <v>       0.25000000      0.75000000      0.00000000</v>
    <v>       0.75000000      0.75000000      0.00000000</v>
    <v>       0.25000000      0.25000000      0.50000000</v>
    <v>       0.75000000      0.25000000      0.50000000</v>
    <v>       0.25000000      0.75000000      0.50000000</v>
    <v>       0.75000000      0.75000000      0.50000000</v>
    <v>       0.25000000      0.00000000      0.25000000</v>
    <v>       0.75000000      0.00000000      0.25000000</v>
    <v>       0.25000000      0.50000000      0.25000000</v>
    <v>       0.75000000      0.50000000      0.25000000</v>
    <v>       0.25000000      0.00000000      0.75000000</v>
    <v>       0.75000000      0.00000000      0.75000000</v>
    <v>       0.25000000      0.50000000      0.75000000</v>
    <v>       0.75000000      0.50000000      0.75000000</v>
    <v>       0.00000000      0.25000000      0.25000000</v>
    <v>       0.50000000      0.25000000      0.25000000</v>
    <v>       0.00000000      0.75000000      0.25000000</v>
    <v>       0.50000000      0.75000000      0.25000000</v>
    <v>       0.00000000      0.25000000      0.75000000</v>
    <v>       0.50000000      0.25000000      0.75000000</v>
    <v>       0.00000000      0.75000000      0.75000000</v>
    <v>       0.50000000      0.75000000      0.75000000</v>
   </varray>
  </structure>
  <varray name="forces" >
   <v>      -0.10669067      0.00000000     -0.00000000</v>
   <v>       0.00581387      0.00000000     -0.00000000</v>
   <v>      -0.00102327      0.00000000     -0.00000000</v>
   <v>      -0.00183184     -0.00000000     -0.00000000</v>
   <v>      -0.00102327      0.00000000      0.00000000</v>
   <v>      -0.00183184     -0.00000000     -0.00000000</v>
   <v>       0.00013596      0.00000000     -0.00000000</v>
   <v>       0.00010454      0.00000000      0.00000000</v>
   <v>       0.01576769      0.01943087     -0.00000000</v>
   <v>       0.01533948     -0.01880786     -0.00000000</v>
   <v>       0.01576769     -0.01943087      0.00000000</v>
   <v>       0.01533948      0.01880786     -0.00000000</v>
   <v>       0.00004293      0.00020777     -0.00000000</v>
   <v>       0.00004167     -0.00020526     -0.00000000</v>
   <v>       0.00004293     -0.00020777     -0.00000000</v>
   <v>       0.00004167      0.00020526      0.00000000</v>
   <v>       0.01576769      0.00000000      0.01943087</v>
   <v>       0.01533948      0.00000000     -0.01880786</v>
   <v>       0.00004293     -0.00000000      0.00020777</v>
   <v>       0.00004167     -0.00000000     -0.00020526</v>
   <v>       0.01576769     -0.00000000     -0.01943087</v>
   <v>       0.01533948      0.00000000      0.01880786</v>
   <v>       0.00004293      0.00000000     -0.00020777</v>
   <v>       0.00004167     -0.00000000      0.00020526</v>
   <v>      -0.00525685     -0.00003032     -0.00003032</v>
   <v>       0.00065170      0.00000047      0.00000047</v>
   <v>      -0.00525685      0.00003032     -0.00003032</v>
   <v>       0.00065170     -0.00000047      0.00000047</v>
   <v>      -0.00525685     -0.00003032      0.00003032</v>
   <v>       0.00065170      0.00000047     -0.00000047</v>
   <v>      -0.00525685      0.00003032      0.00003032</v>
   <v>       0.00065170     -0.00000047     -0.00000047</v>
  </varray>
  <varray name="stress" >
   <v>     240.71624925      0.00000000      0.00000000</v>
   <v>      -0.00000000    240.71618869      0.00000000</v>
   <v>       0.00000000      0.00000000    240.71618869</v>
  </varray>
  <energy>
   <i name="e_fr_energy">   -100.28568069</i>
   <i name="e_wo_entrp">   -100.28550702</i>
   <i name="e_0_energy">     -0.00034735</i>
  </energy>
  <eigenvalues>
   <array>
    <dimension dim="1">band</dimension>
    <dimension dim="2">kpoint</dimension>
    <dimension dim="3">spin</dimension>
    <field>eigene</field>
    <field>occ</field>
    <set>
     <set comment="spin 1">
      <set comment="kpoint 1">
       <r>  -3.9527  1.0000</r>
       <r>  -1.4283  1.0000</r>
       <r>  -1.4245  1.0000</r>
       <r>  -1.4245  1.0000</r>
       <r>  -1.4245  1.0000</r>
       <r>  -1.4245  1.0000</r>
       <r>  -1.4208  1.0000</r>
       <r>  -1.3711  1.0000</r>
       <r>  -1.3711  1.0000</r>
       <r>  -1.3711  1.0000</r>
       <r>  -1.3711  1.0000</r>
       <r>  -1.1483  1.0000</r>
       <r>  -1.1483  1.0000</r>
       <r>  -1.1483  1.0000</r>
       <r>  -0.8088  1.0000</r>
       <r>  -0.8088  1.0000</r>
       <r>  -0.8088  1.0000</r>
       <r>  -0.0335  1.0000</r>
       <r>  -0.0320  1.0000</r>
       <r>  -0.0320  1.0000</r>
       <r>  -0.0299  1.0000</r>
       <r>  -0.0296  1.0000</r>
       <r>  -0.0296  1.0000</r>
       <r>  -0.0296  1.0000</r>
       <r>  -0.0296  1.0000</r>
       <r>  -0.0293  1.0000</r>
       <r>  -0.0272  1.0000</r>
       <r>  -0.0272  1.0000</r>
       <r>  -0.0257  1.0000</r>
       <r>   0.0402  1.0000</r>
       <r>   0.0429  1.0000</r>
       <r>   0.0429  1.0000</r>
       <r>   0.0429  1.0000</r>
       <r>   0.0430  1.0000</r>
       <r>   0.0457  1.0000</r>
       <r>   0.2180  1.0000</r>
       <r>   0.2208  1.0000</r>
       <r>   0.2208  1.0000</r>
       <r>   0.2209  1.0000</r>
       <r>   0.2209  1.0000</r>
       <r>   0.2237  1.0000</r>
       <r>   0.8615  1.0000</r>
       <r>   0.8651  1.0000</r>
       <r>   0.8651  1.0000</r>
       <r>   0.8666  1.0000</r>
       <r>   0.8667  1.0000</r>
       <r>   0.8667  1.0000</r>
       <r>   0.8667  1.0000</r>
       <r>   0.8667  1.0000</r>
       <r>   0.8667  1.0000</r>
       <r>   0.8681  1.0000</r>
       <r>   0.8681  1.0000</r>
       <r>   0.8715  1.0000</r>
       <r>   0.9384  1.0000</r>
       <r>   0.9384  1.0000</r>
       <r>   0.9412  1.0000</r>
       <r>   0.9412  1.0000</r>
       <r>   0.9413  1.0000</r>
       <r>   0.9413  1.0000</r>
       <r>   0.9413  1.0000</r>
       <r>   0.9414  1.0000</r>
       <r>   0.9414  1.0000</r>
       <r>   0.9417  1.0000</r>
       <r>   0.9444  1.0000</r>
       <r>   0.9444  1.0000</r>
       <r>   1.2268  1.0000</r>
       <r>   1.2316  1.0000</r>
       <r>   1.2316  1.0000</r>
       <r>   1.2317  1.0000</r>
       <r>   1.2320  1.0000</r>
       <r>   1.2320  1.0000</r>
       <r>   1.2320  1.0000</r>
       <r>   1.2320  1.0000</r>
       <r>   1.2323  1.0000</r>
       <r>   1.2324  1.0000</r>
       <r>   1.2324  1.0000</r>
       <r>   1.2371  1.0000</r>
       <r>   1.4187  1.0000</r>
       <r>   1.4188  1.0000</r>
       <r>   1.4188  1.0000</r>
       <r>   1.4188  1.0000</r>
       <r>   1.4188  1.0000</r>
       <r>   1.4188  1.0000</r>
       <r>   1.4188  1.0000</r>
       <r>   1.4189  1.0000</r>
       <r>   1.4636  1.0000</r>
       <r>   1.4636  1.0000</r>
       <r>   1.4636  1.0000</r>
       <r>   2.2257  1.0000</r>
       <r>   2.2284  1.0000</r>
       <r>   2.2285  1.0000</r>
       <r>   2.2285  1.0000</r>
       <r>   2.2285  1.0000</r>
       <r>   2.2313  1.0000</r>
       <r>   2.4696  1.0000</r>
       <r>   2.4706  1.0000</r>
       <r>   2.4721  1.0000</r>
       <r>   2.4721  1.0000</r>
       <r>   2.4730  1.0000</r>
       <r>   2.4730  1.0000</r>
       <r>   2.4730  1.0000</r>
       <r>   2.4730  1.0000</r>
       <r>   2.4738  1.0000</r>
       <r>   2.4738  1.0000</r>
       <r>   2.4755  1.0000</r>
       <r>   2.4763  1.0000</r>
       <r>   2.8204  1.0000</r>
       <r>   2.8204  1.0000</r>
       <r>   2.8238  1.0000</r>
       <r>   2.8238  1.0000</r>
       <r>   2.8241  1.0000</r>
       <r>   2.8241  1.0000</r>
       <r>   2.8242  1.0000</r>
       <r>   2.8242  1.0000</r>
       <r>   2.8244  1.0000</r>
       <r>   2.8244  1.0000</r>
       <r>   2.8278  1.0000</r>
       <r>   2.8278  1.0000</r>
       <r>   2.9726  1.0000</r>
       <r>   2.9750  1.0000</r>
       <r>   2.9750  1.0000</r>
       <r>   2.9750  1.0000</r>
       <r>   2.9750  1.0000</r>
       <r>   2.9774  1.0000</r>
       <r>   3.1268  1.0000</r>
       <r>   3.1268  1.0000</r>
       <r>   3.1302  1.0000</r>
       <r>   3.1306  1.0000</r>
       <r>   3.1307  1.0000</r>
       <r>   3.1308  1.0000</r>
       <r>   3.1308  1.0000</r>
       <r>   3.1308  1.0000</r>
       <r>   3.1310  1.0000</r>
       <r>   3.1315  1.0000</r>
       <r>   3.1350  1.0000</r>
       <r>   3.1350  1.0000</r>
       <r>   3.1484  1.0000</r>
       <r>   3.1487  1.0000</r>
       <r>   3.7602  1.0000</r>
       <r>   3.7619  1.0000</r>
       <r>   3.7619  1.0000</r>
       <r>   3.7619  1.0000</r>
       <r>   3.7619  1.0000</r>
       <r>   3.7636  1.0000</r>
       <r>   4.4332  1.0000</r>
       <r>   4.4332  1.0000</r>
       <r>   4.4332  1.0000</r>
       <r>   4.4791  1.0000</r>
       <r>   4.4791  1.0000</r>
       <r>   4.4791  1.0000</r>
       <r>   4.4791  1.0000</r>
       <r>   4.4791  1.0000</r>
       <r>   4.4791  1.0000</r>
       <r>   4.4791  1.0000</r>
       <r>   4.4792  1.0000</r>
       <r>   4.8373  1.0000</r>
       <r>   4.8377  1.0000</r>
       <r>   4.8377  1.0000</r>
       <r>   4.8377  1.0000</r>
       <r>   4.8377  1.0000</r>
       <r>   4.8377  1.0000</r>
       <r>   4.8398  1.0000</r>
       <r>   4.8399  1.0000</r>
       <r>   4.8399  1.0000</r>
       <r>   4.8400  1.0000</r>
       <r>   4.8400  1.0000</r>
       <r>   4.8404  1.0000</r>
       <r>   5.2928  1.0000</r>
       <r>   5.2929  1.0000</r>
       <r>   5.2929  1.0000</r>
       <r>   5.2929  1.0000</r>
       <r>   6.2958  1.0000</r>
       <r>   6.2961  1.0000</r>
       <r>   6.2961  1.0000</r>
       <r>   6.2970  1.0000</r>
       <r>   6.2976  1.0000</r>
       <r>   6.2976  1.0000</r>
       <r>   6.2976  1.0000</r>
       <r>   6.2976  1.0000</r>
       <r>   6.2983  1.0000</r>
       <r>   6.2992  1.0000</r>
       <r>   6.2992  1.0000</r>
       <r>   6.2995  1.0000</r>
       <r>   7.4093  0.0000</r>
       <r>   7.4093  0.0000</r>
       <r>   7.4094  0.0000</r>
       <r>   9.9630  0.0000</r>
       <r>   9.9630  0.0000</r>
       <r>   9.9630  0.0000</r>
       <r>   9.9631  0.0000</r>
       <r>  11.7180  0.0000</r>
       <r>  11.7183  0.0000</r>
       <r>  11.7184  0.0000</r>
       <r>  11.7184  0.0000</r>
       <r>  11.7184  0.0000</r>
       <r>  11.7188  0.0000</r>
       <r>  12.8598  0.0000</r>
       <r>  12.8599  0.0000</r>
       <r>  12.8599  0.0000</r>
       <r>  13.0782  0.0000</r>
       <r>  13.0782  0.0000</r>
       <r>  13.0818  0.0000</r>
       <r>  13.0818  0.0000</r>
       <r>  13.0824  0.0000</r>
       <r>  13.0824  0.0000</r>
       <r>  13.0824  0.0000</r>
       <r>  13.0826  0.0000</r>
       <r>  13.0831  0.0000</r>
       <r>  13.0831  0.0000</r>
       <r>  13.0866  0.0000</r>
       <r>  13.0866  0.0000</r>
       <r>  15.5385  0.0000</r>
      </set>
      <set comment="kpoint 2">
       <r>  -3.9312  1.0000</r>
       <r>  -1.7143  1.0000</r>
       <r>  -1.4089  1.0000</r>
       <r>  -1.4088  1.0000</r>
       <r>  -1.4088  1.0000</r>
       <r>  -1.4088  1.0000</r>
       <r>  -1.3586  1.0000</r>
       <r>  -1.3586  1.0000</r>
       <r>  -1.3586  1.0000</r>
       <r>  -1.3586  1.0000</r>
       <r>  -1.1830  1.0000</r>
       <r>  -1.1401  1.0000</r>
       <r>  -1.1335  1.0000</r>
       <r>  -1.1335  1.0000</r>
       <r>  -0.8007  1.0000</r>
       <r>  -0.7964  1.0000</r>
       <r>  -0.7964  1.0000</r>
       <r>  -0.1430  1.0000</r>
       <r>  -0.1430  1.0000</r>
       <r>  -0.1430  1.0000</r>
       <r>  -0.1429  1.0000</r>
       <r>  -0.0955  1.0000</r>
       <r>  -0.0955  1.0000</r>
       <r>  -0.0955  1.0000</r>
       <r>  -0.0955  1.0000</r>
       <r>   0.0121  1.0000</r>
       <r>   0.0123  1.0000</r>
       <r>   0.0540  1.0000</r>
       <r>   0.0540  1.0000</r>
       <r>   0.0540  1.0000</r>
       <r>   0.0541  1.0000</r>
       <r>   0.0684  1.0000</r>
       <r>   0.0684  1.0000</r>
       <r>   0.0684  1.0000</r>
       <r>   0.0685  1.0000</r>
       <r>   0.0764  1.0000</r>
       <r>   0.2278  1.0000</r>
       <r>   0.2278  1.0000</r>
       <r>   0.2278  1.0000</r>
       <r>   0.2278  1.0000</r>
       <r>   0.3689  1.0000</r>
       <r>   0.6668  1.0000</r>
       <r>   0.6668  1.0000</r>
       <r>   0.8119  1.0000</r>
       <r>   0.8121  1.0000</r>
       <r>   0.8121  1.0000</r>
       <r>   0.8122  1.0000</r>
       <r>   0.9087  1.0000</r>
       <r>   0.9094  1.0000</r>
       <r>   0.9094  1.0000</r>
       <r>   0.9094  1.0000</r>
       <r>   0.9237  1.0000</r>
       <r>   0.9239  1.0000</r>
       <r>   0.9239  1.0000</r>
       <r>   0.9242  1.0000</r>
       <r>   0.9286  1.0000</r>
       <r>   0.9288  1.0000</r>
       <r>   0.9288  1.0000</r>
       <r>   0.9288  1.0000</r>
       <r>   0.9426  1.0000</r>
       <r>   0.9427  1.0000</r>
       <r>   0.9427  1.0000</r>
       <r>   0.9433  1.0000</r>
       <r>   1.1541  1.0000</r>
       <r>   1.1542  1.0000</r>
       <r>   1.1542  1.0000</r>
       <r>   1.1542  1.0000</r>
       <r>   1.2371  1.0000</r>
       <r>   1.2371  1.0000</r>
       <r>   1.2645  1.0000</r>
       <r>   1.2653  1.0000</r>
       <r>   1.2653  1.0000</r>
       <r>   1.2653  1.0000</r>
       <r>   1.2760  1.0000</r>
       <r>   1.2761  1.0000</r>
       <r>   1.2761  1.0000</r>
       <r>   1.2770  1.0000</r>
       <r>   1.4131  1.0000</r>
       <r>   1.4131  1.0000</r>
       <r>   1.4131  1.0000</r>
       <r>   1.4131  1.0000</r>
       <r>   1.4290  1.0000</r>
       <r>   1.4291  1.0000</r>
       <r>   1.4291  1.0000</r>
       <r>   1.4291  1.0000</r>
       <r>   1.4518  1.0000</r>
       <r>   1.4737  1.0000</r>
       <r>   1.4737  1.0000</r>
       <r>   2.1707  1.0000</r>
       <r>   2.1707  1.0000</r>
       <r>   2.1707  1.0000</r>
       <r>   2.1707  1.0000</r>
       <r>   2.2190  1.0000</r>
       <r>   2.3266  1.0000</r>
       <r>   2.4233  1.0000</r>
       <r>   2.4235  1.0000</r>
       <r>   2.4235  1.0000</r>
       <r>   2.4235  1.0000</r>
       <r>   2.4721  1.0000</r>
       <r>   2.4721  1.0000</r>
       <r>   2.4721  1.0000</r>
       <r>   2.4721  1.0000</r>
       <r>   2.5300  1.0000</r>
       <r>   2.5300  1.0000</r>
       <r>   2.5301  1.0000</r>
       <r>   2.5301  1.0000</r>
       <r>   2.6214  1.0000</r>
       <r>   2.6214  1.0000</r>
       <r>   2.8235  1.0000</r>
       <r>   2.8235  1.0000</r>
       <r>   2.8235  1.0000</r>
       <r>   2.8236  1.0000</r>
       <r>   2.8712  1.0000</r>
       <r>   2.8712  1.0000</r>
       <r>   2.8712  1.0000</r>
       <r>   2.8712  1.0000</r>
       <r>   2.9803  1.0000</r>
       <r>   2.9804  1.0000</r>
       <r>   2.9804  1.0000</r>
       <r>   2.9804  1.0000</r>
       <r>   3.0110  1.0000</r>
       <r>   3.0112  1.0000</r>
       <r>   3.0307  1.0000</r>
       <r>   3.0307  1.0000</r>
       <r>   3.0315  1.0000</r>
       <r>   3.0315  1.0000</r>
       <r>   3.0377  1.0000</r>
       <r>   3.0377  1.0000</r>
       <r>   3.1355  1.0000</r>
       <r>   3.1532  1.0000</r>
       <r>   3.1851  1.0000</r>
       <r>   3.1852  1.0000</r>
       <r>   3.1852  1.0000</r>
       <r>   3.1854  1.0000</r>
       <r>   3.2539  1.0000</r>
       <r>   3.2539  1.0000</r>
       <r>   3.2540  1.0000</r>
       <r>   3.2540  1.0000</r>
       <r>   3.6788  1.0000</r>
       <r>   3.7768  1.0000</r>
       <r>   3.7768  1.0000</r>
       <r>   3.7768  1.0000</r>
       <r>   3.7769  1.0000</r>
       <r>   3.8460  1.0000</r>
       <r>   4.3446  1.0000</r>
       <r>   4.3446  1.0000</r>
       <r>   4.3446  1.0000</r>
       <r>   4.3446  1.0000</r>
       <r>   4.4147  1.0000</r>
       <r>   4.4147  1.0000</r>
       <r>   4.4272  1.0000</r>
       <r>   4.4636  1.0000</r>
       <r>   4.4636  1.0000</r>
       <r>   4.4636  1.0000</r>
       <r>   4.4636  1.0000</r>
       <r>   4.7406  1.0000</r>
       <r>   4.7406  1.0000</r>
       <r>   4.8150  1.0000</r>
       <r>   4.8150  1.0000</r>
       <r>   4.8154  1.0000</r>
       <r>   4.8154  1.0000</r>
       <r>   4.8154  1.0000</r>
       <r>   4.8154  1.0000</r>
       <r>   4.8373  1.0000</r>
       <r>   4.8377  1.0000</r>
       <r>   4.8399  1.0000</r>
       <r>   4.8403  1.0000</r>
       <r>   5.3930  1.0000</r>
       <r>   5.3930  1.0000</r>
       <r>   5.3930  1.0000</r>
       <r>   5.3930  1.0000</r>
       <r>   5.9856  1.0000</r>
       <r>   5.9856  1.0000</r>
       <r>   5.9856  1.0000</r>
       <r>   5.9856  1.0000</r>
       <r>   6.2945  1.0000</r>
       <r>   6.2945  1.0000</r>
       <r>   6.2945  1.0000</r>
       <r>   6.2945  1.0000</r>
       <r>   6.6271  0.0000</r>
       <r>   6.6271  0.0000</r>
       <r>   6.6271  0.0000</r>
       <r>   6.6271  0.0000</r>
       <r>   7.2558  0.0000</r>
       <r>   7.5205  0.0000</r>
       <r>   7.5205  0.0000</r>
       <r>  10.0229  0.0000</r>
       <r>  10.0229  0.0000</r>
       <r>  10.0229  0.0000</r>
       <r>  10.0229  0.0000</r>
       <r>  11.5083  0.0000</r>
       <r>  11.5084  0.0000</r>
       <r>  11.5084  0.0000</r>
       <r>  11.5084  0.0000</r>
       <r>  11.7337  0.0000</r>
       <r>  11.7337  0.0000</r>
       <r>  12.5368  0.0000</r>
       <r>  12.5368  0.0000</r>
       <r>  12.8357  0.0000</r>
       <r>  12.8357  0.0000</r>
       <r>  13.0489  0.0000</r>
       <r>  13.1246  0.0000</r>
       <r>  13.1247  0.0000</r>
       <r>  13.1247  0.0000</r>
       <r>  13.1247  0.0000</r>
       <r>  13.2020  0.0000</r>
       <r>  13.2020  0.0000</r>
       <r>  13.2021  0.0000</r>
       <r>  13.2022  0.0000</r>
       <r>  13.6129  0.0000</r>
       <r>  13.6129  0.0000</r>
       <r>  15.2103  0.0000</r>
      </set>
      <set comment="kpoint 3">
       <r>  -3.8667  1.0000</r>
       <r>  -2.0288  1.0000</r>
       <r>  -1.3623  1.0000</r>
       <r>  -1.3623  1.0000</r>
       <r>  -1.3623  1.0000</r>
       <r>  -1.3623  1.0000</r>
       <r>  -1.3211  1.0000</r>
       <r>  -1.3211  1.0000</r>
       <r>  -1.3211  1.0000</r>
       <r>  -1.3211  1.0000</r>
       <r>  -1.1164  1.0000</r>
       <r>  -1.0894  1.0000</r>
       <r>  -1.0894  1.0000</r>
       <r>  -1.0091  1.0000</r>
       <r>  -0.7763  1.0000</r>
       <r>  -0.7593  1.0000</r>
       <r>  -0.7593  1.0000</r>
       <r>  -0.2747  1.0000</r>
       <r>  -0.2747  1.0000</r>
       <r>  -0.2746  1.0000</r>
       <r>  -0.2746  1.0000</r>
       <r>  -0.2482  1.0000</r>
       <r>  -0.2482  1.0000</r>
       <r>  -0.2481  1.0000</r>
       <r>  -0.2481  1.0000</r>
       <r>  -0.0734  1.0000</r>
       <r>  -0.0734  1.0000</r>
       <r>  -0.0624  1.0000</r>
       <r>   0.0865  1.0000</r>
       <r>   0.0866  1.0000</r>
       <r>   0.0866  1.0000</r>
       <r>   0.0866  1.0000</r>
       <r>   0.1553  1.0000</r>
       <r>   0.1553  1.0000</r>
       <r>   0.1553  1.0000</r>
       <r>   0.1554  1.0000</r>
       <r>   0.2485  1.0000</r>
       <r>   0.2485  1.0000</r>
       <r>   0.2485  1.0000</r>
       <r>   0.2486  1.0000</r>
       <r>   0.4144  1.0000</r>
       <r>   0.4144  1.0000</r>
       <r>   0.5180  1.0000</r>
       <r>   0.7475  1.0000</r>
       <r>   0.7476  1.0000</r>
       <r>   0.7476  1.0000</r>
       <r>   0.7476  1.0000</r>
       <r>   0.8924  1.0000</r>
       <r>   0.8924  1.0000</r>
       <r>   0.8924  1.0000</r>
       <r>   0.8924  1.0000</r>
       <r>   0.9387  1.0000</r>
       <r>   0.9400  1.0000</r>
       <r>   0.9400  1.0000</r>
       <r>   0.9401  1.0000</r>
       <r>   0.9462  1.0000</r>
       <r>   0.9463  1.0000</r>
       <r>   0.9463  1.0000</r>
       <r>   0.9476  1.0000</r>
       <r>   1.0258  1.0000</r>
       <r>   1.0261  1.0000</r>
       <r>   1.0261  1.0000</r>
       <r>   1.0262  1.0000</r>
       <r>   1.0474  1.0000</r>
       <r>   1.0474  1.0000</r>
       <r>   1.0474  1.0000</r>
       <r>   1.0476  1.0000</r>
       <r>   1.2978  1.0000</r>
       <r>   1.2978  1.0000</r>
       <r>   1.2979  1.0000</r>
       <r>   1.2979  1.0000</r>
       <r>   1.3894  1.0000</r>
       <r>   1.3894  1.0000</r>
       <r>   1.3895  1.0000</r>
       <r>   1.3896  1.0000</r>
       <r>   1.3962  1.0000</r>
       <r>   1.3963  1.0000</r>
       <r>   1.3963  1.0000</r>
       <r>   1.3963  1.0000</r>
       <r>   1.4165  1.0000</r>
       <r>   1.4598  1.0000</r>
       <r>   1.4599  1.0000</r>
       <r>   1.4599  1.0000</r>
       <r>   1.4599  1.0000</r>
       <r>   1.5039  1.0000</r>
       <r>   1.5039  1.0000</r>
       <r>   1.5534  1.0000</r>
       <r>   1.5534  1.0000</r>
       <r>   2.0409  1.0000</r>
       <r>   2.0409  1.0000</r>
       <r>   2.0409  1.0000</r>
       <r>   2.0409  1.0000</r>
       <r>   2.2726  1.0000</r>
       <r>   2.3081  1.0000</r>
       <r>   2.3082  1.0000</r>
       <r>   2.3082  1.0000</r>
       <r>   2.3082  1.0000</r>
       <r>   2.4308  1.0000</r>
       <r>   2.4308  1.0000</r>
       <r>   2.5239  1.0000</r>
       <r>   2.5251  1.0000</r>
       <r>   2.5252  1.0000</r>
       <r>   2.5252  1.0000</r>
       <r>   2.5358  1.0000</r>
       <r>   2.6266  1.0000</r>
       <r>   2.6266  1.0000</r>
       <r>   2.6266  1.0000</r>
       <r>   2.6267  1.0000</r>
       <r>   2.8219  1.0000</r>
       <r>   2.8219  1.0000</r>
       <r>   2.8219  1.0000</r>
       <r>   2.8219  1.0000</r>
       <r>   2.9548  1.0000</r>
       <r>   2.9548  1.0000</r>
       <r>   2.9553  1.0000</r>
       <r>   2.9554  1.0000</r>
       <r>   2.9611  1.0000</r>
       <r>   2.9613  1.0000</r>
       <r>   2.9616  1.0000</r>
       <r>   2.9616  1.0000</r>
       <r>   2.9945  1.0000</r>
       <r>   2.9946  1.0000</r>
       <r>   2.9946  1.0000</r>
       <r>   2.9946  1.0000</r>
       <r>   3.0974  1.0000</r>
       <r>   3.1124  1.0000</r>
       <r>   3.1124  1.0000</r>
       <r>   3.1684  1.0000</r>
       <r>   3.2568  1.0000</r>
       <r>   3.2568  1.0000</r>
       <r>   3.3147  1.0000</r>
       <r>   3.3147  1.0000</r>
       <r>   3.3147  1.0000</r>
       <r>   3.3147  1.0000</r>
       <r>   3.3997  1.0000</r>
       <r>   3.3997  1.0000</r>
       <r>   3.3997  1.0000</r>
       <r>   3.3997  1.0000</r>
       <r>   3.5980  1.0000</r>
       <r>   3.8297  1.0000</r>
       <r>   3.8297  1.0000</r>
       <r>   3.8297  1.0000</r>
       <r>   3.8297  1.0000</r>
       <r>   3.9296  1.0000</r>
       <r>   4.0507  1.0000</r>
       <r>   4.0507  1.0000</r>
       <r>   4.0507  1.0000</r>
       <r>   4.0507  1.0000</r>
       <r>   4.3598  1.0000</r>
       <r>   4.3598  1.0000</r>
       <r>   4.4092  1.0000</r>
       <r>   4.4176  1.0000</r>
       <r>   4.4176  1.0000</r>
       <r>   4.4176  1.0000</r>
       <r>   4.4177  1.0000</r>
       <r>   4.4886  1.0000</r>
       <r>   4.4886  1.0000</r>
       <r>   4.7437  1.0000</r>
       <r>   4.7437  1.0000</r>
       <r>   4.7437  1.0000</r>
       <r>   4.7437  1.0000</r>
       <r>   4.7484  1.0000</r>
       <r>   4.7484  1.0000</r>
       <r>   4.8374  1.0000</r>
       <r>   4.8378  1.0000</r>
       <r>   4.8398  1.0000</r>
       <r>   4.8403  1.0000</r>
       <r>   5.5856  1.0000</r>
       <r>   5.5857  1.0000</r>
       <r>   5.5857  1.0000</r>
       <r>   5.5857  1.0000</r>
       <r>   5.6854  1.0000</r>
       <r>   5.6854  1.0000</r>
       <r>   5.6854  1.0000</r>
       <r>   5.6854  1.0000</r>
       <r>   6.2847  1.0000</r>
       <r>   6.2847  1.0000</r>
       <r>   6.2847  1.0000</r>
       <r>   6.2847  1.0000</r>
       <r>   6.8484  0.0000</r>
       <r>   6.9809  0.0000</r>
       <r>   6.9809  0.0000</r>
       <r>   6.9809  0.0000</r>
       <r>   6.9809  0.0000</r>
       <r>   7.8143  0.0000</r>
       <r>   7.8143  0.0000</r>
       <r>  10.2008  0.0000</r>
       <r>  10.2008  0.0000</r>
       <r>  10.2008  0.0000</r>
       <r>  10.2008  0.0000</r>
       <r>  11.0368  0.0000</r>
       <r>  11.0368  0.0000</r>
       <r>  11.0368  0.0000</r>
       <r>  11.0368  0.0000</r>
       <r>  11.7793  0.0000</r>
       <r>  11.7793  0.0000</r>
       <r>  11.9807  0.0000</r>
       <r>  11.9807  0.0000</r>
       <r>  12.7658  0.0000</r>
       <r>  12.7658  0.0000</r>
       <r>  13.2493  0.0000</r>
       <r>  13.2493  0.0000</r>
       <r>  13.2493  0.0000</r>
       <r>  13.2493  0.0000</r>
       <r>  13.4208  0.0000</r>
       <r>  13.4208  0.0000</r>
       <r>  13.4208  0.0000</r>
       <r>  13.4209  0.0000</r>
       <r>  13.5631  0.0000</r>
       <r>  14.1232  0.0000</r>
       <r>  14.1232  0.0000</r>
       <r>  14.5880  0.0000</r>
      </set>
      <set comment="kpoint 4">
       <r>  -3.7600  1.0000</r>
       <r>  -2.3475  1.0000</r>
       <r>  -1.2862  1.0000</r>
       <r>  -1.2862  1.0000</r>
       <r>  -1.2862  1.0000</r>
       <r>  -1.2861  1.0000</r>
       <r>  -1.2590  1.0000</r>
       <r>  -1.2590  1.0000</r>
       <r>  -1.2590  1.0000</r>
       <r>  -1.2590  1.0000</r>
       <r>  -1.0786  1.0000</r>
       <r>  -1.0172  1.0000</r>
       <r>  -1.0171  1.0000</r>
       <r>  -0.9093  1.0000</r>
       <r>  -0.7360  1.0000</r>
       <r>  -0.6974  1.0000</r>
       <r>  -0.6974  1.0000</r>
       <r>  -0.4293  1.0000</r>
       <r>  -0.4293  1.0000</r>
       <r>  -0.4291  1.0000</r>
       <r>  -0.4290  1.0000</r>
       <r>  -0.4236  1.0000</r>
       <r>  -0.4235  1.0000</r>
       <r>  -0.4233  1.0000</r>
       <r>  -0.4233  1.0000</r>
       <r>  -0.1992  1.0000</r>
       <r>  -0.1992  1.0000</r>
       <r>  -0.1934  1.0000</r>
       <r>   0.1389  1.0000</r>
       <r>   0.1390  1.0000</r>
       <r>   0.1390  1.0000</r>
       <r>   0.1390  1.0000</r>
       <r>   0.1846  1.0000</r>
       <r>   0.1846  1.0000</r>
       <r>   0.2342  1.0000</r>
       <r>   0.2342  1.0000</r>
       <r>   0.2342  1.0000</r>
       <r>   0.2342  1.0000</r>
       <r>   0.2825  1.0000</r>
       <r>   0.2826  1.0000</r>
       <r>   0.2826  1.0000</r>
       <r>   0.2826  1.0000</r>
       <r>   0.6655  1.0000</r>
       <r>   0.6757  1.0000</r>
       <r>   0.6757  1.0000</r>
       <r>   0.6757  1.0000</r>
       <r>   0.6757  1.0000</r>
       <r>   0.8380  1.0000</r>
       <r>   0.8381  1.0000</r>
       <r>   0.8381  1.0000</r>
       <r>   0.8381  1.0000</r>
       <r>   0.9255  1.0000</r>
       <r>   0.9255  1.0000</r>
       <r>   0.9255  1.0000</r>
       <r>   0.9255  1.0000</r>
       <r>   0.9505  1.0000</r>
       <r>   0.9516  1.0000</r>
       <r>   0.9516  1.0000</r>
       <r>   0.9517  1.0000</r>
       <r>   0.9597  1.0000</r>
       <r>   0.9598  1.0000</r>
       <r>   0.9598  1.0000</r>
       <r>   0.9609  1.0000</r>
       <r>   1.0993  1.0000</r>
       <r>   1.0993  1.0000</r>
       <r>   1.0993  1.0000</r>
       <r>   1.0993  1.0000</r>
       <r>   1.3184  1.0000</r>
       <r>   1.3184  1.0000</r>
       <r>   1.3185  1.0000</r>
       <r>   1.3185  1.0000</r>
       <r>   1.3589  1.0000</r>
       <r>   1.3693  1.0000</r>
       <r>   1.3693  1.0000</r>
       <r>   1.3693  1.0000</r>
       <r>   1.3694  1.0000</r>
       <r>   1.5108  1.0000</r>
       <r>   1.5108  1.0000</r>
       <r>   1.5108  1.0000</r>
       <r>   1.5109  1.0000</r>
       <r>   1.5541  1.0000</r>
       <r>   1.5541  1.0000</r>
       <r>   1.6184  1.0000</r>
       <r>   1.6184  1.0000</r>
       <r>   1.6184  1.0000</r>
       <r>   1.6184  1.0000</r>
       <r>   1.8881  1.0000</r>
       <r>   1.8881  1.0000</r>
       <r>   1.8911  1.0000</r>
       <r>   1.8912  1.0000</r>
       <r>   1.8920  1.0000</r>
       <r>   1.8920  1.0000</r>
       <r>   2.1700  1.0000</r>
       <r>   2.1700  1.0000</r>
       <r>   2.1700  1.0000</r>
       <r>   2.1701  1.0000</r>
       <r>   2.2543  1.0000</r>
       <r>   2.2543  1.0000</r>
       <r>   2.3665  1.0000</r>
       <r>   2.6148  1.0000</r>
       <r>   2.6149  1.0000</r>
       <r>   2.6149  1.0000</r>
       <r>   2.6149  1.0000</r>
       <r>   2.7383  1.0000</r>
       <r>   2.7383  1.0000</r>
       <r>   2.7383  1.0000</r>
       <r>   2.7383  1.0000</r>
       <r>   2.8199  1.0000</r>
       <r>   2.8199  1.0000</r>
       <r>   2.8199  1.0000</r>
       <r>   2.8199  1.0000</r>
       <r>   2.8595  1.0000</r>
       <r>   2.9000  1.0000</r>
       <r>   2.9000  1.0000</r>
       <r>   2.9000  1.0000</r>
       <r>   2.9001  1.0000</r>
       <r>   3.0104  1.0000</r>
       <r>   3.0106  1.0000</r>
       <r>   3.0106  1.0000</r>
       <r>   3.0106  1.0000</r>
       <r>   3.0262  1.0000</r>
       <r>   3.0262  1.0000</r>
       <r>   3.0262  1.0000</r>
       <r>   3.0263  1.0000</r>
       <r>   3.0355  1.0000</r>
       <r>   3.1932  1.0000</r>
       <r>   3.2626  1.0000</r>
       <r>   3.2627  1.0000</r>
       <r>   3.4755  1.0000</r>
       <r>   3.4756  1.0000</r>
       <r>   3.4756  1.0000</r>
       <r>   3.4756  1.0000</r>
       <r>   3.4807  1.0000</r>
       <r>   3.4807  1.0000</r>
       <r>   3.5210  1.0000</r>
       <r>   3.5651  1.0000</r>
       <r>   3.5651  1.0000</r>
       <r>   3.5651  1.0000</r>
       <r>   3.5651  1.0000</r>
       <r>   3.7008  1.0000</r>
       <r>   3.7009  1.0000</r>
       <r>   3.7009  1.0000</r>
       <r>   3.7009  1.0000</r>
       <r>   3.9372  1.0000</r>
       <r>   3.9372  1.0000</r>
       <r>   3.9372  1.0000</r>
       <r>   3.9372  1.0000</r>
       <r>   4.0113  1.0000</r>
       <r>   4.1503  1.0000</r>
       <r>   4.1503  1.0000</r>
       <r>   4.2697  1.0000</r>
       <r>   4.2697  1.0000</r>
       <r>   4.3427  1.0000</r>
       <r>   4.3427  1.0000</r>
       <r>   4.3427  1.0000</r>
       <r>   4.3427  1.0000</r>
       <r>   4.3798  1.0000</r>
       <r>   4.6305  1.0000</r>
       <r>   4.6305  1.0000</r>
       <r>   4.6305  1.0000</r>
       <r>   4.6305  1.0000</r>
       <r>   4.6413  1.0000</r>
       <r>   4.6413  1.0000</r>
       <r>   4.8375  1.0000</r>
       <r>   4.8380  1.0000</r>
       <r>   4.8396  1.0000</r>
       <r>   4.8401  1.0000</r>
       <r>   5.3935  1.0000</r>
       <r>   5.3935  1.0000</r>
       <r>   5.3935  1.0000</r>
       <r>   5.3935  1.0000</r>
       <r>   5.7730  1.0000</r>
       <r>   5.7730  1.0000</r>
       <r>   5.7730  1.0000</r>
       <r>   5.7730  1.0000</r>
       <r>   6.2662  1.0000</r>
       <r>   6.2668  1.0000</r>
       <r>   6.2668  1.0000</r>
       <r>   6.2668  1.0000</r>
       <r>   6.2909  1.0000</r>
       <r>   7.3666  0.0000</r>
       <r>   7.3666  0.0000</r>
       <r>   7.3666  0.0000</r>
       <r>   7.3666  0.0000</r>
       <r>   8.2219  0.0000</r>
       <r>   8.2219  0.0000</r>
       <r>  10.4726  0.0000</r>
       <r>  10.4726  0.0000</r>
       <r>  10.4728  0.0000</r>
       <r>  10.4729  0.0000</r>
       <r>  10.4908  0.0000</r>
       <r>  10.4908  0.0000</r>
       <r>  10.4911  0.0000</r>
       <r>  10.4911  0.0000</r>
       <r>  11.4188  0.0000</r>
       <r>  11.4188  0.0000</r>
       <r>  11.8541  0.0000</r>
       <r>  11.8541  0.0000</r>
       <r>  12.6578  0.0000</r>
       <r>  12.6578  0.0000</r>
       <r>  13.4507  0.0000</r>
       <r>  13.4507  0.0000</r>
       <r>  13.4507  0.0000</r>
       <r>  13.4507  0.0000</r>
       <r>  13.6185  0.0000</r>
       <r>  13.6185  0.0000</r>
       <r>  13.6185  0.0000</r>
       <r>  13.6185  0.0000</r>
       <r>  13.8918  0.0000</r>
       <r>  13.8918  0.0000</r>
       <r>  13.8918  0.0000</r>
       <r>  13.8918  0.0000</r>
      </set>
      <set comment="kpoint 5">
       <r>  -3.6122  1.0000</r>
       <r>  -2.6556  1.0000</r>
       <r>  -1.1827  1.0000</r>
       <r>  -1.1827  1.0000</r>
       <r>  -1.1827  1.0000</r>
       <r>  -1.1826  1.0000</r>
       <r>  -1.1727  1.0000</r>
       <r>  -1.1727  1.0000</r>
       <r>  -1.1726  1.0000</r>
       <r>  -1.1726  1.0000</r>
       <r>  -1.0303  1.0000</r>
       <r>  -0.9188  1.0000</r>
       <r>  -0.9188  1.0000</r>
       <r>  -0.8741  1.0000</r>
       <r>  -0.6802  1.0000</r>
       <r>  -0.6120  1.0000</r>
       <r>  -0.6120  1.0000</r>
       <r>  -0.6100  1.0000</r>
       <r>  -0.6100  1.0000</r>
       <r>  -0.6090  1.0000</r>
       <r>  -0.6090  1.0000</r>
       <r>  -0.5844  1.0000</r>
       <r>  -0.5844  1.0000</r>
       <r>  -0.5844  1.0000</r>
       <r>  -0.5844  1.0000</r>
       <r>  -0.3480  1.0000</r>
       <r>  -0.3480  1.0000</r>
       <r>  -0.3151  1.0000</r>
       <r>  -0.0221  1.0000</r>
       <r>  -0.0221  1.0000</r>
       <r>   0.2072  1.0000</r>
       <r>   0.2073  1.0000</r>
       <r>   0.2073  1.0000</r>
       <r>   0.2073  1.0000</r>
       <r>   0.3031  1.0000</r>
       <r>   0.3031  1.0000</r>
       <r>   0.3031  1.0000</r>
       <r>   0.3031  1.0000</r>
       <r>   0.3288  1.0000</r>
       <r>   0.3288  1.0000</r>
       <r>   0.3288  1.0000</r>
       <r>   0.3288  1.0000</r>
       <r>   0.6000  1.0000</r>
       <r>   0.6000  1.0000</r>
       <r>   0.6000  1.0000</r>
       <r>   0.6000  1.0000</r>
       <r>   0.7739  1.0000</r>
       <r>   0.7740  1.0000</r>
       <r>   0.7740  1.0000</r>
       <r>   0.7740  1.0000</r>
       <r>   0.8057  1.0000</r>
       <r>   0.8057  1.0000</r>
       <r>   0.8057  1.0000</r>
       <r>   0.8058  1.0000</r>
       <r>   0.8089  1.0000</r>
       <r>   0.9574  1.0000</r>
       <r>   0.9583  1.0000</r>
       <r>   0.9583  1.0000</r>
       <r>   0.9584  1.0000</r>
       <r>   0.9699  1.0000</r>
       <r>   0.9699  1.0000</r>
       <r>   0.9699  1.0000</r>
       <r>   0.9708  1.0000</r>
       <r>   1.1527  1.0000</r>
       <r>   1.1527  1.0000</r>
       <r>   1.1527  1.0000</r>
       <r>   1.1527  1.0000</r>
       <r>   1.2806  1.0000</r>
       <r>   1.3341  1.0000</r>
       <r>   1.3341  1.0000</r>
       <r>   1.3341  1.0000</r>
       <r>   1.3342  1.0000</r>
       <r>   1.3548  1.0000</r>
       <r>   1.3549  1.0000</r>
       <r>   1.3549  1.0000</r>
       <r>   1.3550  1.0000</r>
       <r>   1.5811  1.0000</r>
       <r>   1.5812  1.0000</r>
       <r>   1.5812  1.0000</r>
       <r>   1.5812  1.0000</r>
       <r>   1.6241  1.0000</r>
       <r>   1.6241  1.0000</r>
       <r>   1.7451  1.0000</r>
       <r>   1.7451  1.0000</r>
       <r>   1.7451  1.0000</r>
       <r>   1.7451  1.0000</r>
       <r>   1.9126  1.0000</r>
       <r>   1.9126  1.0000</r>
       <r>   1.9126  1.0000</r>
       <r>   1.9126  1.0000</r>
       <r>   2.0298  1.0000</r>
       <r>   2.0298  1.0000</r>
       <r>   2.0298  1.0000</r>
       <r>   2.0298  1.0000</r>
       <r>   2.0932  1.0000</r>
       <r>   2.0932  1.0000</r>
       <r>   2.2423  1.0000</r>
       <r>   2.2423  1.0000</r>
       <r>   2.4829  1.0000</r>
       <r>   2.7215  1.0000</r>
       <r>   2.7216  1.0000</r>
       <r>   2.7216  1.0000</r>
       <r>   2.7216  1.0000</r>
       <r>   2.8187  1.0000</r>
       <r>   2.8187  1.0000</r>
       <r>   2.8187  1.0000</r>
       <r>   2.8188  1.0000</r>
       <r>   2.8435  1.0000</r>
       <r>   2.8436  1.0000</r>
       <r>   2.8436  1.0000</r>
       <r>   2.8436  1.0000</r>
       <r>   2.8624  1.0000</r>
       <r>   2.8624  1.0000</r>
       <r>   2.8624  1.0000</r>
       <r>   2.8624  1.0000</r>
       <r>   2.9517  1.0000</r>
       <r>   3.0202  1.0000</r>
       <r>   3.0203  1.0000</r>
       <r>   3.0203  1.0000</r>
       <r>   3.0203  1.0000</r>
       <r>   3.0376  1.0000</r>
       <r>   3.0376  1.0000</r>
       <r>   3.0376  1.0000</r>
       <r>   3.0377  1.0000</r>
       <r>   3.2276  1.0000</r>
       <r>   3.2915  1.0000</r>
       <r>   3.3319  1.0000</r>
       <r>   3.3319  1.0000</r>
       <r>   3.3319  1.0000</r>
       <r>   3.3319  1.0000</r>
       <r>   3.4420  1.0000</r>
       <r>   3.4423  1.0000</r>
       <r>   3.4489  1.0000</r>
       <r>   3.6456  1.0000</r>
       <r>   3.6456  1.0000</r>
       <r>   3.6456  1.0000</r>
       <r>   3.6457  1.0000</r>
       <r>   3.7046  1.0000</r>
       <r>   3.7046  1.0000</r>
       <r>   3.7455  1.0000</r>
       <r>   3.7455  1.0000</r>
       <r>   3.7456  1.0000</r>
       <r>   3.7456  1.0000</r>
       <r>   3.7733  1.0000</r>
       <r>   3.7733  1.0000</r>
       <r>   4.0895  1.0000</r>
       <r>   4.1050  1.0000</r>
       <r>   4.1050  1.0000</r>
       <r>   4.1050  1.0000</r>
       <r>   4.1050  1.0000</r>
       <r>   4.1470  1.0000</r>
       <r>   4.1471  1.0000</r>
       <r>   4.2412  1.0000</r>
       <r>   4.2413  1.0000</r>
       <r>   4.2413  1.0000</r>
       <r>   4.2413  1.0000</r>
       <r>   4.3394  1.0000</r>
       <r>   4.4838  1.0000</r>
       <r>   4.4838  1.0000</r>
       <r>   4.4838  1.0000</r>
       <r>   4.4838  1.0000</r>
       <r>   4.4989  1.0000</r>
       <r>   4.4989  1.0000</r>
       <r>   4.8376  1.0000</r>
       <r>   4.8382  1.0000</r>
       <r>   4.8394  1.0000</r>
       <r>   4.8400  1.0000</r>
       <r>   5.1087  1.0000</r>
       <r>   5.1087  1.0000</r>
       <r>   5.1087  1.0000</r>
       <r>   5.1087  1.0000</r>
       <r>   5.6638  1.0000</r>
       <r>   5.9278  1.0000</r>
       <r>   5.9278  1.0000</r>
       <r>   5.9278  1.0000</r>
       <r>   5.9278  1.0000</r>
       <r>   6.2383  1.0000</r>
       <r>   6.2383  1.0000</r>
       <r>   6.2383  1.0000</r>
       <r>   6.2383  1.0000</r>
       <r>   7.7906  0.0000</r>
       <r>   7.7906  0.0000</r>
       <r>   7.7906  0.0000</r>
       <r>   7.7906  0.0000</r>
       <r>   8.6952  0.0000</r>
       <r>   8.6952  0.0000</r>
       <r>   9.8872  0.0000</r>
       <r>   9.8872  0.0000</r>
       <r>   9.8872  0.0000</r>
       <r>   9.8873  0.0000</r>
       <r>  10.8553  0.0000</r>
       <r>  10.8553  0.0000</r>
       <r>  10.8832  0.0000</r>
       <r>  10.8832  0.0000</r>
       <r>  10.8833  0.0000</r>
       <r>  10.8833  0.0000</r>
       <r>  11.9559  0.0000</r>
       <r>  11.9559  0.0000</r>
       <r>  12.5228  0.0000</r>
       <r>  12.5228  0.0000</r>
       <r>  13.1996  0.0000</r>
       <r>  13.1996  0.0000</r>
       <r>  13.1996  0.0000</r>
       <r>  13.1996  0.0000</r>
       <r>  13.7205  0.0000</r>
       <r>  13.7205  0.0000</r>
       <r>  13.7205  0.0000</r>
       <r>  13.7205  0.0000</r>
       <r>  13.7833  0.0000</r>
       <r>  13.7833  0.0000</r>
       <r>  13.7833  0.0000</r>
       <r>  13.7833  0.0000</r>
      </set>
      <set comment="kpoint 6">
       <r>  -3.4248  1.0000</r>
       <r>  -2.9422  1.0000</r>
       <r>  -1.0632  1.0000</r>
       <r>  -1.0632  1.0000</r>
       <r>  -1.0631  1.0000</r>
       <r>  -1.0631  1.0000</r>
       <r>  -1.0553  1.0000</r>
       <r>  -1.0552  1.0000</r>
       <r>  -1.0551  1.0000</r>
       <r>  -1.0551  1.0000</r>
       <r>  -0.9763  1.0000</r>
       <r>  -0.8854  1.0000</r>
       <r>  -0.7974  1.0000</r>
       <r>  -0.7973  1.0000</r>
       <r>  -0.7793  1.0000</r>
       <r>  -0.7793  1.0000</r>
       <r>  -0.7793  1.0000</r>
       <r>  -0.7793  1.0000</r>
       <r>  -0.7490  1.0000</r>
       <r>  -0.7490  1.0000</r>
       <r>  -0.7490  1.0000</r>
       <r>  -0.7489  1.0000</r>
       <r>  -0.6094  1.0000</r>
       <r>  -0.5045  1.0000</r>
       <r>  -0.5045  1.0000</r>
       <r>  -0.5000  1.0000</r>
       <r>  -0.5000  1.0000</r>
       <r>  -0.4258  1.0000</r>
       <r>  -0.2053  1.0000</r>
       <r>  -0.2053  1.0000</r>
       <r>   0.2825  1.0000</r>
       <r>   0.2827  1.0000</r>
       <r>   0.2827  1.0000</r>
       <r>   0.2827  1.0000</r>
       <r>   0.3489  1.0000</r>
       <r>   0.3489  1.0000</r>
       <r>   0.3489  1.0000</r>
       <r>   0.3490  1.0000</r>
       <r>   0.3858  1.0000</r>
       <r>   0.3858  1.0000</r>
       <r>   0.3858  1.0000</r>
       <r>   0.3859  1.0000</r>
       <r>   0.5242  1.0000</r>
       <r>   0.5242  1.0000</r>
       <r>   0.5242  1.0000</r>
       <r>   0.5242  1.0000</r>
       <r>   0.7106  1.0000</r>
       <r>   0.7114  1.0000</r>
       <r>   0.7114  1.0000</r>
       <r>   0.7119  1.0000</r>
       <r>   0.7129  1.0000</r>
       <r>   0.7134  1.0000</r>
       <r>   0.7134  1.0000</r>
       <r>   0.7142  1.0000</r>
       <r>   0.9448  1.0000</r>
       <r>   0.9638  1.0000</r>
       <r>   0.9650  1.0000</r>
       <r>   0.9650  1.0000</r>
       <r>   0.9651  1.0000</r>
       <r>   0.9727  1.0000</r>
       <r>   0.9728  1.0000</r>
       <r>   0.9728  1.0000</r>
       <r>   0.9742  1.0000</r>
       <r>   1.1838  1.0000</r>
       <r>   1.2010  1.0000</r>
       <r>   1.2010  1.0000</r>
       <r>   1.2010  1.0000</r>
       <r>   1.2010  1.0000</r>
       <r>   1.2929  1.0000</r>
       <r>   1.2929  1.0000</r>
       <r>   1.2929  1.0000</r>
       <r>   1.2929  1.0000</r>
       <r>   1.4155  1.0000</r>
       <r>   1.4155  1.0000</r>
       <r>   1.4155  1.0000</r>
       <r>   1.4156  1.0000</r>
       <r>   1.6133  1.0000</r>
       <r>   1.6134  1.0000</r>
       <r>   1.6134  1.0000</r>
       <r>   1.6135  1.0000</r>
       <r>   1.6700  1.0000</r>
       <r>   1.6700  1.0000</r>
       <r>   1.6700  1.0000</r>
       <r>   1.6700  1.0000</r>
       <r>   1.7136  1.0000</r>
       <r>   1.7136  1.0000</r>
       <r>   1.8968  1.0000</r>
       <r>   1.8968  1.0000</r>
       <r>   1.8968  1.0000</r>
       <r>   1.8968  1.0000</r>
       <r>   1.9488  1.0000</r>
       <r>   1.9488  1.0000</r>
       <r>   2.2424  1.0000</r>
       <r>   2.2424  1.0000</r>
       <r>   2.2424  1.0000</r>
       <r>   2.2424  1.0000</r>
       <r>   2.6084  1.0000</r>
       <r>   2.6113  1.0000</r>
       <r>   2.6113  1.0000</r>
       <r>   2.8199  1.0000</r>
       <r>   2.8199  1.0000</r>
       <r>   2.8199  1.0000</r>
       <r>   2.8200  1.0000</r>
       <r>   2.8292  1.0000</r>
       <r>   2.8293  1.0000</r>
       <r>   2.8293  1.0000</r>
       <r>   2.8293  1.0000</r>
       <r>   2.8388  1.0000</r>
       <r>   2.8389  1.0000</r>
       <r>   2.8389  1.0000</r>
       <r>   2.8389  1.0000</r>
       <r>   2.8496  1.0000</r>
       <r>   2.9281  1.0000</r>
       <r>   2.9281  1.0000</r>
       <r>   2.9281  1.0000</r>
       <r>   2.9281  1.0000</r>
       <r>   2.9597  1.0000</r>
       <r>   2.9598  1.0000</r>
       <r>   2.9598  1.0000</r>
       <r>   2.9599  1.0000</r>
       <r>   2.9993  1.0000</r>
       <r>   2.9993  1.0000</r>
       <r>   2.9994  1.0000</r>
       <r>   2.9994  1.0000</r>
       <r>   3.0145  1.0000</r>
       <r>   3.0145  1.0000</r>
       <r>   3.0146  1.0000</r>
       <r>   3.0146  1.0000</r>
       <r>   3.2709  1.0000</r>
       <r>   3.3822  1.0000</r>
       <r>   3.3829  1.0000</r>
       <r>   3.3829  1.0000</r>
       <r>   3.6335  1.0000</r>
       <r>   3.6335  1.0000</r>
       <r>   3.8108  1.0000</r>
       <r>   3.8136  1.0000</r>
       <r>   3.8136  1.0000</r>
       <r>   3.8136  1.0000</r>
       <r>   3.8136  1.0000</r>
       <r>   3.9241  1.0000</r>
       <r>   3.9241  1.0000</r>
       <r>   3.9352  1.0000</r>
       <r>   3.9352  1.0000</r>
       <r>   3.9352  1.0000</r>
       <r>   3.9352  1.0000</r>
       <r>   3.9957  1.0000</r>
       <r>   3.9957  1.0000</r>
       <r>   4.1165  1.0000</r>
       <r>   4.1165  1.0000</r>
       <r>   4.1165  1.0000</r>
       <r>   4.1165  1.0000</r>
       <r>   4.1629  1.0000</r>
       <r>   4.2891  1.0000</r>
       <r>   4.3125  1.0000</r>
       <r>   4.3125  1.0000</r>
       <r>   4.3128  1.0000</r>
       <r>   4.3128  1.0000</r>
       <r>   4.3205  1.0000</r>
       <r>   4.3206  1.0000</r>
       <r>   4.3207  1.0000</r>
       <r>   4.3207  1.0000</r>
       <r>   4.3276  1.0000</r>
       <r>   4.3276  1.0000</r>
       <r>   4.8320  1.0000</r>
       <r>   4.8320  1.0000</r>
       <r>   4.8320  1.0000</r>
       <r>   4.8320  1.0000</r>
       <r>   4.8377  1.0000</r>
       <r>   4.8385  1.0000</r>
       <r>   4.8391  1.0000</r>
       <r>   4.8399  1.0000</r>
       <r>   5.0209  1.0000</r>
       <r>   6.0465  1.0000</r>
       <r>   6.0465  1.0000</r>
       <r>   6.0466  1.0000</r>
       <r>   6.0466  1.0000</r>
       <r>   6.1956  1.0000</r>
       <r>   6.1956  1.0000</r>
       <r>   6.1956  1.0000</r>
       <r>   6.1956  1.0000</r>
       <r>   8.2569  0.0000</r>
       <r>   8.2569  0.0000</r>
[...]
       <r>   1.9542  1.0000</r>
       <r>   1.9543  1.0000</r>
       <r>   1.9557  1.0000</r>
       <r>   1.9557  1.0000</r>
       <r>   2.1034  1.0000</r>
       <r>   2.1034  1.0000</r>
       <r>   2.1034  1.0000</r>
       <r>   2.1034  1.0000</r>
       <r>   2.4686  1.0000</r>
       <r>   2.4686  1.0000</r>
       <r>   2.4686  1.0000</r>
       <r>   2.4687  1.0000</r>
       <r>   2.5771  1.0000</r>
       <r>   2.5771  1.0000</r>
       <r>   2.5777  1.0000</r>
       <r>   2.5777  1.0000</r>
       <r>   2.5777  1.0000</r>
       <r>   2.5778  1.0000</r>
       <r>   2.5783  1.0000</r>
       <r>   2.5783  1.0000</r>
       <r>   3.0307  1.0000</r>
       <r>   3.0312  1.0000</r>
       <r>   3.0312  1.0000</r>
       <r>   3.0314  1.0000</r>
       <r>   3.0735  1.0000</r>
       <r>   3.0738  1.0000</r>
       <r>   3.0738  1.0000</r>
       <r>   3.0742  1.0000</r>
       <r>   3.0747  1.0000</r>
       <r>   3.0747  1.0000</r>
       <r>   3.0754  1.0000</r>
       <r>   3.0754  1.0000</r>
       <r>   3.0754  1.0000</r>
       <r>   3.0765  1.0000</r>
       <r>   3.0765  1.0000</r>
       <r>   3.0767  1.0000</r>
       <r>   3.3771  1.0000</r>
       <r>   3.3772  1.0000</r>
       <r>   3.3772  1.0000</r>
       <r>   3.3772  1.0000</r>
       <r>   3.4041  1.0000</r>
       <r>   3.4041  1.0000</r>
       <r>   3.4041  1.0000</r>
       <r>   3.4043  1.0000</r>
       <r>   3.6448  1.0000</r>
       <r>   3.6448  1.0000</r>
       <r>   3.6448  1.0000</r>
       <r>   3.6448  1.0000</r>
       <r>   4.4945  1.0000</r>
       <r>   4.4945  1.0000</r>
       <r>   4.4948  1.0000</r>
       <r>   4.4948  1.0000</r>
       <r>   4.4948  1.0000</r>
       <r>   4.4948  1.0000</r>
       <r>   4.4951  1.0000</r>
       <r>   4.4951  1.0000</r>
       <r>   4.5182  1.0000</r>
       <r>   4.5182  1.0000</r>
       <r>   4.5182  1.0000</r>
       <r>   4.5182  1.0000</r>
       <r>   4.5483  1.0000</r>
       <r>   4.5483  1.0000</r>
       <r>   4.5487  1.0000</r>
       <r>   4.5487  1.0000</r>
       <r>   4.5487  1.0000</r>
       <r>   4.5487  1.0000</r>
       <r>   4.5490  1.0000</r>
       <r>   4.5490  1.0000</r>
       <r>   4.5506  1.0000</r>
       <r>   4.5507  1.0000</r>
       <r>   4.5507  1.0000</r>
       <r>   4.5507  1.0000</r>
       <r>   6.3782  1.0000</r>
       <r>   6.3782  1.0000</r>
       <r>   6.3782  1.0000</r>
       <r>   6.3783  1.0000</r>
       <r>   7.1527  0.0000</r>
       <r>   7.1527  0.0000</r>
       <r>   7.1532  0.0000</r>
       <r>   7.1532  0.0000</r>
       <r>   7.1532  0.0000</r>
       <r>   7.1532  0.0000</r>
       <r>   7.1537  0.0000</r>
       <r>   7.1537  0.0000</r>
       <r>   8.2229  0.0000</r>
       <r>   8.2229  0.0000</r>
       <r>   8.2241  0.0000</r>
       <r>   8.2241  0.0000</r>
       <r>   8.2241  0.0000</r>
       <r>   8.2241  0.0000</r>
       <r>   8.2252  0.0000</r>
       <r>   8.2252  0.0000</r>
       <r>   9.0152  0.0000</r>
       <r>   9.0152  0.0000</r>
       <r>   9.0153  0.0000</r>
       <r>   9.0153  0.0000</r>
       <r>  11.2438  0.0000</r>
       <r>  11.2438  0.0000</r>
       <r>  11.2440  0.0000</r>
       <r>  11.2441  0.0000</r>
       <r>  11.2441  0.0000</r>
       <r>  11.2441  0.0000</r>
       <r>  11.2444  0.0000</r>
       <r>  11.2444  0.0000</r>
       <r>  11.5708  0.0000</r>
       <r>  11.5708  0.0000</r>
       <r>  11.5708  0.0000</r>
       <r>  11.5708  0.0000</r>
       <r>  13.0999  0.0000</r>
       <r>  13.0999  0.0000</r>
       <r>  13.0999  0.0000</r>
       <r>  13.0999  0.0000</r>
       <r>  13.4040  0.0000</r>
       <r>  13.4042  0.0000</r>
       <r>  13.4043  0.0000</r>
       <r>  13.4045  0.0000</r>
      </set>
      <set comment="kpoint 195">
       <r>  -2.2075  1.0000</r>
       <r>  -2.2074  1.0000</r>
       <r>  -2.2074  1.0000</r>
       <r>  -2.2074  1.0000</r>
       <r>  -1.9267  1.0000</r>
       <r>  -1.9267  1.0000</r>
       <r>  -1.9267  1.0000</r>
       <r>  -1.9266  1.0000</r>
       <r>  -0.4998  1.0000</r>
       <r>  -0.4996  1.0000</r>
       <r>  -0.4995  1.0000</r>
       <r>  -0.4995  1.0000</r>
       <r>  -0.4786  1.0000</r>
       <r>  -0.4786  1.0000</r>
       <r>  -0.4783  1.0000</r>
       <r>  -0.4783  1.0000</r>
       <r>  -0.4782  1.0000</r>
       <r>  -0.4780  1.0000</r>
       <r>  -0.4779  1.0000</r>
       <r>  -0.4779  1.0000</r>
       <r>  -0.4506  1.0000</r>
       <r>  -0.4502  1.0000</r>
       <r>  -0.4502  1.0000</r>
       <r>  -0.4500  1.0000</r>
       <r>  -0.4384  1.0000</r>
       <r>  -0.4384  1.0000</r>
       <r>  -0.4378  1.0000</r>
       <r>  -0.4377  1.0000</r>
       <r>  -0.4377  1.0000</r>
       <r>  -0.4373  1.0000</r>
       <r>  -0.4369  1.0000</r>
       <r>  -0.4369  1.0000</r>
       <r>   0.3713  1.0000</r>
       <r>   0.3713  1.0000</r>
       <r>   0.3720  1.0000</r>
       <r>   0.3720  1.0000</r>
       <r>   0.3720  1.0000</r>
       <r>   0.3721  1.0000</r>
       <r>   0.3728  1.0000</r>
       <r>   0.3728  1.0000</r>
       <r>   0.4076  1.0000</r>
       <r>   0.4077  1.0000</r>
       <r>   0.4077  1.0000</r>
       <r>   0.4077  1.0000</r>
       <r>   0.6250  1.0000</r>
       <r>   0.6250  1.0000</r>
       <r>   0.6250  1.0000</r>
       <r>   0.6257  1.0000</r>
       <r>   0.6257  1.0000</r>
       <r>   0.6258  1.0000</r>
       <r>   0.6261  1.0000</r>
       <r>   0.6261  1.0000</r>
       <r>   0.6264  1.0000</r>
       <r>   0.6267  1.0000</r>
       <r>   0.6267  1.0000</r>
       <r>   0.6270  1.0000</r>
       <r>   1.2395  1.0000</r>
       <r>   1.2395  1.0000</r>
       <r>   1.2395  1.0000</r>
       <r>   1.2395  1.0000</r>
       <r>   1.3737  1.0000</r>
       <r>   1.3737  1.0000</r>
       <r>   1.3737  1.0000</r>
       <r>   1.3737  1.0000</r>
       <r>   1.7201  1.0000</r>
       <r>   1.7201  1.0000</r>
       <r>   1.7201  1.0000</r>
       <r>   1.7202  1.0000</r>
       <r>   1.7563  1.0000</r>
       <r>   1.7563  1.0000</r>
       <r>   1.7564  1.0000</r>
       <r>   1.7565  1.0000</r>
       <r>   1.7674  1.0000</r>
       <r>   1.7675  1.0000</r>
       <r>   1.7675  1.0000</r>
       <r>   1.7677  1.0000</r>
       <r>   1.7853  1.0000</r>
       <r>   1.7853  1.0000</r>
       <r>   1.7866  1.0000</r>
       <r>   1.7869  1.0000</r>
       <r>   1.7871  1.0000</r>
       <r>   1.7877  1.0000</r>
       <r>   1.7877  1.0000</r>
       <r>   1.7883  1.0000</r>
       <r>   1.7887  1.0000</r>
       <r>   1.7892  1.0000</r>
       <r>   1.7892  1.0000</r>
       <r>   1.7892  1.0000</r>
       <r>   1.7899  1.0000</r>
       <r>   1.7915  1.0000</r>
       <r>   1.7919  1.0000</r>
       <r>   1.7919  1.0000</r>
       <r>   1.9020  1.0000</r>
       <r>   1.9020  1.0000</r>
       <r>   1.9036  1.0000</r>
       <r>   1.9036  1.0000</r>
       <r>   1.9036  1.0000</r>
       <r>   1.9037  1.0000</r>
       <r>   1.9054  1.0000</r>
       <r>   1.9054  1.0000</r>
       <r>   1.9747  1.0000</r>
       <r>   1.9748  1.0000</r>
       <r>   1.9748  1.0000</r>
       <r>   1.9748  1.0000</r>
       <r>   2.6144  1.0000</r>
       <r>   2.6145  1.0000</r>
       <r>   2.6145  1.0000</r>
       <r>   2.6146  1.0000</r>
       <r>   2.6597  1.0000</r>
       <r>   2.6597  1.0000</r>
       <r>   2.6604  1.0000</r>
       <r>   2.6605  1.0000</r>
       <r>   2.6605  1.0000</r>
       <r>   2.6605  1.0000</r>
       <r>   2.6612  1.0000</r>
       <r>   2.6612  1.0000</r>
       <r>   2.9037  1.0000</r>
       <r>   2.9037  1.0000</r>
       <r>   2.9046  1.0000</r>
       <r>   2.9047  1.0000</r>
       <r>   2.9047  1.0000</r>
       <r>   2.9047  1.0000</r>
       <r>   2.9056  1.0000</r>
       <r>   2.9056  1.0000</r>
       <r>   2.9217  1.0000</r>
       <r>   2.9218  1.0000</r>
       <r>   2.9218  1.0000</r>
       <r>   2.9219  1.0000</r>
       <r>   3.1749  1.0000</r>
       <r>   3.1749  1.0000</r>
       <r>   3.1749  1.0000</r>
       <r>   3.1749  1.0000</r>
       <r>   3.3259  1.0000</r>
       <r>   3.3261  1.0000</r>
       <r>   3.3261  1.0000</r>
       <r>   3.3261  1.0000</r>
       <r>   3.3600  1.0000</r>
       <r>   3.3600  1.0000</r>
       <r>   3.3600  1.0000</r>
       <r>   3.3601  1.0000</r>
       <r>   3.4858  1.0000</r>
       <r>   3.4859  1.0000</r>
       <r>   3.4859  1.0000</r>
       <r>   3.4859  1.0000</r>
       <r>   4.5464  1.0000</r>
       <r>   4.5464  1.0000</r>
       <r>   4.5465  1.0000</r>
       <r>   4.5466  1.0000</r>
       <r>   4.5466  1.0000</r>
       <r>   4.5466  1.0000</r>
       <r>   4.5467  1.0000</r>
       <r>   4.5467  1.0000</r>
       <r>   4.5583  1.0000</r>
       <r>   4.5583  1.0000</r>
       <r>   4.5584  1.0000</r>
       <r>   4.5584  1.0000</r>
       <r>   4.5767  1.0000</r>
       <r>   4.5767  1.0000</r>
       <r>   4.5767  1.0000</r>
       <r>   4.5768  1.0000</r>
       <r>   4.5820  1.0000</r>
       <r>   4.5820  1.0000</r>
       <r>   4.5822  1.0000</r>
       <r>   4.5822  1.0000</r>
       <r>   4.5822  1.0000</r>
       <r>   4.5822  1.0000</r>
       <r>   4.5825  1.0000</r>
       <r>   4.5825  1.0000</r>
       <r>   6.9955  0.0000</r>
       <r>   6.9955  0.0000</r>
       <r>   6.9955  0.0000</r>
       <r>   6.9955  0.0000</r>
       <r>   7.3841  0.0000</r>
       <r>   7.3841  0.0000</r>
       <r>   7.3848  0.0000</r>
       <r>   7.3848  0.0000</r>
       <r>   7.3848  0.0000</r>
       <r>   7.3848  0.0000</r>
       <r>   7.3855  0.0000</r>
       <r>   7.3855  0.0000</r>
       <r>   7.9284  0.0000</r>
       <r>   7.9284  0.0000</r>
       <r>   7.9294  0.0000</r>
       <r>   7.9294  0.0000</r>
       <r>   7.9294  0.0000</r>
       <r>   7.9294  0.0000</r>
       <r>   7.9304  0.0000</r>
       <r>   7.9304  0.0000</r>
       <r>   8.3244  0.0000</r>
       <r>   8.3244  0.0000</r>
       <r>   8.3244  0.0000</r>
       <r>   8.3244  0.0000</r>
       <r>  11.7264  0.0000</r>
       <r>  11.7264  0.0000</r>
       <r>  11.7267  0.0000</r>
       <r>  11.7267  0.0000</r>
       <r>  11.7267  0.0000</r>
       <r>  11.7267  0.0000</r>
       <r>  11.7270  0.0000</r>
       <r>  11.7270  0.0000</r>
       <r>  11.8840  0.0000</r>
       <r>  11.8840  0.0000</r>
       <r>  11.8840  0.0000</r>
       <r>  11.8840  0.0000</r>
       <r>  12.6589  0.0000</r>
       <r>  12.6589  0.0000</r>
       <r>  12.6589  0.0000</r>
       <r>  12.6589  0.0000</r>
       <r>  12.8118  0.0000</r>
       <r>  12.8120  0.0000</r>
       <r>  12.8121  0.0000</r>
       <r>  12.8123  0.0000</r>
      </set>
      <set comment="kpoint 196">
       <r>  -2.0802  1.0000</r>
       <r>  -2.0764  1.0000</r>
       <r>  -2.0764  1.0000</r>
       <r>  -2.0757  1.0000</r>
       <r>  -2.0753  1.0000</r>
       <r>  -2.0747  1.0000</r>
       <r>  -2.0747  1.0000</r>
       <r>  -2.0709  1.0000</r>
       <r>  -0.4677  1.0000</r>
       <r>  -0.4676  1.0000</r>
       <r>  -0.4675  1.0000</r>
       <r>  -0.4675  1.0000</r>
       <r>  -0.4665  1.0000</r>
       <r>  -0.4656  1.0000</r>
       <r>  -0.4646  1.0000</r>
       <r>  -0.4646  1.0000</r>
       <r>  -0.4646  1.0000</r>
       <r>  -0.4645  1.0000</r>
       <r>  -0.4645  1.0000</r>
       <r>  -0.4643  1.0000</r>
       <r>  -0.4642  1.0000</r>
       <r>  -0.4641  1.0000</r>
       <r>  -0.4641  1.0000</r>
       <r>  -0.4640  1.0000</r>
       <r>  -0.4640  1.0000</r>
       <r>  -0.4639  1.0000</r>
       <r>  -0.4630  1.0000</r>
       <r>  -0.4621  1.0000</r>
       <r>  -0.4611  1.0000</r>
       <r>  -0.4611  1.0000</r>
       <r>  -0.4610  1.0000</r>
       <r>  -0.4609  1.0000</r>
       <r>   0.5007  1.0000</r>
       <r>   0.5051  1.0000</r>
       <r>   0.5059  1.0000</r>
       <r>   0.5060  1.0000</r>
       <r>   0.5060  1.0000</r>
       <r>   0.5069  1.0000</r>
       <r>   0.5074  1.0000</r>
       <r>   0.5074  1.0000</r>
       <r>   0.5076  1.0000</r>
       <r>   0.5077  1.0000</r>
       <r>   0.5077  1.0000</r>
       <r>   0.5078  1.0000</r>
       <r>   0.5078  1.0000</r>
       <r>   0.5079  1.0000</r>
       <r>   0.5079  1.0000</r>
       <r>   0.5079  1.0000</r>
       <r>   0.5082  1.0000</r>
       <r>   0.5082  1.0000</r>
       <r>   0.5087  1.0000</r>
       <r>   0.5095  1.0000</r>
       <r>   0.5095  1.0000</r>
       <r>   0.5097  1.0000</r>
       <r>   0.5103  1.0000</r>
       <r>   0.5148  1.0000</r>
       <r>   1.3107  1.0000</r>
       <r>   1.3131  1.0000</r>
       <r>   1.3137  1.0000</r>
       <r>   1.3137  1.0000</r>
       <r>   1.3139  1.0000</r>
       <r>   1.3139  1.0000</r>
       <r>   1.3146  1.0000</r>
       <r>   1.3169  1.0000</r>
       <r>   1.7691  1.0000</r>
       <r>   1.7691  1.0000</r>
       <r>   1.7697  1.0000</r>
       <r>   1.7701  1.0000</r>
       <r>   1.7710  1.0000</r>
       <r>   1.7711  1.0000</r>
       <r>   1.7712  1.0000</r>
       <r>   1.7712  1.0000</r>
       <r>   1.7717  1.0000</r>
       <r>   1.7717  1.0000</r>
       <r>   1.7718  1.0000</r>
       <r>   1.7720  1.0000</r>
       <r>   1.7727  1.0000</r>
       <r>   1.7729  1.0000</r>
       <r>   1.7734  1.0000</r>
       <r>   1.7734  1.0000</r>
       <r>   1.8382  1.0000</r>
       <r>   1.8382  1.0000</r>
       <r>   1.8398  1.0000</r>
       <r>   1.8399  1.0000</r>
       <r>   1.8421  1.0000</r>
       <r>   1.8430  1.0000</r>
       <r>   1.8431  1.0000</r>
       <r>   1.8431  1.0000</r>
       <r>   1.8432  1.0000</r>
       <r>   1.8432  1.0000</r>
       <r>   1.8433  1.0000</r>
       <r>   1.8433  1.0000</r>
       <r>   1.8435  1.0000</r>
       <r>   1.8435  1.0000</r>
       <r>   1.8435  1.0000</r>
       <r>   1.8435  1.0000</r>
       <r>   1.8436  1.0000</r>
       <r>   1.8436  1.0000</r>
       <r>   1.8438  1.0000</r>
       <r>   1.8448  1.0000</r>
       <r>   1.8470  1.0000</r>
       <r>   1.8471  1.0000</r>
       <r>   1.8489  1.0000</r>
       <r>   1.8489  1.0000</r>
       <r>   2.7606  1.0000</r>
       <r>   2.7626  1.0000</r>
       <r>   2.7626  1.0000</r>
       <r>   2.7658  1.0000</r>
       <r>   2.7660  1.0000</r>
       <r>   2.7661  1.0000</r>
       <r>   2.7661  1.0000</r>
       <r>   2.7665  1.0000</r>
       <r>   2.7668  1.0000</r>
       <r>   2.7668  1.0000</r>
       <r>   2.7668  1.0000</r>
       <r>   2.7668  1.0000</r>
       <r>   2.7669  1.0000</r>
       <r>   2.7669  1.0000</r>
       <r>   2.7669  1.0000</r>
       <r>   2.7669  1.0000</r>
       <r>   2.7672  1.0000</r>
       <r>   2.7676  1.0000</r>
       <r>   2.7676  1.0000</r>
       <r>   2.7677  1.0000</r>
       <r>   2.7679  1.0000</r>
       <r>   2.7711  1.0000</r>
       <r>   2.7711  1.0000</r>
       <r>   2.7730  1.0000</r>
       <r>   3.3237  1.0000</r>
       <r>   3.3257  1.0000</r>
       <r>   3.3259  1.0000</r>
       <r>   3.3259  1.0000</r>
       <r>   3.3274  1.0000</r>
       <r>   3.3274  1.0000</r>
       <r>   3.3276  1.0000</r>
       <r>   3.3279  1.0000</r>
       <r>   3.3280  1.0000</r>
       <r>   3.3282  1.0000</r>
       <r>   3.3285  1.0000</r>
       <r>   3.3285  1.0000</r>
       <r>   3.3300  1.0000</r>
       <r>   3.3300  1.0000</r>
       <r>   3.3302  1.0000</r>
       <r>   3.3322  1.0000</r>
       <r>   4.5776  1.0000</r>
       <r>   4.5776  1.0000</r>
       <r>   4.5780  1.0000</r>
       <r>   4.5783  1.0000</r>
       <r>   4.5784  1.0000</r>
       <r>   4.5784  1.0000</r>
       <r>   4.5784  1.0000</r>
       <r>   4.5784  1.0000</r>
       <r>   4.5786  1.0000</r>
       <r>   4.5787  1.0000</r>
       <r>   4.5787  1.0000</r>
       <r>   4.5788  1.0000</r>
       <r>   4.5790  1.0000</r>
       <r>   4.5791  1.0000</r>
       <r>   4.5791  1.0000</r>
       <r>   4.5792  1.0000</r>
       <r>   4.5793  1.0000</r>
       <r>   4.5794  1.0000</r>
       <r>   4.5794  1.0000</r>
       <r>   4.5794  1.0000</r>
       <r>   4.5795  1.0000</r>
       <r>   4.5798  1.0000</r>
       <r>   4.5802  1.0000</r>
       <r>   4.5802  1.0000</r>
       <r>   7.6407  0.0000</r>
       <r>   7.6430  0.0000</r>
       <r>   7.6430  0.0000</r>
       <r>   7.6453  0.0000</r>
       <r>   7.6463  0.0000</r>
       <r>   7.6463  0.0000</r>
       <r>   7.6464  0.0000</r>
       <r>   7.6464  0.0000</r>
       <r>   7.6465  0.0000</r>
       <r>   7.6466  0.0000</r>
       <r>   7.6467  0.0000</r>
       <r>   7.6467  0.0000</r>
       <r>   7.6470  0.0000</r>
       <r>   7.6470  0.0000</r>
       <r>   7.6471  0.0000</r>
       <r>   7.6472  0.0000</r>
       <r>   7.6473  0.0000</r>
       <r>   7.6473  0.0000</r>
       <r>   7.6474  0.0000</r>
       <r>   7.6475  0.0000</r>
       <r>   7.6484  0.0000</r>
       <r>   7.6507  0.0000</r>
       <r>   7.6507  0.0000</r>
       <r>   7.6531  0.0000</r>
       <r>  12.2442  0.0000</r>
       <r>  12.2445  0.0000</r>
       <r>  12.2481  0.0000</r>
       <r>  12.2485  0.0000</r>
       <r>  12.2492  0.0000</r>
       <r>  12.2497  0.0000</r>
       <r>  12.2499  0.0000</r>
       <r>  12.2503  0.0000</r>
       <r>  12.2505  0.0000</r>
       <r>  12.2505  0.0000</r>
       <r>  12.2505  0.0000</r>
       <r>  12.2506  0.0000</r>
       <r>  12.2507  0.0000</r>
       <r>  12.2509  0.0000</r>
       <r>  12.2510  0.0000</r>
       <r>  12.2515  0.0000</r>
       <r>  12.2517  0.0000</r>
       <r>  12.2521  0.0000</r>
       <r>  12.2530  0.0000</r>
       <r>  12.2538  0.0000</r>
      </set>
     </set>
    </set>
   </array>
  </eigenvalues>
 </calculation>
 <structure name="finalpos" >
  <crystal>
   <varray name="basis" >
    <v>       8.01187565      0.00000000      0.00000000</v>
    <v>       0.00000000      8.01187565      0.00000000</v>
    <v>       0.00000000      0.00000000      8.01187565</v>
   </varray>
   <i name="volume">    514.28351169</i>
   <varray name="rec_basis" >
    <v>       0.12481472      0.00000000      0.00000000</v>
    <v>       0.00000000      0.12481472      0.00000000</v>
    <v>       0.00000000      0.00000000      0.12481472</v>
   </varray>
  </crystal>
  <varray name="positions" >
   <v>       0.00124815      0.00000000      0.00000000</v>
   <v>       0.50000000      0.00000000      0.00000000</v>
   <v>       0.00000000      0.50000000      0.00000000</v>
   <v>       0.50000000      0.50000000      0.00000000</v>
   <v>       0.00000000      0.00000000      0.50000000</v>
   <v>       0.50000000      0.00000000      0.50000000</v>
   <v>       0.00000000      0.50000000      0.50000000</v>
   <v>       0.50000000      0.50000000      0.50000000</v>
   <v>       0.25000000      0.25000000      0.00000000</v>
   <v>       0.75000000      0.25000000      0.00000000</v>
   <v>       0.25000000      0.75000000      0.00000000</v>
   <v>       0.75000000      0.75000000      0.00000000</v>
   <v>       0.25000000      0.25000000      0.50000000</v>
   <v>       0.75000000      0.25000000      0.50000000</v>
   <v>       0.25000000      0.75000000      0.50000000</v>
   <v>       0.75000000      0.75000000      0.50000000</v>
   <v>       0.25000000      0.00000000      0.25000000</v>
   <v>       0.75000000      0.00000000      0.25000000</v>
   <v>       0.25000000      0.50000000      0.25000000</v>
   <v>       0.75000000      0.50000000      0.25000000</v>
   <v>       0.25000000      0.00000000      0.75000000</v>
   <v>       0.75000000      0.00000000      0.75000000</v>
   <v>       0.25000000      0.50000000      0.75000000</v>
   <v>       0.75000000      0.50000000      0.75000000</v>
   <v>       0.00000000      0.25000000      0.25000000</v>
   <v>       0.50000000      0.25000000      0.25000000</v>
   <v>       0.00000000      0.75000000      0.25000000</v>
   <v>       0.50000000      0.75000000      0.25000000</v>
   <v>       0.00000000      0.25000000      0.75000000</v>
   <v>       0.50000000      0.25000000      0.75000000</v>
   <v>       0.00000000      0.75000000      0.75000000</v>
   <v>       0.50000000      0.75000000      0.75000000</v>
  </varray>
 </structure>
</modeling>
