32   
1    

1    
  0.0100000000000000   0.0000000000000000   0.0000000000000000
  -0.0297508200    0.0000000000    0.0000000000
   0.0021332600   -0.0000000000   -0.0000000000
   0.0000469000    0.0000000000   -0.0000000000
   0.0001247400    0.0000000000    0.0000000000
   0.0000469000   -0.0000000000   -0.0000000000
   0.0001247400    0.0000000000    0.0000000000
  -0.0015713100    0.0000000000    0.0000000000
  -0.0012260700   -0.0000000000   -0.0000000000
  -0.0018373900    0.0000182300   -0.0000182300
  -0.0003333200   -0.0000267600    0.0000267600
  -0.0018373900   -0.0000182300   -0.0000182300
  -0.0003333200    0.0000267600    0.0000267600
  -0.0018373900    0.0000182300    0.0000182300
  -0.0003333200   -0.0000267600   -0.0000267600
  -0.0018373900   -0.0000182300    0.0000182300
  -0.0003333200    0.0000267600   -0.0000267600
   0.0041868100   -0.0000000000   -0.0047437100
   0.0042611400    0.0000000000    0.0048984600
   0.0006039400   -0.0000000000    0.0009736100
   0.0006367400    0.0000000000   -0.0010265200
   0.0041868100   -0.0000000000    0.0047437100
   0.0042611400   -0.0000000000   -0.0048984600
   0.0006039400   -0.0000000000   -0.0009736100
   0.0006367400    0.0000000000    0.0010265200
   0.0041868100    0.0047437100   -0.0000000000
   0.0042611400   -0.0048984600   -0.0000000000
   0.0041868100   -0.0047437100   -0.0000000000
   0.0042611400    0.0048984600   -0.0000000000
   0.0006039400   -0.0009736100   -0.0000000000
   0.0006367400    0.0010265200    0.0000000000
   0.0006039400    0.0009736100   -0.0000000000
   0.0006367400   -0.0010265200    0.0000000000
