<?xml version="1.0" encoding="ISO-8859-1"?>
<modeling>
 <generator>
  <i name="program" type="string">vasp</i>
  <i name="version" type="string">4.6.28 </i>
  <i name="subversion" type="string">25Jul05 complex  parallel</i>
  <i name="platform" type="string">LinuxIFC</i>
  <i name="date" type="string">2016 10 19</i>
  <i name="time" type="string">12:24:34</i>
 </generator>
 <incar>
  <i type="string" name="PREC">accurate</i>
  <i type="int" name="IALGO">    38</i>
  <i name="EDIFF">      0.00000001</i>
  <i type="int" name="IBRION">    -1</i>
  <i name="ENCUT">    500.00000000</i>
  <i type="logical" name="LREAL"> F  </i>
  <i type="int" name="ISMEAR">     0</i>
  <i name="SIGMA">      0.01000000</i>
  <i type="logical" name="LWAVE"> F  </i>
  <i type="logical" name="LCHARG"> F  </i>
 </incar>
 <kpoints>
  <generation param="Auto">
   <i name="subdivisionlength">     50.00000000</i>
   <v type="int" name="divisions">       6       6       6</v>
   <v name="usershift">      0.00000000      0.00000000      0.00000000</v>
   <v name="genvec1">      0.16666667      0.00000000      0.00000000</v>
   <v name="genvec2">      0.00000000      0.16666667      0.00000000</v>
   <v name="genvec3">      0.00000000      0.00000000      0.16666667</v>
   <v name="shift">      0.00000000      0.00000000      0.00000000</v>
  </generation>
  <varray name="kpointlist" >
   <v>       0.00000000      0.00000000      0.00000000</v>
   <v>       0.16666667      0.00000000      0.00000000</v>
   <v>       0.33333333      0.00000000      0.00000000</v>
   <v>       0.50000000      0.00000000      0.00000000</v>
   <v>       0.00000000      0.16666667      0.00000000</v>
   <v>       0.16666667      0.16666667      0.00000000</v>
   <v>       0.33333333      0.16666667      0.00000000</v>
   <v>       0.50000000      0.16666667      0.00000000</v>
   <v>       0.00000000      0.33333333      0.00000000</v>
   <v>       0.16666667      0.33333333      0.00000000</v>
   <v>       0.33333333      0.33333333      0.00000000</v>
   <v>       0.50000000      0.33333333      0.00000000</v>
   <v>       0.00000000      0.50000000      0.00000000</v>
   <v>       0.16666667      0.50000000      0.00000000</v>
   <v>       0.33333333      0.50000000      0.00000000</v>
   <v>       0.50000000      0.50000000      0.00000000</v>
   <v>       0.00000000      0.16666667      0.16666667</v>
   <v>       0.16666667      0.16666667      0.16666667</v>
   <v>       0.33333333      0.16666667      0.16666667</v>
   <v>       0.50000000      0.16666667      0.16666667</v>
   <v>       0.00000000      0.33333333      0.16666667</v>
   <v>       0.16666667      0.33333333      0.16666667</v>
   <v>       0.33333333      0.33333333      0.16666667</v>
   <v>       0.50000000      0.33333333      0.16666667</v>
   <v>       0.00000000      0.50000000      0.16666667</v>
   <v>       0.16666667      0.50000000      0.16666667</v>
   <v>       0.33333333      0.50000000      0.16666667</v>
   <v>       0.50000000      0.50000000      0.16666667</v>
   <v>       0.00000000      0.33333333      0.33333333</v>
   <v>       0.16666667      0.33333333      0.33333333</v>
   <v>       0.33333333      0.33333333      0.33333333</v>
   <v>       0.50000000      0.33333333      0.33333333</v>
   <v>       0.00000000      0.50000000      0.33333333</v>
   <v>       0.16666667      0.50000000      0.33333333</v>
   <v>       0.33333333      0.50000000      0.33333333</v>
   <v>       0.50000000      0.50000000      0.33333333</v>
   <v>       0.00000000      0.50000000      0.50000000</v>
   <v>       0.16666667      0.50000000      0.50000000</v>
   <v>       0.33333333      0.50000000      0.50000000</v>
   <v>       0.50000000      0.50000000      0.50000000</v>
  </varray>
  <varray name="weights" >
   <v>       0.00462963</v>
   <v>       0.00925926</v>
   <v>       0.00925926</v>
   <v>       0.00462963</v>
   <v>       0.01851852</v>
   <v>       0.03703704</v>
   <v>       0.03703704</v>
   <v>       0.01851852</v>
   <v>       0.01851852</v>
   <v>       0.03703704</v>
   <v>       0.03703704</v>
   <v>       0.01851852</v>
   <v>       0.00925926</v>
   <v>       0.01851852</v>
   <v>       0.01851852</v>
   <v>       0.00925926</v>
   <v>       0.01851852</v>
   <v>       0.03703704</v>
   <v>       0.03703704</v>
   <v>       0.01851852</v>
   <v>       0.03703704</v>
   <v>       0.07407407</v>
   <v>       0.07407407</v>
   <v>       0.03703704</v>
   <v>       0.01851852</v>
   <v>       0.03703704</v>
   <v>       0.03703704</v>
   <v>       0.01851852</v>
   <v>       0.01851852</v>
   <v>       0.03703704</v>
   <v>       0.03703704</v>
   <v>       0.01851852</v>
   <v>       0.01851852</v>
   <v>       0.03703704</v>
   <v>       0.03703704</v>
   <v>       0.01851852</v>
   <v>       0.00462963</v>
   <v>       0.00925926</v>
   <v>       0.00925926</v>
   <v>       0.00462963</v>
  </varray>
 </kpoints>
 <parameters>
  <separator name="general" >
   <i type="string" name="SYSTEM">unknown system</i>
   <i type="logical" name="LCOMPAT"> F  </i>
  </separator>
  <separator name="electronic" >
   <i type="string" name="PREC">accura</i>
   <i name="ENMAX">    500.00000000</i>
   <i name="ENAUG">    291.05200000</i>
   <i name="EDIFF">      0.00000001</i>
   <i type="int" name="IALGO">    38</i>
   <i type="int" name="IWAVPR">    10</i>
   <i type="int" name="NBANDS">    65</i>
   <i name="NELECT">     96.00000000</i>
   <separator name="electronic smearing" >
    <i type="int" name="ISMEAR">     0</i>
    <i name="SIGMA">      0.01000000</i>
   </separator>
   <separator name="electronic projectors" >
    <i type="logical" name="LREAL"> F  </i>
    <v name="ROPT">      0.00000000</v>
    <i type="int" name="LMAXPAW">  -100</i>
    <i type="int" name="LMAXMIX">     2</i>
   </separator>
   <separator name="electronic startup" >
    <i type="int" name="ISTART">     0</i>
    <i type="int" name="ICHARG">     2</i>
    <i type="int" name="INIWAV">     1</i>
   </separator>
   <separator name="electronic spin" >
    <i type="int" name="ISPIN">     1</i>
    <i type="logical" name="LNONCOLLINEAR"> F  </i>
    <v name="MAGMOM">      1.00000000      1.00000000      1.00000000      1.00000000      1.00000000      1.00000000      1.00000000      1.00000000      1.00000000      1.00000000      1.00000000      1.00000000      1.00000000      1.00000000      1.00000000      1.00000000      1.00000000      1.00000000      1.00000000      1.00000000
      1.00000000      1.00000000      1.00000000      1.00000000      1.00000000      1.00000000      1.00000000      1.00000000      1.00000000      1.00000000      1.00000000      1.00000000</v>
    <i name="NUPDOWN">     -1.00000000</i>
    <i type="logical" name="LSORBIT"> F  </i>
    <v name="SAXIS">      0.00000000      0.00000000      1.00000000</v>
    <i type="logical" name="LSPIRAL"> F  </i>
    <v name="QSPIRAL">      0.00000000      0.00000000      0.00000000</v>
    <i type="logical" name="LZEROZ"> F  </i>
   </separator>
   <separator name="electronic exchange-correlation" >
    <i type="string" name="GGA">--</i>
    <i type="int" name="VOSKOWN">     0</i>
    <i type="logical" name="LASPH"> F  </i>
    <i type="logical" name="LMETAGGA"> F  </i>
    <i type="string" name="GGA2">--</i>
   </separator>
   <separator name="electronic convergence" >
    <i type="int" name="NELM">    60</i>
    <i type="int" name="NELMDL">     0</i>
    <i type="int" name="NELMIN">     2</i>
    <i name="ENINI">    500.00000000</i>
    <separator name="electronic convergence detail" >
     <i type="logical" name="LDIAG"> T  </i>
     <i name="WEIMIN">      0.00000000</i>
     <i name="EBREAK">      0.00000000</i>
     <i name="DEPER">      0.30000000</i>
     <i type="int" name="NRMM">     4</i>
     <i name="TIME">      0.10000000</i>
    </separator>
   </separator>
   <separator name="electronic mixer" >
    <i name="AMIX">      0.40000000</i>
    <i name="BMIX">      1.00000000</i>
    <i name="AMIN">      0.10000000</i>
    <i name="AMIX_MAG">      1.60000000</i>
    <i name="BMIX_MAG">      1.00000000</i>
    <separator name="electronic mixer details" >
     <i type="int" name="IMIX">     4</i>
     <i type="int" name="MAXMIX">   -45</i>
     <i name="WC">    100.00000000</i>
     <i type="int" name="INIMIX">     1</i>
     <i type="int" name="MIXPRE">     1</i>
     <i type="int" name="MREMOVE">     5</i>
    </separator>
   </separator>
   <separator name="electronic dipolcorrection" >
    <i type="int" name="IDIPOL">     0</i>
    <i type="logical" name="LDIPOL"> F  </i>
    <v name="DIPOL">   -100.00000000</v>
    <i name="EFIELD">      0.00000000</i>
   </separator>
  </separator>
  <separator name="grids" >
   <i type="int" name="NGX">    64</i>
   <i type="int" name="NGY">    64</i>
   <i type="int" name="NGZ">    64</i>
   <i type="int" name="NGXF">   128</i>
   <i type="int" name="NGYF">   128</i>
   <i type="int" name="NGZF">   128</i>
   <i type="logical" name="ADDGRID"> F  </i>
  </separator>
  <separator name="ionic" >
   <i type="int" name="NSW">     0</i>
   <i type="int" name="IBRION">    -1</i>
   <i type="int" name="ISIF">     2</i>
   <i name="PSTRESS">      0.00000000</i>
   <i name="EDIFFG">      0.00000010</i>
   <i type="int" name="NFREE">     0</i>
   <i name="POTIM">      0.50000000</i>
   <i name="SMASS">     -3.00000000</i>
  </separator>
  <separator name="ionic md" >
   <i name="TEBEG">      0.00010000</i>
   <i name="TEEND">      0.00010000</i>
   <i type="int" name="NBLOCK">     1</i>
   <i type="int" name="KBLOCK">     1</i>
   <i type="int" name="NPACO">   256</i>
   <i name="APACO">     16.00000000</i>
  </separator>
  <separator name="symmetry" >
   <i type="int" name="ISYM">     2</i>
   <i name="SYMPREC">      0.00001000</i>
  </separator>
  <separator name="dos" >
   <i type="logical" name="LORBIT"> F  </i>
   <v name="RWIGS">     -1.00000000</v>
   <i type="int" name="NEDOS">   301</i>
   <i name="EMIN">     10.00000000</i>
   <i name="EMAX">    -10.00000000</i>
  </separator>
  <separator name="writing" >
   <i type="int" name="NWRITE">     2</i>
   <i type="logical" name="LWAVE"> F  </i>
   <i type="logical" name="LCHARG"> F  </i>
   <i type="logical" name="LPARD"> F  </i>
   <i type="logical" name="LVTOT"> F  </i>
   <i type="logical" name="LELF"> F  </i>
   <i type="logical" name="LOPTICS"> F  </i>
   <i name="STM">      0.00000000</i>
  </separator>
  <separator name="performance" >
   <i type="int" name="NPAR">     8</i>
   <i type="int" name="NSIM">     4</i>
   <i type="int" name="NBLK">   256</i>
   <i type="logical" name="LPLANE"> T  </i>
   <i type="logical" name="LCRITICAL_MEM"> F  </i>
   <i type="logical" name="LSCALAPACK"> F  </i>
   <i type="logical" name="LSCALU"> F  </i>
   <i type="logical" name="LASYNC"> F  </i>
  </separator>
  <separator name="miscellaneous" >
   <i type="int" name="IDIOT">     3</i>
   <i type="logical" name="LMUSIC"> F  </i>
   <v name="POMASS">     26.98200000</v>
   <i type="logical" name="LCORR"> T  </i>
  </separator>
  <i type="logical" name="LREAL_COMPAT"> F  </i>
  <i type="logical" name="GGA_COMPAT"> T  </i>
  <i type="logical" name="LBERRY"> F  </i>
  <i type="int" name="ICORELEVEL">     0</i>
  <i type="logical" name="LDAU"> F  </i>
  <i type="int" name="I_CONSTRAINED_M">     0</i>
 </parameters>
 <atominfo>
  <atoms>      32</atoms>
  <types>       1</types>
  <array name="atoms" >
   <dimension dim="1">ion</dimension>
   <field type="string">element</field>
   <field type="int">atomtype</field>
   <set>
    <rc><c>Al</c><c>   1</c></rc>
    <rc><c>Al</c><c>   1</c></rc>
    <rc><c>Al</c><c>   1</c></rc>
    <rc><c>Al</c><c>   1</c></rc>
    <rc><c>Al</c><c>   1</c></rc>
    <rc><c>Al</c><c>   1</c></rc>
    <rc><c>Al</c><c>   1</c></rc>
    <rc><c>Al</c><c>   1</c></rc>
    <rc><c>Al</c><c>   1</c></rc>
    <rc><c>Al</c><c>   1</c></rc>
    <rc><c>Al</c><c>   1</c></rc>
    <rc><c>Al</c><c>   1</c></rc>
    <rc><c>Al</c><c>   1</c></rc>
    <rc><c>Al</c><c>   1</c></rc>
    <rc><c>Al</c><c>   1</c></rc>
    <rc><c>Al</c><c>   1</c></rc>
    <rc><c>Al</c><c>   1</c></rc>
    <rc><c>Al</c><c>   1</c></rc>
    <rc><c>Al</c><c>   1</c></rc>
    <rc><c>Al</c><c>   1</c></rc>
    <rc><c>Al</c><c>   1</c></rc>
    <rc><c>Al</c><c>   1</c></rc>
    <rc><c>Al</c><c>   1</c></rc>
    <rc><c>Al</c><c>   1</c></rc>
    <rc><c>Al</c><c>   1</c></rc>
    <rc><c>Al</c><c>   1</c></rc>
    <rc><c>Al</c><c>   1</c></rc>
    <rc><c>Al</c><c>   1</c></rc>
    <rc><c>Al</c><c>   1</c></rc>
    <rc><c>Al</c><c>   1</c></rc>
    <rc><c>Al</c><c>   1</c></rc>
    <rc><c>Al</c><c>   1</c></rc>
   </set>
  </array>
  <array name="atomtypes" >
   <dimension dim="1">type</dimension>
   <field type="int">atomspertype</field>
   <field type="string">element</field>
   <field>mass</field>
   <field>valence</field>
   <field type="string">pseudopotential</field>
   <set>
    <rc><c>  32</c><c>Al</c><c>     26.98200000</c><c>      3.00000000</c><c> PAW_PBE Al 04Jan2001                   </c></rc>
   </set>
  </array>
 </atominfo>
 <structure name="initialpos" >
  <crystal>
   <varray name="basis" >
    <v>       8.31663179      0.00000000      0.00000000</v>
    <v>       0.00000000      8.31663179      0.00000000</v>
    <v>       0.00000000      0.00000000      8.31663179</v>
   </varray>
   <i name="volume">    575.23118522</i>
   <varray name="rec_basis" >
    <v>       0.12024099      0.00000000      0.00000000</v>
    <v>       0.00000000      0.12024099      0.00000000</v>
    <v>       0.00000000      0.00000000      0.12024099</v>
   </varray>
  </crystal>
  <varray name="positions" >
   <v>       0.25120241      0.25000000      0.00000000</v>
   <v>       0.75000000      0.25000000      0.00000000</v>
   <v>       0.25000000      0.75000000      0.00000000</v>
   <v>       0.75000000      0.75000000      0.00000000</v>
   <v>       0.25000000      0.25000000      0.50000000</v>
   <v>       0.75000000      0.25000000      0.50000000</v>
   <v>       0.25000000      0.75000000      0.50000000</v>
   <v>       0.75000000      0.75000000      0.50000000</v>
   <v>       0.25000000      0.00000000      0.25000000</v>
   <v>       0.75000000      0.00000000      0.25000000</v>
   <v>       0.25000000      0.50000000      0.25000000</v>
   <v>       0.75000000      0.50000000      0.25000000</v>
   <v>       0.25000000      0.00000000      0.75000000</v>
   <v>       0.75000000      0.00000000      0.75000000</v>
   <v>       0.25000000      0.50000000      0.75000000</v>
   <v>       0.75000000      0.50000000      0.75000000</v>
   <v>       0.00000000      0.25000000      0.25000000</v>
   <v>       0.50000000      0.25000000      0.25000000</v>
   <v>       0.00000000      0.75000000      0.25000000</v>
   <v>       0.50000000      0.75000000      0.25000000</v>
   <v>       0.00000000      0.25000000      0.75000000</v>
   <v>       0.50000000      0.25000000      0.75000000</v>
   <v>       0.00000000      0.75000000      0.75000000</v>
   <v>       0.50000000      0.75000000      0.75000000</v>
   <v>       0.00000000      0.00000000      0.00000000</v>
   <v>       0.50000000      0.00000000      0.00000000</v>
   <v>       0.00000000      0.50000000      0.00000000</v>
   <v>       0.50000000      0.50000000      0.00000000</v>
   <v>       0.00000000      0.00000000      0.50000000</v>
   <v>       0.50000000      0.00000000      0.50000000</v>
   <v>       0.00000000      0.50000000      0.50000000</v>
   <v>       0.50000000      0.50000000      0.50000000</v>
  </varray>
 </structure>
 <calculation>
  <scstep>
   <time name="dav">   18.28   18.29</time>
   <time name="total">   18.48   18.48</time>
   <energy>
    <i name="alphaZ">     -5.97920206</i>
    <i name="ewald">  -2286.26798810</i>
    <i name="hartreedc">     -4.52674707</i>
    <i name="XCdc">   -844.52353508</i>
    <i name="pawpsdc">   1137.73615723</i>
    <i name="pawaedc">   -115.16745734</i>
    <i name="eentropy">     -0.00057485</i>
    <i name="bandstr">    517.19024728</i>
    <i name="atom">   1713.22913220</i>
    <i name="e_fr_energy">    111.69003221</i>
    <i name="e_wo_entrp">    111.69060706</i>
    <i name="e_0_energy">    111.69031964</i>
   </energy>
  </scstep>
  <scstep>
   <time name="dav">   20.55   20.55</time>
   <time name="total">   20.56   20.55</time>
   <energy>
    <i name="e_fr_energy">   -106.73913849</i>
    <i name="e_wo_entrp">   -106.73870238</i>
    <i name="e_0_energy">   -106.73892043</i>
   </energy>
  </scstep>
  <scstep>
   <time name="dav">   21.71   21.71</time>
   <time name="total">   21.72   21.71</time>
   <energy>
    <i name="e_fr_energy">   -119.32123411</i>
    <i name="e_wo_entrp">   -119.31970267</i>
    <i name="e_0_energy">   -119.32046839</i>
   </energy>
  </scstep>
  <scstep>
   <time name="dav">   21.69   21.68</time>
   <time name="total">   21.69   21.69</time>
   <energy>
    <i name="e_fr_energy">   -119.56534110</i>
    <i name="e_wo_entrp">   -119.56335943</i>
    <i name="e_0_energy">   -119.56435027</i>
   </energy>
  </scstep>
  <scstep>
   <time name="dav">   25.12   25.11</time>
   <time name="total">   26.45   26.45</time>
   <energy>
    <i name="e_fr_energy">   -119.56834882</i>
    <i name="e_wo_entrp">   -119.56636043</i>
    <i name="e_0_energy">   -119.56735463</i>
   </energy>
  </scstep>
  <scstep>
   <time name="dav">   24.93   24.92</time>
   <time name="total">   26.41   26.41</time>
   <energy>
    <i name="e_fr_energy">   -119.16899516</i>
    <i name="e_wo_entrp">   -119.16747165</i>
    <i name="e_0_energy">   -119.16823340</i>
   </energy>
  </scstep>
  <scstep>
   <time name="dav">   24.08   24.07</time>
   <time name="total">   25.56   25.55</time>
   <energy>
    <i name="e_fr_energy">   -118.88061966</i>
    <i name="e_wo_entrp">   -118.87962324</i>
    <i name="e_0_energy">   -118.88012145</i>
   </energy>
  </scstep>
  <scstep>
   <time name="dav">   25.37   25.36</time>
   <time name="total">   26.88   26.88</time>
   <energy>
    <i name="e_fr_energy">   -118.88054926</i>
    <i name="e_wo_entrp">   -118.87955009</i>
    <i name="e_0_energy">   -118.88004967</i>
   </energy>
  </scstep>
  <scstep>
   <time name="dav">   25.29   25.28</time>
   <time name="total">   26.73   26.72</time>
   <energy>
    <i name="e_fr_energy">   -118.88057446</i>
    <i name="e_wo_entrp">   -118.87957560</i>
    <i name="e_0_energy">   -118.88007503</i>
   </energy>
  </scstep>
  <scstep>
   <time name="dav">   25.13   25.13</time>
   <time name="total">   26.65   26.65</time>
   <energy>
    <i name="e_fr_energy">   -118.88057354</i>
    <i name="e_wo_entrp">   -118.87957459</i>
    <i name="e_0_energy">   -118.88007407</i>
   </energy>
  </scstep>
  <scstep>
   <time name="dav">   25.33   25.32</time>
   <time name="total">   26.72   26.72</time>
   <energy>
    <i name="e_fr_energy">   -118.88056974</i>
    <i name="e_wo_entrp">   -118.87957067</i>
    <i name="e_0_energy">   -118.88007020</i>
   </energy>
  </scstep>
  <scstep>
   <time name="dav">   18.80   18.79</time>
   <time name="total">   20.49   20.49</time>
   <energy>
    <i name="e_fr_energy">   -118.88056883</i>
    <i name="e_wo_entrp">   -118.87956980</i>
    <i name="e_0_energy">   -118.88006931</i>
   </energy>
  </scstep>
  <scstep>
   <time name="dav">   25.62   25.61</time>
   <time name="total">   27.49   27.48</time>
   <energy>
    <i name="e_fr_energy">   -118.88056869</i>
    <i name="e_wo_entrp">   -118.87956966</i>
    <i name="e_0_energy">   -118.88006917</i>
   </energy>
  </scstep>
  <scstep>
   <time name="dav">   27.22   27.21</time>
   <time name="total">   27.48   27.47</time>
   <energy>
    <i name="alphaZ">     -5.97920206</i>
    <i name="ewald">  -2286.26798810</i>
    <i name="hartreedc">     -3.13562957</i>
    <i name="XCdc">   -841.64171551</i>
    <i name="pawpsdc">   1134.12213702</i>
    <i name="pawaedc">   -111.57294372</i>
    <i name="eentropy">     -0.00099903</i>
    <i name="bandstr">    282.36664007</i>
    <i name="atom">   1713.22913220</i>
    <i name="e_fr_energy">   -118.88056869</i>
    <i name="e_wo_entrp">   -118.87956966</i>
    <i name="e_0_energy">   -118.88006918</i>
   </energy>
  </scstep>
  <structure>
   <crystal>
    <varray name="basis" >
     <v>       8.31663179      0.00000000      0.00000000</v>
     <v>       0.00000000      8.31663179      0.00000000</v>
     <v>       0.00000000      0.00000000      8.31663179</v>
    </varray>
    <i name="volume">    575.23118522</i>
    <varray name="rec_basis" >
     <v>       0.12024099      0.00000000      0.00000000</v>
     <v>       0.00000000      0.12024099      0.00000000</v>
     <v>       0.00000000      0.00000000      0.12024099</v>
    </varray>
   </crystal>
   <varray name="positions" >
    <v>       0.25120241      0.25000000      0.00000000</v>
    <v>       0.75000000      0.25000000      0.00000000</v>
    <v>       0.25000000      0.75000000      0.00000000</v>
    <v>       0.75000000      0.75000000      0.00000000</v>
    <v>       0.25000000      0.25000000      0.50000000</v>
    <v>       0.75000000      0.25000000      0.50000000</v>
    <v>       0.25000000      0.75000000      0.50000000</v>
    <v>       0.75000000      0.75000000      0.50000000</v>
    <v>       0.25000000      0.00000000      0.25000000</v>
    <v>       0.75000000      0.00000000      0.25000000</v>
    <v>       0.25000000      0.50000000      0.25000000</v>
    <v>       0.75000000      0.50000000      0.25000000</v>
    <v>       0.25000000      0.00000000      0.75000000</v>
    <v>       0.75000000      0.00000000      0.75000000</v>
    <v>       0.25000000      0.50000000      0.75000000</v>
    <v>       0.75000000      0.50000000      0.75000000</v>
    <v>       0.00000000      0.25000000      0.25000000</v>
    <v>       0.50000000      0.25000000      0.25000000</v>
    <v>       0.00000000      0.75000000      0.25000000</v>
    <v>       0.50000000      0.75000000      0.25000000</v>
    <v>       0.00000000      0.25000000      0.75000000</v>
    <v>       0.50000000      0.25000000      0.75000000</v>
    <v>       0.00000000      0.75000000      0.75000000</v>
    <v>       0.50000000      0.75000000      0.75000000</v>
    <v>       0.00000000      0.00000000      0.00000000</v>
    <v>       0.50000000      0.00000000      0.00000000</v>
    <v>       0.00000000      0.50000000      0.00000000</v>
    <v>       0.50000000      0.50000000      0.00000000</v>
    <v>       0.00000000      0.00000000      0.50000000</v>
    <v>       0.50000000      0.00000000      0.50000000</v>
    <v>       0.00000000      0.50000000      0.50000000</v>
    <v>       0.50000000      0.50000000      0.50000000</v>
   </varray>
  </structure>
  <varray name="forces" >
   <v>      -0.02975082      0.00000000      0.00000000</v>
   <v>       0.00213326     -0.00000000     -0.00000000</v>
   <v>       0.00004690      0.00000000     -0.00000000</v>
   <v>       0.00012474      0.00000000      0.00000000</v>
   <v>       0.00004690     -0.00000000     -0.00000000</v>
   <v>       0.00012474      0.00000000      0.00000000</v>
   <v>      -0.00157131      0.00000000      0.00000000</v>
   <v>      -0.00122607     -0.00000000     -0.00000000</v>
   <v>      -0.00183739      0.00001823     -0.00001823</v>
   <v>      -0.00033332     -0.00002676      0.00002676</v>
   <v>      -0.00183739     -0.00001823     -0.00001823</v>
   <v>      -0.00033332      0.00002676      0.00002676</v>
   <v>      -0.00183739      0.00001823      0.00001823</v>
   <v>      -0.00033332     -0.00002676     -0.00002676</v>
   <v>      -0.00183739     -0.00001823      0.00001823</v>
   <v>      -0.00033332      0.00002676     -0.00002676</v>
   <v>       0.00418681     -0.00000000     -0.00474371</v>
   <v>       0.00426114      0.00000000      0.00489846</v>
   <v>       0.00060394     -0.00000000      0.00097361</v>
   <v>       0.00063674      0.00000000     -0.00102652</v>
   <v>       0.00418681     -0.00000000      0.00474371</v>
   <v>       0.00426114     -0.00000000     -0.00489846</v>
   <v>       0.00060394     -0.00000000     -0.00097361</v>
   <v>       0.00063674      0.00000000      0.00102652</v>
   <v>       0.00418681      0.00474371     -0.00000000</v>
   <v>       0.00426114     -0.00489846     -0.00000000</v>
   <v>       0.00418681     -0.00474371     -0.00000000</v>
   <v>       0.00426114      0.00489846     -0.00000000</v>
   <v>       0.00060394     -0.00097361     -0.00000000</v>
   <v>       0.00063674      0.00102652      0.00000000</v>
   <v>       0.00060394      0.00097361     -0.00000000</v>
   <v>       0.00063674     -0.00102652      0.00000000</v>
  </varray>
  <varray name="stress" >
   <v>     -54.21798564      0.00000000      0.00000000</v>
   <v>       0.00000000    -54.19577577      0.00000000</v>
   <v>       0.00000000      0.00000000    -54.19577577</v>
  </varray>
  <energy>
   <i name="e_fr_energy">   -118.88056869</i>
   <i name="e_wo_entrp">   -118.88006918</i>
   <i name="e_0_energy">     -0.00099903</i>
  </energy>
  <eigenvalues>
   <array>
    <dimension dim="1">band</dimension>
    <dimension dim="2">kpoint</dimension>
    <dimension dim="3">spin</dimension>
    <field>eigene</field>
    <field>occ</field>
    <set>
     <set comment="spin 1">
      <set comment="kpoint 1">
       <r>  -3.4211  1.0000</r>
       <r>  -1.2988  1.0000</r>
       <r>  -1.2953  1.0000</r>
       <r>  -1.2953  1.0000</r>
       <r>  -1.2953  1.0000</r>
       <r>  -1.2953  1.0000</r>
       <r>  -1.2919  1.0000</r>
       <r>   0.7956  1.0000</r>
       <r>   0.8000  1.0000</r>
       <r>   0.8000  1.0000</r>
       <r>   0.8015  1.0000</r>
       <r>   0.8016  1.0000</r>
       <r>   0.8016  1.0000</r>
       <r>   0.8016  1.0000</r>
       <r>   0.8016  1.0000</r>
       <r>   0.8018  1.0000</r>
       <r>   0.8033  1.0000</r>
       <r>   0.8033  1.0000</r>
       <r>   0.8076  1.0000</r>
       <r>   2.8650  1.0000</r>
       <r>   2.8653  1.0000</r>
       <r>   2.8653  1.0000</r>
       <r>   2.8655  1.0000</r>
       <r>   2.8785  1.0000</r>
       <r>   2.8787  1.0000</r>
       <r>   2.8787  1.0000</r>
       <r>   2.8790  1.0000</r>
       <r>   4.4176  1.0000</r>
       <r>   4.4176  1.0000</r>
       <r>   4.4176  1.0000</r>
       <r>   5.5348  1.0000</r>
       <r>   5.5348  1.0000</r>
       <r>   5.5349  1.0000</r>
       <r>   6.3930  1.0000</r>
       <r>   6.3930  1.0000</r>
       <r>   6.3971  1.0000</r>
       <r>   6.3971  1.0000</r>
       <r>   6.3972  1.0000</r>
       <r>   6.3972  1.0000</r>
       <r>   6.3972  1.0000</r>
       <r>   6.3972  1.0000</r>
       <r>   6.3972  1.0000</r>
       <r>   6.3972  1.0000</r>
       <r>   6.4013  1.0000</r>
       <r>   6.4013  1.0000</r>
       <r>   7.4455  0.0000</r>
       <r>   7.4494  0.0000</r>
       <r>   7.4494  0.0000</r>
       <r>   7.4494  0.0000</r>
       <r>   7.4494  0.0000</r>
       <r>   7.4532  0.0000</r>
       <r>   7.7814  0.0000</r>
       <r>   7.7822  0.0000</r>
       <r>   7.7822  0.0000</r>
       <r>   7.7822  0.0000</r>
       <r>   7.7823  0.0000</r>
       <r>   7.7831  0.0000</r>
       <r>   8.3756  0.0000</r>
       <r>   8.3756  0.0000</r>
       <r>   8.3773  0.0000</r>
       <r>   8.3794  0.0000</r>
       <r>   8.3795  0.0000</r>
       <r>   8.3795  0.0000</r>
       <r>   8.3795  0.0000</r>
       <r>   8.3796  0.0000</r>
       <r>   8.3796  0.0000</r>
       <r>   8.3817  0.0000</r>
       <r>   8.3834  0.0000</r>
       <r>   8.3834  0.0000</r>
       <r>   9.6261  0.0000</r>
       <r>   9.6281  0.0000</r>
       <r>   9.6292  0.0000</r>
      </set>
      <set comment="kpoint 2">
       <r>  -3.3617  1.0000</r>
       <r>  -1.9417  1.0000</r>
       <r>  -1.2367  1.0000</r>
       <r>  -1.2367  1.0000</r>
       <r>  -1.2367  1.0000</r>
       <r>  -1.2367  1.0000</r>
       <r>  -0.5351  1.0000</r>
       <r>   0.1639  1.0000</r>
       <r>   0.1639  1.0000</r>
       <r>   0.1639  1.0000</r>
       <r>   0.1639  1.0000</r>
       <r>   0.8595  1.0000</r>
       <r>   0.8595  1.0000</r>
       <r>   0.8595  1.0000</r>
       <r>   0.8595  1.0000</r>
       <r>   1.5517  1.0000</r>
       <r>   1.5517  1.0000</r>
       <r>   1.5517  1.0000</r>
       <r>   1.5517  1.0000</r>
       <r>   2.2421  1.0000</r>
       <r>   2.2421  1.0000</r>
       <r>   2.2421  1.0000</r>
       <r>   2.2421  1.0000</r>
       <r>   3.5522  1.0000</r>
       <r>   3.6130  1.0000</r>
       <r>   3.6130  1.0000</r>
       <r>   3.6130  1.0000</r>
       <r>   3.6130  1.0000</r>
       <r>   4.4725  1.0000</r>
       <r>   4.4725  1.0000</r>
       <r>   5.5727  1.0000</r>
       <r>   5.5730  1.0000</r>
       <r>   5.5730  1.0000</r>
       <r>   5.5730  1.0000</r>
       <r>   5.5933  1.0000</r>
       <r>   5.5935  1.0000</r>
       <r>   5.7917  1.0000</r>
       <r>   5.7917  1.0000</r>
       <r>   6.4522  1.0000</r>
       <r>   6.4522  1.0000</r>
       <r>   6.4522  1.0000</r>
       <r>   6.4522  1.0000</r>
       <r>   6.5045  1.0000</r>
       <r>   6.9692  1.0000</r>
       <r>   6.9692  1.0000</r>
       <r>   7.1133  1.0000</r>
       <r>   7.1133  1.0000</r>
       <r>   7.5820  0.0000</r>
       <r>   7.5820  0.0000</r>
       <r>   7.5820  0.0000</r>
       <r>   7.5820  0.0000</r>
       <r>   7.6523  0.0000</r>
       <r>   7.6523  0.0000</r>
       <r>   7.6523  0.0000</r>
       <r>   7.6524  0.0000</r>
       <r>   7.7736  0.0000</r>
       <r>   7.7736  0.0000</r>
       <r>   7.7736  0.0000</r>
       <r>   7.7736  0.0000</r>
       <r>   8.3658  0.0000</r>
       <r>   8.3658  0.0000</r>
       <r>   8.5619  0.0000</r>
       <r>   8.5619  0.0000</r>
       <r>   8.5619  0.0000</r>
       <r>   8.5619  0.0000</r>
       <r>   9.0201  0.0000</r>
       <r>   9.0201  0.0000</r>
       <r>   9.0202  0.0000</r>
       <r>   9.0203  0.0000</r>
       <r>   9.0958  0.0000</r>
       <r>   9.0958  0.0000</r>
       <r>   9.0958  0.0000</r>
      </set>
      <set comment="kpoint 3">
       <r>  -3.1835  1.0000</r>
       <r>  -2.4727  1.0000</r>
       <r>  -1.0610  1.0000</r>
       <r>  -1.0610  1.0000</r>
       <r>  -1.0610  1.0000</r>
       <r>  -1.0609  1.0000</r>
       <r>  -0.3599  1.0000</r>
       <r>  -0.3599  1.0000</r>
       <r>  -0.3599  1.0000</r>
       <r>  -0.3599  1.0000</r>
       <r>   0.3367  1.0000</r>
       <r>   1.0329  1.0000</r>
       <r>   1.0329  1.0000</r>
       <r>   1.0329  1.0000</r>
       <r>   1.0329  1.0000</r>
       <r>   1.7250  1.0000</r>
       <r>   1.7250  1.0000</r>
       <r>   1.7250  1.0000</r>
       <r>   1.7250  1.0000</r>
       <r>   2.3975  1.0000</r>
       <r>   2.4119  1.0000</r>
       <r>   2.4119  1.0000</r>
       <r>   2.4119  1.0000</r>
       <r>   2.4120  1.0000</r>
       <r>   4.4425  1.0000</r>
       <r>   4.4425  1.0000</r>
       <r>   4.4425  1.0000</r>
       <r>   4.4426  1.0000</r>
       <r>   4.4628  1.0000</r>
       <r>   4.4628  1.0000</r>
       <r>   4.4628  1.0000</r>
       <r>   4.4628  1.0000</r>
       <r>   4.6373  1.0000</r>
       <r>   4.6373  1.0000</r>
       <r>   5.2967  1.0000</r>
       <r>   5.2967  1.0000</r>
       <r>   5.7681  1.0000</r>
       <r>   5.7681  1.0000</r>
       <r>   6.4605  1.0000</r>
       <r>   6.4610  1.0000</r>
       <r>   6.4685  1.0000</r>
       <r>   6.4685  1.0000</r>
       <r>   6.4685  1.0000</r>
       <r>   6.4690  1.0000</r>
       <r>   6.6173  1.0000</r>
       <r>   6.6173  1.0000</r>
       <r>   6.6173  1.0000</r>
       <r>   6.6173  1.0000</r>
       <r>   7.2779  0.0000</r>
       <r>   7.2779  0.0000</r>
       <r>   7.2779  0.0000</r>
       <r>   7.2779  0.0000</r>
       <r>   7.8361  0.0000</r>
       <r>   7.8361  0.0000</r>
       <r>   7.8361  0.0000</r>
       <r>   7.8361  0.0000</r>
       <r>   7.9403  0.0000</r>
       <r>   7.9403  0.0000</r>
       <r>   7.9715  0.0000</r>
       <r>   8.5168  0.0000</r>
       <r>   8.5168  0.0000</r>
       <r>   8.5168  0.0000</r>
       <r>   8.5168  0.0000</r>
       <r>   9.1807  0.0000</r>
       <r>   9.1807  0.0000</r>
       <r>   9.9220  0.0000</r>
       <r>   9.9223  0.0000</r>
       <r>   9.9227  0.0000</r>
       <r>   9.9240  0.0000</r>
       <r>   9.9277  0.0000</r>
       <r>   9.9291  0.0000</r>
       <r>   9.9816  0.0000</r>
      </set>
      <set comment="kpoint 4">
       <r>  -2.8883  1.0000</r>
       <r>  -2.8855  1.0000</r>
       <r>  -0.7723  1.0000</r>
       <r>  -0.7693  1.0000</r>
       <r>  -0.7693  1.0000</r>
       <r>  -0.7685  1.0000</r>
       <r>  -0.7685  1.0000</r>
       <r>  -0.7677  1.0000</r>
       <r>  -0.7677  1.0000</r>
       <r>  -0.7647  1.0000</r>
       <r>   1.3141  1.0000</r>
       <r>   1.3167  1.0000</r>
       <r>   1.3203  1.0000</r>
       <r>   1.3204  1.0000</r>
       <r>   1.3204  1.0000</r>
       <r>   1.3212  1.0000</r>
       <r>   1.3220  1.0000</r>
       <r>   1.3228  1.0000</r>
       <r>   1.3228  1.0000</r>
       <r>   1.3253  1.0000</r>
       <r>   3.3771  1.0000</r>
       <r>   3.3775  1.0000</r>
       <r>   3.3775  1.0000</r>
       <r>   3.3781  1.0000</r>
       <r>   3.3784  1.0000</r>
       <r>   3.3790  1.0000</r>
       <r>   3.3790  1.0000</r>
       <r>   3.3795  1.0000</r>
       <r>   4.9105  1.0000</r>
       <r>   4.9105  1.0000</r>
       <r>   4.9134  1.0000</r>
       <r>   4.9134  1.0000</r>
       <r>   5.4164  1.0000</r>
       <r>   5.4164  1.0000</r>
       <r>   5.4171  1.0000</r>
       <r>   5.4172  1.0000</r>
       <r>   5.4178  1.0000</r>
       <r>   5.4180  1.0000</r>
       <r>   5.4186  1.0000</r>
       <r>   5.4186  1.0000</r>
       <r>   6.0565  1.0000</r>
       <r>   6.0574  1.0000</r>
       <r>   6.0592  1.0000</r>
       <r>   6.0600  1.0000</r>
       <r>   6.8903  1.0000</r>
       <r>   6.8903  1.0000</r>
       <r>   6.8912  1.0000</r>
       <r>   6.8924  1.0000</r>
       <r>   6.8926  1.0000</r>
       <r>   6.8938  1.0000</r>
       <r>   6.8948  1.0000</r>
       <r>   6.8948  1.0000</r>
       <r>   8.1195  0.0000</r>
       <r>   8.1207  0.0000</r>
       <r>   8.1207  0.0000</r>
       <r>   8.1208  0.0000</r>
       <r>   8.1226  0.0000</r>
       <r>   8.1228  0.0000</r>
       <r>   8.1228  0.0000</r>
       <r>   8.1240  0.0000</r>
       <r>   8.8771  0.0000</r>
       <r>   8.8771  0.0000</r>
       <r>   8.8793  0.0000</r>
       <r>   8.8793  0.0000</r>
       <r>   9.5713  0.0000</r>
       <r>   9.5728  0.0000</r>
       <r>  10.0805  0.0000</r>
       <r>  10.0811  0.0000</r>
       <r>  10.0823  0.0000</r>
       <r>  10.0829  0.0000</r>
       <r>  10.8582  0.0000</r>
       <r>  10.8595  0.0000</r>
      </set>
      <set comment="kpoint 5">
       <r>  -3.3617  1.0000</r>
       <r>  -1.9417  1.0000</r>
       <r>  -1.2394  1.0000</r>
       <r>  -1.2367  1.0000</r>
       <r>  -1.2367  1.0000</r>
       <r>  -1.2340  1.0000</r>
       <r>  -0.5351  1.0000</r>
       <r>   0.1612  1.0000</r>
       <r>   0.1639  1.0000</r>
       <r>   0.1639  1.0000</r>
       <r>   0.1666  1.0000</r>
       <r>   0.8573  1.0000</r>
       <r>   0.8584  1.0000</r>
       <r>   0.8605  1.0000</r>
       <r>   0.8616  1.0000</r>
       <r>   1.5490  1.0000</r>
       <r>   1.5517  1.0000</r>
       <r>   1.5517  1.0000</r>
       <r>   1.5544  1.0000</r>
       <r>   2.2400  1.0000</r>
       <r>   2.2410  1.0000</r>
       <r>   2.2432  1.0000</r>
       <r>   2.2443  1.0000</r>
       <r>   3.5522  1.0000</r>
       <r>   3.6108  1.0000</r>
       <r>   3.6119  1.0000</r>
       <r>   3.6141  1.0000</r>
       <r>   3.6152  1.0000</r>
       <r>   4.4725  1.0000</r>
       <r>   4.4725  1.0000</r>
       <r>   5.5701  1.0000</r>
       <r>   5.5730  1.0000</r>
       <r>   5.5730  1.0000</r>
       <r>   5.5758  1.0000</r>
       <r>   5.5933  1.0000</r>
       <r>   5.5933  1.0000</r>
       <r>   5.7917  1.0000</r>
       <r>   5.7918  1.0000</r>
       <r>   6.4496  1.0000</r>
       <r>   6.4522  1.0000</r>
       <r>   6.4522  1.0000</r>
       <r>   6.4548  1.0000</r>
       <r>   6.5045  1.0000</r>
       <r>   6.9692  1.0000</r>
       <r>   6.9692  1.0000</r>
       <r>   7.1133  1.0000</r>
       <r>   7.1133  1.0000</r>
       <r>   7.5796  0.0000</r>
       <r>   7.5810  0.0000</r>
       <r>   7.5831  0.0000</r>
       <r>   7.5845  0.0000</r>
       <r>   7.6502  0.0000</r>
       <r>   7.6523  0.0000</r>
       <r>   7.6523  0.0000</r>
       <r>   7.6544  0.0000</r>
       <r>   7.7710  0.0000</r>
       <r>   7.7735  0.0000</r>
       <r>   7.7736  0.0000</r>
       <r>   7.7762  0.0000</r>
       <r>   8.3658  0.0000</r>
       <r>   8.3658  0.0000</r>
       <r>   8.5596  0.0000</r>
       <r>   8.5619  0.0000</r>
       <r>   8.5619  0.0000</r>
       <r>   8.5641  0.0000</r>
       <r>   9.0182  0.0000</r>
       <r>   9.0202  0.0000</r>
       <r>   9.0202  0.0000</r>
       <r>   9.0222  0.0000</r>
       <r>   9.0934  0.0000</r>
       <r>   9.0958  0.0000</r>
       <r>   9.0974  0.0000</r>
      </set>
      <set comment="kpoint 6">
       <r>  -3.3023  1.0000</r>
       <r>  -1.8839  1.0000</r>
       <r>  -1.8818  1.0000</r>
       <r>  -1.1781  1.0000</r>
       <r>  -1.1781  1.0000</r>
       <r>  -0.4784  1.0000</r>
       <r>  -0.4767  1.0000</r>
       <r>  -0.4750  1.0000</r>
       <r>   0.2204  1.0000</r>
       <r>   0.2213  1.0000</r>
       <r>   0.2226  1.0000</r>
       <r>   0.2235  1.0000</r>
       <r>   0.9165  1.0000</r>
       <r>   0.9175  1.0000</r>
       <r>   1.6071  1.0000</r>
       <r>   1.6084  1.0000</r>
       <r>   1.6095  1.0000</r>
       <r>   1.6096  1.0000</r>
       <r>   1.6107  1.0000</r>
       <r>   1.6119  1.0000</r>
       <r>   2.2983  1.0000</r>
       <r>   2.9826  1.0000</r>
       <r>   2.9826  1.0000</r>
       <r>   2.9891  1.0000</r>
       <r>   2.9891  1.0000</r>
       <r>   3.6081  1.0000</r>
       <r>   3.6091  1.0000</r>
       <r>   4.3508  1.0000</r>
       <r>   4.3508  1.0000</r>
       <r>   4.5274  1.0000</r>
       <r>   4.9568  1.0000</r>
       <r>   4.9590  1.0000</r>
       <r>   5.5948  1.0000</r>
       <r>   5.5948  1.0000</r>
       <r>   5.6515  1.0000</r>
       <r>   5.6657  1.0000</r>
       <r>   5.6658  1.0000</r>
       <r>   5.8455  1.0000</r>
       <r>   5.8479  1.0000</r>
       <r>   6.2926  1.0000</r>
       <r>   6.2940  1.0000</r>
       <r>   6.5608  1.0000</r>
       <r>   6.5618  1.0000</r>
       <r>   6.9690  1.0000</r>
       <r>   6.9699  1.0000</r>
       <r>   6.9712  1.0000</r>
       <r>   6.9722  1.0000</r>
       <r>   7.0452  1.0000</r>
       <r>   7.0468  1.0000</r>
       <r>   7.1660  0.2927</r>
       <r>   7.1681  0.1977</r>
       <r>   7.1703  0.1240</r>
       <r>   7.8834  0.0000</r>
       <r>   7.8851  0.0000</r>
       <r>   8.3012  0.0000</r>
       <r>   8.3023  0.0000</r>
       <r>   8.3024  0.0000</r>
       <r>   8.3034  0.0000</r>
       <r>   8.4066  0.0000</r>
       <r>   8.4428  0.0000</r>
       <r>   8.4439  0.0000</r>
       <r>   8.4732  0.0000</r>
       <r>   8.4733  0.0000</r>
       <r>   8.4890  0.0000</r>
       <r>   8.4909  0.0000</r>
       <r>   8.7189  0.0000</r>
       <r>   8.7189  0.0000</r>
       <r>   9.2649  0.0000</r>
       <r>   9.2669  0.0000</r>
       <r>   9.7347  0.0000</r>
       <r>   9.7349  0.0000</r>
       <r>   9.8117  0.0000</r>
      </set>
      <set comment="kpoint 7">
       <r>  -3.1241  1.0000</r>
       <r>  -2.4136  1.0000</r>
       <r>  -1.7064  1.0000</r>
       <r>  -1.0038  1.0000</r>
       <r>  -1.0024  1.0000</r>
       <r>  -1.0011  1.0000</r>
       <r>  -0.3031  1.0000</r>
       <r>  -0.3016  1.0000</r>
       <r>  -0.3004  1.0000</r>
       <r>   0.3933  1.0000</r>
       <r>   0.3957  1.0000</r>
       <r>   0.3961  1.0000</r>
       <r>   0.3974  1.0000</r>
       <r>   1.0908  1.0000</r>
       <r>   1.0908  1.0000</r>
       <r>   1.7804  1.0000</r>
       <r>   1.7820  1.0000</r>
       <r>   1.7822  1.0000</r>
       <r>   2.4545  1.0000</r>
       <r>   2.4683  1.0000</r>
       <r>   2.4688  1.0000</r>
       <r>   2.4713  1.0000</r>
       <r>   2.4720  1.0000</r>
       <r>   3.1543  1.0000</r>
       <r>   3.7777  1.0000</r>
       <r>   3.8204  1.0000</r>
       <r>   3.8388  1.0000</r>
       <r>   3.8388  1.0000</r>
       <r>   4.4530  1.0000</r>
       <r>   4.4988  1.0000</r>
       <r>   4.4989  1.0000</r>
       <r>   4.6922  1.0000</r>
       <r>   5.1740  1.0000</r>
       <r>   5.1969  1.0000</r>
       <r>   5.1970  1.0000</r>
       <r>   5.3517  1.0000</r>
       <r>   5.7994  1.0000</r>
       <r>   5.7995  1.0000</r>
       <r>   5.8262  1.0000</r>
       <r>   5.8522  1.0000</r>
       <r>   5.8523  1.0000</r>
       <r>   6.0117  1.0000</r>
       <r>   6.4692  1.0000</r>
       <r>   6.4692  1.0000</r>
       <r>   6.5126  1.0000</r>
       <r>   6.6721  1.0000</r>
       <r>   6.7315  1.0000</r>
       <r>   7.1466  0.9861</r>
       <r>   7.1940  0.0000</r>
       <r>   7.1940  0.0000</r>
       <r>   7.2165  0.0000</r>
       <r>   7.3335  0.0000</r>
       <r>   7.4058  0.0000</r>
       <r>   7.8993  0.0000</r>
       <r>   7.9932  0.0000</r>
       <r>   7.9965  0.0000</r>
       <r>   8.0274  0.0000</r>
       <r>   8.5493  0.0000</r>
       <r>   8.7528  0.0000</r>
       <r>   8.7528  0.0000</r>
       <r>   9.1148  0.0000</r>
       <r>   9.1297  0.0000</r>
       <r>   9.1298  0.0000</r>
       <r>   9.2356  0.0000</r>
       <r>   9.2388  0.0000</r>
       <r>   9.3168  0.0000</r>
       <r>   9.3912  0.0000</r>
       <r>   9.4259  0.0000</r>
       <r>   9.4259  0.0000</r>
       <r>   9.9822  0.0000</r>
       <r>  10.0393  0.0000</r>
       <r>  10.0484  0.0000</r>
      </set>
      <set comment="kpoint 8">
       <r>  -2.8290  1.0000</r>
       <r>  -2.8263  1.0000</r>
       <r>  -1.4140  1.0000</r>
       <r>  -1.4113  1.0000</r>
       <r>  -0.7120  1.0000</r>
       <r>  -0.7109  1.0000</r>
       <r>  -0.7093  1.0000</r>
       <r>  -0.7081  1.0000</r>
       <r>  -0.0122  1.0000</r>
       <r>  -0.0095  1.0000</r>
       <r>   0.6839  1.0000</r>
       <r>   0.6851  1.0000</r>
       <r>   0.6867  1.0000</r>
       <r>   0.6878  1.0000</r>
       <r>   1.3735  1.0000</r>
       <r>   1.3749  1.0000</r>
       <r>   2.0675  1.0000</r>
       <r>   2.0686  1.0000</r>
       <r>   2.0702  1.0000</r>
       <r>   2.0713  1.0000</r>
       <r>   2.7504  1.0000</r>
       <r>   2.7518  1.0000</r>
       <r>   3.4344  1.0000</r>
       <r>   3.4345  1.0000</r>
       <r>   3.4359  1.0000</r>
       <r>   3.4360  1.0000</r>
       <r>   4.0580  1.0000</r>
       <r>   4.0608  1.0000</r>
       <r>   4.1152  1.0000</r>
       <r>   4.1166  1.0000</r>
       <r>   4.7963  1.0000</r>
       <r>   4.7964  1.0000</r>
       <r>   4.7978  1.0000</r>
       <r>   4.7978  1.0000</r>
       <r>   4.9655  1.0000</r>
       <r>   4.9684  1.0000</r>
       <r>   6.0765  1.0000</r>
       <r>   6.0777  1.0000</r>
       <r>   6.0793  1.0000</r>
       <r>   6.0805  1.0000</r>
       <r>   6.1141  1.0000</r>
       <r>   6.1168  1.0000</r>
       <r>   6.1468  1.0000</r>
       <r>   6.1470  1.0000</r>
       <r>   6.1484  1.0000</r>
       <r>   6.1484  1.0000</r>
       <r>   6.2854  1.0000</r>
       <r>   6.2883  1.0000</r>
       <r>   7.0126  1.0000</r>
       <r>   7.0154  1.0000</r>
       <r>   7.5005  0.0000</r>
       <r>   7.5031  0.0000</r>
       <r>   7.6074  0.0000</r>
       <r>   7.6103  0.0000</r>
       <r>   8.0778  0.0000</r>
       <r>   8.0795  0.0000</r>
       <r>   8.8416  0.0000</r>
       <r>   8.8443  0.0000</r>
       <r>   8.9321  0.0000</r>
       <r>   8.9344  0.0000</r>
       <r>   9.0345  0.0000</r>
       <r>   9.0353  0.0000</r>
       <r>   9.0373  0.0000</r>
       <r>   9.0381  0.0000</r>
       <r>   9.6260  0.0000</r>
       <r>   9.6276  0.0000</r>
       <r>  10.0600  0.0000</r>
       <r>  10.0603  0.0000</r>
       <r>  10.0619  0.0000</r>
       <r>  10.0621  0.0000</r>
       <r>  10.1367  0.0000</r>
       <r>  10.1373  0.0000</r>
      </set>
      <set comment="kpoint 9">
       <r>  -3.1835  1.0000</r>
       <r>  -2.4727  1.0000</r>
       <r>  -1.0637  1.0000</r>
       <r>  -1.0610  1.0000</r>
       <r>  -1.0610  1.0000</r>
       <r>  -1.0583  1.0000</r>
       <r>  -0.3626  1.0000</r>
       <r>  -0.3599  1.0000</r>
       <r>  -0.3599  1.0000</r>
       <r>  -0.3572  1.0000</r>
       <r>   0.3367  1.0000</r>
       <r>   1.0308  1.0000</r>
       <r>   1.0318  1.0000</r>
       <r>   1.0340  1.0000</r>
       <r>   1.0351  1.0000</r>
       <r>   1.7228  1.0000</r>
       <r>   1.7239  1.0000</r>
       <r>   1.7260  1.0000</r>
       <r>   1.7271  1.0000</r>
       <r>   2.3975  1.0000</r>
       <r>   2.4091  1.0000</r>
       <r>   2.4119  1.0000</r>
       <r>   2.4119  1.0000</r>
       <r>   2.4146  1.0000</r>
       <r>   4.4398  1.0000</r>
       <r>   4.4426  1.0000</r>
       <r>   4.4426  1.0000</r>
       <r>   4.4453  1.0000</r>
       <r>   4.4606  1.0000</r>
       <r>   4.4617  1.0000</r>
       <r>   4.4639  1.0000</r>
       <r>   4.4650  1.0000</r>
       <r>   4.6373  1.0000</r>
       <r>   4.6373  1.0000</r>
       <r>   5.2967  1.0000</r>
       <r>   5.2967  1.0000</r>
       <r>   5.7681  1.0000</r>
       <r>   5.7681  1.0000</r>
       <r>   6.4606  1.0000</r>
       <r>   6.4610  1.0000</r>
       <r>   6.4666  1.0000</r>
       <r>   6.4675  1.0000</r>
       <r>   6.4696  1.0000</r>
       <r>   6.4710  1.0000</r>
       <r>   6.6147  1.0000</r>
       <r>   6.6173  1.0000</r>
       <r>   6.6173  1.0000</r>
       <r>   6.6199  1.0000</r>
       <r>   7.2753  0.0000</r>
       <r>   7.2779  0.0000</r>
       <r>   7.2779  0.0000</r>
       <r>   7.2805  0.0000</r>
       <r>   7.8341  0.0000</r>
       <r>   7.8361  0.0000</r>
       <r>   7.8361  0.0000</r>
       <r>   7.8381  0.0000</r>
       <r>   7.9402  0.0000</r>
       <r>   7.9403  0.0000</r>
       <r>   7.9716  0.0000</r>
       <r>   8.5148  0.0000</r>
       <r>   8.5168  0.0000</r>
       <r>   8.5168  0.0000</r>
       <r>   8.5188  0.0000</r>
       <r>   9.1807  0.0000</r>
       <r>   9.1807  0.0000</r>
       <r>   9.9208  0.0000</r>
       <r>   9.9224  0.0000</r>
       <r>   9.9233  0.0000</r>
       <r>   9.9250  0.0000</r>
       <r>   9.9274  0.0000</r>
       <r>   9.9279  0.0000</r>
       <r>   9.9827  0.0000</r>
      </set>
      <set comment="kpoint 10">
       <r>  -3.1241  1.0000</r>
       <r>  -2.4136  1.0000</r>
       <r>  -1.7064  1.0000</r>
       <r>  -1.0038  1.0000</r>
       <r>  -1.0024  1.0000</r>
       <r>  -1.0011  1.0000</r>
       <r>  -0.3031  1.0000</r>
       <r>  -0.3016  1.0000</r>
       <r>  -0.3004  1.0000</r>
       <r>   0.3934  1.0000</r>
       <r>   0.3953  1.0000</r>
       <r>   0.3961  1.0000</r>
       <r>   0.3977  1.0000</r>
       <r>   1.0908  1.0000</r>
       <r>   1.0908  1.0000</r>
       <r>   1.7798  1.0000</r>
       <r>   1.7820  1.0000</r>
       <r>   1.7829  1.0000</r>
       <r>   2.4546  1.0000</r>
       <r>   2.4689  1.0000</r>
       <r>   2.4691  1.0000</r>
       <r>   2.4710  1.0000</r>
       <r>   2.4713  1.0000</r>
       <r>   3.1543  1.0000</r>
       <r>   3.7777  1.0000</r>
       <r>   3.8204  1.0000</r>
       <r>   3.8388  1.0000</r>
       <r>   3.8388  1.0000</r>
       <r>   4.4529  1.0000</r>
       <r>   4.4988  1.0000</r>
       <r>   4.4989  1.0000</r>
       <r>   4.6922  1.0000</r>
       <r>   5.1740  1.0000</r>
       <r>   5.1969  1.0000</r>
       <r>   5.1969  1.0000</r>
       <r>   5.3517  1.0000</r>
       <r>   5.7994  1.0000</r>
       <r>   5.7995  1.0000</r>
       <r>   5.8263  1.0000</r>
       <r>   5.8522  1.0000</r>
       <r>   5.8522  1.0000</r>
       <r>   6.0117  1.0000</r>
       <r>   6.4691  1.0000</r>
       <r>   6.4691  1.0000</r>
       <r>   6.5126  1.0000</r>
       <r>   6.6721  1.0000</r>
       <r>   6.7315  1.0000</r>
       <r>   7.1466  0.9861</r>
       <r>   7.1940  0.0000</r>
       <r>   7.1940  0.0000</r>
       <r>   7.2165  0.0000</r>
       <r>   7.3335  0.0000</r>
       <r>   7.4058  0.0000</r>
       <r>   7.8993  0.0000</r>
       <r>   7.9939  0.0000</r>
       <r>   7.9958  0.0000</r>
       <r>   8.0273  0.0000</r>
       <r>   8.5493  0.0000</r>
       <r>   8.7528  0.0000</r>
       <r>   8.7528  0.0000</r>
       <r>   9.1149  0.0000</r>
       <r>   9.1297  0.0000</r>
       <r>   9.1297  0.0000</r>
       <r>   9.2359  0.0000</r>
       <r>   9.2385  0.0000</r>
       <r>   9.3168  0.0000</r>
       <r>   9.3912  0.0000</r>
       <r>   9.4259  0.0000</r>
       <r>   9.4259  0.0000</r>
       <r>   9.9823  0.0000</r>
       <r>  10.0393  0.0000</r>
       <r>  10.0399  0.0000</r>
      </set>
      <set comment="kpoint 11">
       <r>  -2.9462  1.0000</r>
       <r>  -2.2376  1.0000</r>
       <r>  -2.2354  1.0000</r>
       <r>  -1.5301  1.0000</r>
       <r>  -0.8270  1.0000</r>
       <r>  -0.8270  1.0000</r>
       <r>  -0.1285  1.0000</r>
       <r>  -0.1276  1.0000</r>
       <r>  -0.1263  1.0000</r>
       <r>  -0.1254  1.0000</r>
       <r>   0.5670  1.0000</r>
       <r>   0.5690  1.0000</r>
       <r>   0.5700  1.0000</r>
       <r>   0.5711  1.0000</r>
       <r>   1.2617  1.0000</r>
       <r>   1.2628  1.0000</r>
       <r>   2.6253  1.0000</r>
       <r>   2.6264  1.0000</r>
       <r>   2.6395  1.0000</r>
       <r>   2.6403  1.0000</r>
       <r>   2.6416  1.0000</r>
       <r>   2.6426  1.0000</r>
       <r>   3.3083  1.0000</r>
       <r>   3.3105  1.0000</r>
       <r>   3.3205  1.0000</r>
       <r>   3.3206  1.0000</r>
       <r>   3.3324  1.0000</r>
       <r>   3.3325  1.0000</r>
       <r>   4.0055  1.0000</r>
       <r>   4.6372  1.0000</r>
       <r>   4.6372  1.0000</r>
       <r>   4.7017  1.0000</r>
       <r>   4.7017  1.0000</r>
       <r>   4.8570  1.0000</r>
       <r>   5.3448  1.0000</r>
       <r>   5.3457  1.0000</r>
       <r>   5.3470  1.0000</r>
       <r>   5.3479  1.0000</r>
       <r>   5.5154  1.0000</r>
       <r>   5.5178  1.0000</r>
       <r>   5.9995  1.0000</r>
       <r>   6.0069  1.0000</r>
       <r>   6.0082  1.0000</r>
       <r>   6.0390  1.0000</r>
       <r>   6.0391  1.0000</r>
       <r>   6.1767  1.0000</r>
       <r>   6.7083  1.0000</r>
       <r>   6.7098  1.0000</r>
       <r>   7.3890  0.0000</r>
       <r>   8.0095  0.0000</r>
       <r>   8.0254  0.0000</r>
       <r>   8.0264  0.0000</r>
       <r>   8.0265  0.0000</r>
       <r>   8.0275  0.0000</r>
       <r>   8.1593  0.0000</r>
       <r>   8.1618  0.0000</r>
       <r>   8.1938  0.0000</r>
       <r>   8.1949  0.0000</r>
       <r>   8.8204  0.0000</r>
       <r>   8.8223  0.0000</r>
       <r>   8.8372  0.0000</r>
       <r>   8.8389  0.0000</r>
       <r>   9.4246  0.0000</r>
       <r>   9.4258  0.0000</r>
       <r>   9.9928  0.0000</r>
       <r>   9.9928  0.0000</r>
       <r>  10.0476  0.0000</r>
       <r>  10.0478  0.0000</r>
       <r>  10.0927  0.0000</r>
       <r>  10.0927  0.0000</r>
       <r>  10.1463  0.0000</r>
       <r>  10.1483  0.0000</r>
      </set>
      <set comment="kpoint 12">
       <r>  -2.6515  1.0000</r>
       <r>  -2.6487  1.0000</r>
       <r>  -1.9431  1.0000</r>
       <r>  -1.9404  1.0000</r>
       <r>  -0.5369  1.0000</r>
       <r>  -0.5357  1.0000</r>
       <r>  -0.5341  1.0000</r>
       <r>  -0.5330  1.0000</r>
       <r>   0.1619  1.0000</r>
       <r>   0.1630  1.0000</r>
       <r>   0.1646  1.0000</r>
       <r>   0.1657  1.0000</r>
       <r>   0.8566  1.0000</r>
       <r>   0.8593  1.0000</r>
       <r>   1.5462  1.0000</r>
       <r>   1.5477  1.0000</r>
       <r>   2.2354  1.0000</r>
       <r>   2.2368  1.0000</r>
       <r>   2.9097  1.0000</r>
       <r>   2.9125  1.0000</r>
       <r>   2.9249  1.0000</r>
       <r>   2.9260  1.0000</r>
       <r>   2.9277  1.0000</r>
       <r>   2.9288  1.0000</r>
       <r>   3.6051  1.0000</r>
       <r>   3.6052  1.0000</r>
       <r>   3.6065  1.0000</r>
       <r>   3.6066  1.0000</r>
       <r>   4.2870  1.0000</r>
       <r>   4.2871  1.0000</r>
       <r>   4.2885  1.0000</r>
       <r>   4.2886  1.0000</r>
       <r>   4.9503  1.0000</r>
       <r>   4.9514  1.0000</r>
       <r>   4.9531  1.0000</r>
       <r>   4.9542  1.0000</r>
       <r>   4.9604  1.0000</r>
       <r>   4.9619  1.0000</r>
       <r>   5.1303  1.0000</r>
       <r>   5.1332  1.0000</r>
       <r>   5.7901  1.0000</r>
       <r>   5.7930  1.0000</r>
       <r>   6.2811  1.0000</r>
       <r>   6.2837  1.0000</r>
       <r>   6.9747  1.0000</r>
       <r>   6.9763  1.0000</r>
       <r>   6.9843  1.0000</r>
       <r>   6.9844  1.0000</r>
       <r>   6.9858  1.0000</r>
       <r>   6.9859  1.0000</r>
       <r>   6.9886  1.0000</r>
       <r>   6.9912  1.0000</r>
       <r>   8.4344  0.0000</r>
       <r>   8.4374  0.0000</r>
       <r>   8.4690  0.0000</r>
       <r>   8.4717  0.0000</r>
       <r>   8.9613  0.0000</r>
       <r>   8.9613  0.0000</r>
       <r>   8.9629  0.0000</r>
       <r>   8.9630  0.0000</r>
       <r>   9.0973  0.0000</r>
       <r>   9.0996  0.0000</r>
       <r>   9.6486  0.0000</r>
       <r>   9.6515  0.0000</r>
       <r>   9.7579  0.0000</r>
       <r>   9.7602  0.0000</r>
       <r>   9.7890  0.0000</r>
       <r>   9.7905  0.0000</r>
       <r>  10.3030  0.0000</r>
       <r>  10.3036  0.0000</r>
       <r>  10.4248  0.0000</r>
       <r>  10.4273  0.0000</r>
      </set>
      <set comment="kpoint 13">
       <r>  -2.8869  1.0000</r>
       <r>  -2.8869  1.0000</r>
       <r>  -0.7735  1.0000</r>
       <r>  -0.7689  1.0000</r>
       <r>  -0.7685  1.0000</r>
       <r>  -0.7685  1.0000</r>
       <r>  -0.7685  1.0000</r>
       <r>  -0.7685  1.0000</r>
       <r>  -0.7680  1.0000</r>
       <r>  -0.7635  1.0000</r>
       <r>   1.3149  1.0000</r>
       <r>   1.3164  1.0000</r>
       <r>   1.3191  1.0000</r>
       <r>   1.3197  1.0000</r>
       <r>   1.3212  1.0000</r>
       <r>   1.3214  1.0000</r>
       <r>   1.3218  1.0000</r>
       <r>   1.3223  1.0000</r>
       <r>   1.3235  1.0000</r>
       <r>   1.3258  1.0000</r>
       <r>   3.3753  1.0000</r>
       <r>   3.3757  1.0000</r>
       <r>   3.3783  1.0000</r>
       <r>   3.3783  1.0000</r>
       <r>   3.3783  1.0000</r>
       <r>   3.3783  1.0000</r>
       <r>   3.3808  1.0000</r>
       <r>   3.3812  1.0000</r>
       <r>   4.9120  1.0000</r>
       <r>   4.9120  1.0000</r>
       <r>   4.9120  1.0000</r>
       <r>   4.9120  1.0000</r>
       <r>   5.4147  1.0000</r>
       <r>   5.4159  1.0000</r>
       <r>   5.4163  1.0000</r>
       <r>   5.4166  1.0000</r>
       <r>   5.4185  1.0000</r>
       <r>   5.4188  1.0000</r>
       <r>   5.4192  1.0000</r>
       <r>   5.4203  1.0000</r>
       <r>   6.0582  1.0000</r>
       <r>   6.0583  1.0000</r>
       <r>   6.0583  1.0000</r>
       <r>   6.0583  1.0000</r>
       <r>   6.8878  1.0000</r>
       <r>   6.8921  1.0000</r>
       <r>   6.8925  1.0000</r>
       <r>   6.8925  1.0000</r>
       <r>   6.8925  1.0000</r>
       <r>   6.8926  1.0000</r>
       <r>   6.8929  1.0000</r>
       <r>   6.8973  1.0000</r>
       <r>   8.1180  0.0000</r>
       <r>   8.1213  0.0000</r>
       <r>   8.1217  0.0000</r>
       <r>   8.1217  0.0000</r>
       <r>   8.1217  0.0000</r>
       <r>   8.1217  0.0000</r>
       <r>   8.1222  0.0000</r>
       <r>   8.1254  0.0000</r>
       <r>   8.8782  0.0000</r>
       <r>   8.8782  0.0000</r>
       <r>   8.8782  0.0000</r>
       <r>   8.8782  0.0000</r>
       <r>   9.5721  0.0000</r>
       <r>   9.5721  0.0000</r>
       <r>  10.0817  0.0000</r>
       <r>  10.0817  0.0000</r>
       <r>  10.0817  0.0000</r>
       <r>  10.0817  0.0000</r>
       <r>  10.8577  0.0000</r>
       <r>  10.8597  0.0000</r>
      </set>
      <set comment="kpoint 14">
       <r>  -2.8277  1.0000</r>
       <r>  -2.8277  1.0000</r>
       <r>  -1.4127  1.0000</r>
       <r>  -1.4127  1.0000</r>
       <r>  -0.7101  1.0000</r>
       <r>  -0.7101  1.0000</r>
       <r>  -0.7101  1.0000</r>
       <r>  -0.7101  1.0000</r>
       <r>  -0.0109  1.0000</r>
       <r>  -0.0109  1.0000</r>
       <r>   0.6859  1.0000</r>
       <r>   0.6859  1.0000</r>
       <r>   0.6859  1.0000</r>
       <r>   0.6859  1.0000</r>
       <r>   1.3742  1.0000</r>
       <r>   1.3742  1.0000</r>
       <r>   2.0694  1.0000</r>
       <r>   2.0694  1.0000</r>
       <r>   2.0694  1.0000</r>
       <r>   2.0694  1.0000</r>
       <r>   2.7511  1.0000</r>
       <r>   2.7511  1.0000</r>
       <r>   3.4352  1.0000</r>
       <r>   3.4352  1.0000</r>
       <r>   3.4352  1.0000</r>
       <r>   3.4352  1.0000</r>
       <r>   4.0594  1.0000</r>
       <r>   4.0594  1.0000</r>
       <r>   4.1159  1.0000</r>
       <r>   4.1159  1.0000</r>
       <r>   4.7971  1.0000</r>
       <r>   4.7971  1.0000</r>
       <r>   4.7971  1.0000</r>
       <r>   4.7971  1.0000</r>
       <r>   4.9669  1.0000</r>
       <r>   4.9669  1.0000</r>
       <r>   6.0784  1.0000</r>
       <r>   6.0785  1.0000</r>
       <r>   6.0785  1.0000</r>
       <r>   6.0785  1.0000</r>
       <r>   6.1155  1.0000</r>
       <r>   6.1156  1.0000</r>
       <r>   6.1476  1.0000</r>
       <r>   6.1476  1.0000</r>
       <r>   6.1477  1.0000</r>
       <r>   6.1477  1.0000</r>
       <r>   6.2868  1.0000</r>
       <r>   6.2869  1.0000</r>
       <r>   7.0140  1.0000</r>
       <r>   7.0140  1.0000</r>
       <r>   7.5018  0.0000</r>
       <r>   7.5018  0.0000</r>
       <r>   7.6088  0.0000</r>
       <r>   7.6088  0.0000</r>
       <r>   8.0786  0.0000</r>
       <r>   8.0786  0.0000</r>
       <r>   8.8430  0.0000</r>
       <r>   8.8430  0.0000</r>
       <r>   8.9333  0.0000</r>
       <r>   8.9333  0.0000</r>
       <r>   9.0363  0.0000</r>
       <r>   9.0363  0.0000</r>
       <r>   9.0363  0.0000</r>
       <r>   9.0363  0.0000</r>
       <r>   9.6268  0.0000</r>
       <r>   9.6268  0.0000</r>
       <r>  10.0610  0.0000</r>
       <r>  10.0611  0.0000</r>
       <r>  10.0611  0.0000</r>
       <r>  10.0611  0.0000</r>
       <r>  10.1370  0.0000</r>
       <r>  10.1371  0.0000</r>
      </set>
      <set comment="kpoint 15">
       <r>  -2.6501  1.0000</r>
       <r>  -2.6501  1.0000</r>
       <r>  -1.9418  1.0000</r>
       <r>  -1.9418  1.0000</r>
       <r>  -0.5350  1.0000</r>
       <r>  -0.5349  1.0000</r>
       <r>  -0.5349  1.0000</r>
       <r>  -0.5349  1.0000</r>
       <r>   0.1638  1.0000</r>
       <r>   0.1638  1.0000</r>
       <r>   0.1638  1.0000</r>
       <r>   0.1638  1.0000</r>
       <r>   0.8579  1.0000</r>
       <r>   0.8580  1.0000</r>
       <r>   1.5469  1.0000</r>
       <r>   1.5469  1.0000</r>
       <r>   2.2361  1.0000</r>
       <r>   2.2361  1.0000</r>
       <r>   2.9110  1.0000</r>
       <r>   2.9111  1.0000</r>
       <r>   2.9268  1.0000</r>
       <r>   2.9268  1.0000</r>
       <r>   2.9269  1.0000</r>
       <r>   2.9269  1.0000</r>
       <r>   3.6058  1.0000</r>
       <r>   3.6058  1.0000</r>
       <r>   3.6058  1.0000</r>
       <r>   3.6058  1.0000</r>
       <r>   4.2878  1.0000</r>
       <r>   4.2878  1.0000</r>
       <r>   4.2878  1.0000</r>
       <r>   4.2878  1.0000</r>
       <r>   4.9522  1.0000</r>
       <r>   4.9522  1.0000</r>
       <r>   4.9523  1.0000</r>
       <r>   4.9523  1.0000</r>
       <r>   4.9611  1.0000</r>
       <r>   4.9612  1.0000</r>
       <r>   5.1318  1.0000</r>
       <r>   5.1318  1.0000</r>
       <r>   5.7916  1.0000</r>
       <r>   5.7916  1.0000</r>
       <r>   6.2824  1.0000</r>
       <r>   6.2824  1.0000</r>
       <r>   6.9754  1.0000</r>
       <r>   6.9756  1.0000</r>
       <r>   6.9850  1.0000</r>
       <r>   6.9851  1.0000</r>
       <r>   6.9851  1.0000</r>
       <r>   6.9851  1.0000</r>
       <r>   6.9900  1.0000</r>
       <r>   6.9900  1.0000</r>
       <r>   8.4359  0.0000</r>
       <r>   8.4359  0.0000</r>
       <r>   8.4703  0.0000</r>
       <r>   8.4704  0.0000</r>
       <r>   8.9621  0.0000</r>
       <r>   8.9621  0.0000</r>
       <r>   8.9621  0.0000</r>
       <r>   8.9621  0.0000</r>
       <r>   9.0985  0.0000</r>
       <r>   9.0985  0.0000</r>
       <r>   9.6500  0.0000</r>
       <r>   9.6500  0.0000</r>
       <r>   9.7590  0.0000</r>
       <r>   9.7590  0.0000</r>
       <r>   9.7898  0.0000</r>
       <r>   9.7898  0.0000</r>
       <r>  10.3033  0.0000</r>
       <r>  10.3036  0.0000</r>
       <r>  10.4248  0.0000</r>
       <r>  10.4376  0.0000</r>
      </set>
      <set comment="kpoint 16">
       <r>  -2.3570  1.0000</r>
       <r>  -2.3549  1.0000</r>
       <r>  -2.3543  1.0000</r>
       <r>  -2.3521  1.0000</r>
       <r>  -0.2469  1.0000</r>
       <r>  -0.2449  1.0000</r>
       <r>  -0.2438  1.0000</r>
       <r>  -0.2436  1.0000</r>
       <r>  -0.2432  1.0000</r>
       <r>  -0.2430  1.0000</r>
       <r>  -0.2420  1.0000</r>
       <r>  -0.2400  1.0000</r>
       <r>   1.8306  1.0000</r>
       <r>   1.8326  1.0000</r>
       <r>   1.8341  1.0000</r>
       <r>   1.8344  1.0000</r>
       <r>   1.8345  1.0000</r>
       <r>   1.8347  1.0000</r>
       <r>   1.8363  1.0000</r>
       <r>   1.8383  1.0000</r>
       <r>   3.8687  1.0000</r>
       <r>   3.8701  1.0000</r>
       <r>   3.8710  1.0000</r>
       <r>   3.8713  1.0000</r>
       <r>   3.8715  1.0000</r>
       <r>   3.8719  1.0000</r>
       <r>   3.8726  1.0000</r>
       <r>   3.8739  1.0000</r>
       <r>   3.9079  1.0000</r>
       <r>   3.9079  1.0000</r>
       <r>   3.9089  1.0000</r>
       <r>   3.9096  1.0000</r>
       <r>   3.9097  1.0000</r>
       <r>   3.9106  1.0000</r>
       <r>   3.9115  1.0000</r>
       <r>   3.9117  1.0000</r>
       <r>   5.4040  1.0000</r>
       <r>   5.4064  1.0000</r>
       <r>   5.4069  1.0000</r>
       <r>   5.4093  1.0000</r>
       <r>   5.9036  1.0000</r>
       <r>   5.9049  1.0000</r>
       <r>   5.9049  1.0000</r>
       <r>   5.9062  1.0000</r>
       <r>   6.5929  1.0000</r>
       <r>   6.5945  1.0000</r>
       <r>   6.5954  1.0000</r>
       <r>   6.5969  1.0000</r>
       <r>   7.9243  0.0000</r>
       <r>   7.9253  0.0000</r>
       <r>   7.9254  0.0000</r>
       <r>   7.9259  0.0000</r>
       <r>   7.9264  0.0000</r>
       <r>   7.9269  0.0000</r>
       <r>   7.9270  0.0000</r>
       <r>   7.9280  0.0000</r>
       <r>   9.3684  0.0000</r>
       <r>   9.3722  0.0000</r>
       <r>   9.3735  0.0000</r>
       <r>   9.3737  0.0000</r>
       <r>   9.3738  0.0000</r>
       <r>   9.3740  0.0000</r>
       <r>   9.3753  0.0000</r>
       <r>   9.3792  0.0000</r>
       <r>  10.0433  0.0000</r>
       <r>  10.0444  0.0000</r>
       <r>  10.0456  0.0000</r>
       <r>  10.0460  0.0000</r>
       <r>  10.0463  0.0000</r>
       <r>  10.0467  0.0000</r>
       <r>  10.0479  0.0000</r>
       <r>  10.0490  0.0000</r>
      </set>
      <set comment="kpoint 17">
       <r>  -3.3023  1.0000</r>
       <r>  -1.8829  1.0000</r>
       <r>  -1.8828  1.0000</r>
       <r>  -1.1797  1.0000</r>
       <r>  -1.1765  1.0000</r>
       <r>  -0.4768  1.0000</r>
       <r>  -0.4768  1.0000</r>
       <r>  -0.4765  1.0000</r>
       <r>   0.2194  1.0000</r>
       <r>   0.2213  1.0000</r>
       <r>   0.2226  1.0000</r>
       <r>   0.2246  1.0000</r>
       <r>   0.9170  1.0000</r>
       <r>   0.9170  1.0000</r>
       <r>   1.6066  1.0000</r>
       <r>   1.6085  1.0000</r>
       <r>   1.6087  1.0000</r>
       <r>   1.6099  1.0000</r>
       <r>   1.6112  1.0000</r>
       <r>   1.6123  1.0000</r>
       <r>   2.2983  1.0000</r>
       <r>   2.9822  1.0000</r>
       <r>   2.9822  1.0000</r>
       <r>   2.9895  1.0000</r>
       <r>   2.9895  1.0000</r>
       <r>   3.6086  1.0000</r>
       <r>   3.6086  1.0000</r>
       <r>   4.3491  1.0000</r>
       <r>   4.3524  1.0000</r>
       <r>   4.5275  1.0000</r>
       <r>   4.9579  1.0000</r>
       <r>   4.9579  1.0000</r>
       <r>   5.5948  1.0000</r>
       <r>   5.5948  1.0000</r>
       <r>   5.6516  1.0000</r>
       <r>   5.6657  1.0000</r>
       <r>   5.6657  1.0000</r>
       <r>   5.8467  1.0000</r>
       <r>   5.8468  1.0000</r>
       <r>   6.2933  1.0000</r>
       <r>   6.2933  1.0000</r>
       <r>   6.5613  1.0000</r>
       <r>   6.5613  1.0000</r>
       <r>   6.9678  1.0000</r>
       <r>   6.9699  1.0000</r>
       <r>   6.9713  1.0000</r>
       <r>   6.9733  1.0000</r>
       <r>   7.0459  1.0000</r>
       <r>   7.0460  1.0000</r>
       <r>   7.1677  0.2166</r>
       <r>   7.1684  0.1881</r>
       <r>   7.1684  0.1865</r>
       <r>   7.8842  0.0000</r>
       <r>   7.8842  0.0000</r>
       <r>   8.3002  0.0000</r>
       <r>   8.3010  0.0000</r>
       <r>   8.3037  0.0000</r>
       <r>   8.3045  0.0000</r>
       <r>   8.4066  0.0000</r>
       <r>   8.4433  0.0000</r>
       <r>   8.4434  0.0000</r>
       <r>   8.4732  0.0000</r>
       <r>   8.4733  0.0000</r>
       <r>   8.4900  0.0000</r>
       <r>   8.4901  0.0000</r>
       <r>   8.7189  0.0000</r>
       <r>   8.7189  0.0000</r>
       <r>   9.2659  0.0000</r>
       <r>   9.2659  0.0000</r>
       <r>   9.7348  0.0000</r>
       <r>   9.7348  0.0000</r>
       <r>   9.8119  0.0000</r>
      </set>
      <set comment="kpoint 18">
       <r>  -3.2429  1.0000</r>
       <r>  -1.8255  1.0000</r>
       <r>  -1.8240  1.0000</r>
       <r>  -1.8225  1.0000</r>
       <r>  -0.4216  1.0000</r>
       <r>  -0.4187  1.0000</r>
       <r>  -0.4186  1.0000</r>
       <r>  -0.4180  1.0000</r>
       <r>  -0.4179  1.0000</r>
       <r>  -0.4150  1.0000</r>
       <r>   0.9716  1.0000</r>
       <r>   0.9738  1.0000</r>
       <r>   0.9745  1.0000</r>
       <r>   0.9748  1.0000</r>
       <r>   0.9754  1.0000</r>
       <r>   0.9758  1.0000</r>
       <r>   0.9781  1.0000</r>
       <r>   2.3534  1.0000</r>
       <r>   2.3551  1.0000</r>
       <r>   2.3558  1.0000</r>
       <r>   2.3566  1.0000</r>
       <r>   2.3570  1.0000</r>
       <r>   2.3584  1.0000</r>
       <r>   3.6643  1.0000</r>
       <r>   3.6650  1.0000</r>
       <r>   3.6657  1.0000</r>
       <r>   3.7256  1.0000</r>
       <r>   3.7263  1.0000</r>
       <r>   3.7271  1.0000</r>
       <r>   5.0111  1.0000</r>
       <r>   5.0125  1.0000</r>
       <r>   5.0137  1.0000</r>
       <r>   5.0137  1.0000</r>
       <r>   5.0150  1.0000</r>
       <r>   5.0164  1.0000</r>
       <r>   5.0855  1.0000</r>
       <r>   6.3536  1.0000</r>
       <r>   6.3536  1.0000</r>
       <r>   6.3553  1.0000</r>
       <r>   6.3555  1.0000</r>
       <r>   6.3562  1.0000</r>
       <r>   6.3566  1.0000</r>
       <r>   6.3571  1.0000</r>
       <r>   6.3586  1.0000</r>
       <r>   6.3600  1.0000</r>
       <r>   6.6174  1.0000</r>
       <r>   6.6181  1.0000</r>
       <r>   6.6188  1.0000</r>
       <r>   7.6907  0.0000</r>
       <r>   7.6915  0.0000</r>
       <r>   7.6926  0.0000</r>
       <r>   7.6926  0.0000</r>
       <r>   7.6936  0.0000</r>
       <r>   7.6944  0.0000</r>
       <r>   7.9705  0.0000</r>
       <r>   7.9709  0.0000</r>
       <r>   7.9721  0.0000</r>
       <r>   7.9721  0.0000</r>
       <r>   7.9732  0.0000</r>
       <r>   7.9736  0.0000</r>
       <r>   9.0198  0.0000</r>
       <r>   9.0206  0.0000</r>
       <r>   9.0214  0.0000</r>
       <r>   9.3165  0.0000</r>
       <r>   9.3170  0.0000</r>
       <r>   9.3179  0.0000</r>
       <r>   9.3221  0.0000</r>
       <r>   9.3237  0.0000</r>
       <r>   9.3243  0.0000</r>
       <r>   9.3243  0.0000</r>
       <r>   9.3252  0.0000</r>
       <r>   9.3267  0.0000</r>
      </set>
      <set comment="kpoint 19">
       <r>  -3.0648  1.0000</r>
       <r>  -2.3545  1.0000</r>
       <r>  -1.6476  1.0000</r>
       <r>  -1.6476  1.0000</r>
       <r>  -0.9439  1.0000</r>
       <r>  -0.9439  1.0000</r>
       <r>  -0.2437  1.0000</r>
       <r>  -0.2437  1.0000</r>
       <r>  -0.2433  1.0000</r>
       <r>   0.4511  1.0000</r>
       <r>   0.4537  1.0000</r>
       <r>   0.4540  1.0000</r>
       <r>   0.4553  1.0000</r>
       <r>   1.1481  1.0000</r>
       <r>   1.1481  1.0000</r>
       <r>   1.8371  1.0000</r>
       <r>   1.8378  1.0000</r>
       <r>   1.8400  1.0000</r>
       <r>   1.8407  1.0000</r>
       <r>   2.5117  1.0000</r>
       <r>   2.5276  1.0000</r>
       <r>   3.2093  1.0000</r>
       <r>   3.2114  1.0000</r>
       <r>   3.2117  1.0000</r>
       <r>   3.2165  1.0000</r>
       <r>   3.8340  1.0000</r>
       <r>   3.8341  1.0000</r>
       <r>   3.8771  1.0000</r>
       <r>   3.8771  1.0000</r>
       <r>   4.5091  1.0000</r>
       <r>   4.5091  1.0000</r>
       <r>   4.5755  1.0000</r>
       <r>   4.5755  1.0000</r>
       <r>   5.1644  1.0000</r>
       <r>   5.1644  1.0000</r>
       <r>   5.2340  1.0000</r>
       <r>   5.2505  1.0000</r>
       <r>   5.2506  1.0000</r>
       <r>   5.8553  1.0000</r>
       <r>   5.8553  1.0000</r>
       <r>   5.9282  1.0000</r>
       <r>   6.5237  1.0000</r>
       <r>   6.5237  1.0000</r>
       <r>   6.5798  1.0000</r>
       <r>   6.5799  1.0000</r>
       <r>   6.7879  1.0000</r>
       <r>   6.7879  1.0000</r>
       <r>   7.1743  0.0421</r>
       <r>   7.1744  0.0408</r>
       <r>   7.1925  0.0000</r>
       <r>   7.1926  0.0000</r>
       <r>   7.4854  0.0000</r>
       <r>   7.4855  0.0000</r>
       <r>   7.9169  0.0000</r>
       <r>   8.0829  0.0000</r>
       <r>   8.1455  0.0000</r>
       <r>   8.1455  0.0000</r>
       <r>   8.5220  0.0000</r>
       <r>   8.5220  0.0000</r>
       <r>   8.8178  0.0000</r>
       <r>   8.8178  0.0000</r>
       <r>   9.1704  0.0000</r>
       <r>   9.1704  0.0000</r>
       <r>   9.3364  0.0000</r>
       <r>   9.3365  0.0000</r>
       <r>   9.5684  0.0000</r>
       <r>   9.5684  0.0000</r>
       <r>   9.8454  0.0000</r>
       <r>   9.8454  0.0000</r>
       <r>  10.1311  0.0000</r>
       <r>  10.1319  0.0000</r>
       <r>  10.1362  0.0000</r>
      </set>
      <set comment="kpoint 20">
       <r>  -2.7698  1.0000</r>
       <r>  -2.7671  1.0000</r>
       <r>  -1.3563  1.0000</r>
       <r>  -1.3544  1.0000</r>
       <r>  -1.3536  1.0000</r>
       <r>  -1.3517  1.0000</r>
       <r>   0.0447  1.0000</r>
       <r>   0.0465  1.0000</r>
       <r>   0.0469  1.0000</r>
       <r>   0.0477  1.0000</r>
       <r>   0.0486  1.0000</r>
       <r>   0.0500  1.0000</r>
       <r>   1.4302  1.0000</r>
       <r>   1.4321  1.0000</r>
       <r>   1.4354  1.0000</r>
       <r>   1.4358  1.0000</r>
       <r>   1.4378  1.0000</r>
       <r>   1.4388  1.0000</r>
       <r>   2.8071  1.0000</r>
       <r>   2.8078  1.0000</r>
       <r>   2.8087  1.0000</r>
       <r>   2.8091  1.0000</r>
       <r>   2.8125  1.0000</r>
       <r>   2.8152  1.0000</r>
       <r>   4.1140  1.0000</r>
       <r>   4.1143  1.0000</r>
       <r>   4.1169  1.0000</r>
       <r>   4.1171  1.0000</r>
       <r>   4.1714  1.0000</r>
       <r>   4.1720  1.0000</r>
       <r>   4.1729  1.0000</r>
       <r>   4.1734  1.0000</r>
       <r>   4.1740  1.0000</r>
       <r>   4.1754  1.0000</r>
       <r>   5.4618  1.0000</r>
       <r>   5.4636  1.0000</r>
       <r>   5.4646  1.0000</r>
       <r>   5.4664  1.0000</r>
       <r>   5.5285  1.0000</r>
       <r>   5.5292  1.0000</r>
       <r>   5.5299  1.0000</r>
       <r>   5.5307  1.0000</r>
       <r>   6.8009  1.0000</r>
       <r>   6.8015  1.0000</r>
       <r>   6.8038  1.0000</r>
       <r>   6.8044  1.0000</r>
       <r>   6.8741  1.0000</r>
       <r>   6.8757  1.0000</r>
       <r>   7.0669  1.0000</r>
       <r>   7.0674  1.0000</r>
       <r>   7.0696  1.0000</r>
       <r>   7.0702  1.0000</r>
       <r>   8.1347  0.0000</r>
       <r>   8.1352  0.0000</r>
       <r>   8.1365  0.0000</r>
       <r>   8.1370  0.0000</r>
       <r>   8.4250  0.0000</r>
       <r>   8.4257  0.0000</r>
       <r>   8.4278  0.0000</r>
       <r>   8.4284  0.0000</r>
       <r>   9.4544  0.0000</r>
       <r>   9.4552  0.0000</r>
       <r>   9.4562  0.0000</r>
       <r>   9.4570  0.0000</r>
       <r>   9.6797  0.0000</r>
       <r>   9.6812  0.0000</r>
       <r>   9.7435  0.0000</r>
       <r>   9.7455  0.0000</r>
       <r>   9.7463  0.0000</r>
       <r>   9.7483  0.0000</r>
       <r>  10.7245  0.0000</r>
       <r>  10.7474  0.0000</r>
      </set>
      <set comment="kpoint 21">
       <r>  -3.1241  1.0000</r>
       <r>  -2.4136  1.0000</r>
       <r>  -1.7064  1.0000</r>
       <r>  -1.0045  1.0000</r>
       <r>  -1.0024  1.0000</r>
       <r>  -1.0003  1.0000</r>
       <r>  -0.3038  1.0000</r>
       <r>  -0.3018  1.0000</r>
       <r>  -0.2996  1.0000</r>
       <r>   0.3934  1.0000</r>
       <r>   0.3952  1.0000</r>
       <r>   0.3958  1.0000</r>
       <r>   0.3981  1.0000</r>
       <r>   1.0892  1.0000</r>
       <r>   1.0924  1.0000</r>
       <r>   1.7800  1.0000</r>
       <r>   1.7809  1.0000</r>
       <r>   1.7837  1.0000</r>
       <r>   2.4546  1.0000</r>
       <r>   2.4675  1.0000</r>
       <r>   2.4695  1.0000</r>
       <r>   2.4707  1.0000</r>
       <r>   2.4727  1.0000</r>
       <r>   3.1543  1.0000</r>
       <r>   3.7777  1.0000</r>
       <r>   3.8204  1.0000</r>
       <r>   3.8372  1.0000</r>
       <r>   3.8404  1.0000</r>
       <r>   4.4530  1.0000</r>
       <r>   4.4972  1.0000</r>
       <r>   4.5005  1.0000</r>
       <r>   4.6922  1.0000</r>
       <r>   5.1740  1.0000</r>
       <r>   5.1953  1.0000</r>
       <r>   5.1986  1.0000</r>
       <r>   5.3517  1.0000</r>
       <r>   5.7977  1.0000</r>
       <r>   5.8012  1.0000</r>
       <r>   5.8262  1.0000</r>
       <r>   5.8505  1.0000</r>
       <r>   5.8539  1.0000</r>
       <r>   6.0118  1.0000</r>
       <r>   6.4674  1.0000</r>
       <r>   6.4709  1.0000</r>
       <r>   6.5126  1.0000</r>
       <r>   6.6721  1.0000</r>
       <r>   6.7315  1.0000</r>
       <r>   7.1466  0.9861</r>
       <r>   7.1923  0.0000</r>
       <r>   7.1957  0.0000</r>
       <r>   7.2165  0.0000</r>
       <r>   7.3335  0.0000</r>
       <r>   7.4058  0.0000</r>
       <r>   7.8993  0.0000</r>
       <r>   7.9943  0.0000</r>
       <r>   7.9953  0.0000</r>
       <r>   8.0274  0.0000</r>
       <r>   8.5493  0.0000</r>
       <r>   8.7514  0.0000</r>
       <r>   8.7543  0.0000</r>
       <r>   9.1149  0.0000</r>
       <r>   9.1280  0.0000</r>
       <r>   9.1315  0.0000</r>
       <r>   9.2359  0.0000</r>
       <r>   9.2385  0.0000</r>
       <r>   9.3168  0.0000</r>
       <r>   9.3912  0.0000</r>
       <r>   9.4244  0.0000</r>
       <r>   9.4274  0.0000</r>
       <r>   9.9822  0.0000</r>
       <r>  10.0380  0.0000</r>
       <r>  10.0411  0.0000</r>
      </set>
      <set comment="kpoint 22">
       <r>  -3.0648  1.0000</r>
       <r>  -2.3545  1.0000</r>
       <r>  -1.6487  1.0000</r>
       <r>  -1.6465  1.0000</r>
       <r>  -0.9450  1.0000</r>
       <r>  -0.9428  1.0000</r>
       <r>  -0.2453  1.0000</r>
       <r>  -0.2435  1.0000</r>
       <r>  -0.2418  1.0000</r>
       <r>   0.4518  1.0000</r>
       <r>   0.4529  1.0000</r>
       <r>   0.4539  1.0000</r>
       <r>   0.4557  1.0000</r>
       <r>   1.1476  1.0000</r>
       <r>   1.1487  1.0000</r>
       <r>   1.8370  1.0000</r>
       <r>   1.8389  1.0000</r>
       <r>   1.8394  1.0000</r>
       <r>   1.8404  1.0000</r>
       <r>   2.5118  1.0000</r>
       <r>   2.5275  1.0000</r>
       <r>   3.2091  1.0000</r>
       <r>   3.2108  1.0000</r>
       <r>   3.2127  1.0000</r>
       <r>   3.2163  1.0000</r>
       <r>   3.8336  1.0000</r>
       <r>   3.8346  1.0000</r>
       <r>   3.8760  1.0000</r>
       <r>   3.8782  1.0000</r>
       <r>   4.5086  1.0000</r>
       <r>   4.5096  1.0000</r>
       <r>   4.5749  1.0000</r>
       <r>   4.5760  1.0000</r>
       <r>   5.1633  1.0000</r>
       <r>   5.1655  1.0000</r>
       <r>   5.2339  1.0000</r>
       <r>   5.2494  1.0000</r>
       <r>   5.2517  1.0000</r>
       <r>   5.8542  1.0000</r>
       <r>   5.8564  1.0000</r>
       <r>   5.9282  1.0000</r>
       <r>   6.5232  1.0000</r>
       <r>   6.5243  1.0000</r>
       <r>   6.5792  1.0000</r>
       <r>   6.5804  1.0000</r>
       <r>   6.7874  1.0000</r>
       <r>   6.7884  1.0000</r>
       <r>   7.1738  0.0495</r>
       <r>   7.1751  0.0329</r>
       <r>   7.1919  0.0000</r>
       <r>   7.1930  0.0000</r>
       <r>   7.4851  0.0000</r>
       <r>   7.4858  0.0000</r>
       <r>   7.9169  0.0000</r>
       <r>   8.0829  0.0000</r>
       <r>   8.1450  0.0000</r>
       <r>   8.1460  0.0000</r>
       <r>   8.5208  0.0000</r>
       <r>   8.5231  0.0000</r>
       <r>   8.8173  0.0000</r>
       <r>   8.8183  0.0000</r>
       <r>   9.1699  0.0000</r>
       <r>   9.1709  0.0000</r>
       <r>   9.3353  0.0000</r>
       <r>   9.3377  0.0000</r>
       <r>   9.5675  0.0000</r>
       <r>   9.5693  0.0000</r>
       <r>   9.8449  0.0000</r>
       <r>   9.8460  0.0000</r>
       <r>  10.1312  0.0000</r>
       <r>  10.1343  0.0000</r>
       <r>  10.1369  0.0000</r>
      </set>
      <set comment="kpoint 23">
       <r>  -2.8869  1.0000</r>
       <r>  -2.1786  1.0000</r>
       <r>  -2.1764  1.0000</r>
       <r>  -1.4723  1.0000</r>
       <r>  -1.4704  1.0000</r>
       <r>  -0.7696  1.0000</r>
       <r>  -0.7674  1.0000</r>
       <r>  -0.0694  1.0000</r>
       <r>  -0.0684  1.0000</r>
       <r>   0.6245  1.0000</r>
       <r>   0.6267  1.0000</r>
       <r>   0.6273  1.0000</r>
       <r>   0.6295  1.0000</r>
       <r>   1.3190  1.0000</r>
       <r>   1.3201  1.0000</r>
       <r>   1.3220  1.0000</r>
       <r>   2.0094  1.0000</r>
       <r>   2.0116  1.0000</r>
       <r>   2.6824  1.0000</r>
       <r>   2.6835  1.0000</r>
       <r>   2.6980  1.0000</r>
       <r>   2.6990  1.0000</r>
       <r>   3.3653  1.0000</r>
       <r>   3.3675  1.0000</r>
       <r>   3.3813  1.0000</r>
       <r>   3.3835  1.0000</r>
       <r>   4.0030  1.0000</r>
       <r>   4.0464  1.0000</r>
       <r>   4.0474  1.0000</r>
       <r>   4.0617  1.0000</r>
       <r>   4.0650  1.0000</r>
       <r>   4.0661  1.0000</r>
       <r>   4.6762  1.0000</r>
       <r>   4.6784  1.0000</r>
       <r>   4.7257  1.0000</r>
       <r>   4.7279  1.0000</r>
       <r>   5.3522  1.0000</r>
       <r>   5.4014  1.0000</r>
       <r>   5.4025  1.0000</r>
       <r>   5.4204  1.0000</r>
       <r>   6.0709  1.0000</r>
       <r>   6.0720  1.0000</r>
       <r>   6.0749  1.0000</r>
       <r>   6.0770  1.0000</r>
       <r>   6.7669  1.0000</r>
       <r>   6.9554  1.0000</r>
       <r>   7.3543  0.0000</r>
       <r>   7.3566  0.0000</r>
       <r>   7.4143  0.0000</r>
       <r>   7.4153  0.0000</r>
       <r>   7.6423  0.0000</r>
       <r>   7.6443  0.0000</r>
       <r>   8.0226  0.0000</r>
       <r>   8.0240  0.0000</r>
       <r>   8.0671  0.0000</r>
       <r>   8.2478  0.0000</r>
       <r>   8.2489  0.0000</r>
       <r>   8.3161  0.0000</r>
       <r>   8.7458  0.0000</r>
       <r>   8.7468  0.0000</r>
       <r>   8.9193  0.0000</r>
       <r>   8.9204  0.0000</r>
       <r>   9.3372  0.0000</r>
       <r>   9.3384  0.0000</r>
       <r>   9.3873  0.0000</r>
       <r>   9.5834  0.0000</r>
       <r>   9.5844  0.0000</r>
       <r>   9.9904  0.0000</r>
       <r>   9.9928  0.0000</r>
       <r>  10.2497  0.0000</r>
       <r>  10.2529  0.0000</r>
       <r>  10.2990  0.0000</r>
      </set>
      <set comment="kpoint 24">
       <r>  -2.5923  1.0000</r>
       <r>  -2.5896  1.0000</r>
       <r>  -1.8843  1.0000</r>
       <r>  -1.8816  1.0000</r>
       <r>  -1.1795  1.0000</r>
       <r>  -1.1768  1.0000</r>
       <r>  -0.4779  1.0000</r>
       <r>  -0.4752  1.0000</r>
       <r>   0.2202  1.0000</r>
       <r>   0.2229  1.0000</r>
       <r>   0.9142  1.0000</r>
       <r>   0.9157  1.0000</r>
       <r>   0.9170  1.0000</r>
       <r>   0.9185  1.0000</r>
       <r>   1.6038  1.0000</r>
       <r>   1.6052  1.0000</r>
[...]
       <r>   6.2824  1.0000</r>
       <r>   6.9755  1.0000</r>
       <r>   6.9756  1.0000</r>
       <r>   6.9832  1.0000</r>
       <r>   6.9835  1.0000</r>
       <r>   6.9864  1.0000</r>
       <r>   6.9870  1.0000</r>
       <r>   6.9899  1.0000</r>
       <r>   6.9902  1.0000</r>
       <r>   8.4356  0.0000</r>
       <r>   8.4359  0.0000</r>
       <r>   8.4704  0.0000</r>
       <r>   8.4706  0.0000</r>
       <r>   8.9603  0.0000</r>
       <r>   8.9605  0.0000</r>
       <r>   8.9637  0.0000</r>
       <r>   8.9640  0.0000</r>
       <r>   9.0985  0.0000</r>
       <r>   9.0985  0.0000</r>
       <r>   9.6500  0.0000</r>
       <r>   9.6500  0.0000</r>
       <r>   9.7589  0.0000</r>
       <r>   9.7590  0.0000</r>
       <r>   9.7898  0.0000</r>
       <r>   9.7899  0.0000</r>
       <r>  10.3033  0.0000</r>
       <r>  10.3045  0.0000</r>
       <r>  10.4268  0.0000</r>
       <r>  10.4429  0.0000</r>
      </set>
      <set comment="kpoint 34">
       <r>  -2.5910  1.0000</r>
       <r>  -2.5909  1.0000</r>
       <r>  -1.8829  1.0000</r>
       <r>  -1.8829  1.0000</r>
       <r>  -1.1781  1.0000</r>
       <r>  -1.1781  1.0000</r>
       <r>  -0.4766  1.0000</r>
       <r>  -0.4766  1.0000</r>
       <r>   0.2216  1.0000</r>
       <r>   0.2216  1.0000</r>
       <r>   0.9152  1.0000</r>
       <r>   0.9157  1.0000</r>
       <r>   0.9170  1.0000</r>
       <r>   0.9175  1.0000</r>
       <r>   1.6045  1.0000</r>
       <r>   1.6045  1.0000</r>
       <r>   2.2933  1.0000</r>
       <r>   2.2934  1.0000</r>
       <r>   2.2975  1.0000</r>
       <r>   2.2976  1.0000</r>
       <r>   2.9680  1.0000</r>
       <r>   2.9681  1.0000</r>
       <r>   2.9796  1.0000</r>
       <r>   2.9796  1.0000</r>
       <r>   3.6512  1.0000</r>
       <r>   3.6512  1.0000</r>
       <r>   3.6798  1.0000</r>
       <r>   3.6798  1.0000</r>
       <r>   4.2843  1.0000</r>
       <r>   4.2844  1.0000</r>
       <r>   4.3090  1.0000</r>
       <r>   4.3090  1.0000</r>
       <r>   4.3652  1.0000</r>
       <r>   4.3652  1.0000</r>
       <r>   4.9438  1.0000</r>
       <r>   4.9439  1.0000</r>
       <r>   5.0222  1.0000</r>
       <r>   5.0222  1.0000</r>
       <r>   5.0342  1.0000</r>
       <r>   5.0342  1.0000</r>
       <r>   5.6828  1.0000</r>
       <r>   5.6828  1.0000</r>
       <r>   6.3698  1.0000</r>
       <r>   6.3698  1.0000</r>
       <r>   6.9949  1.0000</r>
       <r>   6.9949  1.0000</r>
       <r>   7.2698  0.0000</r>
       <r>   7.2699  0.0000</r>
       <r>   7.6345  0.0000</r>
       <r>   7.6345  0.0000</r>
       <r>   7.7092  0.0000</r>
       <r>   7.7092  0.0000</r>
       <r>   7.9238  0.0000</r>
       <r>   7.9238  0.0000</r>
       <r>   8.2777  0.0000</r>
       <r>   8.2777  0.0000</r>
       <r>   8.3533  0.0000</r>
       <r>   8.3533  0.0000</r>
       <r>   8.5503  0.0000</r>
       <r>   8.5503  0.0000</r>
       <r>   8.9588  0.0000</r>
       <r>   8.9588  0.0000</r>
       <r>   9.5928  0.0000</r>
       <r>   9.5928  0.0000</r>
       <r>   9.6785  0.0000</r>
       <r>   9.6785  0.0000</r>
       <r>   9.8639  0.0000</r>
       <r>   9.8640  0.0000</r>
       <r>   9.8650  0.0000</r>
       <r>   9.8651  0.0000</r>
       <r>  10.4353  0.0000</r>
       <r>  10.4353  0.0000</r>
      </set>
      <set comment="kpoint 35">
       <r>  -2.4137  1.0000</r>
       <r>  -2.4137  1.0000</r>
       <r>  -1.7085  1.0000</r>
       <r>  -1.7066  1.0000</r>
       <r>  -1.7063  1.0000</r>
       <r>  -1.7044  1.0000</r>
       <r>  -1.0025  1.0000</r>
       <r>  -1.0025  1.0000</r>
       <r>   1.0870  1.0000</r>
       <r>   1.0890  1.0000</r>
       <r>   1.0892  1.0000</r>
       <r>   1.0911  1.0000</r>
       <r>   1.7761  1.0000</r>
       <r>   1.7768  1.0000</r>
       <r>   1.7802  1.0000</r>
       <r>   1.7806  1.0000</r>
       <r>   1.7809  1.0000</r>
       <r>   1.7821  1.0000</r>
       <r>   2.4641  1.0000</r>
       <r>   2.4642  1.0000</r>
       <r>   2.4663  1.0000</r>
       <r>   2.4664  1.0000</r>
       <r>   3.1379  1.0000</r>
       <r>   3.1387  1.0000</r>
       <r>   3.1390  1.0000</r>
       <r>   3.1396  1.0000</r>
       <r>   3.1508  1.0000</r>
       <r>   3.1511  1.0000</r>
       <r>   3.8184  1.0000</r>
       <r>   3.8203  1.0000</r>
       <r>   3.8206  1.0000</r>
       <r>   3.8225  1.0000</r>
       <r>   4.5168  1.0000</r>
       <r>   4.5168  1.0000</r>
       <r>   5.1882  1.0000</r>
       <r>   5.1883  1.0000</r>
       <r>   5.1905  1.0000</r>
       <r>   5.1905  1.0000</r>
       <r>   5.8637  1.0000</r>
       <r>   5.8645  1.0000</r>
       <r>   5.8648  1.0000</r>
       <r>   5.8656  1.0000</r>
       <r>   6.5202  1.0000</r>
       <r>   6.5212  1.0000</r>
       <r>   6.5212  1.0000</r>
       <r>   6.5222  1.0000</r>
       <r>   7.1822  0.0022</r>
       <r>   7.1830  0.0016</r>
       <r>   7.1834  0.0013</r>
       <r>   7.1841  0.0009</r>
       <r>   7.8523  0.0000</r>
       <r>   7.8524  0.0000</r>
       <r>   7.8546  0.0000</r>
       <r>   7.8547  0.0000</r>
       <r>   8.5008  0.0000</r>
       <r>   8.5008  0.0000</r>
       <r>   8.5397  0.0000</r>
       <r>   8.5397  0.0000</r>
       <r>   8.7036  0.0000</r>
       <r>   8.7042  0.0000</r>
       <r>   8.7046  0.0000</r>
       <r>   8.7052  0.0000</r>
       <r>   9.3680  0.0000</r>
       <r>   9.3690  0.0000</r>
       <r>   9.3691  0.0000</r>
       <r>   9.3701  0.0000</r>
       <r>  10.0191  0.0000</r>
       <r>  10.0191  0.0000</r>
       <r>  10.4991  0.0000</r>
       <r>  10.5001  0.0000</r>
       <r>  10.5001  0.0000</r>
       <r>  10.5011  0.0000</r>
      </set>
      <set comment="kpoint 36">
       <r>  -2.1210  1.0000</r>
       <r>  -2.1189  1.0000</r>
       <r>  -2.1183  1.0000</r>
       <r>  -2.1162  1.0000</r>
       <r>  -1.4152  1.0000</r>
       <r>  -1.4130  1.0000</r>
       <r>  -1.4125  1.0000</r>
       <r>  -1.4103  1.0000</r>
       <r>   1.3751  1.0000</r>
       <r>   1.3773  1.0000</r>
       <r>   1.3779  1.0000</r>
       <r>   1.3800  1.0000</r>
       <r>   2.0602  1.0000</r>
       <r>   2.0622  1.0000</r>
       <r>   2.0638  1.0000</r>
       <r>   2.0640  1.0000</r>
       <r>   2.0641  1.0000</r>
       <r>   2.0644  1.0000</r>
       <r>   2.0660  1.0000</r>
       <r>   2.0679  1.0000</r>
       <r>   2.7474  1.0000</r>
       <r>   2.7493  1.0000</r>
       <r>   2.7509  1.0000</r>
       <r>   2.7511  1.0000</r>
       <r>   2.7513  1.0000</r>
       <r>   2.7515  1.0000</r>
       <r>   2.7531  1.0000</r>
       <r>   2.7551  1.0000</r>
       <r>   3.4208  1.0000</r>
       <r>   3.4230  1.0000</r>
       <r>   3.4235  1.0000</r>
       <r>   3.4257  1.0000</r>
       <r>   5.4669  1.0000</r>
       <r>   5.4689  1.0000</r>
       <r>   5.4706  1.0000</r>
       <r>   5.4708  1.0000</r>
       <r>   5.4709  1.0000</r>
       <r>   5.4712  1.0000</r>
       <r>   5.4728  1.0000</r>
       <r>   5.4748  1.0000</r>
       <r>   6.1375  1.0000</r>
       <r>   6.1385  1.0000</r>
       <r>   6.1390  1.0000</r>
       <r>   6.1400  1.0000</r>
       <r>   6.8100  1.0000</r>
       <r>   6.8110  1.0000</r>
       <r>   6.8115  1.0000</r>
       <r>   6.8126  1.0000</r>
       <r>   7.4593  0.0000</r>
       <r>   7.4615  0.0000</r>
       <r>   7.4632  0.0000</r>
       <r>   7.4634  0.0000</r>
       <r>   7.4635  0.0000</r>
       <r>   7.4637  0.0000</r>
       <r>   7.4654  0.0000</r>
       <r>   7.4676  0.0000</r>
       <r>   8.9792  0.0000</r>
       <r>   8.9812  0.0000</r>
       <r>   8.9819  0.0000</r>
       <r>   8.9840  0.0000</r>
       <r>   9.4715  0.0000</r>
       <r>   9.4725  0.0000</r>
       <r>   9.4731  0.0000</r>
       <r>   9.4741  0.0000</r>
       <r>  10.2901  0.0000</r>
       <r>  10.2909  0.0000</r>
       <r>  10.2913  0.0000</r>
       <r>  10.2923  0.0000</r>
       <r>  10.2925  0.0000</r>
       <r>  10.2935  0.0000</r>
       <r>  10.2939  0.0000</r>
       <r>  10.2948  0.0000</r>
      </set>
      <set comment="kpoint 37">
       <r>  -2.3546  1.0000</r>
       <r>  -2.3546  1.0000</r>
       <r>  -2.3546  1.0000</r>
       <r>  -2.3546  1.0000</r>
       <r>  -0.2485  1.0000</r>
       <r>  -0.2440  1.0000</r>
       <r>  -0.2440  1.0000</r>
       <r>  -0.2436  1.0000</r>
       <r>  -0.2433  1.0000</r>
       <r>  -0.2428  1.0000</r>
       <r>  -0.2428  1.0000</r>
       <r>  -0.2384  1.0000</r>
       <r>   1.8344  1.0000</r>
       <r>   1.8344  1.0000</r>
       <r>   1.8344  1.0000</r>
       <r>   1.8344  1.0000</r>
       <r>   1.8344  1.0000</r>
       <r>   1.8344  1.0000</r>
       <r>   1.8344  1.0000</r>
       <r>   1.8344  1.0000</r>
       <r>   3.8699  1.0000</r>
       <r>   3.8699  1.0000</r>
       <r>   3.8710  1.0000</r>
       <r>   3.8714  1.0000</r>
       <r>   3.8715  1.0000</r>
       <r>   3.8715  1.0000</r>
       <r>   3.8728  1.0000</r>
       <r>   3.8728  1.0000</r>
       <r>   3.9083  1.0000</r>
       <r>   3.9083  1.0000</r>
       <r>   3.9096  1.0000</r>
       <r>   3.9097  1.0000</r>
       <r>   3.9097  1.0000</r>
       <r>   3.9101  1.0000</r>
       <r>   3.9112  1.0000</r>
       <r>   3.9112  1.0000</r>
       <r>   5.4066  1.0000</r>
       <r>   5.4066  1.0000</r>
       <r>   5.4066  1.0000</r>
       <r>   5.4067  1.0000</r>
       <r>   5.9049  1.0000</r>
       <r>   5.9049  1.0000</r>
       <r>   5.9049  1.0000</r>
       <r>   5.9049  1.0000</r>
       <r>   6.5949  1.0000</r>
       <r>   6.5949  1.0000</r>
       <r>   6.5949  1.0000</r>
       <r>   6.5949  1.0000</r>
       <r>   7.9240  0.0000</r>
       <r>   7.9240  0.0000</r>
       <r>   7.9246  0.0000</r>
       <r>   7.9253  0.0000</r>
       <r>   7.9270  0.0000</r>
       <r>   7.9277  0.0000</r>
       <r>   7.9283  0.0000</r>
       <r>   7.9283  0.0000</r>
       <r>   9.3737  0.0000</r>
       <r>   9.3737  0.0000</r>
       <r>   9.3737  0.0000</r>
       <r>   9.3738  0.0000</r>
       <r>   9.3738  0.0000</r>
       <r>   9.3738  0.0000</r>
       <r>   9.3738  0.0000</r>
       <r>   9.3738  0.0000</r>
       <r>  10.0461  0.0000</r>
       <r>  10.0461  0.0000</r>
       <r>  10.0461  0.0000</r>
       <r>  10.0462  0.0000</r>
       <r>  10.0462  0.0000</r>
       <r>  10.0462  0.0000</r>
       <r>  10.0462  0.0000</r>
       <r>  10.0462  0.0000</r>
      </set>
      <set comment="kpoint 38">
       <r>  -2.2956  1.0000</r>
       <r>  -2.2955  1.0000</r>
       <r>  -2.2955  1.0000</r>
       <r>  -2.2955  1.0000</r>
       <r>  -0.8855  1.0000</r>
       <r>  -0.8854  1.0000</r>
       <r>  -0.8854  1.0000</r>
       <r>  -0.8854  1.0000</r>
       <r>   0.5117  1.0000</r>
       <r>   0.5117  1.0000</r>
       <r>   0.5117  1.0000</r>
       <r>   0.5117  1.0000</r>
       <r>   1.8919  1.0000</r>
       <r>   1.8919  1.0000</r>
       <r>   1.8919  1.0000</r>
       <r>   1.8919  1.0000</r>
       <r>   1.8919  1.0000</r>
       <r>   1.8919  1.0000</r>
       <r>   1.8919  1.0000</r>
       <r>   1.8919  1.0000</r>
       <r>   3.2647  1.0000</r>
       <r>   3.2647  1.0000</r>
       <r>   3.2647  1.0000</r>
       <r>   3.2647  1.0000</r>
       <r>   3.2647  1.0000</r>
       <r>   3.2647  1.0000</r>
       <r>   3.2647  1.0000</r>
       <r>   3.2647  1.0000</r>
       <r>   4.5651  1.0000</r>
       <r>   4.5651  1.0000</r>
       <r>   4.5651  1.0000</r>
       <r>   4.5651  1.0000</r>
       <r>   4.6267  1.0000</r>
       <r>   4.6267  1.0000</r>
       <r>   4.6268  1.0000</r>
       <r>   4.6268  1.0000</r>
       <r>   4.6268  1.0000</r>
       <r>   4.6269  1.0000</r>
       <r>   4.6269  1.0000</r>
       <r>   4.6269  1.0000</r>
       <r>   5.9692  1.0000</r>
       <r>   5.9692  1.0000</r>
       <r>   5.9692  1.0000</r>
       <r>   5.9692  1.0000</r>
       <r>   7.3139  0.0000</r>
       <r>   7.3139  0.0000</r>
       <r>   7.3139  0.0000</r>
       <r>   7.3139  0.0000</r>
       <r>   7.5315  0.0000</r>
       <r>   7.5316  0.0000</r>
       <r>   7.5316  0.0000</r>
       <r>   7.5316  0.0000</r>
       <r>   8.5703  0.0000</r>
       <r>   8.5703  0.0000</r>
       <r>   8.5705  0.0000</r>
       <r>   8.5705  0.0000</r>
       <r>   8.5705  0.0000</r>
       <r>   8.5706  0.0000</r>
       <r>   8.5707  0.0000</r>
       <r>   8.5707  0.0000</r>
       <r>   8.6466  0.0000</r>
       <r>   8.6466  0.0000</r>
       <r>   8.6466  0.0000</r>
       <r>   8.6466  0.0000</r>
       <r>  10.1237  0.0000</r>
       <r>  10.1237  0.0000</r>
       <r>  10.1240  0.0000</r>
       <r>  10.1240  0.0000</r>
       <r>  10.1240  0.0000</r>
       <r>  10.1240  0.0000</r>
       <r>  10.1244  0.0000</r>
       <r>  10.1244  0.0000</r>
      </set>
      <set comment="kpoint 39">
       <r>  -2.1186  1.0000</r>
       <r>  -2.1186  1.0000</r>
       <r>  -2.1186  1.0000</r>
       <r>  -2.1186  1.0000</r>
       <r>  -1.4128  1.0000</r>
       <r>  -1.4128  1.0000</r>
       <r>  -1.4128  1.0000</r>
       <r>  -1.4127  1.0000</r>
       <r>   1.3776  1.0000</r>
       <r>   1.3776  1.0000</r>
       <r>   1.3776  1.0000</r>
       <r>   1.3776  1.0000</r>
       <r>   2.0641  1.0000</r>
       <r>   2.0641  1.0000</r>
       <r>   2.0641  1.0000</r>
       <r>   2.0641  1.0000</r>
       <r>   2.0641  1.0000</r>
       <r>   2.0641  1.0000</r>
       <r>   2.0641  1.0000</r>
       <r>   2.0641  1.0000</r>
       <r>   2.7512  1.0000</r>
       <r>   2.7512  1.0000</r>
       <r>   2.7512  1.0000</r>
       <r>   2.7512  1.0000</r>
       <r>   2.7512  1.0000</r>
       <r>   2.7512  1.0000</r>
       <r>   2.7512  1.0000</r>
       <r>   2.7512  1.0000</r>
       <r>   3.4232  1.0000</r>
       <r>   3.4232  1.0000</r>
       <r>   3.4232  1.0000</r>
       <r>   3.4233  1.0000</r>
       <r>   5.4708  1.0000</r>
       <r>   5.4708  1.0000</r>
       <r>   5.4709  1.0000</r>
       <r>   5.4709  1.0000</r>
       <r>   5.4709  1.0000</r>
       <r>   5.4709  1.0000</r>
       <r>   5.4710  1.0000</r>
       <r>   5.4710  1.0000</r>
       <r>   6.1387  1.0000</r>
       <r>   6.1387  1.0000</r>
       <r>   6.1387  1.0000</r>
       <r>   6.1387  1.0000</r>
       <r>   6.8113  1.0000</r>
       <r>   6.8113  1.0000</r>
       <r>   6.8113  1.0000</r>
       <r>   6.8113  1.0000</r>
       <r>   7.4634  0.0000</r>
       <r>   7.4634  0.0000</r>
       <r>   7.4635  0.0000</r>
       <r>   7.4635  0.0000</r>
       <r>   7.4635  0.0000</r>
       <r>   7.4635  0.0000</r>
       <r>   7.4636  0.0000</r>
       <r>   7.4636  0.0000</r>
       <r>   8.9816  0.0000</r>
       <r>   8.9816  0.0000</r>
       <r>   8.9816  0.0000</r>
       <r>   8.9816  0.0000</r>
       <r>   9.4728  0.0000</r>
       <r>   9.4728  0.0000</r>
       <r>   9.4728  0.0000</r>
       <r>   9.4728  0.0000</r>
       <r>  10.2922  0.0000</r>
       <r>  10.2922  0.0000</r>
       <r>  10.2924  0.0000</r>
       <r>  10.2924  0.0000</r>
       <r>  10.2924  0.0000</r>
       <r>  10.2924  0.0000</r>
       <r>  10.2926  0.0000</r>
       <r>  10.2926  0.0000</r>
      </set>
      <set comment="kpoint 40">
       <r>  -1.8286  1.0000</r>
       <r>  -1.8245  1.0000</r>
       <r>  -1.8245  1.0000</r>
       <r>  -1.8243  1.0000</r>
       <r>  -1.8240  1.0000</r>
       <r>  -1.8237  1.0000</r>
       <r>  -1.8237  1.0000</r>
       <r>  -1.8197  1.0000</r>
       <r>   2.3407  1.0000</r>
       <r>   2.3469  1.0000</r>
       <r>   2.3469  1.0000</r>
       <r>   2.3500  1.0000</r>
       <r>   2.3502  1.0000</r>
       <r>   2.3503  1.0000</r>
       <r>   2.3506  1.0000</r>
       <r>   2.3506  1.0000</r>
       <r>   2.3506  1.0000</r>
       <r>   2.3506  1.0000</r>
       <r>   2.3507  1.0000</r>
       <r>   2.3507  1.0000</r>
       <r>   2.3507  1.0000</r>
       <r>   2.3507  1.0000</r>
       <r>   2.3508  1.0000</r>
       <r>   2.3508  1.0000</r>
       <r>   2.3509  1.0000</r>
       <r>   2.3509  1.0000</r>
       <r>   2.3512  1.0000</r>
       <r>   2.3512  1.0000</r>
       <r>   2.3514  1.0000</r>
       <r>   2.3545  1.0000</r>
       <r>   2.3545  1.0000</r>
       <r>   2.3607  1.0000</r>
       <r>   6.4137  1.0000</r>
       <r>   6.4137  1.0000</r>
       <r>   6.4154  1.0000</r>
       <r>   6.4174  1.0000</r>
       <r>   6.4187  1.0000</r>
       <r>   6.4191  1.0000</r>
       <r>   6.4191  1.0000</r>
       <r>   6.4191  1.0000</r>
       <r>   6.4192  1.0000</r>
       <r>   6.4193  1.0000</r>
       <r>   6.4193  1.0000</r>
       <r>   6.4193  1.0000</r>
       <r>   6.4194  1.0000</r>
       <r>   6.4194  1.0000</r>
       <r>   6.4194  1.0000</r>
       <r>   6.4194  1.0000</r>
       <r>   6.4196  1.0000</r>
       <r>   6.4196  1.0000</r>
       <r>   6.4196  1.0000</r>
       <r>   6.4200  1.0000</r>
       <r>   6.4212  1.0000</r>
       <r>   6.4233  1.0000</r>
       <r>   6.4250  1.0000</r>
       <r>   6.4250  1.0000</r>
       <r>  10.3996  0.0000</r>
       <r>  10.3996  0.0000</r>
       <r>  10.3997  0.0000</r>
       <r>  10.4003  0.0000</r>
       <r>  10.4016  0.0000</r>
       <r>  10.4024  0.0000</r>
       <r>  10.4024  0.0000</r>
       <r>  10.4024  0.0000</r>
       <r>  10.5638  0.0000</r>
       <r>  10.5648  0.0000</r>
       <r>  10.5658  0.0000</r>
       <r>  10.5666  0.0000</r>
       <r>  10.5668  0.0000</r>
       <r>  10.5672  0.0000</r>
       <r>  10.5673  0.0000</r>
       <r>  10.5675  0.0000</r>
      </set>
     </set>
    </set>
   </array>
  </eigenvalues>
 </calculation>
 <structure name="finalpos" >
  <crystal>
   <varray name="basis" >
    <v>       8.31663179      0.00000000      0.00000000</v>
    <v>       0.00000000      8.31663179      0.00000000</v>
    <v>       0.00000000      0.00000000      8.31663179</v>
   </varray>
   <i name="volume">    575.23118522</i>
   <varray name="rec_basis" >
    <v>       0.12024099      0.00000000      0.00000000</v>
    <v>       0.00000000      0.12024099      0.00000000</v>
    <v>       0.00000000      0.00000000      0.12024099</v>
   </varray>
  </crystal>
  <varray name="positions" >
   <v>       0.25120241      0.25000000      0.00000000</v>
   <v>       0.75000000      0.25000000      0.00000000</v>
   <v>       0.25000000      0.75000000      0.00000000</v>
   <v>       0.75000000      0.75000000      0.00000000</v>
   <v>       0.25000000      0.25000000      0.50000000</v>
   <v>       0.75000000      0.25000000      0.50000000</v>
   <v>       0.25000000      0.75000000      0.50000000</v>
   <v>       0.75000000      0.75000000      0.50000000</v>
   <v>       0.25000000      0.00000000      0.25000000</v>
   <v>       0.75000000      0.00000000      0.25000000</v>
   <v>       0.25000000      0.50000000      0.25000000</v>
   <v>       0.75000000      0.50000000      0.25000000</v>
   <v>       0.25000000      0.00000000      0.75000000</v>
   <v>       0.75000000      0.00000000      0.75000000</v>
   <v>       0.25000000      0.50000000      0.75000000</v>
   <v>       0.75000000      0.50000000      0.75000000</v>
   <v>       0.00000000      0.25000000      0.25000000</v>
   <v>       0.50000000      0.25000000      0.25000000</v>
   <v>       0.00000000      0.75000000      0.25000000</v>
   <v>       0.50000000      0.75000000      0.25000000</v>
   <v>       0.00000000      0.25000000      0.75000000</v>
   <v>       0.50000000      0.25000000      0.75000000</v>
   <v>       0.00000000      0.75000000      0.75000000</v>
   <v>       0.50000000      0.75000000      0.75000000</v>
   <v>       0.00000000      0.00000000      0.00000000</v>
   <v>       0.50000000      0.00000000      0.00000000</v>
   <v>       0.00000000      0.50000000      0.00000000</v>
   <v>       0.50000000      0.50000000      0.00000000</v>
   <v>       0.00000000      0.00000000      0.50000000</v>
   <v>       0.50000000      0.00000000      0.50000000</v>
   <v>       0.00000000      0.50000000      0.50000000</v>
   <v>       0.50000000      0.50000000      0.50000000</v>
  </varray>
 </structure>
</modeling>
