  32  32   0   0
  0.1548436E+02  0.7913121E-09  0.7913121E-09  0.7913121E-09  0.5000000E-15
  1.000000000000000E-004
  CAR 
 unknown system                          
     13.27234976     -3.67200039  301      8.69796821      1.00000000
     -3.672  0.0000E+00  0.0000E+00
     -3.616  0.0000E+00  0.0000E+00
     -3.559  0.0000E+00  0.0000E+00
     -3.503  0.0000E+00  0.0000E+00
     -3.446  0.0000E+00  0.0000E+00
     -3.390  0.0000E+00  0.0000E+00
     -3.333  0.0000E+00  0.0000E+00
     -3.277  0.0000E+00  0.0000E+00
     -3.220  0.0000E+00  0.0000E+00
     -3.164  0.0000E+00  0.0000E+00
     -3.107  0.0000E+00  0.0000E+00
     -3.051  0.0000E+00  0.0000E+00
     -2.994  0.0000E+00  0.0000E+00
     -2.938  0.3806E-08  0.2149E-09
     -2.881  0.1192E+00  0.6735E-02
     -2.825  0.6685E+00  0.4449E-01
     -2.768  0.1040E+01  0.1032E+00
     -2.712  0.1661E+01  0.1970E+00
     -2.655  0.1648E+01  0.2901E+00
     -2.599  0.1807E+01  0.3922E+00
     -2.542  0.2208E+01  0.5169E+00
     -2.486  0.1394E+01  0.5957E+00
     -2.429  0.2654E+01  0.7456E+00
     -2.373  0.2175E+01  0.8684E+00
     -2.316  0.3092E+01  0.1043E+01
     -2.260  0.2468E+01  0.1182E+01
     -2.203  0.3472E+01  0.1378E+01
     -2.147  0.3004E+01  0.1548E+01
     -2.091  0.1848E+01  0.1653E+01
     -2.034  0.3829E+01  0.1869E+01
     -1.978  0.3616E+01  0.2073E+01
     -1.921  0.2944E+01  0.2239E+01
     -1.865  0.3459E+01  0.2435E+01
     -1.808  0.4219E+01  0.2673E+01
     -1.752  0.4060E+01  0.2902E+01
     -1.695  0.2784E+01  0.3060E+01
     -1.639  0.4799E+01  0.3331E+01
     -1.582  0.2526E+01  0.3473E+01
     -1.526  0.4658E+01  0.3736E+01
     -1.469  0.3811E+01  0.3952E+01
     -1.413  0.6434E+01  0.4315E+01
     -1.356  0.3150E+01  0.4493E+01
     -1.300  0.3107E+01  0.4668E+01
     -1.243  0.6230E+01  0.5020E+01
     -1.187  0.3745E+01  0.5232E+01
     -1.130  0.4540E+01  0.5488E+01
     -1.074  0.4210E+01  0.5726E+01
     -1.017  0.5089E+01  0.6014E+01
     -0.961  0.5205E+01  0.6308E+01
     -0.904  0.5007E+01  0.6590E+01
     -0.848  0.5685E+01  0.6911E+01
     -0.791  0.4338E+01  0.7156E+01
     -0.735  0.5142E+01  0.7447E+01
     -0.678  0.5035E+01  0.7731E+01
     -0.622  0.5749E+01  0.8056E+01
     -0.566  0.3447E+01  0.8251E+01
     -0.509  0.7066E+01  0.8650E+01
     -0.453  0.6666E+01  0.9026E+01
     -0.396  0.5842E+01  0.9356E+01
     -0.340  0.4472E+01  0.9609E+01
     -0.283  0.4657E+01  0.9872E+01
     -0.227  0.6395E+01  0.1023E+02
     -0.170  0.4840E+01  0.1051E+02
     -0.114  0.7274E+01  0.1092E+02
     -0.057  0.6940E+01  0.1131E+02
     -0.001  0.3946E+01  0.1153E+02
      0.056  0.7912E+01  0.1198E+02
      0.112  0.6482E+01  0.1235E+02
      0.169  0.6175E+01  0.1269E+02
      0.225  0.2518E+01  0.1284E+02
      0.282  0.8532E+01  0.1332E+02
      0.338  0.5670E+01  0.1364E+02
      0.395  0.7169E+01  0.1404E+02
      0.451  0.8080E+01  0.1450E+02
      0.508  0.7280E+01  0.1491E+02
      0.564  0.5796E+01  0.1524E+02
      0.621  0.4760E+01  0.1551E+02
      0.677  0.6532E+01  0.1588E+02
      0.734  0.6150E+01  0.1622E+02
      0.790  0.7715E+01  0.1666E+02
      0.846  0.7853E+01  0.1710E+02
      0.903  0.8492E+01  0.1758E+02
      0.959  0.6542E+01  0.1795E+02
      1.016  0.5168E+01  0.1824E+02
      1.072  0.8538E+01  0.1873E+02
      1.129  0.6607E+01  0.1910E+02
      1.185  0.7191E+01  0.1951E+02
      1.242  0.5088E+01  0.1979E+02
      1.298  0.8516E+01  0.2027E+02
      1.355  0.7124E+01  0.2068E+02
      1.411  0.9044E+01  0.2119E+02
      1.468  0.1000E+02  0.2175E+02
      1.524  0.5446E+01  0.2206E+02
      1.581  0.7754E+01  0.2250E+02
      1.637  0.7485E+01  0.2292E+02
      1.694  0.6008E+01  0.2326E+02
      1.750  0.5982E+01  0.2360E+02
      1.807  0.9459E+01  0.2413E+02
      1.863  0.8775E+01  0.2463E+02
      1.920  0.1014E+02  0.2520E+02
      1.976  0.6997E+01  0.2560E+02
      2.033  0.8779E+01  0.2609E+02
      2.089  0.7979E+01  0.2654E+02
      2.146  0.4939E+01  0.2682E+02
      2.202  0.1003E+02  0.2739E+02
      2.259  0.5686E+01  0.2771E+02
      2.315  0.9357E+01  0.2824E+02
      2.371  0.9699E+01  0.2878E+02
      2.428  0.9733E+01  0.2933E+02
      2.484  0.6821E+01  0.2972E+02
      2.541  0.7210E+01  0.3013E+02
      2.597  0.1354E+02  0.3089E+02
      2.654  0.6470E+01  0.3126E+02
      2.710  0.7870E+01  0.3170E+02
      2.767  0.7609E+01  0.3213E+02
      2.823  0.1054E+02  0.3273E+02
      2.880  0.5306E+01  0.3303E+02
      2.936  0.1011E+02  0.3360E+02
      2.993  0.8108E+01  0.3406E+02
      3.049  0.1170E+02  0.3472E+02
      3.106  0.1119E+02  0.3535E+02
      3.162  0.9701E+01  0.3590E+02
      3.219  0.7861E+01  0.3634E+02
      3.275  0.5077E+01  0.3663E+02
      3.332  0.1157E+02  0.3728E+02
      3.388  0.7879E+01  0.3773E+02
      3.445  0.9906E+01  0.3828E+02
      3.501  0.7098E+01  0.3869E+02
      3.558  0.1152E+02  0.3934E+02
      3.614  0.1040E+02  0.3992E+02
      3.671  0.1060E+02  0.4052E+02
      3.727  0.1034E+02  0.4111E+02
      3.784  0.7573E+01  0.4153E+02
      3.840  0.9121E+01  0.4205E+02
      3.896  0.1327E+02  0.4280E+02
      3.953  0.9712E+01  0.4335E+02
      4.009  0.6472E+01  0.4371E+02
      4.066  0.1218E+02  0.4440E+02
      4.122  0.8771E+01  0.4490E+02
      4.179  0.8256E+01  0.4536E+02
      4.235  0.9516E+01  0.4590E+02
      4.292  0.1244E+02  0.4660E+02
      4.348  0.8879E+01  0.4710E+02
      4.405  0.9297E+01  0.4763E+02
      4.461  0.1207E+02  0.4831E+02
      4.518  0.9137E+01  0.4883E+02
      4.574  0.1016E+02  0.4940E+02
      4.631  0.1085E+02  0.5001E+02
      4.687  0.8514E+01  0.5049E+02
      4.744  0.7917E+01  0.5094E+02
      4.800  0.1186E+02  0.5161E+02
      4.857  0.1038E+02  0.5220E+02
      4.913  0.1369E+02  0.5297E+02
      4.970  0.1006E+02  0.5354E+02
      5.026  0.1215E+02  0.5423E+02
      5.083  0.6474E+01  0.5459E+02
      5.139  0.1389E+02  0.5538E+02
      5.196  0.8091E+01  0.5583E+02
      5.252  0.1010E+02  0.5640E+02
      5.309  0.9497E+01  0.5694E+02
      5.365  0.1529E+02  0.5780E+02
      5.421  0.1314E+02  0.5855E+02
      5.478  0.1034E+02  0.5913E+02
      5.534  0.9318E+01  0.5966E+02
      5.591  0.1148E+02  0.6031E+02
      5.647  0.1033E+02  0.6089E+02
      5.704  0.1116E+02  0.6152E+02
      5.760  0.1697E+02  0.6248E+02
      5.817  0.1281E+02  0.6320E+02
      5.873  0.1289E+02  0.6393E+02
      5.930  0.7594E+01  0.6436E+02
      5.986  0.1188E+02  0.6503E+02
      6.043  0.7997E+01  0.6548E+02
      6.099  0.1563E+02  0.6636E+02
      6.156  0.1166E+02  0.6702E+02
      6.212  0.1004E+02  0.6759E+02
      6.269  0.1127E+02  0.6823E+02
      6.325  0.1151E+02  0.6888E+02
      6.382  0.1232E+02  0.6957E+02
      6.438  0.9822E+01  0.7013E+02
      6.495  0.7951E+01  0.7057E+02
      6.551  0.1340E+02  0.7133E+02
      6.608  0.1384E+02  0.7211E+02
      6.664  0.9157E+01  0.7263E+02
      6.721  0.1232E+02  0.7333E+02
      6.777  0.6860E+01  0.7371E+02
      6.833  0.9463E+01  0.7425E+02
      6.890  0.1263E+02  0.7496E+02
      6.946  0.1384E+02  0.7574E+02
      7.003  0.8357E+01  0.7622E+02
      7.059  0.9862E+01  0.7677E+02
      7.116  0.1496E+02  0.7762E+02
      7.172  0.8322E+01  0.7809E+02
      7.229  0.1067E+02  0.7869E+02
      7.285  0.1140E+02  0.7933E+02
      7.342  0.9844E+01  0.7989E+02
      7.398  0.1592E+02  0.8079E+02
      7.455  0.6955E+01  0.8118E+02
      7.511  0.1308E+02  0.8192E+02
      7.568  0.1557E+02  0.8280E+02
      7.624  0.1196E+02  0.8348E+02
      7.681  0.9679E+01  0.8402E+02
      7.737  0.1321E+02  0.8477E+02
      7.794  0.1160E+02  0.8542E+02
      7.850  0.1320E+02  0.8617E+02
      7.907  0.1337E+02  0.8692E+02
      7.963  0.1183E+02  0.8759E+02
      8.020  0.1208E+02  0.8827E+02
      8.076  0.1043E+02  0.8886E+02
      8.133  0.1459E+02  0.8969E+02
      8.189  0.1078E+02  0.9030E+02
      8.246  0.9221E+01  0.9082E+02
      8.302  0.1027E+02  0.9140E+02
      8.358  0.1321E+02  0.9214E+02
      8.415  0.1121E+02  0.9278E+02
      8.471  0.1149E+02  0.9343E+02
      8.528  0.9980E+01  0.9399E+02
      8.584  0.1176E+02  0.9465E+02
      8.641  0.1185E+02  0.9532E+02
      8.697  0.1184E+02  0.9599E+02
      8.754  0.1372E+02  0.9677E+02
      8.810  0.1048E+02  0.9736E+02
      8.867  0.1436E+02  0.9817E+02
      8.923  0.1549E+02  0.9904E+02
      8.980  0.1062E+02  0.9964E+02
      9.036  0.1415E+02  0.1004E+03
      9.093  0.1073E+02  0.1010E+03
      9.149  0.1220E+02  0.1017E+03
      9.206  0.1485E+02  0.1026E+03
      9.262  0.1676E+02  0.1035E+03
      9.319  0.1608E+02  0.1044E+03
      9.375  0.9703E+01  0.1050E+03
      9.432  0.1324E+02  0.1057E+03
      9.488  0.1118E+02  0.1064E+03
      9.545  0.9873E+01  0.1069E+03
      9.601  0.1034E+02  0.1075E+03
      9.658  0.6604E+01  0.1079E+03
      9.714  0.1933E+02  0.1090E+03
      9.771  0.1763E+02  0.1100E+03
      9.827  0.1553E+02  0.1108E+03
      9.883  0.1201E+02  0.1115E+03
      9.940  0.1709E+02  0.1125E+03
      9.996  0.1223E+02  0.1132E+03
     10.053  0.1339E+02  0.1139E+03
     10.109  0.9075E+01  0.1144E+03
     10.166  0.9175E+01  0.1150E+03
     10.222  0.1046E+02  0.1156E+03
     10.279  0.1180E+02  0.1162E+03
     10.335  0.1330E+02  0.1170E+03
     10.392  0.1781E+02  0.1180E+03
     10.448  0.1398E+02  0.1188E+03
     10.505  0.1389E+02  0.1195E+03
     10.561  0.1110E+02  0.1202E+03
     10.618  0.1502E+02  0.1210E+03
     10.674  0.1476E+02  0.1219E+03
     10.731  0.1437E+02  0.1227E+03
     10.787  0.1165E+02  0.1233E+03
     10.844  0.1234E+02  0.1240E+03
     10.900  0.1552E+02  0.1249E+03
     10.957  0.1139E+02  0.1255E+03
     11.013  0.1162E+02  0.1262E+03
     11.070  0.1294E+02  0.1269E+03
     11.126  0.9301E+01  0.1275E+03
     11.183  0.1745E+02  0.1284E+03
     11.239  0.1408E+02  0.1292E+03
     11.296  0.9236E+01  0.1298E+03
     11.352  0.9680E+01  0.1303E+03
     11.408  0.1333E+02  0.1311E+03
     11.465  0.1837E+02  0.1321E+03
     11.521  0.1168E+02  0.1328E+03
     11.578  0.6084E+01  0.1331E+03
     11.634  0.8303E+01  0.1336E+03
     11.691  0.6820E+01  0.1340E+03
     11.747  0.1067E+02  0.1346E+03
     11.804  0.7203E+01  0.1350E+03
     11.860  0.7121E+01  0.1354E+03
     11.917  0.3259E+01  0.1355E+03
     11.973  0.2544E+01  0.1357E+03
     12.030  0.1050E+01  0.1358E+03
     12.086  0.1929E+01  0.1359E+03
     12.143  0.1086E+00  0.1359E+03
     12.199  0.7337E+00  0.1359E+03
     12.256  0.5153E+00  0.1359E+03
     12.312  0.5136E+00  0.1360E+03
     12.369  0.4914E+00  0.1360E+03
     12.425  0.0000E+00  0.1360E+03
     12.482  0.2922E-03  0.1360E+03
     12.538  0.8168E-01  0.1360E+03
     12.595  0.0000E+00  0.1360E+03
     12.651  0.0000E+00  0.1360E+03
     12.708  0.0000E+00  0.1360E+03
     12.764  0.0000E+00  0.1360E+03
     12.821  0.0000E+00  0.1360E+03
     12.877  0.0000E+00  0.1360E+03
     12.933  0.0000E+00  0.1360E+03
     12.990  0.0000E+00  0.1360E+03
     13.046  0.0000E+00  0.1360E+03
     13.103  0.0000E+00  0.1360E+03
     13.159  0.0000E+00  0.1360E+03
     13.216  0.0000E+00  0.1360E+03
     13.272  0.0000E+00  0.1360E+03
