   32   32    1    1
  0.1548436E+02  0.7913120E-09  0.7913120E-09  0.7913120E-09  0.5000000E-15
  1.000000000000000E-004
  CAR 
 unknown system                          
   96  196   68
 
  0.0000000E+00  0.0000000E+00  0.0000000E+00  0.5787037E-03
   1       -2.9018
   2       -0.5630
   3       -0.5591
   4       -0.5591
   5       -0.5591
   6       -0.5591
   7       -0.5553
   8        1.7361
   9        1.7405
  10        1.7405
  11        1.7423
  12        1.7424
  13        1.7424
  14        1.7424
  15        1.7424
  16        1.7426
  17        1.7444
  18        1.7444
  19        1.7488
  20        3.8295
  21        3.8296
  22        3.8296
  23        3.8296
  24        4.2116
  25        4.2116
  26        4.2116
  27        4.2117
  28        5.6016
  29        5.6016
  30        5.6016
  31        7.0599
  32        7.0599
  33        7.0599
  34        7.7478
  35        7.7478
  36        7.7523
  37        7.7523
  38        7.7525
  39        7.7525
  40        7.7525
  41        7.7525
  42        7.7526
  43        7.7526
  44        7.7571
  45        7.7571
  46        8.7291
  47        8.7335
  48        8.7335
  49        8.7335
  50        8.7335
  51        8.7378
  52        9.9089
  53        9.9089
  54        9.9104
  55        9.9130
  56        9.9131
  57        9.9131
  58        9.9131
  59        9.9132
  60        9.9132
  61        9.9158
  62        9.9173
  63        9.9173
  64       10.1487
  65       10.1497
  66       10.1497
  67       10.1497
  68       10.1507
 
  0.8333333E-01  0.0000000E+00  0.0000000E+00  0.1157407E-02
   1       -2.8854
   2       -0.9305
   3       -0.5430
   4       -0.5430
   5       -0.5430
   6       -0.5430
   7       -0.1568
   8        1.3776
   9        1.3776
  10        1.3776
  11        1.3777
  12        1.7583
  13        1.7583
  14        1.7583
  15        1.7583
  16        2.1377
  17        2.1377
  18        2.1377
  19        2.1377
  20        3.6142
  21        3.6142
  22        3.6142
  23        3.6142
  24        4.4572
  25        4.4572
  26        4.4572
  27        4.4572
  28        5.3008
  29        5.6165
  30        5.6165
  31        7.0754
  32        7.0754
  33        7.3887
  34        7.4082
  35        7.4082
  36        7.4545
  37        7.4545
  38        7.4545
  39        7.4546
  40        7.7674
  41        7.7675
  42        7.7675
  43        7.7675
  44        8.1268
  45        8.1268
  46        8.6542
  47        8.6542
  48        8.9410
  49        8.9410
  50        8.9410
  51        8.9410
  52        9.5675
  53        9.5675
  54        9.5676
  55        9.5676
  56        9.6578
  57        9.6578
  58        9.6578
  59        9.6578
  60       10.2568
  61       10.2568
  62       10.2830
  63       10.2832
  64       10.2835
  65       10.2850
  66       10.2888
  67       10.2889
  68       10.2893
 
  0.1666667E+00  0.0000000E+00  0.0000000E+00  0.1157407E-02
   1       -2.8362
   2       -1.2705
   3       -0.4947
   4       -0.4947
   5       -0.4947
   6       -0.4947
   7        0.2762
   8        1.0436
   9        1.0436
  10        1.0436
  11        1.0436
  12        1.8058
  13        1.8058
  14        1.8058
  15        1.8058
  16        2.5629
  17        2.5629
  18        2.5629
  19        2.5629
  20        3.3060
  21        3.3060
  22        3.3060
  23        3.3060
  24        4.7244
  25        4.8560
  26        4.8560
  27        4.8560
  28        4.8560
  29        5.6612
  30        5.6612
  31        6.8994
  32        6.8994
  33        6.8994
  34        6.8994
  35        7.0942
  36        7.0942
  37        7.1220
  38        7.1220
  39        7.8124
  40        7.8124
  41        7.8124
  42        7.8124
  43        8.0491
  44        8.4663
  45        8.4663
  46        8.5314
  47        8.5314
  48        9.1314
  49        9.1314
  50        9.1314
  51        9.1314
  52        9.2202
  53        9.2202
  54        9.2202
  55        9.2203
  56        9.2522
  57        9.2522
  58        9.2524
  59        9.2524
  60       10.5280
  61       10.5280
  62       10.6888
  63       10.6889
  64       10.6893
  65       10.6915
  66       10.6947
  67       10.6949
  68       10.6952
 
  0.2500000E+00  0.0000000E+00  0.0000000E+00  0.1157407E-02
   1       -2.7542
   2       -1.5788
   3       -0.4141
   4       -0.4141
   5       -0.4141
   6       -0.4141
   7        0.7374
   8        0.7406
   9        0.7406
  10        0.7406
  11        0.7427
  12        1.8849
  13        1.8849
  14        1.8849
  15        1.8849
  16        3.0125
  17        3.0139
  18        3.0139
  19        3.0145
  20        3.0175
  21        3.0181
  22        3.0181
  23        3.0196
  24        4.1011
  25        5.2983
  26        5.2983
  27        5.2983
  28        5.2983
  29        5.7357
  30        5.7357
  31        6.2988
  32        6.2988
  33        6.2988
  34        6.2988
  35        6.8102
  36        6.8102
  37        7.1993
  38        7.1993
  39        7.8873
  40        7.8873
  41        7.8873
  42        7.8873
  43        8.2402
  44        8.2402
  45        8.5416
  46        8.5416
  47        8.5416
  48        8.5416
  49        8.8126
  50        8.9641
  51        8.9641
  52        8.9670
  53        8.9670
  54        8.9690
  55        8.9690
  56        9.4210
  57        9.4210
  58        9.4210
  59        9.4210
  60       10.6647
  61       10.6647
  62       10.6647
  63       10.6647
  64       10.8921
  65       10.8921
  66       11.1308
  67       11.1308
  68       11.1309
 
  0.3333333E+00  0.0000000E+00  0.0000000E+00  0.1157407E-02
   1       -2.6394
   2       -1.8554
   3       -0.3014
   4       -0.3014
   5       -0.3014
   6       -0.3014
   7        0.4689
   8        0.4689
   9        0.4689
  10        0.4689
  11        1.2324
  12        1.9956
  13        1.9956
  14        1.9956
  15        1.9956
  16        2.7501
  17        2.7501
  18        2.7501
  19        2.7501
  20        3.4819
  21        3.5011
  22        3.5011
  23        3.5011
  24        3.5012
  25        5.6987
  26        5.6987
  27        5.6988
  28        5.6988
  29        5.7733
  30        5.7733
  31        5.7733
  32        5.7733
  33        5.8401
  34        5.8401
  35        6.5563
  36        6.5563
  37        7.3068
  38        7.3068
  39        7.9475
  40        7.9475
  41        7.9476
  42        7.9476
  43        7.9922
  44        7.9922
  45        7.9923
  46        7.9923
  47        8.0126
  48        8.0127
  49        8.7119
  50        8.7119
  51        8.7119
  52        8.7119
  53        9.4311
  54        9.4311
  55        9.5889
  56        9.5889
  57        9.5889
  58        9.5889
  59        9.6279
  60       10.3986
  61       10.3986
  62       10.3986
  63       10.3986
  64       11.3109
  65       11.3109
  66       11.5916
  67       11.5929
  68       11.5972
 
  0.4166667E+00  0.0000000E+00  0.0000000E+00  0.1157407E-02
   1       -2.4921
   2       -2.0999
   3       -0.1567
   4       -0.1566
   5       -0.1566
   6       -0.1566
   7        0.2286
   8        0.2286
   9        0.2286
  10        0.2287
  11        1.7544
  12        2.1377
  13        2.1377
  14        2.1377
  15        2.1377
  16        2.5153
  17        2.5153
  18        2.5153
  19        2.5153
  20        2.8812
  21        4.0127
  22        4.0127
  23        4.0127
  24        4.0127
  25        5.1141
  26        5.1141
  27        5.1141
  28        5.1141
  29        5.9742
  30        5.9742
  31        6.2780
  32        6.2780
  33        6.2780
  34        6.2780
  35        6.3324
  36        6.3324
  37        7.3681
  38        7.3681
  39        7.3681
  40        7.3681
  41        7.4437
  42        7.4437
  43        7.7997
  44        7.7997
  45        8.1271
  46        8.1271
  47        8.1271
  48        8.1271
  49        8.4869
  50        8.4869
  51        8.4870
  52        8.4870
  53        9.7595
  54        9.7595
  55        9.7595
  56        9.7595
  57        9.9263
  58        9.9263
  59       10.1600
  60       10.1600
  61       10.1600
  62       10.1600
  63       10.4805
  64       11.0066
  65       11.0066
  66       11.7662
  67       11.7662
  68       12.0936
 
  0.5000000E+00  0.0000000E+00  0.0000000E+00  0.5787037E-03
   1       -2.3137
   2       -2.3107
   3        0.0160
   4        0.0192
   5        0.0192
   6        0.0200
   7        0.0202
   8        0.0210
   9        0.0210
  10        0.0242
  11        2.3022
  12        2.3046
  13        2.3093
  14        2.3097
  15        2.3097
  16        2.3106
  17        2.3115
  18        2.3123
  19        2.3123
  20        2.3149
  21        4.5501
  22        4.5501
  23        4.5504
  24        4.5508
  25        4.5511
  26        4.5515
  27        4.5518
  28        4.5518
  29        6.1367
  30        6.1367
  31        6.1399
  32        6.1399
  33        6.8093
  34        6.8093
  35        6.8097
  36        6.8102
  37        6.8104
  38        6.8110
  39        6.8113
  40        6.8113
  41        7.6067
  42        7.6078
  43        7.6096
  44        7.6108
  45        8.2895
  46        8.2895
  47        8.2905
  48        8.2919
  49        8.2921
  50        8.2935
  51        8.2945
  52        8.2945
  53        9.9456
  54        9.9465
  55        9.9465
  56        9.9466
  57        9.9490
  58        9.9492
  59        9.9492
  60        9.9501
  61       10.4504
  62       10.4504
  63       10.4527
  64       10.4527
  65       11.3645
  66       11.3656
  67       12.2461
  68       12.2468
 
  0.0000000E+00  0.8333333E-01  0.0000000E+00  0.2314815E-02
   1       -2.8854
   2       -0.9305
   3       -0.5460
   4       -0.5430
   5       -0.5430
   6       -0.5401
   7       -0.1568
   8        1.3747
   9        1.3776
  10        1.3777
  11        1.3806
  12        1.7562
  13        1.7571
  14        1.7595
  15        1.7604
  16        2.1347
  17        2.1377
  18        2.1377
  19        2.1407
  20        3.6123
  21        3.6131
  22        3.6153
  23        3.6161
  24        4.4553
  25        4.4561
  26        4.4583
  27        4.4591
  28        5.3007
  29        5.6165
  30        5.6165
  31        7.0754
  32        7.0754
  33        7.3887
  34        7.4082
  35        7.4083
  36        7.4512
  37        7.4545
  38        7.4545
  39        7.4579
  40        7.7646
  41        7.7674
  42        7.7675
  43        7.7703
  44        8.1268
  45        8.1268
  46        8.6542
  47        8.6542
  48        8.9380
  49        8.9410
  50        8.9410
  51        8.9439
  52        9.5647
  53        9.5676
  54        9.5676
  55        9.5704
  56        9.6550
  57        9.6566
  58        9.6590
  59        9.6606
  60       10.2567
  61       10.2571
  62       10.2827
  63       10.2828
  64       10.2845
  65       10.2861
  66       10.2877
  67       10.2889
  68       10.2910
 
  0.8333333E-01  0.8333333E-01  0.0000000E+00  0.4629630E-02
   1       -2.8690
   2       -0.9155
   3       -0.9131
   4       -0.5269
   5       -0.5269
   6       -0.1420
   7       -0.1395
   8        1.0118
   9        1.3918
  10        1.3928
  11        1.3943
  12        1.3952
  13        1.7735
  14        1.7745
  15        2.1517
  16        2.1527
  17        2.1542
  18        2.1552
  19        2.5316
  20        3.2749
  21        3.2749
  22        3.8598
  23        3.8598
  24        4.2435
  25        4.2435
  26        4.8250
  27        4.8250
  28        5.3155
  29        5.3162
  30        5.6314
  31        7.0909
  32        7.1149
  33        7.1172
  34        7.3908
  35        7.3908
  36        7.4037
  37        7.4044
  38        7.4219
  39        7.4246
  40        7.5648
  41        7.5648
  42        7.8105
  43        7.8125
  44        8.1404
  45        8.1432
  46        8.8156
  47        8.8180
  48        8.9171
  49        8.9200
  50        9.1565
  51        9.1565
  52        9.2222
  53        9.3094
  54        9.3103
  55        9.3118
  56        9.3128
  57        9.9422
  58        9.9441
  59       10.0332
  60       10.0342
  61       10.0348
  62       10.0357
  63       10.3277
  64       10.3284
  65       10.3926
  66       10.3926
  67       10.4520
  68       10.4536
 
  0.1666667E+00  0.8333333E-01  0.0000000E+00  0.4629630E-02
   1       -2.8198
   2       -1.2543
   3       -0.8658
   4       -0.4786
   5       -0.4785
   6       -0.0925
   7        0.2922
   8        0.6768
   9        1.0595
  10        1.0595
  11        1.4404
  12        1.4412
  13        1.4418
  14        2.1999
  15        2.2008
  16        2.2013
  17        2.5786
  18        2.5786
  19        2.9520
  20        2.9520
  21        2.9554
  22        3.6758
  23        3.6758
  24        4.5198
  25        4.5198
  26        4.7397
  27        5.2369
  28        5.2369
  29        5.3611
  30        5.6761
  31        6.5585
  32        6.8037
  33        6.9023
  34        6.9023
  35        7.1092
  36        7.1374
  37        7.2619
  38        7.4499
  39        7.4682
  40        7.5531
  41        7.5531
  42        8.0642
  43        8.1414
  44        8.1868
  45        8.5464
  46        8.6685
  47        8.7612
  48        8.7830
  49        8.7830
  50        8.9071
  51        8.9922
  52        8.9943
  53        8.9952
  54        9.3534
  55        9.4732
  56        9.4733
  57        9.5097
  58        9.5098
  59        9.6277
  60       10.3489
  61       10.4410
  62       10.4410
  63       10.5671
  64       10.5809
  65       10.6095
  66       10.7509
  67       10.7509
  68       10.7588
 
  0.2500000E+00  0.8333333E-01  0.0000000E+00  0.4629630E-02
   1       -2.7378
   2       -1.5626
   3       -0.7850
   4       -0.3980
   5       -0.3980
   6       -0.0122
   7        0.3729
   8        0.7541
   9        0.7566
  10        0.7579
  11        1.1390
  12        1.5206
  13        1.5206
  14        2.2796
  15        2.2796
  16        2.6545
  17        2.6561
  18        2.6582
  19        3.0332
  20        3.0332
  21        3.3988
  22        3.3992
  23        3.4088
  24        4.1166
  25        4.9488
  26        4.9488
  27        5.4365
  28        5.6820
  29        5.6820
  30        5.7506
  31        5.9532
  32        6.3098
  33        6.3098
  34        6.5195
  35        6.6695
  36        6.8252
  37        7.2144
  38        7.5261
  39        7.5430
  40        7.6234
  41        7.6234
  42        8.1912
  43        8.1917
  44        8.1927
  45        8.2618
  46        8.5480
  47        8.6220
  48        8.7076
  49        8.7077
  50        8.8095
  51        8.8273
  52        8.9213
  53        8.9213
  54        8.9812
  55        9.1313
  56        9.3423
  57        9.6844
  58        9.6985
  59        9.6985
  60       10.3160
  61       10.7849
  62       10.8772
  63       10.8773
  64       10.9184
  65       10.9513
  66       10.9514
  67       11.0415
  68       11.0730
 
  0.3333333E+00  0.8333333E-01  0.0000000E+00  0.4629630E-02
   1       -2.6231
   2       -1.8391
   3       -0.6720
   4       -0.2853
   5       -0.2853
   6        0.0997
   7        0.1009
   8        0.4849
   9        0.4849
  10        0.8681
  11        1.2483
  12        1.6316
  13        1.6316
  14        2.3888
  15        2.3893
  16        2.3901
  17        2.3905
  18        3.1393
  19        3.1393
  20        3.1419
  21        3.4975
  22        3.5166
  23        3.5166
  24        3.8901
  25        5.3491
  26        5.4209
  27        5.4209
  28        5.5421
  29        5.7122
  30        5.7123
  31        5.8549
  32        6.0755
  33        6.1575
  34        6.1575
  35        6.2646
  36        6.5712
  37        7.3214
  38        7.5965
  39        7.5966
  40        7.6321
  41        7.6479
  42        7.7276
  43        7.7276
  44        8.0104
  45        8.3261
  46        8.3285
  47        8.3293
  48        8.3661
  49        8.3678
  50        8.4512
  51        8.4512
  52        9.0870
  53        9.2199
  54        9.2698
  55        9.4461
  56        9.6422
  57        9.8752
  58        9.8753
  59        9.9139
  60       10.0510
  61       10.6865
  62       10.6866
  63       10.7723
  64       11.2511
  65       11.3318
  66       11.3405
  67       11.3430
  68       11.3435
 
  0.4166667E+00  0.8333333E-01  0.0000000E+00  0.4629630E-02
   1       -2.4757
   2       -2.0836
   3       -0.5268
   4       -0.1419
   5       -0.1406
   6       -0.1391
   7        0.2431
   8        0.2447
   9        0.2460
  10        0.6286
  11        1.7698
  12        1.7742
  13        1.7747
  14        2.1534
  15        2.1534
  16        2.5313
  17        2.5313
  18        2.8967
  19        2.9067
  20        2.9069
  21        3.6552
  22        4.0280
  23        4.0280
  24        4.3995
  25        4.7613
  26        5.1286
  27        5.1286
  28        5.4951
  29        5.6778
  30        5.9250
  31        5.9250
  32        5.9892
  33        6.0391
  34        6.3472
  35        6.6618
  36        6.6618
  37        7.0161
  38        7.0161
  39        7.4575
  40        7.7501
  41        7.7502
  42        7.7672
  43        7.7826
  44        7.8081
  45        7.8629
  46        7.8629
  47        8.1178
  48        8.1422
  49        8.2248
  50        8.2248
  51        8.5017
  52        8.8619
  53        9.4260
  54        9.6990
  55        9.8147
  56        9.9413
  57       10.0486
  58       10.0486
  59       10.1112
  60       10.4490
  61       10.4490
  62       10.4944
  63       10.5305
  64       10.7645
  65       11.0217
  66       11.7481
  67       11.7860
  68       11.8380
 
  0.5000000E+00  0.8333333E-01  0.0000000E+00  0.2314815E-02
   1       -2.2973
   2       -2.2943
   3       -0.3511
   4       -0.3481
   5        0.0340
   6        0.0352
   7        0.0370
   8        0.0382
   9        0.4192
  10        0.4222
  11        1.9461
  12        1.9473
  13        1.9491
  14        1.9503
  15        2.3196
  16        2.3209
  17        2.7016
  18        2.7028
  19        2.7046
  20        2.7059
  21        4.1950
  22        4.1962
  23        4.5651
  24        4.5656
  25        4.5663
  26        4.5669
  27        4.9346
  28        4.9358
  29        5.8419
  30        5.8451
  31        6.1516
  32        6.1548
  33        6.4569
  34        6.4571
  35        6.4582
  36        6.4585
  37        7.1926
  38        7.1928
  39        7.1939
  40        7.1942
  41        7.6194
  42        7.6223
  43        7.9283
  44        7.9313
  45        7.9458
  46        7.9490
  47        8.0264
  48        8.0278
  49        8.0296
  50        8.0311
  51        8.6651
  52        8.6684
  53        9.6052
  54        9.6082
  55       10.2150
  56       10.2171
  57       10.2355
  58       10.2361
  59       10.2387
  60       10.2392
  61       10.3104
  62       10.3136
  63       10.4654
  64       10.4677
  65       11.3776
  66       11.3787
  67       12.2659
  68       12.2708
 
  0.0000000E+00  0.1666667E+00  0.0000000E+00  0.2314815E-02
   1       -2.8362
   2       -1.2705
   3       -0.4976
   4       -0.4947
   5       -0.4947
   6       -0.4917
   7        0.2762
   8        1.0406
   9        1.0436
  10        1.0436
  11        1.0466
  12        1.8037
  13        1.8046
  14        1.8070
  15        1.8079
  16        2.5599
  17        2.5629
  18        2.5629
  19        2.5659
  20        3.3039
  21        3.3048
  22        3.3072
  23        3.3081
  24        4.7244
  25        4.8539
  26        4.8548
  27        4.8572
  28        4.8581
  29        5.6612
  30        5.6612
  31        6.8961
  32        6.8994
  33        6.8994
  34        6.9026
  35        7.0942
  36        7.0942
  37        7.1220
  38        7.1220
  39        7.8096
  40        7.8124
  41        7.8124
  42        7.8152
  43        8.0491
  44        8.4663
  45        8.4663
  46        8.5314
  47        8.5314
  48        9.1289
  49        9.1302
  50        9.1326
  51        9.1340
  52        9.2175
  53        9.2202
  54        9.2203
  55        9.2230
  56        9.2494
  57        9.2522
  58        9.2524
  59        9.2551
  60       10.5280
  61       10.5280
  62       10.6882
  63       10.6886
  64       10.6903
  65       10.6918
  66       10.6934
  67       10.6949
  68       10.6977
 
  0.8333333E-01  0.1666667E+00  0.0000000E+00  0.4629630E-02
   1       -2.8198
   2       -1.2543
   3       -0.8658
   4       -0.4786
   5       -0.4785
   6       -0.0925
   7        0.2922
   8        0.6768
   9        1.0595
  10        1.0595
  11        1.4397
  12        1.4412
  13        1.4425
  14        2.1992
  15        2.2008
  16        2.2020
  17        2.5786
  18        2.5786
  19        2.9520
  20        2.9520
  21        2.9554
  22        3.6758
  23        3.6758
  24        4.5198
  25        4.5198
  26        4.7397
  27        5.2369
  28        5.2369
  29        5.3611
  30        5.6761
  31        6.5585
  32        6.8036
  33        6.9023
  34        6.9024
  35        7.1091
  36        7.1374
  37        7.2619
  38        7.4499
  39        7.4681
  40        7.5531
  41        7.5531
  42        8.0641
  43        8.1415
  44        8.1868
  45        8.5464
  46        8.6685
  47        8.7612
  48        8.7830
  49        8.7830
  50        8.9070
  51        8.9925
  52        8.9944
  53        8.9949
  54        9.3533
  55        9.4733
  56        9.4733
  57        9.5097
  58        9.5097
  59        9.6276
  60       10.3489
  61       10.4410
  62       10.4410
  63       10.5671
  64       10.5809
  65       10.6095
  66       10.7509
  67       10.7509
  68       10.7588
 
  0.1666667E+00  0.1666667E+00  0.0000000E+00  0.4629630E-02
   1       -2.7706
   2       -1.2069
   3       -1.2044
   4       -0.4302
   5       -0.4302
   6        0.3385
   7        0.3405
   8        0.3424
   9        1.1056
  10        1.1066
  11        1.1081
  12        1.1090
  13        1.8682
  14        1.8691
  15        2.6228
  16        2.6239
  17        2.6252
  18        2.6254
  19        2.6268
  20        2.6280
  21        3.3775
  22        3.9505
  23        3.9505
  24        4.3390
  25        4.3391
  26        4.7852
  27        4.7860
  28        5.6515
  29        5.6515
  30        5.7208
  31        6.2426
  32        6.2451
  33        6.8180
  34        6.8180
  35        7.1427
  36        7.1429
  37        7.1528
  38        7.1555
  39        7.1834
  40        7.6299
  41        7.6320
  42        8.1087
  43        8.1096
  44        8.4627
  45        8.4637
  46        8.4652
  47        8.4663
  48        8.5892
  49        8.5916
  50        8.5940
  51        8.7604
  52        8.7620
  53        9.3134
  54        9.3162
  55        9.9121
  56        9.9131
  57        9.9169
  58        9.9174
  59        9.9178
  60        9.9193
  61       10.0323
  62       10.0342
  63       10.2880
  64       10.7030
  65       10.7037
  66       10.9801
  67       10.9801
  68       11.3053
 
  0.2500000E+00  0.1666667E+00  0.0000000E+00  0.4629630E-02
   1       -2.6886
   2       -1.5139
   3       -1.1246
   4       -0.3497
   5       -0.3497
   6        0.0363
   7        0.4203
   8        0.8019
   9        0.8045
  10        0.8058
  11        1.1869
  12        1.1869
  13        1.5676
  14        2.3245
  15        2.3266
  16        2.3282
  17        2.7041
  18        2.7041
  19        3.0800
  20        3.0800
  21        3.7987
  22        3.7988
  23        3.8288
  24        4.1629
  25        4.6447
  26        4.6448
  27        4.8621
  28        5.6351
  29        5.7953
  30        5.9573
  31        6.0970
  32        6.0970
  33        6.3339
  34        6.3339
  35        6.8700
  36        7.0594
  37        7.1063
  38        7.1063
  39        7.2288
  40        7.2595
  41        7.8719
  42        7.8719
  43        7.9353
  44        8.1762
  45        8.1762
  46        8.1838
  47        8.3072
  48        8.6284
  49        8.6664
  50        8.8559
  51        8.8713
  52        9.0262
  53        9.1547
  54        9.3305
  55        9.3305
  56        9.7477
  57        9.8378
  58        9.9950
  59       10.2467
  60       10.2467
  61       10.3546
  62       10.3546
  63       10.4691
  64       11.0038
  65       11.0057
  66       11.4154
  67       11.4424
  68       11.4590
 
  0.3333333E+00  0.1666667E+00  0.0000000E+00  0.4629630E-02
   1       -2.5739
   2       -1.7903
   3       -1.0113
   4       -0.2384
   5       -0.2370
   6       -0.2356
   7        0.5311
   8        0.5329
   9        0.5340
  10        1.2948
  11        1.2977
  12        1.2983
  13        1.2994
  14        2.0588
  15        2.0588
  16        2.8123
  17        2.8138
  18        2.8141
  19        3.5440
  20        3.5542
  21        3.5542
  22        3.5632
  23        3.5634
  24        4.3083
  25        4.9690
  26        5.0281
  27        5.1031
  28        5.1032
  29        5.6999
  30        5.7509
  31        5.7509
  32        5.8997
  33        6.4766
  34        6.5721
  35        6.5722
  36        6.6161
  37        7.1968
  38        7.1969
  39        7.2758
  40        7.2759
  41        7.3336
  42        7.3650
  43        7.9181
  44        7.9181
  45        7.9735
  46        8.0524
  47        8.2875
  48        8.7391
  49        8.7391
  50        8.7716
  51        8.8087
  52        8.9562
  53        8.9729
  54        9.4900
  55        9.4936
  56        9.6850
  57        9.7311
  58       10.2083
  59       10.4677
  60       10.4677
  61       10.8205
  62       10.8206
  63       10.8271
  64       10.9352
  65       11.1699
  66       11.3009
  67       11.3009
  68       11.3968
 
  0.4166667E+00  0.1666667E+00  0.0000000E+00  0.4629630E-02
   1       -2.4266
   2       -2.0347
   3       -0.8658
   4       -0.4784
   5       -0.0924
   6       -0.0923
   7        0.2928
   8        0.2928
   9        0.6761
  10        1.0590
  11        1.4413
  12        1.4413
  13        1.8173
  14        1.8217
  15        1.8222
  16        2.9437
  17        2.9544
  18        2.9546
  19        3.3262
  20        3.3263
  21        3.3277
  22        4.0738
  23        4.0739
  24        4.4376
  25        4.8151
  26        5.1065
  27        5.1716
  28        5.1716
  29        5.4721
  30        5.6041
  31        5.6041
  32        5.9029
  33        6.0339
  34        6.3920
  35        6.6947
  36        6.6947
  37        7.0757
  38        7.0757
  39        7.3288
  40        7.3288
  41        7.4683
  42        7.4981
  43        7.6906
  44        7.6906
  45        7.8263
  46        7.8277
  47        8.1620
  48        8.1620
  49        8.4193
  50        8.7586
  51        8.9066
  52        9.1179
  53        9.2267
  54        9.2670
  55        9.4968
  56        9.9865
  57       10.2603
  58       10.4669
  59       10.5355
  60       10.6563
  61       10.6563
  62       10.9227
  63       11.0635
  64       11.0636
  65       11.0671
  66       11.3150
  67       11.3150
  68       11.4315
 
  0.5000000E+00  0.1666667E+00  0.0000000E+00  0.2314815E-02
   1       -2.2483
   2       -2.2453
   3       -0.6896
   4       -0.6866
   5        0.0822
   6        0.0834
   7        0.0852
   8        0.0864
   9        0.8502
  10        0.8532
  11        1.6137
  12        1.6149
  13        1.6167
  14        1.6179
  15        2.3669
  16        2.3681
  17        3.1233
  18        3.1247
  19        3.1264
  20        3.1277
  21        3.8692
  22        3.8704
  23        4.6100
  24        4.6105
  25        4.6112
  26        4.6118
  27        5.2726
  28        5.2758
  29        5.3469
  30        5.3481
  31        6.1352
  32        6.1355
  33        6.1366
  34        6.1368
  35        6.1964
  36        6.1997
  37        7.4917
  38        7.4930
  39        7.4949
  40        7.4961
  41        7.6054
  42        7.6057
  43        7.6069
  44        7.6071
  45        7.6314
  46        7.6347
  47        7.6537
  48        7.6566
  49        8.5759
  50        8.5789
  51        9.0701
  52        9.0734
  53        9.2909
  54        9.2939
  55        9.7222
  56        9.7240
  57       10.5106
  58       10.5129
  59       10.6912
  60       10.6945
  61       10.8485
  62       10.8493
  63       10.8517
  64       10.8525
  65       11.4163
  66       11.4174
  67       11.8365
  68       11.8374
 
  0.0000000E+00  0.2500000E+00  0.0000000E+00  0.2314815E-02
   1       -2.7542
   2       -1.5788
   3       -0.4171
   4       -0.4141
   5       -0.4141
   6       -0.4112
   7        0.7375
   8        0.7395
   9        0.7406
  10        0.7406
  11        0.7437
  12        1.8828
  13        1.8837
  14        1.8861
  15        1.8871
  16        3.0121
  17        3.0133
  18        3.0147
  19        3.0156
  20        3.0165
  21        3.0176
  22        3.0177
  23        3.0208
  24        4.1011
  25        5.2961
  26        5.2971
  27        5.2995
  28        5.3005
  29        5.7357
  30        5.7357
  31        6.2956
  32        6.2988
  33        6.2988
  34        6.3019
  35        6.8102
  36        6.8102
  37        7.1992
  38        7.1993
  39        7.8845
  40        7.8873
  41        7.8873
  42        7.8901
  43        8.2402
  44        8.2402
  45        8.5391
  46        8.5404
  47        8.5428
  48        8.5440
  49        8.8126
  50        8.9637
  51        8.9661
  52        8.9663
  53        8.9670
  54        8.9671
  55        8.9702
  56        9.4184
  57        9.4210
  58        9.4210
  59        9.4235
  60       10.6623
  61       10.6647
  62       10.6647
  63       10.6671
  64       10.8921
  65       10.8921
  66       11.1279
  67       11.1309
  68       11.1321
 