 vasp.4.6.28 25Jul05 complex 
 executed on             LinuxIFC date 2016.11.12  04:06:53
 running on    4 nodes
 distr:  one band on    1 nodes,    4 groups


--------------------------------------------------------------------------------------------------------


 INCAR:
 POTCAR:   PAW_PBE Al 04Jan2001                   
 POTCAR:   PAW_PBE Al 04Jan2001                   
   VRHFIN =Al: s2p1                                                             
   LEXCH  = PE                                                                  
   EATOM  =    53.5387 eV,    3.9350 Ry                                         
                                                                                
   TITEL  = PAW_PBE Al 04Jan2001                                                
   LULTRA =        F    use ultrasoft PP ?                                      
   IUNSCR =        1    unscreen: 0-lin 1-nonlin 2-no                           
   RPACOR =    1.500    partial core radius                                     
   POMASS =   26.982; ZVAL   =    3.000    mass and valenz                      
   RCORE  =    1.900    outmost cutoff radius                                   
   RWIGS  =    2.650; RWIGS  =    1.402    wigner-seitz radius (au A)           
   ENMAX  =  240.300; ENMIN  =  180.225 eV                                      
   ICORE  =        2    local potential                                         
   LCOR   =        T    correct aug charges                                     
   LPAW   =        T    paw PP                                                  
   EAUG   =  291.052                                                            
   DEXC   =    -.041                                                            
   RMAX   =    2.974    core radius for proj-oper                               
   RAUG   =    1.300    factor for augmentation sphere                          
   RDEP   =    1.966    radius for radial grids                                 
   QCUT   =   -4.203; QGAM   =    8.405    optimization parameters              
                                                                                
   Description                                                                  
     l     E      TYP  RCUT    TYP  RCUT                                        
     0   .000     23  1.900                                                     
     0   .000     23  1.900                                                     
     1   .000     23  1.900                                                     
     1  1.000     23  1.900                                                     
     2   .000      7  1.900                                                     
  local pseudopotential read in
  partial core-charges read in
  atomic valenz-charges read in
  non local Contribution for L=           0  read in
    real space projection operators read in
  non local Contribution for L=           0  read in
    real space projection operators read in
  non local Contribution for L=           1  read in
    real space projection operators read in
  non local Contribution for L=           1  read in
    real space projection operators read in
    PAW grid and wavefunctions read in
 
   number of l-projection  operators is LMAX  =           4
   number of lm-projection operators is LMMAX =           8
 

 ----------------------------------------------------------------------------- 
|                                                                             |
|  ADVICE TO THIS USER RUNNING 'VASP/VAMP'   (HEAR YOUR MASTER'S VOICE ...):  |
|                                                                             |
|      You have a (more or less) 'large supercell' and for larger cells       |
|      it might be more efficient to use real space projection operators      |
|      So try LREAL= Auto  in the INCAR   file.                               |
|      Mind: If you want to do an extremely accurate calculations keep the    |
|      reciprocal projection scheme          (i.e. LREAL=.FALSE.)             |
|                                                                             |
 ----------------------------------------------------------------------------- 

 PAW_PBE Al 04Jan2001                   :
 energy of atom  1       EATOM=  -53.5387
 kinetic energy error for atom=    0.0001 (will be added to EATOM!!)
 
 EXHCAR: internal setup
 exchange correlation table for  LEXCH =        8
   RHO(1)=    0.500       N(1)  =     2000
   RHO(2)=  100.500       N(2)  =     4000
 
 POSCAR: Al                                      
  positions in direct lattice
  No initial velocities read in
 


--------------------------------------------------------------------------------------------------------


 ion  position               nearest neighbor table
   1  0.251  0.250  0.000-  18 2.79  22 2.79  26 2.79  28 2.79   9 2.80  11 2.80  13 2.80  15 2.80
                            25 2.80  21 2.80  27 2.80  17 2.80
   2  0.750  0.250  0.000-  10 2.80  12 2.80  14 2.80  16 2.80  17 2.80  18 2.80  21 2.80  22 2.80
                            25 2.80  26 2.80  27 2.80  28 2.80
   3  0.250  0.750  0.000-   9 2.80  11 2.80  13 2.80  15 2.80  19 2.80  20 2.80  23 2.80  24 2.80
                            25 2.80  26 2.80  27 2.80  28 2.80
   4  0.750  0.750  0.000-  10 2.80  12 2.80  14 2.80  16 2.80  19 2.80  20 2.80  23 2.80  24 2.80
                            25 2.80  26 2.80  27 2.80  28 2.80
   5  0.250  0.250  0.500-   9 2.80  11 2.80  13 2.80  15 2.80  17 2.80  18 2.80  21 2.80  22 2.80
                            29 2.80  30 2.80  31 2.80  32 2.80
   6  0.750  0.250  0.500-  10 2.80  12 2.80  14 2.80  16 2.80  17 2.80  18 2.80  21 2.80  22 2.80
                            29 2.80  30 2.80  31 2.80  32 2.80
   7  0.250  0.750  0.500-   9 2.80  11 2.80  13 2.80  15 2.80  19 2.80  20 2.80  23 2.80  24 2.80
                            29 2.80  30 2.80  31 2.80  32 2.80
   8  0.750  0.750  0.500-  10 2.80  12 2.80  14 2.80  16 2.80  19 2.80  20 2.80  23 2.80  24 2.80
                            29 2.80  30 2.80  31 2.80  32 2.80
   9  0.250  0.000  0.250-   3 2.80   5 2.80   7 2.80  17 2.80  18 2.80  19 2.80  20 2.80  25 2.80
                            26 2.80  29 2.80  30 2.80   1 2.80
  10  0.750  0.000  0.250-   2 2.80   4 2.80   6 2.80   8 2.80  17 2.80  18 2.80  19 2.80  20 2.80
                            25 2.80  26 2.80  29 2.80  30 2.80
  11  0.250  0.500  0.250-   3 2.80   5 2.80   7 2.80  17 2.80  18 2.80  19 2.80  20 2.80  27 2.80
                            28 2.80  31 2.80  32 2.80   1 2.80
  12  0.750  0.500  0.250-   2 2.80   4 2.80   6 2.80   8 2.80  17 2.80  18 2.80  19 2.80  20 2.80
                            27 2.80  28 2.80  31 2.80  32 2.80
  13  0.250  0.000  0.750-   3 2.80   5 2.80   7 2.80  21 2.80  22 2.80  23 2.80  24 2.80  25 2.80
                            26 2.80  29 2.80  30 2.80   1 2.80
  14  0.750  0.000  0.750-   2 2.80   4 2.80   6 2.80   8 2.80  21 2.80  22 2.80  23 2.80  24 2.80
                            25 2.80  26 2.80  29 2.80  30 2.80
  15  0.250  0.500  0.750-   3 2.80   5 2.80   7 2.80  21 2.80  22 2.80  23 2.80  24 2.80  27 2.80
                            28 2.80  31 2.80  32 2.80   1 2.80
  16  0.750  0.500  0.750-   2 2.80   4 2.80   6 2.80   8 2.80  21 2.80  22 2.80  23 2.80  24 2.80
                            27 2.80  28 2.80  31 2.80  32 2.80
  17  0.000  0.250  0.250-   2 2.80   5 2.80   6 2.80   9 2.80  10 2.80  11 2.80  12 2.80  25 2.80
                            27 2.80  29 2.80  31 2.80   1 2.80
  18  0.500  0.250  0.250-   1 2.79   2 2.80   5 2.80   6 2.80   9 2.80  10 2.80  11 2.80  12 2.80
                            26 2.80  28 2.80  30 2.80  32 2.80
  19  0.000  0.750  0.250-   3 2.80   4 2.80   7 2.80   8 2.80   9 2.80  10 2.80  11 2.80  12 2.80
                            25 2.80  27 2.80  29 2.80  31 2.80
  20  0.500  0.750  0.250-   3 2.80   4 2.80   7 2.80   8 2.80   9 2.80  10 2.80  11 2.80  12 2.80
                            26 2.80  28 2.80  30 2.80  32 2.80
  21  0.000  0.250  0.750-   2 2.80   5 2.80   6 2.80  13 2.80  14 2.80  15 2.80  16 2.80  25 2.80
                            27 2.80  29 2.80  31 2.80   1 2.80
  22  0.500  0.250  0.750-   1 2.79   2 2.80   5 2.80   6 2.80  13 2.80  14 2.80  15 2.80  16 2.80
                            26 2.80  28 2.80  30 2.80  32 2.80
  23  0.000  0.750  0.750-   3 2.80   4 2.80   7 2.80   8 2.80  13 2.80  14 2.80  15 2.80  16 2.80
                            25 2.80  27 2.80  29 2.80  31 2.80
  24  0.500  0.750  0.750-   3 2.80   4 2.80   7 2.80   8 2.80  13 2.80  14 2.80  15 2.80  16 2.80
                            26 2.80  28 2.80  30 2.80  32 2.80
  25  0.000  0.000  0.000-   2 2.80   3 2.80   4 2.80   9 2.80  10 2.80  13 2.80  14 2.80  17 2.80
                            19 2.80  21 2.80  23 2.80   1 2.80
  26  0.500  0.000  0.000-   1 2.79   2 2.80   3 2.80   4 2.80   9 2.80  10 2.80  13 2.80  14 2.80
                            18 2.80  20 2.80  22 2.80  24 2.80
  27  0.000  0.500  0.000-   2 2.80   3 2.80   4 2.80  11 2.80  12 2.80  15 2.80  16 2.80  17 2.80
                            19 2.80  21 2.80  23 2.80   1 2.80
  28  0.500  0.500  0.000-   1 2.79   2 2.80   3 2.80   4 2.80  11 2.80  12 2.80  15 2.80  16 2.80
                            18 2.80  20 2.80  22 2.80  24 2.80
  29  0.000  0.000  0.500-   5 2.80   6 2.80   7 2.80   8 2.80   9 2.80  10 2.80  13 2.80  14 2.80
                            17 2.80  19 2.80  21 2.80  23 2.80
  30  0.500  0.000  0.500-   5 2.80   6 2.80   7 2.80   8 2.80   9 2.80  10 2.80  13 2.80  14 2.80
                            18 2.80  20 2.80  22 2.80  24 2.80
  31  0.000  0.500  0.500-   5 2.80   6 2.80   7 2.80   8 2.80  11 2.80  12 2.80  15 2.80  16 2.80
                            17 2.80  19 2.80  21 2.80  23 2.80
  32  0.500  0.500  0.500-   5 2.80   6 2.80   7 2.80   8 2.80  11 2.80  12 2.80  15 2.80  16 2.80
                            18 2.80  20 2.80  22 2.80  24 2.80
 
  LATTYP: Found a simple cubic cell.
 ALAT       =     7.9131204846
  
  Lattice vectors:
  
 A1 = (   7.9131204846,   0.0000000000,   0.0000000000)
 A2 = (   0.0000000000,   7.9131204846,   0.0000000000)
 A3 = (   0.0000000000,   0.0000000000,   7.9131204846)
 Subroutine PRICEL returns:
 Original cell was already a primitive cell.
 

Analysis of symmetry for initial positions (statically):

 Routine SETGRP: Setting up the symmetry group for a 
 simple cubic supercell.


 Subroutine GETGRP returns: Found  8 space group operations
 (whereof  2 operations were pure point group operations)
 out of a pool of 48 trial point group operations.


The static configuration has the point symmetry C_1h.
 The point group associated with its full space group is C_4v.

Analysis of symmetry for dynamics (positions and initial velocities):

 Subroutine DYNSYM returns: Found  8 space group operations
 (whereof  2 operations were pure point group operations)
 out of a pool of  8 trial space group operations
 (whereof  2 operations were pure point group operations)
 and found also     1 'primitive' translations


The dynamic configuration has the point symmetry C_1h.
 The point group associated with its full space group is C_4v.
 
 
 KPOINTS: Automatic mesh                          

Automatic generation of k-mesh.
 
 Subroutine IBZKPT returns following result:
 ===========================================
 
 Found    196 irreducible k-points:
 
 Following reciprocal coordinates:
            Coordinates               Weight
  0.000000  0.000000  0.000000      1.000000
  0.083333  0.000000  0.000000      2.000000
  0.166667  0.000000  0.000000      2.000000
  0.250000  0.000000  0.000000      2.000000
  0.333333  0.000000  0.000000      2.000000
  0.416667  0.000000  0.000000      2.000000
  0.500000  0.000000  0.000000      1.000000
  0.000000  0.083333  0.000000      4.000000
  0.083333  0.083333  0.000000      8.000000
  0.166667  0.083333  0.000000      8.000000
  0.250000  0.083333  0.000000      8.000000
  0.333333  0.083333  0.000000      8.000000
  0.416667  0.083333  0.000000      8.000000
  0.500000  0.083333  0.000000      4.000000
  0.000000  0.166667  0.000000      4.000000
  0.083333  0.166667  0.000000      8.000000
  0.166667  0.166667  0.000000      8.000000
  0.250000  0.166667  0.000000      8.000000
  0.333333  0.166667  0.000000      8.000000
  0.416667  0.166667  0.000000      8.000000
  0.500000  0.166667  0.000000      4.000000
  0.000000  0.250000  0.000000      4.000000
  0.083333  0.250000  0.000000      8.000000
  0.166667  0.250000  0.000000      8.000000
  0.250000  0.250000  0.000000      8.000000
  0.333333  0.250000  0.000000      8.000000
  0.416667  0.250000  0.000000      8.000000
  0.500000  0.250000  0.000000      4.000000
  0.000000  0.333333  0.000000      4.000000
  0.083333  0.333333  0.000000      8.000000
  0.166667  0.333333  0.000000      8.000000
  0.250000  0.333333  0.000000      8.000000
  0.333333  0.333333  0.000000      8.000000
  0.416667  0.333333  0.000000      8.000000
  0.500000  0.333333  0.000000      4.000000
  0.000000  0.416667  0.000000      4.000000
  0.083333  0.416667  0.000000      8.000000
  0.166667  0.416667  0.000000      8.000000
  0.250000  0.416667  0.000000      8.000000
  0.333333  0.416667  0.000000      8.000000
  0.416667  0.416667  0.000000      8.000000
  0.500000  0.416667  0.000000      4.000000
  0.000000  0.500000  0.000000      2.000000
  0.083333  0.500000  0.000000      4.000000
  0.166667  0.500000  0.000000      4.000000
  0.250000  0.500000  0.000000      4.000000
  0.333333  0.500000  0.000000      4.000000
  0.416667  0.500000  0.000000      4.000000
  0.500000  0.500000  0.000000      2.000000
  0.000000  0.083333  0.083333      4.000000
  0.083333  0.083333  0.083333      8.000000
  0.166667  0.083333  0.083333      8.000000
  0.250000  0.083333  0.083333      8.000000
  0.333333  0.083333  0.083333      8.000000
  0.416667  0.083333  0.083333      8.000000
  0.500000  0.083333  0.083333      4.000000
  0.000000  0.166667  0.083333      8.000000
  0.083333  0.166667  0.083333     16.000000
  0.166667  0.166667  0.083333     16.000000
  0.250000  0.166667  0.083333     16.000000
  0.333333  0.166667  0.083333     16.000000
  0.416667  0.166667  0.083333     16.000000
  0.500000  0.166667  0.083333      8.000000
  0.000000  0.250000  0.083333      8.000000
  0.083333  0.250000  0.083333     16.000000
  0.166667  0.250000  0.083333     16.000000
  0.250000  0.250000  0.083333     16.000000
  0.333333  0.250000  0.083333     16.000000
  0.416667  0.250000  0.083333     16.000000
  0.500000  0.250000  0.083333      8.000000
  0.000000  0.333333  0.083333      8.000000
  0.083333  0.333333  0.083333     16.000000
  0.166667  0.333333  0.083333     16.000000
  0.250000  0.333333  0.083333     16.000000
  0.333333  0.333333  0.083333     16.000000
  0.416667  0.333333  0.083333     16.000000
  0.500000  0.333333  0.083333      8.000000
  0.000000  0.416667  0.083333      8.000000
  0.083333  0.416667  0.083333     16.000000
  0.166667  0.416667  0.083333     16.000000
  0.250000  0.416667  0.083333     16.000000
  0.333333  0.416667  0.083333     16.000000
  0.416667  0.416667  0.083333     16.000000
  0.500000  0.416667  0.083333      8.000000
  0.000000  0.500000  0.083333      4.000000
  0.083333  0.500000  0.083333      8.000000
  0.166667  0.500000  0.083333      8.000000
  0.250000  0.500000  0.083333      8.000000
  0.333333  0.500000  0.083333      8.000000
  0.416667  0.500000  0.083333      8.000000
  0.500000  0.500000  0.083333      4.000000
  0.000000  0.166667  0.166667      4.000000
  0.083333  0.166667  0.166667      8.000000
  0.166667  0.166667  0.166667      8.000000
  0.250000  0.166667  0.166667      8.000000
  0.333333  0.166667  0.166667      8.000000
  0.416667  0.166667  0.166667      8.000000
  0.500000  0.166667  0.166667      4.000000
  0.000000  0.250000  0.166667      8.000000
  0.083333  0.250000  0.166667     16.000000
  0.166667  0.250000  0.166667     16.000000
  0.250000  0.250000  0.166667     16.000000
  0.333333  0.250000  0.166667     16.000000
  0.416667  0.250000  0.166667     16.000000
  0.500000  0.250000  0.166667      8.000000
  0.000000  0.333333  0.166667      8.000000
  0.083333  0.333333  0.166667     16.000000
  0.166667  0.333333  0.166667     16.000000
  0.250000  0.333333  0.166667     16.000000
  0.333333  0.333333  0.166667     16.000000
  0.416667  0.333333  0.166667     16.000000
  0.500000  0.333333  0.166667      8.000000
  0.000000  0.416667  0.166667      8.000000
  0.083333  0.416667  0.166667     16.000000
  0.166667  0.416667  0.166667     16.000000
  0.250000  0.416667  0.166667     16.000000
  0.333333  0.416667  0.166667     16.000000
  0.416667  0.416667  0.166667     16.000000
  0.500000  0.416667  0.166667      8.000000
  0.000000  0.500000  0.166667      4.000000
  0.083333  0.500000  0.166667      8.000000
  0.166667  0.500000  0.166667      8.000000
  0.250000  0.500000  0.166667      8.000000
  0.333333  0.500000  0.166667      8.000000
  0.416667  0.500000  0.166667      8.000000
  0.500000  0.500000  0.166667      4.000000
  0.000000  0.250000  0.250000      4.000000
  0.083333  0.250000  0.250000      8.000000
  0.166667  0.250000  0.250000      8.000000
  0.250000  0.250000  0.250000      8.000000
  0.333333  0.250000  0.250000      8.000000
  0.416667  0.250000  0.250000      8.000000
  0.500000  0.250000  0.250000      4.000000
  0.000000  0.333333  0.250000      8.000000
  0.083333  0.333333  0.250000     16.000000
  0.166667  0.333333  0.250000     16.000000
  0.250000  0.333333  0.250000     16.000000
  0.333333  0.333333  0.250000     16.000000
  0.416667  0.333333  0.250000     16.000000
  0.500000  0.333333  0.250000      8.000000
  0.000000  0.416667  0.250000      8.000000
  0.083333  0.416667  0.250000     16.000000
  0.166667  0.416667  0.250000     16.000000
  0.250000  0.416667  0.250000     16.000000
  0.333333  0.416667  0.250000     16.000000
  0.416667  0.416667  0.250000     16.000000
  0.500000  0.416667  0.250000      8.000000
  0.000000  0.500000  0.250000      4.000000
  0.083333  0.500000  0.250000      8.000000
  0.166667  0.500000  0.250000      8.000000
  0.250000  0.500000  0.250000      8.000000
  0.333333  0.500000  0.250000      8.000000
  0.416667  0.500000  0.250000      8.000000
  0.500000  0.500000  0.250000      4.000000
  0.000000  0.333333  0.333333      4.000000
  0.083333  0.333333  0.333333      8.000000
  0.166667  0.333333  0.333333      8.000000
  0.250000  0.333333  0.333333      8.000000
  0.333333  0.333333  0.333333      8.000000
  0.416667  0.333333  0.333333      8.000000
  0.500000  0.333333  0.333333      4.000000
  0.000000  0.416667  0.333333      8.000000
  0.083333  0.416667  0.333333     16.000000
  0.166667  0.416667  0.333333     16.000000
  0.250000  0.416667  0.333333     16.000000
  0.333333  0.416667  0.333333     16.000000
  0.416667  0.416667  0.333333     16.000000
  0.500000  0.416667  0.333333      8.000000
  0.000000  0.500000  0.333333      4.000000
  0.083333  0.500000  0.333333      8.000000
  0.166667  0.500000  0.333333      8.000000
  0.250000  0.500000  0.333333      8.000000
  0.333333  0.500000  0.333333      8.000000
  0.416667  0.500000  0.333333      8.000000
  0.500000  0.500000  0.333333      4.000000
  0.000000  0.416667  0.416667      4.000000
  0.083333  0.416667  0.416667      8.000000
  0.166667  0.416667  0.416667      8.000000
  0.250000  0.416667  0.416667      8.000000
  0.333333  0.416667  0.416667      8.000000
  0.416667  0.416667  0.416667      8.000000
  0.500000  0.416667  0.416667      4.000000
  0.000000  0.500000  0.416667      4.000000
  0.083333  0.500000  0.416667      8.000000
  0.166667  0.500000  0.416667      8.000000
  0.250000  0.500000  0.416667      8.000000
  0.333333  0.500000  0.416667      8.000000
  0.416667  0.500000  0.416667      8.000000
  0.500000  0.500000  0.416667      4.000000
  0.000000  0.500000  0.500000      1.000000
  0.083333  0.500000  0.500000      2.000000
  0.166667  0.500000  0.500000      2.000000
  0.250000  0.500000  0.500000      2.000000
  0.333333  0.500000  0.500000      2.000000
  0.416667  0.500000  0.500000      2.000000
  0.500000  0.500000  0.500000      1.000000
 
 Following cartesian coordinates:
            Coordinates               Weight
  0.000000  0.000000  0.000000      1.000000
  0.010531  0.000000  0.000000      2.000000
  0.021062  0.000000  0.000000      2.000000
  0.031593  0.000000  0.000000      2.000000
  0.042124  0.000000  0.000000      2.000000
  0.052655  0.000000  0.000000      2.000000
  0.063186  0.000000  0.000000      1.000000
  0.000000  0.010531  0.000000      4.000000
  0.010531  0.010531  0.000000      8.000000
  0.021062  0.010531  0.000000      8.000000
  0.031593  0.010531  0.000000      8.000000
  0.042124  0.010531  0.000000      8.000000
  0.052655  0.010531  0.000000      8.000000
  0.063186  0.010531  0.000000      4.000000
  0.000000  0.021062  0.000000      4.000000
  0.010531  0.021062  0.000000      8.000000
  0.021062  0.021062  0.000000      8.000000
  0.031593  0.021062  0.000000      8.000000
  0.042124  0.021062  0.000000      8.000000
  0.052655  0.021062  0.000000      8.000000
  0.063186  0.021062  0.000000      4.000000
  0.000000  0.031593  0.000000      4.000000
  0.010531  0.031593  0.000000      8.000000
  0.021062  0.031593  0.000000      8.000000
  0.031593  0.031593  0.000000      8.000000
  0.042124  0.031593  0.000000      8.000000
  0.052655  0.031593  0.000000      8.000000
  0.063186  0.031593  0.000000      4.000000
  0.000000  0.042124  0.000000      4.000000
  0.010531  0.042124  0.000000      8.000000
  0.021062  0.042124  0.000000      8.000000
  0.031593  0.042124  0.000000      8.000000
  0.042124  0.042124  0.000000      8.000000
  0.052655  0.042124  0.000000      8.000000
  0.063186  0.042124  0.000000      4.000000
  0.000000  0.052655  0.000000      4.000000
  0.010531  0.052655  0.000000      8.000000
  0.021062  0.052655  0.000000      8.000000
  0.031593  0.052655  0.000000      8.000000
  0.042124  0.052655  0.000000      8.000000
  0.052655  0.052655  0.000000      8.000000
  0.063186  0.052655  0.000000      4.000000
  0.000000  0.063186  0.000000      2.000000
  0.010531  0.063186  0.000000      4.000000
  0.021062  0.063186  0.000000      4.000000
  0.031593  0.063186  0.000000      4.000000
  0.042124  0.063186  0.000000      4.000000
  0.052655  0.063186  0.000000      4.000000
  0.063186  0.063186  0.000000      2.000000
  0.000000  0.010531  0.010531      4.000000
  0.010531  0.010531  0.010531      8.000000
  0.021062  0.010531  0.010531      8.000000
  0.031593  0.010531  0.010531      8.000000
  0.042124  0.010531  0.010531      8.000000
  0.052655  0.010531  0.010531      8.000000
  0.063186  0.010531  0.010531      4.000000
  0.000000  0.021062  0.010531      8.000000
  0.010531  0.021062  0.010531     16.000000
  0.021062  0.021062  0.010531     16.000000
  0.031593  0.021062  0.010531     16.000000
  0.042124  0.021062  0.010531     16.000000
  0.052655  0.021062  0.010531     16.000000
  0.063186  0.021062  0.010531      8.000000
  0.000000  0.031593  0.010531      8.000000
  0.010531  0.031593  0.010531     16.000000
  0.021062  0.031593  0.010531     16.000000
  0.031593  0.031593  0.010531     16.000000
  0.042124  0.031593  0.010531     16.000000
  0.052655  0.031593  0.010531     16.000000
  0.063186  0.031593  0.010531      8.000000
  0.000000  0.042124  0.010531      8.000000
  0.010531  0.042124  0.010531     16.000000
  0.021062  0.042124  0.010531     16.000000
  0.031593  0.042124  0.010531     16.000000
  0.042124  0.042124  0.010531     16.000000
  0.052655  0.042124  0.010531     16.000000
  0.063186  0.042124  0.010531      8.000000
  0.000000  0.052655  0.010531      8.000000
  0.010531  0.052655  0.010531     16.000000
  0.021062  0.052655  0.010531     16.000000
  0.031593  0.052655  0.010531     16.000000
  0.042124  0.052655  0.010531     16.000000
  0.052655  0.052655  0.010531     16.000000
  0.063186  0.052655  0.010531      8.000000
  0.000000  0.063186  0.010531      4.000000
  0.010531  0.063186  0.010531      8.000000
  0.021062  0.063186  0.010531      8.000000
  0.031593  0.063186  0.010531      8.000000
  0.042124  0.063186  0.010531      8.000000
  0.052655  0.063186  0.010531      8.000000
  0.063186  0.063186  0.010531      4.000000
  0.000000  0.021062  0.021062      4.000000
  0.010531  0.021062  0.021062      8.000000
  0.021062  0.021062  0.021062      8.000000
  0.031593  0.021062  0.021062      8.000000
  0.042124  0.021062  0.021062      8.000000
  0.052655  0.021062  0.021062      8.000000
  0.063186  0.021062  0.021062      4.000000
  0.000000  0.031593  0.021062      8.000000
  0.010531  0.031593  0.021062     16.000000
  0.021062  0.031593  0.021062     16.000000
  0.031593  0.031593  0.021062     16.000000
  0.042124  0.031593  0.021062     16.000000
  0.052655  0.031593  0.021062     16.000000
  0.063186  0.031593  0.021062      8.000000
  0.000000  0.042124  0.021062      8.000000
  0.010531  0.042124  0.021062     16.000000
  0.021062  0.042124  0.021062     16.000000
  0.031593  0.042124  0.021062     16.000000
  0.042124  0.042124  0.021062     16.000000
  0.052655  0.042124  0.021062     16.000000
  0.063186  0.042124  0.021062      8.000000
  0.000000  0.052655  0.021062      8.000000
  0.010531  0.052655  0.021062     16.000000
  0.021062  0.052655  0.021062     16.000000
  0.031593  0.052655  0.021062     16.000000
  0.042124  0.052655  0.021062     16.000000
  0.052655  0.052655  0.021062     16.000000
  0.063186  0.052655  0.021062      8.000000
  0.000000  0.063186  0.021062      4.000000
  0.010531  0.063186  0.021062      8.000000
  0.021062  0.063186  0.021062      8.000000
  0.031593  0.063186  0.021062      8.000000
  0.042124  0.063186  0.021062      8.000000
  0.052655  0.063186  0.021062      8.000000
  0.063186  0.063186  0.021062      4.000000
  0.000000  0.031593  0.031593      4.000000
  0.010531  0.031593  0.031593      8.000000
  0.021062  0.031593  0.031593      8.000000
  0.031593  0.031593  0.031593      8.000000
  0.042124  0.031593  0.031593      8.000000
  0.052655  0.031593  0.031593      8.000000
  0.063186  0.031593  0.031593      4.000000
  0.000000  0.042124  0.031593      8.000000
  0.010531  0.042124  0.031593     16.000000
  0.021062  0.042124  0.031593     16.000000
  0.031593  0.042124  0.031593     16.000000
  0.042124  0.042124  0.031593     16.000000
  0.052655  0.042124  0.031593     16.000000
  0.063186  0.042124  0.031593      8.000000
  0.000000  0.052655  0.031593      8.000000
  0.010531  0.052655  0.031593     16.000000
  0.021062  0.052655  0.031593     16.000000
  0.031593  0.052655  0.031593     16.000000
  0.042124  0.052655  0.031593     16.000000
  0.052655  0.052655  0.031593     16.000000
  0.063186  0.052655  0.031593      8.000000
  0.000000  0.063186  0.031593      4.000000
  0.010531  0.063186  0.031593      8.000000
  0.021062  0.063186  0.031593      8.000000
  0.031593  0.063186  0.031593      8.000000
  0.042124  0.063186  0.031593      8.000000
  0.052655  0.063186  0.031593      8.000000
  0.063186  0.063186  0.031593      4.000000
  0.000000  0.042124  0.042124      4.000000
  0.010531  0.042124  0.042124      8.000000
  0.021062  0.042124  0.042124      8.000000
  0.031593  0.042124  0.042124      8.000000
  0.042124  0.042124  0.042124      8.000000
  0.052655  0.042124  0.042124      8.000000
  0.063186  0.042124  0.042124      4.000000
  0.000000  0.052655  0.042124      8.000000
  0.010531  0.052655  0.042124     16.000000
  0.021062  0.052655  0.042124     16.000000
  0.031593  0.052655  0.042124     16.000000
  0.042124  0.052655  0.042124     16.000000
  0.052655  0.052655  0.042124     16.000000
  0.063186  0.052655  0.042124      8.000000
  0.000000  0.063186  0.042124      4.000000
  0.010531  0.063186  0.042124      8.000000
  0.021062  0.063186  0.042124      8.000000
  0.031593  0.063186  0.042124      8.000000
  0.042124  0.063186  0.042124      8.000000
  0.052655  0.063186  0.042124      8.000000
  0.063186  0.063186  0.042124      4.000000
  0.000000  0.052655  0.052655      4.000000
  0.010531  0.052655  0.052655      8.000000
  0.021062  0.052655  0.052655      8.000000
  0.031593  0.052655  0.052655      8.000000
  0.042124  0.052655  0.052655      8.000000
  0.052655  0.052655  0.052655      8.000000
  0.063186  0.052655  0.052655      4.000000
  0.000000  0.063186  0.052655      4.000000
  0.010531  0.063186  0.052655      8.000000
  0.021062  0.063186  0.052655      8.000000
  0.031593  0.063186  0.052655      8.000000
  0.042124  0.063186  0.052655      8.000000
  0.052655  0.063186  0.052655      8.000000
  0.063186  0.063186  0.052655      4.000000
  0.000000  0.063186  0.063186      1.000000
  0.010531  0.063186  0.063186      2.000000
  0.021062  0.063186  0.063186      2.000000
  0.031593  0.063186  0.063186      2.000000
  0.042124  0.063186  0.063186      2.000000
  0.052655  0.063186  0.063186      2.000000
  0.063186  0.063186  0.063186      1.000000
 


--------------------------------------------------------------------------------------------------------




 Dimension of arrays:
   k-Points           NKPTS =    196   number of bands    NBANDS=     68
   number of dos      NEDOS =    301   number of ions     NIONS =     32
   non local maximal  LDIM  =      4   non local SUM 2l+1 LMDIM =      8
   total plane-waves  NPLWV = 373248
   max r-space proj   IRMAX =      1   max aug-charges    IRDMAX= 234710
   dimension x,y,z NGX =    72 NGY =   72 NGZ =   72
   dimension x,y,z NGXF=   144 NGYF=  144 NGZF=  144
   support grid    NGXF=   288 NGYF=  288 NGZF=  288
   ions per type =              32
 NGX,Y,Z   is equivalent  to a cutoff of  15.13, 15.13, 15.13 a.u.
 NGXF,Y,Z  is equivalent  to a cutoff of  30.25, 30.25, 30.25 a.u.


 I would recommend the setting:
   dimension x,y,z NGX =    71 NGY =   71 NGZ =   71
 SYSTEM =  unknown system                          
 POSCAR =  Al                                      

 Startparameter for this run:
   NWRITE =      2    write-flag & timer
   PREC   = accura    medium, high low
   ISTART =      0    job   : 0-new  1-cont  2-samecut
   ICHARG =      2    charge: 1-file 2-atom 10-const
   ISPIN  =      1    spin polarized calculation?
   LNONCOLLINEAR =      F non collinear calculations
   LSORBIT =      F    spin-orbit coupling
   INIWAV =      1    electr: 0-lowe 1-rand  2-diag
   LASPH  =      F    aspherical Exc in radial PAW
   METAGGA=      F    non-selfconsistent MetaGGA calc.

 Electronic Relaxation 1
   ENCUT  =  750.0 eV  55.12 Ry    7.42 a.u.  17.67 17.67 17.67*2*pi/ulx,y,z
   ENINI  =  750.0     initial cutoff
   ENAUG  =  291.1 eV  augmentation charge cutoff
   NELM   =     60;   NELMIN=  2; NELMDL=  0     # of ELM steps 
   EDIFF  = 0.1E-07   stopping-criterion for ELM
   LREAL  =      F    real-space projection
   LCOMPAT=      F    compatible to vasp.4.4
   LREAL_COMPAT= F    compatible to vasp.4.5.1-3
   GGA_COMPAT  = T    GGA compatible to vasp.4.4-vasp.4.6
   LMAXPAW     = -100 max onsite density
   LMAXMIX     =    2 max onsite mixed and CHGCAR
   VOSKOWN=      0    Vosko Wilk Nusair interpolation
   ROPT   =    0.00000
 Ionic relaxation
   EDIFFG = 0.1E-06   stopping-criterion for IOM
   NSW    =      0    number of steps for IOM
   NBLOCK =      1;   KBLOCK =      1    inner block; outer block 
   IBRION =     -1    ionic relax: 0-MD 1-quasi-New 2-CG
   NFREE  =      0    steps in history (QN), initial steepest desc. (CG)
   ISIF   =      2    stress and relaxation
   IWAVPR =     10    prediction:  0-non 1-charg 2-wave 3-comb
   ISYM   =      2    0-nonsym 1-usesym 2-fastsym
   LCORR  =      T    Harris-Foulkes like correction to forces

   POTIM  =   0.50    time-step for ionic-motion
   TEIN   =    0.0    initial temperature
   TEBEG  =    0.0;   TEEND  =   0.0 temperature during run
   SMASS  =  -3.00    Nose mass-parameter (am)
   estimated Nose-frequenzy (Omega)   =  0.10E-29 period in steps =****** mass=  -0.143E-26a.u.
   NPACO  =    256;   APACO  = 16.0  distance and # of slots for P.C.
   PSTRESS=    0.0 pullay stress

  Mass of Ions in am
   POMASS =  26.98
  Ionic Valenz
   ZVAL   =   3.00
  Atomic Wigner-Seitz radii
   RWIGS  =  -1.00
   NELECT =      96.0000    total number of electrons
   NUPDOWN=      -1.0000    fix difference up-down

 DOS related values:
   EMIN   =  10.00;   EMAX   =-10.00  energy-range for DOS
   ISMEAR =     0;   SIGMA  =   0.01  broadening in eV -4-tet -1-fermi 0-gaus

 Electronic relaxation 2 (details)
   IALGO  =     38    algorithm
   LDIAG  =      T    sub-space diagonalisation
   IMIX   =      4    mixing-type and parameters
     AMIX     =   0.40;   BMIX     =  1.00
     AMIX_MAG =   1.60;   BMIX_MAG =  1.00
     AMIN     =   0.10
     WC   =   100.;   INIMIX=   1;  MIXPRE=   1

 Intra band minimization:
   WEIMIN = 0.0000     energy-eigenvalue tresh-hold
   EBREAK =  0.38E-10  absolut break condition
   DEPER  =   0.30     relativ break condition  

   TIME   =   0.10     timestep for ELM

  volume/ion in A,a.u.               =      15.48       104.49
  Fermi-wavevector in a.u.,eV,Ry     =   0.947293 12.209368  0.897363

 Second variation
   LSECVAR=     F    do a second variation
 
 Write flags
   LWAVE  =      F    write WAVECAR
   LCHARG =      F    write CHGCAR
   LVTOT  =      F    write LOCPOT, local potential
   LELF   =      F    write electronic localiz. function (ELF)
   LORBIT =      0    0 simple, 1 ext, 2 COOP (PROOUT)


 Dipole corrections
   IDIPOL =      0    1-x, 2-y, 3-z
   LDIPOL =      F    correct potential



--------------------------------------------------------------------------------------------------------


 Static calculation
 charge density will be updated during run
 non-spin polarized calculation
 Variant of blocked Davidson
 Davidson routine will perform the subspace rotation
 performe sub-space diagonalisation
    after iterative eigenvector-optimisation
 modified Broyden-mixing scheme, WC =      100.0
 initial mixing is a Kerker type mixing with AMIX =  0.4000 and BMIX =      1.0000
 Hartree-type preconditioning will be used
 using additional bands           20
 reciprocal scheme for non local part
 use partial core corrections
 calculate Harris-corrections to forces 
   (improved forces if not selfconsistent)
 use gradient corrections 
 use of overlap-Matrix (Vanderbilt PP)
 Gauss-broadening in eV      SIGMA  =   0.01


--------------------------------------------------------------------------------------------------------


  energy-cutoff  :      750.00
  volume of cell :      495.50
      direct lattice vectors                 reciprocal lattice vectors
     7.913120485  0.000000000  0.000000000     0.126372397  0.000000000  0.000000000
     0.000000000  7.913120485  0.000000000     0.000000000  0.126372397  0.000000000
     0.000000000  0.000000000  7.913120485     0.000000000  0.000000000  0.126372397

  length of vectors
     7.913120485  7.913120485  7.913120485     0.126372397  0.126372397  0.126372397


 
 k-points in units of 2pi/SCALE and weight: Automatic mesh                          
   0.00000000  0.00000000  0.00000000       0.001
   0.01053103  0.00000000  0.00000000       0.001
   0.02106207  0.00000000  0.00000000       0.001
   0.03159310  0.00000000  0.00000000       0.001
   0.04212413  0.00000000  0.00000000       0.001
   0.05265517  0.00000000  0.00000000       0.001
   0.06318620  0.00000000  0.00000000       0.001
   0.00000000  0.01053103  0.00000000       0.002
   0.01053103  0.01053103  0.00000000       0.005
   0.02106207  0.01053103  0.00000000       0.005
   0.03159310  0.01053103  0.00000000       0.005
   0.04212413  0.01053103  0.00000000       0.005
   0.05265517  0.01053103  0.00000000       0.005
   0.06318620  0.01053103  0.00000000       0.002
   0.00000000  0.02106207  0.00000000       0.002
   0.01053103  0.02106207  0.00000000       0.005
   0.02106207  0.02106207  0.00000000       0.005
   0.03159310  0.02106207  0.00000000       0.005
   0.04212413  0.02106207  0.00000000       0.005
   0.05265517  0.02106207  0.00000000       0.005
   0.06318620  0.02106207  0.00000000       0.002
   0.00000000  0.03159310  0.00000000       0.002
   0.01053103  0.03159310  0.00000000       0.005
   0.02106207  0.03159310  0.00000000       0.005
   0.03159310  0.03159310  0.00000000       0.005
   0.04212413  0.03159310  0.00000000       0.005
   0.05265517  0.03159310  0.00000000       0.005
   0.06318620  0.03159310  0.00000000       0.002
   0.00000000  0.04212413  0.00000000       0.002
   0.01053103  0.04212413  0.00000000       0.005
   0.02106207  0.04212413  0.00000000       0.005
   0.03159310  0.04212413  0.00000000       0.005
   0.04212413  0.04212413  0.00000000       0.005
   0.05265517  0.04212413  0.00000000       0.005
   0.06318620  0.04212413  0.00000000       0.002
   0.00000000  0.05265517  0.00000000       0.002
   0.01053103  0.05265517  0.00000000       0.005
   0.02106207  0.05265517  0.00000000       0.005
   0.03159310  0.05265517  0.00000000       0.005
   0.04212413  0.05265517  0.00000000       0.005
   0.05265517  0.05265517  0.00000000       0.005
   0.06318620  0.05265517  0.00000000       0.002
   0.00000000  0.06318620  0.00000000       0.001
   0.01053103  0.06318620  0.00000000       0.002
   0.02106207  0.06318620  0.00000000       0.002
   0.03159310  0.06318620  0.00000000       0.002
   0.04212413  0.06318620  0.00000000       0.002
   0.05265517  0.06318620  0.00000000       0.002
   0.06318620  0.06318620  0.00000000       0.001
   0.00000000  0.01053103  0.01053103       0.002
   0.01053103  0.01053103  0.01053103       0.005
   0.02106207  0.01053103  0.01053103       0.005
   0.03159310  0.01053103  0.01053103       0.005
   0.04212413  0.01053103  0.01053103       0.005
   0.05265517  0.01053103  0.01053103       0.005
   0.06318620  0.01053103  0.01053103       0.002
   0.00000000  0.02106207  0.01053103       0.005
   0.01053103  0.02106207  0.01053103       0.009
   0.02106207  0.02106207  0.01053103       0.009
   0.03159310  0.02106207  0.01053103       0.009
   0.04212413  0.02106207  0.01053103       0.009
   0.05265517  0.02106207  0.01053103       0.009
   0.06318620  0.02106207  0.01053103       0.005
   0.00000000  0.03159310  0.01053103       0.005
   0.01053103  0.03159310  0.01053103       0.009
   0.02106207  0.03159310  0.01053103       0.009
   0.03159310  0.03159310  0.01053103       0.009
   0.04212413  0.03159310  0.01053103       0.009
   0.05265517  0.03159310  0.01053103       0.009
   0.06318620  0.03159310  0.01053103       0.005
   0.00000000  0.04212413  0.01053103       0.005
   0.01053103  0.04212413  0.01053103       0.009
   0.02106207  0.04212413  0.01053103       0.009
   0.03159310  0.04212413  0.01053103       0.009
   0.04212413  0.04212413  0.01053103       0.009
   0.05265517  0.04212413  0.01053103       0.009
   0.06318620  0.04212413  0.01053103       0.005
   0.00000000  0.05265517  0.01053103       0.005
   0.01053103  0.05265517  0.01053103       0.009
   0.02106207  0.05265517  0.01053103       0.009
   0.03159310  0.05265517  0.01053103       0.009
   0.04212413  0.05265517  0.01053103       0.009
   0.05265517  0.05265517  0.01053103       0.009
   0.06318620  0.05265517  0.01053103       0.005
   0.00000000  0.06318620  0.01053103       0.002
   0.01053103  0.06318620  0.01053103       0.005
   0.02106207  0.06318620  0.01053103       0.005
   0.03159310  0.06318620  0.01053103       0.005
   0.04212413  0.06318620  0.01053103       0.005
   0.05265517  0.06318620  0.01053103       0.005
   0.06318620  0.06318620  0.01053103       0.002
   0.00000000  0.02106207  0.02106207       0.002
   0.01053103  0.02106207  0.02106207       0.005
   0.02106207  0.02106207  0.02106207       0.005
   0.03159310  0.02106207  0.02106207       0.005
   0.04212413  0.02106207  0.02106207       0.005
   0.05265517  0.02106207  0.02106207       0.005
   0.06318620  0.02106207  0.02106207       0.002
   0.00000000  0.03159310  0.02106207       0.005
   0.01053103  0.03159310  0.02106207       0.009
   0.02106207  0.03159310  0.02106207       0.009
   0.03159310  0.03159310  0.02106207       0.009
   0.04212413  0.03159310  0.02106207       0.009
   0.05265517  0.03159310  0.02106207       0.009
   0.06318620  0.03159310  0.02106207       0.005
   0.00000000  0.04212413  0.02106207       0.005
   0.01053103  0.04212413  0.02106207       0.009
   0.02106207  0.04212413  0.02106207       0.009
   0.03159310  0.04212413  0.02106207       0.009
   0.04212413  0.04212413  0.02106207       0.009
   0.05265517  0.04212413  0.02106207       0.009
   0.06318620  0.04212413  0.02106207       0.005
   0.00000000  0.05265517  0.02106207       0.005
   0.01053103  0.05265517  0.02106207       0.009
   0.02106207  0.05265517  0.02106207       0.009
   0.03159310  0.05265517  0.02106207       0.009
   0.04212413  0.05265517  0.02106207       0.009
   0.05265517  0.05265517  0.02106207       0.009
   0.06318620  0.05265517  0.02106207       0.005
   0.00000000  0.06318620  0.02106207       0.002
   0.01053103  0.06318620  0.02106207       0.005
   0.02106207  0.06318620  0.02106207       0.005
   0.03159310  0.06318620  0.02106207       0.005
   0.04212413  0.06318620  0.02106207       0.005
   0.05265517  0.06318620  0.02106207       0.005
   0.06318620  0.06318620  0.02106207       0.002
   0.00000000  0.03159310  0.03159310       0.002
   0.01053103  0.03159310  0.03159310       0.005
   0.02106207  0.03159310  0.03159310       0.005
   0.03159310  0.03159310  0.03159310       0.005
   0.04212413  0.03159310  0.03159310       0.005
   0.05265517  0.03159310  0.03159310       0.005
   0.06318620  0.03159310  0.03159310       0.002
   0.00000000  0.04212413  0.03159310       0.005
   0.01053103  0.04212413  0.03159310       0.009
   0.02106207  0.04212413  0.03159310       0.009
   0.03159310  0.04212413  0.03159310       0.009
   0.04212413  0.04212413  0.03159310       0.009
   0.05265517  0.04212413  0.03159310       0.009
   0.06318620  0.04212413  0.03159310       0.005
   0.00000000  0.05265517  0.03159310       0.005
   0.01053103  0.05265517  0.03159310       0.009
   0.02106207  0.05265517  0.03159310       0.009
   0.03159310  0.05265517  0.03159310       0.009
   0.04212413  0.05265517  0.03159310       0.009
   0.05265517  0.05265517  0.03159310       0.009
   0.06318620  0.05265517  0.03159310       0.005
   0.00000000  0.06318620  0.03159310       0.002
   0.01053103  0.06318620  0.03159310       0.005
   0.02106207  0.06318620  0.03159310       0.005
   0.03159310  0.06318620  0.03159310       0.005
   0.04212413  0.06318620  0.03159310       0.005
   0.05265517  0.06318620  0.03159310       0.005
   0.06318620  0.06318620  0.03159310       0.002
   0.00000000  0.04212413  0.04212413       0.002
   0.01053103  0.04212413  0.04212413       0.005
   0.02106207  0.04212413  0.04212413       0.005
   0.03159310  0.04212413  0.04212413       0.005
   0.04212413  0.04212413  0.04212413       0.005
   0.05265517  0.04212413  0.04212413       0.005
   0.06318620  0.04212413  0.04212413       0.002
   0.00000000  0.05265517  0.04212413       0.005
   0.01053103  0.05265517  0.04212413       0.009
   0.02106207  0.05265517  0.04212413       0.009
   0.03159310  0.05265517  0.04212413       0.009
   0.04212413  0.05265517  0.04212413       0.009
   0.05265517  0.05265517  0.04212413       0.009
   0.06318620  0.05265517  0.04212413       0.005
   0.00000000  0.06318620  0.04212413       0.002
   0.01053103  0.06318620  0.04212413       0.005
   0.02106207  0.06318620  0.04212413       0.005
   0.03159310  0.06318620  0.04212413       0.005
   0.04212413  0.06318620  0.04212413       0.005
   0.05265517  0.06318620  0.04212413       0.005
   0.06318620  0.06318620  0.04212413       0.002
   0.00000000  0.05265517  0.05265517       0.002
   0.01053103  0.05265517  0.05265517       0.005
   0.02106207  0.05265517  0.05265517       0.005
   0.03159310  0.05265517  0.05265517       0.005
   0.04212413  0.05265517  0.05265517       0.005
   0.05265517  0.05265517  0.05265517       0.005
   0.06318620  0.05265517  0.05265517       0.002
   0.00000000  0.06318620  0.05265517       0.002
   0.01053103  0.06318620  0.05265517       0.005
   0.02106207  0.06318620  0.05265517       0.005
   0.03159310  0.06318620  0.05265517       0.005
   0.04212413  0.06318620  0.05265517       0.005
   0.05265517  0.06318620  0.05265517       0.005
   0.06318620  0.06318620  0.05265517       0.002
   0.00000000  0.06318620  0.06318620       0.001
   0.01053103  0.06318620  0.06318620       0.001
   0.02106207  0.06318620  0.06318620       0.001
   0.03159310  0.06318620  0.06318620       0.001
   0.04212413  0.06318620  0.06318620       0.001
   0.05265517  0.06318620  0.06318620       0.001
   0.06318620  0.06318620  0.06318620       0.001
 
 k-points in reciprocal lattice and weights: Automatic mesh                          
   0.00000000  0.00000000  0.00000000       0.001
   0.08333333  0.00000000  0.00000000       0.001
   0.16666667  0.00000000  0.00000000       0.001
   0.25000000  0.00000000  0.00000000       0.001
   0.33333333  0.00000000  0.00000000       0.001
   0.41666667  0.00000000  0.00000000       0.001
   0.50000000  0.00000000  0.00000000       0.001
   0.00000000  0.08333333  0.00000000       0.002
   0.08333333  0.08333333  0.00000000       0.005
   0.16666667  0.08333333  0.00000000       0.005
   0.25000000  0.08333333  0.00000000       0.005
   0.33333333  0.08333333  0.00000000       0.005
   0.41666667  0.08333333  0.00000000       0.005
   0.50000000  0.08333333  0.00000000       0.002
   0.00000000  0.16666667  0.00000000       0.002
   0.08333333  0.16666667  0.00000000       0.005
   0.16666667  0.16666667  0.00000000       0.005
   0.25000000  0.16666667  0.00000000       0.005
   0.33333333  0.16666667  0.00000000       0.005
   0.41666667  0.16666667  0.00000000       0.005
   0.50000000  0.16666667  0.00000000       0.002
   0.00000000  0.25000000  0.00000000       0.002
   0.08333333  0.25000000  0.00000000       0.005
   0.16666667  0.25000000  0.00000000       0.005
   0.25000000  0.25000000  0.00000000       0.005
   0.33333333  0.25000000  0.00000000       0.005
   0.41666667  0.25000000  0.00000000       0.005
   0.50000000  0.25000000  0.00000000       0.002
   0.00000000  0.33333333  0.00000000       0.002
   0.08333333  0.33333333  0.00000000       0.005
   0.16666667  0.33333333  0.00000000       0.005
   0.25000000  0.33333333  0.00000000       0.005
   0.33333333  0.33333333  0.00000000       0.005
   0.41666667  0.33333333  0.00000000       0.005
   0.50000000  0.33333333  0.00000000       0.002
   0.00000000  0.41666667  0.00000000       0.002
   0.08333333  0.41666667  0.00000000       0.005
   0.16666667  0.41666667  0.00000000       0.005
   0.25000000  0.41666667  0.00000000       0.005
   0.33333333  0.41666667  0.00000000       0.005
   0.41666667  0.41666667  0.00000000       0.005
   0.50000000  0.41666667  0.00000000       0.002
   0.00000000  0.50000000  0.00000000       0.001
   0.08333333  0.50000000  0.00000000       0.002
   0.16666667  0.50000000  0.00000000       0.002
   0.25000000  0.50000000  0.00000000       0.002
   0.33333333  0.50000000  0.00000000       0.002
   0.41666667  0.50000000  0.00000000       0.002
   0.50000000  0.50000000  0.00000000       0.001
   0.00000000  0.08333333  0.08333333       0.002
   0.08333333  0.08333333  0.08333333       0.005
   0.16666667  0.08333333  0.08333333       0.005
   0.25000000  0.08333333  0.08333333       0.005
   0.33333333  0.08333333  0.08333333       0.005
   0.41666667  0.08333333  0.08333333       0.005
   0.50000000  0.08333333  0.08333333       0.002
   0.00000000  0.16666667  0.08333333       0.005
   0.08333333  0.16666667  0.08333333       0.009
   0.16666667  0.16666667  0.08333333       0.009
   0.25000000  0.16666667  0.08333333       0.009
   0.33333333  0.16666667  0.08333333       0.009
   0.41666667  0.16666667  0.08333333       0.009
   0.50000000  0.16666667  0.08333333       0.005
   0.00000000  0.25000000  0.08333333       0.005
   0.08333333  0.25000000  0.08333333       0.009
   0.16666667  0.25000000  0.08333333       0.009
   0.25000000  0.25000000  0.08333333       0.009
   0.33333333  0.25000000  0.08333333       0.009
   0.41666667  0.25000000  0.08333333       0.009
   0.50000000  0.25000000  0.08333333       0.005
   0.00000000  0.33333333  0.08333333       0.005
   0.08333333  0.33333333  0.08333333       0.009
   0.16666667  0.33333333  0.08333333       0.009
   0.25000000  0.33333333  0.08333333       0.009
   0.33333333  0.33333333  0.08333333       0.009
   0.41666667  0.33333333  0.08333333       0.009
   0.50000000  0.33333333  0.08333333       0.005
   0.00000000  0.41666667  0.08333333       0.005
   0.08333333  0.41666667  0.08333333       0.009
   0.16666667  0.41666667  0.08333333       0.009
   0.25000000  0.41666667  0.08333333       0.009
   0.33333333  0.41666667  0.08333333       0.009
   0.41666667  0.41666667  0.08333333       0.009
   0.50000000  0.41666667  0.08333333       0.005
   0.00000000  0.50000000  0.08333333       0.002
   0.08333333  0.50000000  0.08333333       0.005
   0.16666667  0.50000000  0.08333333       0.005
   0.25000000  0.50000000  0.08333333       0.005
   0.33333333  0.50000000  0.08333333       0.005
   0.41666667  0.50000000  0.08333333       0.005
   0.50000000  0.50000000  0.08333333       0.002
   0.00000000  0.16666667  0.16666667       0.002
   0.08333333  0.16666667  0.16666667       0.005
   0.16666667  0.16666667  0.16666667       0.005
   0.25000000  0.16666667  0.16666667       0.005
   0.33333333  0.16666667  0.16666667       0.005
   0.41666667  0.16666667  0.16666667       0.005
   0.50000000  0.16666667  0.16666667       0.002
   0.00000000  0.25000000  0.16666667       0.005
   0.08333333  0.25000000  0.16666667       0.009
   0.16666667  0.25000000  0.16666667       0.009
   0.25000000  0.25000000  0.16666667       0.009
   0.33333333  0.25000000  0.16666667       0.009
   0.41666667  0.25000000  0.16666667       0.009
   0.50000000  0.25000000  0.16666667       0.005
   0.00000000  0.33333333  0.16666667       0.005
   0.08333333  0.33333333  0.16666667       0.009
   0.16666667  0.33333333  0.16666667       0.009
   0.25000000  0.33333333  0.16666667       0.009
   0.33333333  0.33333333  0.16666667       0.009
   0.41666667  0.33333333  0.16666667       0.009
   0.50000000  0.33333333  0.16666667       0.005
   0.00000000  0.41666667  0.16666667       0.005
   0.08333333  0.41666667  0.16666667       0.009
   0.16666667  0.41666667  0.16666667       0.009
   0.25000000  0.41666667  0.16666667       0.009
   0.33333333  0.41666667  0.16666667       0.009
   0.41666667  0.41666667  0.16666667       0.009
   0.50000000  0.41666667  0.16666667       0.005
   0.00000000  0.50000000  0.16666667       0.002
   0.08333333  0.50000000  0.16666667       0.005
   0.16666667  0.50000000  0.16666667       0.005
   0.25000000  0.50000000  0.16666667       0.005
   0.33333333  0.50000000  0.16666667       0.005
   0.41666667  0.50000000  0.16666667       0.005
   0.50000000  0.50000000  0.16666667       0.002
   0.00000000  0.25000000  0.25000000       0.002
   0.08333333  0.25000000  0.25000000       0.005
   0.16666667  0.25000000  0.25000000       0.005
   0.25000000  0.25000000  0.25000000       0.005
   0.33333333  0.25000000  0.25000000       0.005
   0.41666667  0.25000000  0.25000000       0.005
   0.50000000  0.25000000  0.25000000       0.002
   0.00000000  0.33333333  0.25000000       0.005
   0.08333333  0.33333333  0.25000000       0.009
   0.16666667  0.33333333  0.25000000       0.009
   0.25000000  0.33333333  0.25000000       0.009
   0.33333333  0.33333333  0.25000000       0.009
   0.41666667  0.33333333  0.25000000       0.009
   0.50000000  0.33333333  0.25000000       0.005
   0.00000000  0.41666667  0.25000000       0.005
   0.08333333  0.41666667  0.25000000       0.009
   0.16666667  0.41666667  0.25000000       0.009
   0.25000000  0.41666667  0.25000000       0.009
   0.33333333  0.41666667  0.25000000       0.009
   0.41666667  0.41666667  0.25000000       0.009
   0.50000000  0.41666667  0.25000000       0.005
   0.00000000  0.50000000  0.25000000       0.002
   0.08333333  0.50000000  0.25000000       0.005
   0.16666667  0.50000000  0.25000000       0.005
   0.25000000  0.50000000  0.25000000       0.005
   0.33333333  0.50000000  0.25000000       0.005
   0.41666667  0.50000000  0.25000000       0.005
   0.50000000  0.50000000  0.25000000       0.002
   0.00000000  0.33333333  0.33333333       0.002
   0.08333333  0.33333333  0.33333333       0.005
   0.16666667  0.33333333  0.33333333       0.005
   0.25000000  0.33333333  0.33333333       0.005
   0.33333333  0.33333333  0.33333333       0.005
   0.41666667  0.33333333  0.33333333       0.005
   0.50000000  0.33333333  0.33333333       0.002
   0.00000000  0.41666667  0.33333333       0.005
   0.08333333  0.41666667  0.33333333       0.009
   0.16666667  0.41666667  0.33333333       0.009
   0.25000000  0.41666667  0.33333333       0.009
   0.33333333  0.41666667  0.33333333       0.009
   0.41666667  0.41666667  0.33333333       0.009
   0.50000000  0.41666667  0.33333333       0.005
   0.00000000  0.50000000  0.33333333       0.002
   0.08333333  0.50000000  0.33333333       0.005
   0.16666667  0.50000000  0.33333333       0.005
   0.25000000  0.50000000  0.33333333       0.005
   0.33333333  0.50000000  0.33333333       0.005
   0.41666667  0.50000000  0.33333333       0.005
   0.50000000  0.50000000  0.33333333       0.002
   0.00000000  0.41666667  0.41666667       0.002
   0.08333333  0.41666667  0.41666667       0.005
   0.16666667  0.41666667  0.41666667       0.005
   0.25000000  0.41666667  0.41666667       0.005
   0.33333333  0.41666667  0.41666667       0.005
   0.41666667  0.41666667  0.41666667       0.005
   0.50000000  0.41666667  0.41666667       0.002
   0.00000000  0.50000000  0.41666667       0.002
   0.08333333  0.50000000  0.41666667       0.005
   0.16666667  0.50000000  0.41666667       0.005
   0.25000000  0.50000000  0.41666667       0.005
   0.33333333  0.50000000  0.41666667       0.005
   0.41666667  0.50000000  0.41666667       0.005
   0.50000000  0.50000000  0.41666667       0.002
   0.00000000  0.50000000  0.50000000       0.001
   0.08333333  0.50000000  0.50000000       0.001
   0.16666667  0.50000000  0.50000000       0.001
   0.25000000  0.50000000  0.50000000       0.001
   0.33333333  0.50000000  0.50000000       0.001
   0.41666667  0.50000000  0.50000000       0.001
   0.50000000  0.50000000  0.50000000       0.001
 
 position of ions in fractional coordinates (direct lattice) 
   0.25126372  0.25000000  0.00000000
   0.75000000  0.25000000  0.00000000
   0.25000000  0.75000000  0.00000000
   0.75000000  0.75000000  0.00000000
   0.25000000  0.25000000  0.50000000
   0.75000000  0.25000000  0.50000000
   0.25000000  0.75000000  0.50000000
   0.75000000  0.75000000  0.50000000
   0.25000000  0.00000000  0.25000000
   0.75000000  0.00000000  0.25000000
   0.25000000  0.50000000  0.25000000
   0.75000000  0.50000000  0.25000000
   0.25000000  0.00000000  0.75000000
   0.75000000  0.00000000  0.75000000
   0.25000000  0.50000000  0.75000000
   0.75000000  0.50000000  0.75000000
   0.00000000  0.25000000  0.25000000
   0.50000000  0.25000000  0.25000000
   0.00000000  0.75000000  0.25000000
   0.50000000  0.75000000  0.25000000
   0.00000000  0.25000000  0.75000000
   0.50000000  0.25000000  0.75000000
   0.00000000  0.75000000  0.75000000
   0.50000000  0.75000000  0.75000000
   0.00000000  0.00000000  0.00000000
   0.50000000  0.00000000  0.00000000
   0.00000000  0.50000000  0.00000000
   0.50000000  0.50000000  0.00000000
   0.00000000  0.00000000  0.50000000
   0.50000000  0.00000000  0.50000000
   0.00000000  0.50000000  0.50000000
   0.50000000  0.50000000  0.50000000
 
 position of ions in cartesian coordinates  (Angst):
   1.98828012  1.97828012  0.00000000
   5.93484036  1.97828012  0.00000000
   1.97828012  5.93484036  0.00000000
   5.93484036  5.93484036  0.00000000
   1.97828012  1.97828012  3.95656024
   5.93484036  1.97828012  3.95656024
   1.97828012  5.93484036  3.95656024
   5.93484036  5.93484036  3.95656024
   1.97828012  0.00000000  1.97828012
   5.93484036  0.00000000  1.97828012
   1.97828012  3.95656024  1.97828012
   5.93484036  3.95656024  1.97828012
   1.97828012  0.00000000  5.93484036
   5.93484036  0.00000000  5.93484036
   1.97828012  3.95656024  5.93484036
   5.93484036  3.95656024  5.93484036
   0.00000000  1.97828012  1.97828012
   3.95656024  1.97828012  1.97828012
   0.00000000  5.93484036  1.97828012
   3.95656024  5.93484036  1.97828012
   0.00000000  1.97828012  5.93484036
   3.95656024  1.97828012  5.93484036
   0.00000000  5.93484036  5.93484036
   3.95656024  5.93484036  5.93484036
   0.00000000  0.00000000  0.00000000
   3.95656024  0.00000000  0.00000000
   0.00000000  3.95656024  0.00000000
   3.95656024  3.95656024  0.00000000
   0.00000000  0.00000000  3.95656024
   3.95656024  0.00000000  3.95656024
   0.00000000  3.95656024  3.95656024
   3.95656024  3.95656024  3.95656024
 


--------------------------------------------------------------------------------------------------------


 k-point  1 :  0.00000.00000.0000  plane waves:  23031
 k-point  2 :  0.08330.00000.0000  plane waves:  23111
 k-point  3 :  0.16670.00000.0000  plane waves:  23139
 k-point  4 :  0.25000.00000.0000  plane waves:  23107
 k-point  5 :  0.33330.00000.0000  plane waves:  23148
 k-point  6 :  0.41670.00000.0000  plane waves:  23132
 k-point  7 :  0.50000.00000.0000  plane waves:  23060
 k-point  8 :  0.00000.08330.0000  plane waves:  23111
 k-point  9 :  0.08330.08330.0000  plane waves:  23131
 k-point 10 :  0.16670.08330.0000  plane waves:  23119
 k-point 11 :  0.25000.08330.0000  plane waves:  23101
 k-point 12 :  0.33330.08330.0000  plane waves:  23124
 k-point 13 :  0.41670.08330.0000  plane waves:  23126
 k-point 14 :  0.50000.08330.0000  plane waves:  23106
 k-point 15 :  0.00000.16670.0000  plane waves:  23139
 k-point 16 :  0.08330.16670.0000  plane waves:  23119
 k-point 17 :  0.16670.16670.0000  plane waves:  23093
 k-point 18 :  0.25000.16670.0000  plane waves:  23112
 k-point 19 :  0.33330.16670.0000  plane waves:  23107
 k-point 20 :  0.41670.16670.0000  plane waves:  23110
 k-point 21 :  0.50000.16670.0000  plane waves:  23116
 k-point 22 :  0.00000.25000.0000  plane waves:  23107
 k-point 23 :  0.08330.25000.0000  plane waves:  23101
 k-point 24 :  0.16670.25000.0000  plane waves:  23112
 k-point 25 :  0.25000.25000.0000  plane waves:  23145
 k-point 26 :  0.33330.25000.0000  plane waves:  23117
 k-point 27 :  0.41670.25000.0000  plane waves:  23103
 k-point 28 :  0.50000.25000.0000  plane waves:  23116
 k-point 29 :  0.00000.33330.0000  plane waves:  23148
 k-point 30 :  0.08330.33330.0000  plane waves:  23124
 k-point 31 :  0.16670.33330.0000  plane waves:  23107
 k-point 32 :  0.25000.33330.0000  plane waves:  23117
 k-point 33 :  0.33330.33330.0000  plane waves:  23123
 k-point 34 :  0.41670.33330.0000  plane waves:  23118
 k-point 35 :  0.50000.33330.0000  plane waves:  23124
 k-point 36 :  0.00000.41670.0000  plane waves:  23132
 k-point 37 :  0.08330.41670.0000  plane waves:  23126
 k-point 38 :  0.16670.41670.0000  plane waves:  23110
 k-point 39 :  0.25000.41670.0000  plane waves:  23103
 k-point 40 :  0.33330.41670.0000  plane waves:  23118
 k-point 41 :  0.41670.41670.0000  plane waves:  23119
 k-point 42 :  0.50000.41670.0000  plane waves:  23132
 k-point 43 :  0.00000.50000.0000  plane waves:  23060
 k-point 44 :  0.08330.50000.0000  plane waves:  23106
 k-point 45 :  0.16670.50000.0000  plane waves:  23116
 k-point 46 :  0.25000.50000.0000  plane waves:  23116
 k-point 47 :  0.33330.50000.0000  plane waves:  23124
 k-point 48 :  0.41670.50000.0000  plane waves:  23132
 k-point 49 :  0.50000.50000.0000  plane waves:  23088
 k-point 50 :  0.00000.08330.0833  plane waves:  23131
 k-point 51 :  0.08330.08330.0833  plane waves:  23127
 k-point 52 :  0.16670.08330.0833  plane waves:  23135
 k-point 53 :  0.25000.08330.0833  plane waves:  23100
 k-point 54 :  0.33330.08330.0833  plane waves:  23104
 k-point 55 :  0.41670.08330.0833  plane waves:  23122
 k-point 56 :  0.50000.08330.0833  plane waves:  23086
 k-point 57 :  0.00000.16670.0833  plane waves:  23119
 k-point 58 :  0.08330.16670.0833  plane waves:  23135
 k-point 59 :  0.16670.16670.0833  plane waves:  23090
 k-point 60 :  0.25000.16670.0833  plane waves:  23095
 k-point 61 :  0.33330.16670.0833  plane waves:  23120
 k-point 62 :  0.41670.16670.0833  plane waves:  23132
 k-point 63 :  0.50000.16670.0833  plane waves:  23130
 k-point 64 :  0.00000.25000.0833  plane waves:  23101
 k-point 65 :  0.08330.25000.0833  plane waves:  23100
 k-point 66 :  0.16670.25000.0833  plane waves:  23095
 k-point 67 :  0.25000.25000.0833  plane waves:  23086
 k-point 68 :  0.33330.25000.0833  plane waves:  23115
 k-point 69 :  0.41670.25000.0833  plane waves:  23125
 k-point 70 :  0.50000.25000.0833  plane waves:  23138
 k-point 71 :  0.00000.33330.0833  plane waves:  23124
 k-point 72 :  0.08330.33330.0833  plane waves:  23104
 k-point 73 :  0.16670.33330.0833  plane waves:  23120
 k-point 74 :  0.25000.33330.0833  plane waves:  23115
 k-point 75 :  0.33330.33330.0833  plane waves:  23084
 k-point 76 :  0.41670.33330.0833  plane waves:  23114
 k-point 77 :  0.50000.33330.0833  plane waves:  23124
 k-point 78 :  0.00000.41670.0833  plane waves:  23126
 k-point 79 :  0.08330.41670.0833  plane waves:  23122
 k-point 80 :  0.16670.41670.0833  plane waves:  23132
 k-point 81 :  0.25000.41670.0833  plane waves:  23125
 k-point 82 :  0.33330.41670.0833  plane waves:  23114
 k-point 83 :  0.41670.41670.0833  plane waves:  23120
 k-point 84 :  0.50000.41670.0833  plane waves:  23110
 k-point 85 :  0.00000.50000.0833  plane waves:  23106
 k-point 86 :  0.08330.50000.0833  plane waves:  23086
 k-point 87 :  0.16670.50000.0833  plane waves:  23130
 k-point 88 :  0.25000.50000.0833  plane waves:  23138
 k-point 89 :  0.33330.50000.0833  plane waves:  23124
 k-point 90 :  0.41670.50000.0833  plane waves:  23110
 k-point 91 :  0.50000.50000.0833  plane waves:  23120
 k-point 92 :  0.00000.16670.1667  plane waves:  23093
 k-point 93 :  0.08330.16670.1667  plane waves:  23090
 k-point 94 :  0.16670.16670.1667  plane waves:  23103
 k-point 95 :  0.25000.16670.1667  plane waves:  23104
 k-point 96 :  0.33330.16670.1667  plane waves:  23120
 k-point 97 :  0.41670.16670.1667  plane waves:  23101
 k-point 98 :  0.50000.16670.1667  plane waves:  23138
 k-point 99 :  0.00000.25000.1667  plane waves:  23112
 k-point ** :  0.08330.25000.1667  plane waves:  23095
 k-point ** :  0.16670.25000.1667  plane waves:  23104
 k-point ** :  0.25000.25000.1667  plane waves:  23109
 k-point ** :  0.33330.25000.1667  plane waves:  23103
 k-point ** :  0.41670.25000.1667  plane waves:  23110
 k-point ** :  0.50000.25000.1667  plane waves:  23138
 k-point ** :  0.00000.33330.1667  plane waves:  23107
 k-point ** :  0.08330.33330.1667  plane waves:  23120
 k-point ** :  0.16670.33330.1667  plane waves:  23120
 k-point ** :  0.25000.33330.1667  plane waves:  23103
 k-point ** :  0.33330.33330.1667  plane waves:  23078
 k-point ** :  0.41670.33330.1667  plane waves:  23116
 k-point ** :  0.50000.33330.1667  plane waves:  23112
 k-point ** :  0.00000.41670.1667  plane waves:  23110
 k-point ** :  0.08330.41670.1667  plane waves:  23132
 k-point ** :  0.16670.41670.1667  plane waves:  23101
 k-point ** :  0.25000.41670.1667  plane waves:  23110
 k-point ** :  0.33330.41670.1667  plane waves:  23116
 k-point ** :  0.41670.41670.1667  plane waves:  23114
 k-point ** :  0.50000.41670.1667  plane waves:  23102
 k-point ** :  0.00000.50000.1667  plane waves:  23116
 k-point ** :  0.08330.50000.1667  plane waves:  23130
 k-point ** :  0.16670.50000.1667  plane waves:  23138
 k-point ** :  0.25000.50000.1667  plane waves:  23138
 k-point ** :  0.33330.50000.1667  plane waves:  23112
 k-point ** :  0.41670.50000.1667  plane waves:  23102
 k-point ** :  0.50000.50000.1667  plane waves:  23072
 k-point ** :  0.00000.25000.2500  plane waves:  23145
 k-point ** :  0.08330.25000.2500  plane waves:  23086
 k-point ** :  0.16670.25000.2500  plane waves:  23109
 k-point ** :  0.25000.25000.2500  plane waves:  23126
 k-point ** :  0.33330.25000.2500  plane waves:  23106
 k-point ** :  0.41670.25000.2500  plane waves:  23111
 k-point ** :  0.50000.25000.2500  plane waves:  23110
 k-point ** :  0.00000.33330.2500  plane waves:  23117
 k-point ** :  0.08330.33330.2500  plane waves:  23115
 k-point ** :  0.16670.33330.2500  plane waves:  23103
 k-point ** :  0.25000.33330.2500  plane waves:  23106
 k-point ** :  0.33330.33330.2500  plane waves:  23094
 k-point ** :  0.41670.33330.2500  plane waves:  23117
 k-point ** :  0.50000.33330.2500  plane waves:  23114
 k-point ** :  0.00000.41670.2500  plane waves:  23103
 k-point ** :  0.08330.41670.2500  plane waves:  23125
 k-point ** :  0.16670.41670.2500  plane waves:  23110
 k-point ** :  0.25000.41670.2500  plane waves:  23111
 k-point ** :  0.33330.41670.2500  plane waves:  23117
 k-point ** :  0.41670.41670.2500  plane waves:  23102
 k-point ** :  0.50000.41670.2500  plane waves:  23088
 k-point ** :  0.00000.50000.2500  plane waves:  23116
 k-point ** :  0.08330.50000.2500  plane waves:  23138
 k-point ** :  0.16670.50000.2500  plane waves:  23138
 k-point ** :  0.25000.50000.2500  plane waves:  23110
 k-point ** :  0.33330.50000.2500  plane waves:  23114
 k-point ** :  0.41670.50000.2500  plane waves:  23088
 k-point ** :  0.50000.50000.2500  plane waves:  23072
 k-point ** :  0.00000.33330.3333  plane waves:  23123
 k-point ** :  0.08330.33330.3333  plane waves:  23084
 k-point ** :  0.16670.33330.3333  plane waves:  23078
 k-point ** :  0.25000.33330.3333  plane waves:  23094
 k-point ** :  0.33330.33330.3333  plane waves:  23066
 k-point ** :  0.41670.33330.3333  plane waves:  23072
 k-point ** :  0.50000.33330.3333  plane waves:  23082
 k-point ** :  0.00000.41670.3333  plane waves:  23118
 k-point ** :  0.08330.41670.3333  plane waves:  23114
 k-point ** :  0.16670.41670.3333  plane waves:  23116
 k-point ** :  0.25000.41670.3333  plane waves:  23117
 k-point ** :  0.33330.41670.3333  plane waves:  23072
 k-point ** :  0.41670.41670.3333  plane waves:  23075
 k-point ** :  0.50000.41670.3333  plane waves:  23058
 k-point ** :  0.00000.50000.3333  plane waves:  23124
 k-point ** :  0.08330.50000.3333  plane waves:  23124
 k-point ** :  0.16670.50000.3333  plane waves:  23112
 k-point ** :  0.25000.50000.3333  plane waves:  23114
 k-point ** :  0.33330.50000.3333  plane waves:  23082
 k-point ** :  0.41670.50000.3333  plane waves:  23058
 k-point ** :  0.50000.50000.3333  plane waves:  23052
 k-point ** :  0.00000.41670.4167  plane waves:  23119
 k-point ** :  0.08330.41670.4167  plane waves:  23120
 k-point ** :  0.16670.41670.4167  plane waves:  23114
 k-point ** :  0.25000.41670.4167  plane waves:  23102
 k-point ** :  0.33330.41670.4167  plane waves:  23075
 k-point ** :  0.41670.41670.4167  plane waves:  23060
 k-point ** :  0.50000.41670.4167  plane waves:  23050
 k-point ** :  0.00000.50000.4167  plane waves:  23132
 k-point ** :  0.08330.50000.4167  plane waves:  23110
 k-point ** :  0.16670.50000.4167  plane waves:  23102
 k-point ** :  0.25000.50000.4167  plane waves:  23088
 k-point ** :  0.33330.50000.4167  plane waves:  23058
 k-point ** :  0.41670.50000.4167  plane waves:  23050
 k-point ** :  0.50000.50000.4167  plane waves:  23040
 k-point ** :  0.00000.50000.5000  plane waves:  23088
 k-point ** :  0.08330.50000.5000  plane waves:  23120
 k-point ** :  0.16670.50000.5000  plane waves:  23072
 k-point ** :  0.25000.50000.5000  plane waves:  23072
 k-point ** :  0.33330.50000.5000  plane waves:  23052
 k-point ** :  0.41670.50000.5000  plane waves:  23040
 k-point ** :  0.50000.50000.5000  plane waves:  22880

 maximum and minimum number of plane-waves per node :  23148 22880

 maximum number of plane-waves:  23148
 maximal index in each direction: 
   IXMAX= 17   IYMAX= 17   IZMAX= 17
   IXMIN=-18   IYMIN=-18   IZMIN=-18

 NGX is ok and might be reduce to  72
 NGY is ok and might be reduce to  72
 NGZ is ok and might be reduce to  72

 parallel 3dFFT wavefunction:
    minimum data exchange during FFTs selected (reduces bandwidth)
 parallel 3dFFT charge:
    minimum data exchange during FFTs selected (reduces bandwidth)

 For storing wavefunctions 4927.40 MBYTES are necessary
 For predicting wavefunctions   58.48 MBYTES are necessary
Broyden mixing: mesh for mixing (old mesh)
   NGX = 35   NGY = 35   NGZ = 35
  (NGX  =144   NGY  =144   NGZ  =144)
 gives a total of  42875 points
 initial charge density was supplied:
 charge density of overlapping atoms calculated
 number of electron   96.0000000 magnetization 
 keeping initial charge density in first step


--------------------------------------------------------------------------------------------------------


 Maximum index for augmentation-charges        57071 (set IRDMAX)


--------------------------------------------------------------------------------------------------------


 First call to EWALD:  gamma=   0.224
 Maximum number of real-space cells 3x 3x 3
 Maximum number of reciprocal cells 3x 3x 3

    FEWALD:  VPU time    0.01: CPU time    0.01


----------------------------------------- Iteration    1(   1)  ---------------------------------------


    POTLOK:  VPU time    2.53: CPU time    2.53
    SETDIJ:  VPU time    2.24: CPU time    2.25
    EDDAV :  VPU time 1828.26: CPU time 1831.26
    DOS   :  VPU time   -0.00: CPU time   -0.00
    ------------------------------------------
      LOOP:  VPU time 1833.09: CPU time 1836.10

 eigenvalue-minimisations  : 26656
 total energy-change (2. order) : 0.1912934E+03  (-0.4298451E+04)
 number of electron   96.0000000 magnetization 
 augmentation part    96.0000000 magnetization 

 Free energy of the ion-electron system (eV)
  ---------------------------------------------------
  alpha Z        PSCENC =        -6.94132402
  Ewald energy   TEWEN  =     -2402.85078487
  -1/2 Hartree   DENC   =        -2.61509261
  -V(xc)+E(xc)   XCENC  =      -835.96869743
  PAW double counting   =      1137.73615723     -115.16745734
  entropy T*S    EENTRO =        -0.00043309
  eigenvalues    EBANDS =       703.86596806
  atomic energy  EATOM  =      1713.23509266
  ---------------------------------------------------
  free energy    TOTEN  =       191.29342858 eV

  energy without entropy =      191.29386167  energy(sigma->0) =      191.29364513


--------------------------------------------------------------------------------------------------------




----------------------------------------- Iteration    1(   2)  ---------------------------------------


    EDDAV :  VPU time 2008.80: CPU time 2011.18
    DOS   :  VPU time    0.00: CPU time   -0.00
    ------------------------------------------
      LOOP:  VPU time 2008.86: CPU time 2011.24

 eigenvalue-minimisations  : 31048
 total energy-change (2. order) :-0.2930858E+03  (-0.2743325E+03)
 number of electron   96.0000000 magnetization 
 augmentation part    96.0000000 magnetization 

 Free energy of the ion-electron system (eV)
  ---------------------------------------------------
  alpha Z        PSCENC =        -6.94132402
  Ewald energy   TEWEN  =     -2402.85078487
  -1/2 Hartree   DENC   =        -2.61509261
  -V(xc)+E(xc)   XCENC  =      -835.96869743
  PAW double counting   =      1137.73615723     -115.16745734
  entropy T*S    EENTRO =        -0.00052364
  eigenvalues    EBANDS =       410.78021168
  atomic energy  EATOM  =      1713.23509266
  ---------------------------------------------------
  free energy    TOTEN  =      -101.79241834 eV

  energy without entropy =     -101.79189470  energy(sigma->0) =     -101.79215652


--------------------------------------------------------------------------------------------------------




----------------------------------------- Iteration    1(   3)  ---------------------------------------


    EDDAV :  VPU time 2107.50: CPU time 2109.98
    DOS   :  VPU time    0.00: CPU time   -0.00
    ------------------------------------------
      LOOP:  VPU time 2107.56: CPU time 2110.05

 eigenvalue-minimisations  : 33128
 total energy-change (2. order) :-0.1786631E+02  (-0.1686240E+02)
 number of electron   96.0000000 magnetization 
 augmentation part    96.0000000 magnetization 

 Free energy of the ion-electron system (eV)
  ---------------------------------------------------
  alpha Z        PSCENC =        -6.94132402
  Ewald energy   TEWEN  =     -2402.85078487
  -1/2 Hartree   DENC   =        -2.61509261
  -V(xc)+E(xc)   XCENC  =      -835.96869743
  PAW double counting   =      1137.73615723     -115.16745734
  entropy T*S    EENTRO =        -0.00079215
  eigenvalues    EBANDS =       392.91416572
  atomic energy  EATOM  =      1713.23509266
  ---------------------------------------------------
  free energy    TOTEN  =      -119.65873281 eV

  energy without entropy =     -119.65794066  energy(sigma->0) =     -119.65833673


--------------------------------------------------------------------------------------------------------




----------------------------------------- Iteration    1(   4)  ---------------------------------------


    EDDAV :  VPU time 2027.40: CPU time 2029.79
    DOS   :  VPU time   -0.00: CPU time   -0.00
    ------------------------------------------
      LOOP:  VPU time 2027.47: CPU time 2029.86

 eigenvalue-minimisations  : 31436
 total energy-change (2. order) :-0.4271931E+00  (-0.4212289E+00)
 number of electron   96.0000000 magnetization 
 augmentation part    96.0000000 magnetization 

 Free energy of the ion-electron system (eV)
  ---------------------------------------------------
  alpha Z        PSCENC =        -6.94132402
  Ewald energy   TEWEN  =     -2402.85078487
  -1/2 Hartree   DENC   =        -2.61509261
  -V(xc)+E(xc)   XCENC  =      -835.96869743
  PAW double counting   =      1137.73615723     -115.16745734
  entropy T*S    EENTRO =        -0.00078172
  eigenvalues    EBANDS =       392.48696218
  atomic energy  EATOM  =      1713.23509266
  ---------------------------------------------------
  free energy    TOTEN  =      -120.08592592 eV

  energy without entropy =     -120.08514420  energy(sigma->0) =     -120.08553506


--------------------------------------------------------------------------------------------------------




----------------------------------------- Iteration    1(   5)  ---------------------------------------


    EDDAV :  VPU time 2041.00: CPU time 2044.60
    DOS   :  VPU time    0.00: CPU time   -0.00
    CHARGE:  VPU time  134.46: CPU time  135.04
    MIXING:  VPU time    0.05: CPU time    0.05
    ------------------------------------------
      LOOP:  VPU time 2175.56: CPU time 2179.75

 eigenvalue-minimisations  : 31660
 total energy-change (2. order) :-0.5392187E-02  (-0.5382433E-02)
 number of electron   96.0000000 magnetization 
 augmentation part    -1.1471779 magnetization 

 Broyden mixing:
  rms(total) = 0.54575E+00    rms(broyden)= 0.54575E+00
  rms(prec ) = 0.78584E+00
  weight for this iteration     100.00

 Free energy of the ion-electron system (eV)
  ---------------------------------------------------
  alpha Z        PSCENC =        -6.94132402
  Ewald energy   TEWEN  =     -2402.85078487
  -1/2 Hartree   DENC   =        -2.61509261
  -V(xc)+E(xc)   XCENC  =      -835.96869743
  PAW double counting   =      1137.73615723     -115.16745734
  entropy T*S    EENTRO =        -0.00077894
  eigenvalues    EBANDS =       392.48156721
  atomic energy  EATOM  =      1713.23509266
  ---------------------------------------------------
  free energy    TOTEN  =      -120.09131811 eV

  energy without entropy =     -120.09053917  energy(sigma->0) =     -120.09092864


--------------------------------------------------------------------------------------------------------




----------------------------------------- Iteration    1(   6)  ---------------------------------------


    POTLOK:  VPU time    2.45: CPU time    2.46
    SETDIJ:  VPU time    2.23: CPU time    2.23
    EDDAV :  VPU time 2021.61: CPU time 2029.37
    DOS   :  VPU time    0.00: CPU time   -0.00
    CHARGE:  VPU time  138.75: CPU time  139.31
    MIXING:  VPU time    0.06: CPU time    0.06
    ------------------------------------------
      LOOP:  VPU time 2165.17: CPU time 2173.49

 eigenvalue-minimisations  : 30640
 total energy-change (2. order) : 0.4415775E+00  (-0.4274033E-02)
 number of electron   96.0000000 magnetization 
 augmentation part    -1.1628287 magnetization 

 Broyden mixing:
  rms(total) = 0.33908E+00    rms(broyden)= 0.33908E+00
  rms(prec ) = 0.49018E+00
  weight for this iteration     100.00

 eigenvalues of (default mixing * dielectric matrix)
  average eigenvalue GAMMA=   2.6317
  2.6317

 Free energy of the ion-electron system (eV)
  ---------------------------------------------------
  alpha Z        PSCENC =        -6.94132402
  Ewald energy   TEWEN  =     -2402.85078487
  -1/2 Hartree   DENC   =        -2.47307029
  -V(xc)+E(xc)   XCENC  =      -834.66949814
  PAW double counting   =      1141.72603989     -119.40295708
  entropy T*S    EENTRO =        -0.00094394
  eigenvalues    EBANDS =       391.72770512
  atomic energy  EATOM  =      1713.23509266
  ---------------------------------------------------
  free energy    TOTEN  =      -119.64974066 eV

  energy without entropy =     -119.64879672  energy(sigma->0) =     -119.64926869


--------------------------------------------------------------------------------------------------------




----------------------------------------- Iteration    1(   7)  ---------------------------------------


    POTLOK:  VPU time    2.37: CPU time    2.40
    SETDIJ:  VPU time    2.33: CPU time    2.37
    EDDAV :  VPU time 1929.37: CPU time 1953.50
    DOS   :  VPU time    0.00: CPU time   -0.00
    CHARGE:  VPU time  132.69: CPU time  134.60
    MIXING:  VPU time    0.05: CPU time    0.05
    ------------------------------------------
      LOOP:  VPU time 2066.86: CPU time 2092.97

 eigenvalue-minimisations  : 29308
 total energy-change (2. order) : 0.3211219E+00  (-0.1278201E-01)
 number of electron   96.0000000 magnetization 
 augmentation part    -1.1941788 magnetization 

 Broyden mixing:
  rms(total) = 0.13579E-01    rms(broyden)= 0.13579E-01
  rms(prec ) = 0.16123E-01
  weight for this iteration     100.00

 eigenvalues of (default mixing * dielectric matrix)
  average eigenvalue GAMMA=   2.4556
  2.4556  2.4556

 Free energy of the ion-electron system (eV)
  ---------------------------------------------------
  alpha Z        PSCENC =        -6.94132402
  Ewald energy   TEWEN  =     -2402.85078487
  -1/2 Hartree   DENC   =        -3.66432971
  -V(xc)+E(xc)   XCENC  =      -832.08467066
  PAW double counting   =      1147.59121923     -125.73210925
  entropy T*S    EENTRO =        -0.00080128
  eigenvalues    EBANDS =       391.11908911
  atomic energy  EATOM  =      1713.23509266
  ---------------------------------------------------
  free energy    TOTEN  =      -119.32861880 eV

  energy without entropy =     -119.32781752  energy(sigma->0) =     -119.32821816


[...]
     64      10.7697      0.00000
     65      12.0699      0.00000
     66      12.0706      0.00000
     67      12.0710      0.00000
     68      12.0713      0.00000

 k-point 194 :       0.3333    0.5000    0.5000
  band No.  band energies     occupation 
      1      -1.4652      2.00000
      2      -1.4652      2.00000
      3      -1.4652      2.00000
      4      -1.4652      2.00000
      5      -0.6880      2.00000
      6      -0.6880      2.00000
      7      -0.6880      2.00000
      8      -0.6880      2.00000
      9       2.3720      2.00000
     10       2.3720      2.00000
     11       2.3720      2.00000
     12       2.3720      2.00000
     13       3.1208      2.00000
     14       3.1208      2.00000
     15       3.1209      2.00000
     16       3.1209      2.00000
     17       3.1209      2.00000
     18       3.1209      2.00000
     19       3.1209      2.00000
     20       3.1209      2.00000
     21       3.8667      2.00000
     22       3.8667      2.00000
     23       3.8668      2.00000
     24       3.8668      2.00000
     25       3.8668      2.00000
     26       3.8668      2.00000
     27       3.8670      2.00000
     28       3.8670      2.00000
     29       4.5945      2.00000
     30       4.5945      2.00000
     31       4.5945      2.00000
     32       4.5946      2.00000
     33       6.8660      2.00000
     34       6.8660      2.00000
     35       6.8664      2.00000
     36       6.8664      2.00000
     37       6.8664      2.00000
     38       6.8664      2.00000
     39       6.8669      2.00000
     40       6.8669      2.00000
     41       7.5783      2.00000
     42       7.5783      2.00000
     43       7.5783      2.00000
     44       7.5783      2.00000
     45       8.3222      2.00000
     46       8.3222      2.00000
     47       8.3222      2.00000
     48       8.3222      2.00000
     49       9.0131      0.00000
     50       9.0131      0.00000
     51       9.0136      0.00000
     52       9.0136      0.00000
     53       9.0136      0.00000
     54       9.0136      0.00000
     55       9.0141      0.00000
     56       9.0141      0.00000
     57      10.7918      0.00000
     58      10.7918      0.00000
     59      10.7918      0.00000
     60      10.7918      0.00000
     61      11.2355      0.00000
     62      11.2355      0.00000
     63      11.2355      0.00000
     64      11.2355      0.00000
     65      12.1920      0.00000
     66      12.1924      0.00000
     67      12.1926      0.00000
     68      12.1931      0.00000

 k-point 195 :       0.4167    0.5000    0.5000
  band No.  band energies     occupation 
      1      -1.3192      2.00000
      2      -1.3191      2.00000
      3      -1.3191      2.00000
      4      -1.3191      2.00000
      5      -0.9304      2.00000
      6      -0.9304      2.00000
      7      -0.9304      2.00000
      8      -0.9304      2.00000
      9       2.8887      2.00000
     10       2.8888      2.00000
     11       2.8888      2.00000
     12       2.8888      2.00000
     13       3.2614      2.00000
     14       3.2614      2.00000
     15       3.2614      2.00000
     16       3.2614      2.00000
     17       3.2614      2.00000
     18       3.2614      2.00000
     19       3.2615      2.00000
     20       3.2615      2.00000
     21       3.6348      2.00000
     22       3.6348      2.00000
     23       3.6348      2.00000
     24       3.6348      2.00000
     25       3.6348      2.00000
     26       3.6349      2.00000
     27       3.6349      2.00000
     28       3.6349      2.00000
     29       4.0025      2.00000
     30       4.0025      2.00000
     31       4.0025      2.00000
     32       4.0026      2.00000
     33       7.3647      2.00000
     34       7.3647      2.00000
     35       7.3651      2.00000
     36       7.3651      2.00000
     37       7.3651      2.00000
     38       7.3651      2.00000
     39       7.3655      2.00000
     40       7.3655      2.00000
     41       7.7202      2.00000
     42       7.7202      2.00000
     43       7.7202      2.00000
     44       7.7202      2.00000
     45       8.0917      2.00000
     46       8.0917      2.00000
     47       8.0917      2.00000
     48       8.0917      2.00000
     49       8.4414      2.00000
     50       8.4414      2.00000
     51       8.4418      2.00000
     52       8.4418      2.00000
     53       8.4418      2.00000
     54       8.4419      2.00000
     55       8.4423      2.00000
     56       8.4423      2.00000
     57      11.6296      0.00000
     58      11.6297      0.00000
     59      11.6297      0.00000
     60      11.6297      0.00000
     61      11.7288      0.00000
     62      11.7288      0.00000
     63      11.7288      0.00000
     64      11.7288      0.00000
     65      12.3340      0.00000
     66      12.3345      0.00000
     67      12.3346      0.00000
     68      12.3352      0.00000

 k-point 196 :       0.5000    0.5000    0.5000
  band No.  band energies     occupation 
      1      -1.1458      2.00000
      2      -1.1413      2.00000
      3      -1.1413      2.00000
      4      -1.1409      2.00000
      5      -1.1408      2.00000
      6      -1.1403      2.00000
      7      -1.1403      2.00000
      8      -1.1359      2.00000
      9       3.4225      2.00000
     10       3.4286      2.00000
     11       3.4286      2.00000
     12       3.4320      2.00000
     13       3.4323      2.00000
     14       3.4324      2.00000
     15       3.4328      2.00000
     16       3.4328      2.00000
     17       3.4328      2.00000
     18       3.4328      2.00000
     19       3.4328      2.00000
     20       3.4329      2.00000
     21       3.4329      2.00000
     22       3.4329      2.00000
     23       3.4329      2.00000
     24       3.4329      2.00000
     25       3.4330      2.00000
     26       3.4330      2.00000
     27       3.4334      2.00000
     28       3.4335      2.00000
     29       3.4338      2.00000
     30       3.4371      2.00000
     31       3.4371      2.00000
     32       3.4433      2.00000
     33       7.8847      2.00000
     34       7.8847      2.00000
     35       7.8870      2.00000
     36       7.8886      2.00000
     37       7.8903      2.00000
     38       7.8907      2.00000
     39       7.8908      2.00000
     40       7.8908      2.00000
     41       7.8910      2.00000
     42       7.8910      2.00000
     43       7.8910      2.00000
     44       7.8910      2.00000
     45       7.8911      2.00000
     46       7.8911      2.00000
     47       7.8911      2.00000
     48       7.8911      2.00000
     49       7.8914      2.00000
     50       7.8914      2.00000
     51       7.8915      2.00000
     52       7.8919      2.00000
     53       7.8935      2.00000
     54       7.8951      2.00000
     55       7.8974      2.00000
     56       7.8974      2.00000
     57      12.2468      0.00000
     58      12.2472      0.00000
     59      12.2472      0.00000
     60      12.2475      0.00000
     61      12.2493      0.00000
     62      12.2497      0.00000
     63      12.2497      0.00000
     64      12.2502      0.00000
     65      12.4995      0.00000
     66      12.5003      0.00000
     67      12.5014      0.00000
     68      12.5022      0.00000


--------------------------------------------------------------------------------------------------------


 soft charge-density along one line, spin component           1
         0         1         2         3         4         5         6         7         8         9
 total charge-density along one line
 
 pseudopotential strength for first ion, spin component:           1
  8.423  -0.007  -0.000  -0.000  -0.000  -0.000  -0.000  -0.000
 -0.007   0.000  -0.000  -0.000  -0.000   0.000   0.000   0.000
 -0.000  -0.000   1.991  -0.000   0.000  -0.029   0.000  -0.000
 -0.000  -0.000  -0.000   1.991  -0.000   0.000  -0.029   0.000
 -0.000  -0.000   0.000  -0.000   1.991  -0.000   0.000  -0.029
 -0.000   0.000  -0.029   0.000  -0.000  -0.011   0.000  -0.000
 -0.000   0.000   0.000  -0.029   0.000   0.000  -0.011   0.000
 -0.000   0.000  -0.000   0.000  -0.029  -0.000   0.000  -0.011
 total augmentation occupancy for first ion, spin component:           1
  1.309  -0.550  -0.000   0.000   0.003   0.000  -0.000  -0.002
 -0.550   0.548   0.000   0.000  -0.004   0.000  -0.000   0.001
 -0.000   0.000   0.781   0.003   0.007  -0.165  -0.001  -0.001
  0.000   0.000   0.003   0.788  -0.002  -0.001  -0.162  -0.001
  0.003  -0.004   0.007  -0.002   0.784  -0.001  -0.001  -0.163
  0.000   0.000  -0.165  -0.001  -0.001   0.040   0.000   0.000
 -0.000  -0.000  -0.001  -0.162  -0.001   0.000   0.039   0.000
 -0.002   0.001  -0.001  -0.001  -0.163   0.000   0.000   0.039


------------------------ aborting loop because EDIFF is reached ----------------------------------------




--------------------------------------------------------------------------------------------------------


    CHARGE:  VPU time  130.56: CPU time  130.74
    FORLOC:  VPU time    0.40: CPU time    0.40
    FORNL :  VPU time  266.10: CPU time  266.41
    STRESS:  VPU time  975.12: CPU time  976.35
    FORCOR:  VPU time    2.58: CPU time    2.58
    FORHAR:  VPU time    0.97: CPU time    0.97
    MIXING:  VPU time    0.07: CPU time    0.07


--------------------------------------------------------------------------------------------------------



  FREE ENERGIE OF THE ION-ELECTRON SYSTEM (eV)
  ---------------------------------------------------
  free  energy   TOTEN  =      -119.328842 eV

  energy  without entropy=     -119.328046  energy(sigma->0) =     -119.328444
 

  FORCE on cell =-STRESS in cart. coord.  units (eV/reduce length):
  Direction    X        Y        Z        XY       YZ       ZX
  --------------------------------------------------------------------------------------
  Alpha Z     -6.94     -6.94     -6.94
  Ewald     -800.96   -800.95   -800.95      0.00     -0.00      0.00
  Hartree      1.25      1.25      1.25      0.00     -0.00     -0.00
  E(xc)     -279.72   -279.72   -279.72      0.00      0.00      0.00
  Local       19.72     19.72     19.72      0.00     -0.00      0.00
  n-local    615.03    614.67    615.39     -1.24     -0.32      0.60
  augment    -31.90    -31.90    -31.90      0.00      0.00      0.00
  Kinetic    500.81    493.69    507.93      6.40      0.52     -5.37
  -------------------------------------------------------------------------------------
  Total       17.29     17.29     17.29      0.00      0.00      0.00
  in kB       55.89     55.89     55.89      0.00      0.00      0.00
  external pressure =       55.89 kB  Pullay stress =        0.00 kB


 VOLUME and BASIS-vectors are now :
 -----------------------------------------------------------------------------
  energy-cutoff  :      750.00
  volume of cell :      495.50
      direct lattice vectors                 reciprocal lattice vectors
     7.913120485  0.000000000  0.000000000     0.126372397  0.000000000  0.000000000
     0.000000000  7.913120485  0.000000000     0.000000000  0.126372397  0.000000000
     0.000000000  0.000000000  7.913120485     0.000000000  0.000000000  0.126372397

  length of vectors
     7.913120485  7.913120485  7.913120485     0.126372397  0.126372397  0.126372397


 FORCES acting on ions
    electron-ion (+dipol)            ewald-force                    non-local-force                 convergence-correction
 -----------------------------------------------------------------------------------------------
   0.415E+00 0.185E-12 -.233E-08   -.340E+00 0.239E-14 0.336E-14   -.135E+00 -.108E-18 0.136E-19   -.103E-05 0.124E-13 -.443E-14
   -.900E-01 0.681E-13 0.121E-08   0.896E-01 0.333E-14 0.535E-14   0.294E-02 0.000E+00 0.136E-19   0.613E-07 0.126E-13 -.354E-14
   0.291E-01 -.114E-12 0.637E-12   -.284E-01 0.333E-14 -.276E-14   -.792E-03 -.271E-19 -.271E-19   -.976E-06 -.122E-13 -.488E-14
   -.219E-01 0.580E-13 0.530E-12   0.223E-01 0.311E-14 -.276E-14   0.509E-03 0.000E+00 0.000E+00   0.157E-06 -.125E-13 -.381E-14
   0.291E-01 -.172E-13 -.487E-11   -.284E-01 0.461E-14 0.589E-15   -.792E-03 -.678E-19 0.339E-20   -.968E-06 0.115E-13 0.457E-14
   -.219E-01 0.877E-13 -.505E-11   0.223E-01 0.105E-14 0.370E-14   0.509E-03 0.000E+00 0.678E-20   0.152E-06 0.120E-13 0.363E-14
   0.125E-01 -.180E-13 -.439E-14   -.117E-01 0.722E-15 0.514E-14   -.306E-03 0.271E-19 0.000E+00   -.231E-05 -.113E-13 0.503E-14
   -.107E-01 0.214E-12 -.284E-12   0.110E-01 0.427E-14 0.122E-13   -.340E-03 -.474E-19 0.000E+00   0.210E-05 -.119E-13 0.392E-14
   0.514E-01 -.245E-03 0.245E-03   -.535E-01 0.213E-03 -.213E-03   0.775E-03 0.612E-04 -.612E-04   -.132E-05 0.839E-07 -.839E-07
   -.321E-01 0.700E-04 -.700E-04   0.301E-01 -.637E-04 0.637E-04   0.165E-02 -.114E-04 0.114E-04   0.473E-06 0.354E-07 -.354E-07
   0.514E-01 0.245E-03 0.245E-03   -.535E-01 -.213E-03 -.213E-03   0.775E-03 -.612E-04 -.612E-04   -.132E-05 -.839E-07 -.839E-07
   -.321E-01 -.700E-04 -.700E-04   0.301E-01 0.637E-04 0.637E-04   0.165E-02 0.114E-04 0.114E-04   0.473E-06 -.354E-07 -.354E-07
   0.514E-01 -.245E-03 -.245E-03   -.535E-01 0.213E-03 0.213E-03   0.775E-03 0.612E-04 0.612E-04   -.132E-05 0.839E-07 0.839E-07
   -.321E-01 0.700E-04 0.700E-04   0.301E-01 -.637E-04 -.637E-04   0.165E-02 -.114E-04 -.114E-04   0.473E-06 0.354E-07 0.354E-07
   0.514E-01 0.245E-03 -.245E-03   -.535E-01 -.213E-03 0.213E-03   0.775E-03 -.612E-04 0.612E-04   -.132E-05 -.839E-07 0.839E-07
   -.321E-01 -.700E-04 0.700E-04   0.301E-01 0.637E-04 -.637E-04   0.165E-02 0.114E-04 -.114E-04   0.473E-06 -.354E-07 0.354E-07
   -.511E-01 -.278E-14 0.900E-01   0.433E-01 0.111E-15 -.821E-01   0.155E-01 0.000E+00 -.162E-01   0.522E-06 0.124E-13 -.760E-07
   -.509E-01 0.210E-12 -.909E-01   0.431E-01 -.722E-15 0.828E-01   0.158E-01 0.000E+00 0.166E-01   0.459E-06 0.136E-13 -.926E-07
   -.135E-02 -.147E-13 0.715E-02   0.145E-02 -.211E-14 -.679E-02   -.285E-03 0.000E+00 -.170E-03   0.273E-06 -.123E-13 0.793E-06
   -.122E-02 -.388E-13 -.714E-02   0.131E-02 0.250E-14 0.680E-02   -.275E-03 -.102E-19 0.157E-03   0.307E-06 -.134E-13 -.841E-06
   -.511E-01 -.408E-14 -.900E-01   0.433E-01 0.389E-14 0.821E-01   0.155E-01 0.000E+00 0.162E-01   0.522E-06 0.110E-13 0.760E-07
   -.509E-01 -.126E-12 0.909E-01   0.431E-01 -.722E-15 -.828E-01   0.158E-01 0.000E+00 -.166E-01   0.459E-06 0.115E-13 0.926E-07
   -.135E-02 -.180E-13 -.715E-02   0.145E-02 0.433E-14 0.679E-02   -.285E-03 0.000E+00 0.170E-03   0.273E-06 -.109E-13 -.793E-06
   -.122E-02 -.270E-12 0.714E-02   0.131E-02 0.427E-14 -.680E-02   -.275E-03 0.000E+00 -.157E-03   0.307E-06 -.113E-13 0.841E-06
   -.511E-01 -.900E-01 0.564E-11   0.433E-01 0.821E-01 -.368E-17   0.155E-01 0.162E-01 -.678E-20   0.523E-06 0.726E-07 -.416E-14
   -.509E-01 0.909E-01 0.587E-11   0.431E-01 -.828E-01 -.500E-14   0.158E-01 -.166E-01 0.000E+00   0.460E-06 0.961E-07 -.596E-14
   -.511E-01 0.900E-01 0.563E-11   0.433E-01 -.821E-01 -.100E-13   0.155E-01 -.162E-01 0.000E+00   0.523E-06 -.726E-07 -.272E-14
   -.509E-01 -.909E-01 0.554E-11   0.431E-01 0.828E-01 -.139E-13   0.158E-01 0.166E-01 0.000E+00   0.460E-06 -.961E-07 -.385E-14
   -.135E-02 -.715E-02 -.394E-12   0.145E-02 0.679E-02 -.845E-14   -.285E-03 0.170E-03 0.678E-20   0.272E-06 -.797E-06 0.427E-14
   -.122E-02 0.714E-02 -.521E-12   0.131E-02 -.680E-02 -.390E-14   -.275E-03 -.157E-03 -.127E-20   0.306E-06 0.845E-06 0.606E-14
   -.135E-02 0.715E-02 -.391E-12   0.145E-02 -.679E-02 0.131E-14   -.285E-03 -.170E-03 -.127E-20   0.272E-06 0.797E-06 0.286E-14
   -.122E-02 -.714E-02 -.223E-12   0.131E-02 0.680E-02 0.497E-14   -.275E-03 0.157E-03 0.678E-20   0.306E-06 -.845E-06 0.399E-14
 -----------------------------------------------------------------------------------------------
   0.207E-05 -.175E-12 -.110E-08   0.398E-14 0.175E-13 -.412E-14   -.121E-05 0.271E-19 -.917E-18   0.284E-07 -.497E-18 0.657E-16
 
 
 POSITION                                       TOTAL-FORCE (eV/Angst)
 -----------------------------------------------------------------------------------
      1.98828      1.97828      0.00000        -0.059291     -0.000000      0.000000
      5.93484      1.97828      0.00000         0.002578      0.000000     -0.000000
      1.97828      5.93484      0.00000        -0.000031      0.000000     -0.000000
      5.93484      5.93484      0.00000         0.000915      0.000000     -0.000000
      1.97828      1.97828      3.95656        -0.000031      0.000000     -0.000000
      5.93484      1.97828      3.95656         0.000915      0.000000      0.000000
      1.97828      5.93484      3.95656         0.000517      0.000000      0.000000
      5.93484      5.93484      3.95656        -0.000086     -0.000000      0.000000
      1.97828      0.00000      1.97828        -0.001390      0.000029     -0.000029
      5.93484      0.00000      1.97828        -0.000322     -0.000005      0.000005
      1.97828      3.95656      1.97828        -0.001390     -0.000029     -0.000029
      5.93484      3.95656      1.97828        -0.000322      0.000005      0.000005
      1.97828      0.00000      5.93484        -0.001390      0.000029      0.000029
      5.93484      0.00000      5.93484        -0.000322     -0.000005     -0.000005
      1.97828      3.95656      5.93484        -0.001390     -0.000029      0.000029
      5.93484      3.95656      5.93484        -0.000322      0.000005     -0.000005
      0.00000      1.97828      1.97828         0.007771      0.000000     -0.008236
      3.95656      1.97828      1.97828         0.007943     -0.000000      0.008494
      0.00000      5.93484      1.97828        -0.000192      0.000000      0.000183
      3.95656      5.93484      1.97828        -0.000181      0.000000     -0.000176
      0.00000      1.97828      5.93484         0.007771      0.000000      0.008236
      3.95656      1.97828      5.93484         0.007943      0.000000     -0.008494
      0.00000      5.93484      5.93484        -0.000192      0.000000     -0.000183
      3.95656      5.93484      5.93484        -0.000181      0.000000      0.000176
      0.00000      0.00000      0.00000         0.007771      0.008236     -0.000000
      3.95656      0.00000      0.00000         0.007943     -0.008494      0.000000
      0.00000      3.95656      0.00000         0.007771     -0.008236     -0.000000
      3.95656      3.95656      0.00000         0.007943      0.008494     -0.000000
      0.00000      0.00000      3.95656        -0.000192     -0.000183     -0.000000
      3.95656      0.00000      3.95656        -0.000181      0.000176     -0.000000
      0.00000      3.95656      3.95656        -0.000192      0.000183      0.000000
      3.95656      3.95656      3.95656        -0.000181     -0.000176      0.000000
 -----------------------------------------------------------------------------------
    total drift:                                0.000001     -0.000000     -0.000000


--------------------------------------------------------------------------------------------------------



 mean value of Nose-termostat <S>:     1.000 mean value of <T> :     0.000
 mean temperature <T/S>/<1/S>  :     0.000

     LOOP+:  VPU time30523.82: CPU time30589.25
  
  
 General timing and accounting informations for this job:
 ========================================================
  
                  Total CPU time used (sec):    30753.007
                            User time (sec):    29715.477
                          System time (sec):     1037.530
                         Elapsed time (sec):    30818.788
  
                   Maximum memory used (kb):     7114780.
                   Average memory used (kb):           0.
  
                          Minor page faults:      1332108
                          Major page faults:            0
                 Voluntary context switches:          889
