<?xml version="1.0" encoding="ISO-8859-1"?>
<modeling>
 <generator>
  <i name="program" type="string">vasp</i>
  <i name="version" type="string">4.6.28 </i>
  <i name="subversion" type="string">25Jul05 complex  parallel</i>
  <i name="platform" type="string">LinuxIFC</i>
  <i name="date" type="string">2016 11 12</i>
  <i name="time" type="string">04:06:53</i>
 </generator>
 <incar>
  <i type="string" name="PREC">accurate</i>
  <i type="int" name="IALGO">    38</i>
  <i type="logical" name="ADDGRID"> T  </i>
  <i name="EDIFF">      0.00000001</i>
  <i type="int" name="IBRION">    -1</i>
  <i name="ENCUT">    750.00000000</i>
  <i type="logical" name="LREAL"> F  </i>
  <i type="int" name="ISMEAR">     0</i>
  <i name="SIGMA">      0.01000000</i>
  <i type="logical" name="LWAVE"> F  </i>
  <i type="logical" name="LCHARG"> F  </i>
 </incar>
 <kpoints>
  <generation param="Gamma">
   <v type="int" name="divisions">      12      12      12</v>
   <v name="usershift">      0.00000000      0.00000000      0.00000000</v>
   <v name="genvec1">      0.08333333      0.00000000      0.00000000</v>
   <v name="genvec2">      0.00000000      0.08333333      0.00000000</v>
   <v name="genvec3">      0.00000000      0.00000000      0.08333333</v>
   <v name="shift">      0.00000000      0.00000000      0.00000000</v>
  </generation>
  <varray name="kpointlist" >
   <v>       0.00000000      0.00000000      0.00000000</v>
   <v>       0.08333333      0.00000000      0.00000000</v>
   <v>       0.16666667      0.00000000      0.00000000</v>
   <v>       0.25000000      0.00000000      0.00000000</v>
   <v>       0.33333333      0.00000000      0.00000000</v>
   <v>       0.41666667      0.00000000      0.00000000</v>
   <v>       0.50000000      0.00000000      0.00000000</v>
   <v>       0.00000000      0.08333333      0.00000000</v>
   <v>       0.08333333      0.08333333      0.00000000</v>
   <v>       0.16666667      0.08333333      0.00000000</v>
   <v>       0.25000000      0.08333333      0.00000000</v>
   <v>       0.33333333      0.08333333      0.00000000</v>
   <v>       0.41666667      0.08333333      0.00000000</v>
   <v>       0.50000000      0.08333333      0.00000000</v>
   <v>       0.00000000      0.16666667      0.00000000</v>
   <v>       0.08333333      0.16666667      0.00000000</v>
   <v>       0.16666667      0.16666667      0.00000000</v>
   <v>       0.25000000      0.16666667      0.00000000</v>
   <v>       0.33333333      0.16666667      0.00000000</v>
   <v>       0.41666667      0.16666667      0.00000000</v>
   <v>       0.50000000      0.16666667      0.00000000</v>
   <v>       0.00000000      0.25000000      0.00000000</v>
   <v>       0.08333333      0.25000000      0.00000000</v>
   <v>       0.16666667      0.25000000      0.00000000</v>
   <v>       0.25000000      0.25000000      0.00000000</v>
   <v>       0.33333333      0.25000000      0.00000000</v>
   <v>       0.41666667      0.25000000      0.00000000</v>
   <v>       0.50000000      0.25000000      0.00000000</v>
   <v>       0.00000000      0.33333333      0.00000000</v>
   <v>       0.08333333      0.33333333      0.00000000</v>
   <v>       0.16666667      0.33333333      0.00000000</v>
   <v>       0.25000000      0.33333333      0.00000000</v>
   <v>       0.33333333      0.33333333      0.00000000</v>
   <v>       0.41666667      0.33333333      0.00000000</v>
   <v>       0.50000000      0.33333333      0.00000000</v>
   <v>       0.00000000      0.41666667      0.00000000</v>
   <v>       0.08333333      0.41666667      0.00000000</v>
   <v>       0.16666667      0.41666667      0.00000000</v>
   <v>       0.25000000      0.41666667      0.00000000</v>
   <v>       0.33333333      0.41666667      0.00000000</v>
   <v>       0.41666667      0.41666667      0.00000000</v>
   <v>       0.50000000      0.41666667      0.00000000</v>
   <v>       0.00000000      0.50000000      0.00000000</v>
   <v>       0.08333333      0.50000000      0.00000000</v>
   <v>       0.16666667      0.50000000      0.00000000</v>
   <v>       0.25000000      0.50000000      0.00000000</v>
   <v>       0.33333333      0.50000000      0.00000000</v>
   <v>       0.41666667      0.50000000      0.00000000</v>
   <v>       0.50000000      0.50000000      0.00000000</v>
   <v>       0.00000000      0.08333333      0.08333333</v>
   <v>       0.08333333      0.08333333      0.08333333</v>
   <v>       0.16666667      0.08333333      0.08333333</v>
   <v>       0.25000000      0.08333333      0.08333333</v>
   <v>       0.33333333      0.08333333      0.08333333</v>
   <v>       0.41666667      0.08333333      0.08333333</v>
   <v>       0.50000000      0.08333333      0.08333333</v>
   <v>       0.00000000      0.16666667      0.08333333</v>
   <v>       0.08333333      0.16666667      0.08333333</v>
   <v>       0.16666667      0.16666667      0.08333333</v>
   <v>       0.25000000      0.16666667      0.08333333</v>
   <v>       0.33333333      0.16666667      0.08333333</v>
   <v>       0.41666667      0.16666667      0.08333333</v>
   <v>       0.50000000      0.16666667      0.08333333</v>
   <v>       0.00000000      0.25000000      0.08333333</v>
   <v>       0.08333333      0.25000000      0.08333333</v>
   <v>       0.16666667      0.25000000      0.08333333</v>
   <v>       0.25000000      0.25000000      0.08333333</v>
   <v>       0.33333333      0.25000000      0.08333333</v>
   <v>       0.41666667      0.25000000      0.08333333</v>
   <v>       0.50000000      0.25000000      0.08333333</v>
   <v>       0.00000000      0.33333333      0.08333333</v>
   <v>       0.08333333      0.33333333      0.08333333</v>
   <v>       0.16666667      0.33333333      0.08333333</v>
   <v>       0.25000000      0.33333333      0.08333333</v>
   <v>       0.33333333      0.33333333      0.08333333</v>
   <v>       0.41666667      0.33333333      0.08333333</v>
   <v>       0.50000000      0.33333333      0.08333333</v>
   <v>       0.00000000      0.41666667      0.08333333</v>
   <v>       0.08333333      0.41666667      0.08333333</v>
   <v>       0.16666667      0.41666667      0.08333333</v>
   <v>       0.25000000      0.41666667      0.08333333</v>
   <v>       0.33333333      0.41666667      0.08333333</v>
   <v>       0.41666667      0.41666667      0.08333333</v>
   <v>       0.50000000      0.41666667      0.08333333</v>
   <v>       0.00000000      0.50000000      0.08333333</v>
   <v>       0.08333333      0.50000000      0.08333333</v>
   <v>       0.16666667      0.50000000      0.08333333</v>
   <v>       0.25000000      0.50000000      0.08333333</v>
   <v>       0.33333333      0.50000000      0.08333333</v>
   <v>       0.41666667      0.50000000      0.08333333</v>
   <v>       0.50000000      0.50000000      0.08333333</v>
   <v>       0.00000000      0.16666667      0.16666667</v>
   <v>       0.08333333      0.16666667      0.16666667</v>
   <v>       0.16666667      0.16666667      0.16666667</v>
   <v>       0.25000000      0.16666667      0.16666667</v>
   <v>       0.33333333      0.16666667      0.16666667</v>
   <v>       0.41666667      0.16666667      0.16666667</v>
   <v>       0.50000000      0.16666667      0.16666667</v>
   <v>       0.00000000      0.25000000      0.16666667</v>
   <v>       0.08333333      0.25000000      0.16666667</v>
   <v>       0.16666667      0.25000000      0.16666667</v>
   <v>       0.25000000      0.25000000      0.16666667</v>
   <v>       0.33333333      0.25000000      0.16666667</v>
   <v>       0.41666667      0.25000000      0.16666667</v>
   <v>       0.50000000      0.25000000      0.16666667</v>
   <v>       0.00000000      0.33333333      0.16666667</v>
   <v>       0.08333333      0.33333333      0.16666667</v>
   <v>       0.16666667      0.33333333      0.16666667</v>
   <v>       0.25000000      0.33333333      0.16666667</v>
   <v>       0.33333333      0.33333333      0.16666667</v>
   <v>       0.41666667      0.33333333      0.16666667</v>
   <v>       0.50000000      0.33333333      0.16666667</v>
   <v>       0.00000000      0.41666667      0.16666667</v>
   <v>       0.08333333      0.41666667      0.16666667</v>
   <v>       0.16666667      0.41666667      0.16666667</v>
   <v>       0.25000000      0.41666667      0.16666667</v>
   <v>       0.33333333      0.41666667      0.16666667</v>
   <v>       0.41666667      0.41666667      0.16666667</v>
   <v>       0.50000000      0.41666667      0.16666667</v>
   <v>       0.00000000      0.50000000      0.16666667</v>
   <v>       0.08333333      0.50000000      0.16666667</v>
   <v>       0.16666667      0.50000000      0.16666667</v>
   <v>       0.25000000      0.50000000      0.16666667</v>
   <v>       0.33333333      0.50000000      0.16666667</v>
   <v>       0.41666667      0.50000000      0.16666667</v>
   <v>       0.50000000      0.50000000      0.16666667</v>
   <v>       0.00000000      0.25000000      0.25000000</v>
   <v>       0.08333333      0.25000000      0.25000000</v>
   <v>       0.16666667      0.25000000      0.25000000</v>
   <v>       0.25000000      0.25000000      0.25000000</v>
   <v>       0.33333333      0.25000000      0.25000000</v>
   <v>       0.41666667      0.25000000      0.25000000</v>
   <v>       0.50000000      0.25000000      0.25000000</v>
   <v>       0.00000000      0.33333333      0.25000000</v>
   <v>       0.08333333      0.33333333      0.25000000</v>
   <v>       0.16666667      0.33333333      0.25000000</v>
   <v>       0.25000000      0.33333333      0.25000000</v>
   <v>       0.33333333      0.33333333      0.25000000</v>
   <v>       0.41666667      0.33333333      0.25000000</v>
   <v>       0.50000000      0.33333333      0.25000000</v>
   <v>       0.00000000      0.41666667      0.25000000</v>
   <v>       0.08333333      0.41666667      0.25000000</v>
   <v>       0.16666667      0.41666667      0.25000000</v>
   <v>       0.25000000      0.41666667      0.25000000</v>
   <v>       0.33333333      0.41666667      0.25000000</v>
   <v>       0.41666667      0.41666667      0.25000000</v>
   <v>       0.50000000      0.41666667      0.25000000</v>
   <v>       0.00000000      0.50000000      0.25000000</v>
   <v>       0.08333333      0.50000000      0.25000000</v>
   <v>       0.16666667      0.50000000      0.25000000</v>
   <v>       0.25000000      0.50000000      0.25000000</v>
   <v>       0.33333333      0.50000000      0.25000000</v>
   <v>       0.41666667      0.50000000      0.25000000</v>
   <v>       0.50000000      0.50000000      0.25000000</v>
   <v>       0.00000000      0.33333333      0.33333333</v>
   <v>       0.08333333      0.33333333      0.33333333</v>
   <v>       0.16666667      0.33333333      0.33333333</v>
   <v>       0.25000000      0.33333333      0.33333333</v>
   <v>       0.33333333      0.33333333      0.33333333</v>
   <v>       0.41666667      0.33333333      0.33333333</v>
   <v>       0.50000000      0.33333333      0.33333333</v>
   <v>       0.00000000      0.41666667      0.33333333</v>
   <v>       0.08333333      0.41666667      0.33333333</v>
   <v>       0.16666667      0.41666667      0.33333333</v>
   <v>       0.25000000      0.41666667      0.33333333</v>
   <v>       0.33333333      0.41666667      0.33333333</v>
   <v>       0.41666667      0.41666667      0.33333333</v>
   <v>       0.50000000      0.41666667      0.33333333</v>
   <v>       0.00000000      0.50000000      0.33333333</v>
   <v>       0.08333333      0.50000000      0.33333333</v>
   <v>       0.16666667      0.50000000      0.33333333</v>
   <v>       0.25000000      0.50000000      0.33333333</v>
   <v>       0.33333333      0.50000000      0.33333333</v>
   <v>       0.41666667      0.50000000      0.33333333</v>
   <v>       0.50000000      0.50000000      0.33333333</v>
   <v>       0.00000000      0.41666667      0.41666667</v>
   <v>       0.08333333      0.41666667      0.41666667</v>
   <v>       0.16666667      0.41666667      0.41666667</v>
   <v>       0.25000000      0.41666667      0.41666667</v>
   <v>       0.33333333      0.41666667      0.41666667</v>
   <v>       0.41666667      0.41666667      0.41666667</v>
   <v>       0.50000000      0.41666667      0.41666667</v>
   <v>       0.00000000      0.50000000      0.41666667</v>
   <v>       0.08333333      0.50000000      0.41666667</v>
   <v>       0.16666667      0.50000000      0.41666667</v>
   <v>       0.25000000      0.50000000      0.41666667</v>
   <v>       0.33333333      0.50000000      0.41666667</v>
   <v>       0.41666667      0.50000000      0.41666667</v>
   <v>       0.50000000      0.50000000      0.41666667</v>
   <v>       0.00000000      0.50000000      0.50000000</v>
   <v>       0.08333333      0.50000000      0.50000000</v>
   <v>       0.16666667      0.50000000      0.50000000</v>
   <v>       0.25000000      0.50000000      0.50000000</v>
   <v>       0.33333333      0.50000000      0.50000000</v>
   <v>       0.41666667      0.50000000      0.50000000</v>
   <v>       0.50000000      0.50000000      0.50000000</v>
  </varray>
  <varray name="weights" >
   <v>       0.00057870</v>
   <v>       0.00115741</v>
   <v>       0.00115741</v>
   <v>       0.00115741</v>
   <v>       0.00115741</v>
   <v>       0.00115741</v>
   <v>       0.00057870</v>
   <v>       0.00231481</v>
   <v>       0.00462963</v>
   <v>       0.00462963</v>
   <v>       0.00462963</v>
   <v>       0.00462963</v>
   <v>       0.00462963</v>
   <v>       0.00231481</v>
   <v>       0.00231481</v>
   <v>       0.00462963</v>
   <v>       0.00462963</v>
   <v>       0.00462963</v>
   <v>       0.00462963</v>
   <v>       0.00462963</v>
   <v>       0.00231481</v>
   <v>       0.00231481</v>
   <v>       0.00462963</v>
   <v>       0.00462963</v>
   <v>       0.00462963</v>
   <v>       0.00462963</v>
   <v>       0.00462963</v>
   <v>       0.00231481</v>
   <v>       0.00231481</v>
   <v>       0.00462963</v>
   <v>       0.00462963</v>
   <v>       0.00462963</v>
   <v>       0.00462963</v>
   <v>       0.00462963</v>
   <v>       0.00231481</v>
   <v>       0.00231481</v>
   <v>       0.00462963</v>
   <v>       0.00462963</v>
   <v>       0.00462963</v>
   <v>       0.00462963</v>
   <v>       0.00462963</v>
   <v>       0.00231481</v>
   <v>       0.00115741</v>
   <v>       0.00231481</v>
   <v>       0.00231481</v>
   <v>       0.00231481</v>
   <v>       0.00231481</v>
   <v>       0.00231481</v>
   <v>       0.00115741</v>
   <v>       0.00231481</v>
   <v>       0.00462963</v>
   <v>       0.00462963</v>
   <v>       0.00462963</v>
   <v>       0.00462963</v>
   <v>       0.00462963</v>
   <v>       0.00231481</v>
   <v>       0.00462963</v>
   <v>       0.00925926</v>
   <v>       0.00925926</v>
   <v>       0.00925926</v>
   <v>       0.00925926</v>
   <v>       0.00925926</v>
   <v>       0.00462963</v>
   <v>       0.00462963</v>
   <v>       0.00925926</v>
   <v>       0.00925926</v>
   <v>       0.00925926</v>
   <v>       0.00925926</v>
   <v>       0.00925926</v>
   <v>       0.00462963</v>
   <v>       0.00462963</v>
   <v>       0.00925926</v>
   <v>       0.00925926</v>
   <v>       0.00925926</v>
   <v>       0.00925926</v>
   <v>       0.00925926</v>
   <v>       0.00462963</v>
   <v>       0.00462963</v>
   <v>       0.00925926</v>
   <v>       0.00925926</v>
   <v>       0.00925926</v>
   <v>       0.00925926</v>
   <v>       0.00925926</v>
   <v>       0.00462963</v>
   <v>       0.00231481</v>
   <v>       0.00462963</v>
   <v>       0.00462963</v>
   <v>       0.00462963</v>
   <v>       0.00462963</v>
   <v>       0.00462963</v>
   <v>       0.00231481</v>
   <v>       0.00231481</v>
   <v>       0.00462963</v>
   <v>       0.00462963</v>
   <v>       0.00462963</v>
   <v>       0.00462963</v>
   <v>       0.00462963</v>
   <v>       0.00231481</v>
   <v>       0.00462963</v>
   <v>       0.00925926</v>
   <v>       0.00925926</v>
   <v>       0.00925926</v>
   <v>       0.00925926</v>
   <v>       0.00925926</v>
   <v>       0.00462963</v>
   <v>       0.00462963</v>
   <v>       0.00925926</v>
   <v>       0.00925926</v>
   <v>       0.00925926</v>
   <v>       0.00925926</v>
   <v>       0.00925926</v>
   <v>       0.00462963</v>
   <v>       0.00462963</v>
   <v>       0.00925926</v>
   <v>       0.00925926</v>
   <v>       0.00925926</v>
   <v>       0.00925926</v>
   <v>       0.00925926</v>
   <v>       0.00462963</v>
   <v>       0.00231481</v>
   <v>       0.00462963</v>
   <v>       0.00462963</v>
   <v>       0.00462963</v>
   <v>       0.00462963</v>
   <v>       0.00462963</v>
   <v>       0.00231481</v>
   <v>       0.00231481</v>
   <v>       0.00462963</v>
   <v>       0.00462963</v>
   <v>       0.00462963</v>
   <v>       0.00462963</v>
   <v>       0.00462963</v>
   <v>       0.00231481</v>
   <v>       0.00462963</v>
   <v>       0.00925926</v>
   <v>       0.00925926</v>
   <v>       0.00925926</v>
   <v>       0.00925926</v>
   <v>       0.00925926</v>
   <v>       0.00462963</v>
   <v>       0.00462963</v>
   <v>       0.00925926</v>
   <v>       0.00925926</v>
   <v>       0.00925926</v>
   <v>       0.00925926</v>
   <v>       0.00925926</v>
   <v>       0.00462963</v>
   <v>       0.00231481</v>
   <v>       0.00462963</v>
   <v>       0.00462963</v>
   <v>       0.00462963</v>
   <v>       0.00462963</v>
   <v>       0.00462963</v>
   <v>       0.00231481</v>
   <v>       0.00231481</v>
   <v>       0.00462963</v>
   <v>       0.00462963</v>
   <v>       0.00462963</v>
   <v>       0.00462963</v>
   <v>       0.00462963</v>
   <v>       0.00231481</v>
   <v>       0.00462963</v>
   <v>       0.00925926</v>
   <v>       0.00925926</v>
   <v>       0.00925926</v>
   <v>       0.00925926</v>
   <v>       0.00925926</v>
   <v>       0.00462963</v>
   <v>       0.00231481</v>
   <v>       0.00462963</v>
   <v>       0.00462963</v>
   <v>       0.00462963</v>
   <v>       0.00462963</v>
   <v>       0.00462963</v>
   <v>       0.00231481</v>
   <v>       0.00231481</v>
   <v>       0.00462963</v>
   <v>       0.00462963</v>
   <v>       0.00462963</v>
   <v>       0.00462963</v>
   <v>       0.00462963</v>
   <v>       0.00231481</v>
   <v>       0.00231481</v>
   <v>       0.00462963</v>
   <v>       0.00462963</v>
   <v>       0.00462963</v>
   <v>       0.00462963</v>
   <v>       0.00462963</v>
   <v>       0.00231481</v>
   <v>       0.00057870</v>
   <v>       0.00115741</v>
   <v>       0.00115741</v>
   <v>       0.00115741</v>
   <v>       0.00115741</v>
   <v>       0.00115741</v>
   <v>       0.00057870</v>
  </varray>
 </kpoints>
 <parameters>
  <separator name="general" >
   <i type="string" name="SYSTEM">unknown system</i>
   <i type="logical" name="LCOMPAT"> F  </i>
  </separator>
  <separator name="electronic" >
   <i type="string" name="PREC">accura</i>
   <i name="ENMAX">    750.00000000</i>
   <i name="ENAUG">    291.05200000</i>
   <i name="EDIFF">      0.00000001</i>
   <i type="int" name="IALGO">    38</i>
   <i type="int" name="IWAVPR">    10</i>
   <i type="int" name="NBANDS">    65</i>
   <i name="NELECT">     96.00000000</i>
   <separator name="electronic smearing" >
    <i type="int" name="ISMEAR">     0</i>
    <i name="SIGMA">      0.01000000</i>
   </separator>
   <separator name="electronic projectors" >
    <i type="logical" name="LREAL"> F  </i>
    <v name="ROPT">      0.00000000</v>
    <i type="int" name="LMAXPAW">  -100</i>
    <i type="int" name="LMAXMIX">     2</i>
   </separator>
   <separator name="electronic startup" >
    <i type="int" name="ISTART">     0</i>
    <i type="int" name="ICHARG">     2</i>
    <i type="int" name="INIWAV">     1</i>
   </separator>
   <separator name="electronic spin" >
    <i type="int" name="ISPIN">     1</i>
    <i type="logical" name="LNONCOLLINEAR"> F  </i>
    <v name="MAGMOM">      1.00000000      1.00000000      1.00000000      1.00000000      1.00000000      1.00000000      1.00000000      1.00000000      1.00000000      1.00000000      1.00000000      1.00000000      1.00000000      1.00000000      1.00000000      1.00000000      1.00000000      1.00000000      1.00000000      1.00000000
      1.00000000      1.00000000      1.00000000      1.00000000      1.00000000      1.00000000      1.00000000      1.00000000      1.00000000      1.00000000      1.00000000      1.00000000</v>
    <i name="NUPDOWN">     -1.00000000</i>
    <i type="logical" name="LSORBIT"> F  </i>
    <v name="SAXIS">      0.00000000      0.00000000      1.00000000</v>
    <i type="logical" name="LSPIRAL"> F  </i>
    <v name="QSPIRAL">      0.00000000      0.00000000      0.00000000</v>
    <i type="logical" name="LZEROZ"> F  </i>
   </separator>
   <separator name="electronic exchange-correlation" >
    <i type="string" name="GGA">--</i>
    <i type="int" name="VOSKOWN">     0</i>
    <i type="logical" name="LASPH"> F  </i>
    <i type="logical" name="LMETAGGA"> F  </i>
    <i type="string" name="GGA2">--</i>
   </separator>
   <separator name="electronic convergence" >
    <i type="int" name="NELM">    60</i>
    <i type="int" name="NELMDL">     0</i>
    <i type="int" name="NELMIN">     2</i>
    <i name="ENINI">    750.00000000</i>
    <separator name="electronic convergence detail" >
     <i type="logical" name="LDIAG"> T  </i>
     <i name="WEIMIN">      0.00000000</i>
     <i name="EBREAK">      0.00000000</i>
     <i name="DEPER">      0.30000000</i>
     <i type="int" name="NRMM">     4</i>
     <i name="TIME">      0.10000000</i>
    </separator>
   </separator>
   <separator name="electronic mixer" >
    <i name="AMIX">      0.40000000</i>
    <i name="BMIX">      1.00000000</i>
    <i name="AMIN">      0.10000000</i>
    <i name="AMIX_MAG">      1.60000000</i>
    <i name="BMIX_MAG">      1.00000000</i>
    <separator name="electronic mixer details" >
     <i type="int" name="IMIX">     4</i>
     <i type="int" name="MAXMIX">   -45</i>
     <i name="WC">    100.00000000</i>
     <i type="int" name="INIMIX">     1</i>
     <i type="int" name="MIXPRE">     1</i>
     <i type="int" name="MREMOVE">     5</i>
    </separator>
   </separator>
   <separator name="electronic dipolcorrection" >
    <i type="int" name="IDIPOL">     0</i>
    <i type="logical" name="LDIPOL"> F  </i>
    <v name="DIPOL">   -100.00000000</v>
    <i name="EFIELD">      0.00000000</i>
   </separator>
  </separator>
  <separator name="grids" >
   <i type="int" name="NGX">    72</i>
   <i type="int" name="NGY">    72</i>
   <i type="int" name="NGZ">    72</i>
   <i type="int" name="NGXF">   144</i>
   <i type="int" name="NGYF">   144</i>
   <i type="int" name="NGZF">   144</i>
   <i type="logical" name="ADDGRID"> T  </i>
  </separator>
  <separator name="ionic" >
   <i type="int" name="NSW">     0</i>
   <i type="int" name="IBRION">    -1</i>
   <i type="int" name="ISIF">     2</i>
   <i name="PSTRESS">      0.00000000</i>
   <i name="EDIFFG">      0.00000010</i>
   <i type="int" name="NFREE">     0</i>
   <i name="POTIM">      0.50000000</i>
   <i name="SMASS">     -3.00000000</i>
  </separator>
  <separator name="ionic md" >
   <i name="TEBEG">      0.00010000</i>
   <i name="TEEND">      0.00010000</i>
   <i type="int" name="NBLOCK">     1</i>
   <i type="int" name="KBLOCK">     1</i>
   <i type="int" name="NPACO">   256</i>
   <i name="APACO">     16.00000000</i>
  </separator>
  <separator name="symmetry" >
   <i type="int" name="ISYM">     2</i>
   <i name="SYMPREC">      0.00001000</i>
  </separator>
  <separator name="dos" >
   <i type="logical" name="LORBIT"> F  </i>
   <v name="RWIGS">     -1.00000000</v>
   <i type="int" name="NEDOS">   301</i>
   <i name="EMIN">     10.00000000</i>
   <i name="EMAX">    -10.00000000</i>
  </separator>
  <separator name="writing" >
   <i type="int" name="NWRITE">     2</i>
   <i type="logical" name="LWAVE"> F  </i>
   <i type="logical" name="LCHARG"> F  </i>
   <i type="logical" name="LPARD"> F  </i>
   <i type="logical" name="LVTOT"> F  </i>
   <i type="logical" name="LELF"> F  </i>
   <i type="logical" name="LOPTICS"> F  </i>
   <i name="STM">      0.00000000</i>
  </separator>
  <separator name="performance" >
   <i type="int" name="NPAR">     4</i>
   <i type="int" name="NSIM">     4</i>
   <i type="int" name="NBLK">   256</i>
   <i type="logical" name="LPLANE"> T  </i>
   <i type="logical" name="LCRITICAL_MEM"> F  </i>
   <i type="logical" name="LSCALAPACK"> F  </i>
   <i type="logical" name="LSCALU"> F  </i>
   <i type="logical" name="LASYNC"> F  </i>
  </separator>
  <separator name="miscellaneous" >
   <i type="int" name="IDIOT">     3</i>
   <i type="logical" name="LMUSIC"> F  </i>
   <v name="POMASS">     26.98200000</v>
   <i type="logical" name="LCORR"> T  </i>
  </separator>
  <i type="logical" name="LREAL_COMPAT"> F  </i>
  <i type="logical" name="GGA_COMPAT"> T  </i>
  <i type="logical" name="LBERRY"> F  </i>
  <i type="int" name="ICORELEVEL">     0</i>
  <i type="logical" name="LDAU"> F  </i>
  <i type="int" name="I_CONSTRAINED_M">     0</i>
 </parameters>
 <atominfo>
  <atoms>      32</atoms>
  <types>       1</types>
  <array name="atoms" >
   <dimension dim="1">ion</dimension>
   <field type="string">element</field>
   <field type="int">atomtype</field>
   <set>
    <rc><c>Al</c><c>   1</c></rc>
    <rc><c>Al</c><c>   1</c></rc>
    <rc><c>Al</c><c>   1</c></rc>
    <rc><c>Al</c><c>   1</c></rc>
    <rc><c>Al</c><c>   1</c></rc>
    <rc><c>Al</c><c>   1</c></rc>
    <rc><c>Al</c><c>   1</c></rc>
    <rc><c>Al</c><c>   1</c></rc>
    <rc><c>Al</c><c>   1</c></rc>
    <rc><c>Al</c><c>   1</c></rc>
    <rc><c>Al</c><c>   1</c></rc>
    <rc><c>Al</c><c>   1</c></rc>
    <rc><c>Al</c><c>   1</c></rc>
    <rc><c>Al</c><c>   1</c></rc>
    <rc><c>Al</c><c>   1</c></rc>
    <rc><c>Al</c><c>   1</c></rc>
    <rc><c>Al</c><c>   1</c></rc>
    <rc><c>Al</c><c>   1</c></rc>
    <rc><c>Al</c><c>   1</c></rc>
    <rc><c>Al</c><c>   1</c></rc>
    <rc><c>Al</c><c>   1</c></rc>
    <rc><c>Al</c><c>   1</c></rc>
    <rc><c>Al</c><c>   1</c></rc>
    <rc><c>Al</c><c>   1</c></rc>
    <rc><c>Al</c><c>   1</c></rc>
    <rc><c>Al</c><c>   1</c></rc>
    <rc><c>Al</c><c>   1</c></rc>
    <rc><c>Al</c><c>   1</c></rc>
    <rc><c>Al</c><c>   1</c></rc>
    <rc><c>Al</c><c>   1</c></rc>
    <rc><c>Al</c><c>   1</c></rc>
    <rc><c>Al</c><c>   1</c></rc>
   </set>
  </array>
  <array name="atomtypes" >
   <dimension dim="1">type</dimension>
   <field type="int">atomspertype</field>
   <field type="string">element</field>
   <field>mass</field>
   <field>valence</field>
   <field type="string">pseudopotential</field>
   <set>
    <rc><c>  32</c><c>Al</c><c>     26.98200000</c><c>      3.00000000</c><c> PAW_PBE Al 04Jan2001                   </c></rc>
   </set>
  </array>
 </atominfo>
 <structure name="initialpos" >
  <crystal>
   <varray name="basis" >
    <v>       7.91312048      0.00000000      0.00000000</v>
    <v>       0.00000000      7.91312048      0.00000000</v>
    <v>       0.00000000      0.00000000      7.91312048</v>
   </varray>
   <i name="volume">    495.49963047</i>
   <varray name="rec_basis" >
    <v>       0.12637240      0.00000000      0.00000000</v>
    <v>       0.00000000      0.12637240      0.00000000</v>
    <v>       0.00000000      0.00000000      0.12637240</v>
   </varray>
  </crystal>
  <varray name="positions" >
   <v>       0.25126372      0.25000000      0.00000000</v>
   <v>       0.75000000      0.25000000      0.00000000</v>
   <v>       0.25000000      0.75000000      0.00000000</v>
   <v>       0.75000000      0.75000000      0.00000000</v>
   <v>       0.25000000      0.25000000      0.50000000</v>
   <v>       0.75000000      0.25000000      0.50000000</v>
   <v>       0.25000000      0.75000000      0.50000000</v>
   <v>       0.75000000      0.75000000      0.50000000</v>
   <v>       0.25000000      0.00000000      0.25000000</v>
   <v>       0.75000000      0.00000000      0.25000000</v>
   <v>       0.25000000      0.50000000      0.25000000</v>
   <v>       0.75000000      0.50000000      0.25000000</v>
   <v>       0.25000000      0.00000000      0.75000000</v>
   <v>       0.75000000      0.00000000      0.75000000</v>
   <v>       0.25000000      0.50000000      0.75000000</v>
   <v>       0.75000000      0.50000000      0.75000000</v>
   <v>       0.00000000      0.25000000      0.25000000</v>
   <v>       0.50000000      0.25000000      0.25000000</v>
   <v>       0.00000000      0.75000000      0.25000000</v>
   <v>       0.50000000      0.75000000      0.25000000</v>
   <v>       0.00000000      0.25000000      0.75000000</v>
   <v>       0.50000000      0.25000000      0.75000000</v>
   <v>       0.00000000      0.75000000      0.75000000</v>
   <v>       0.50000000      0.75000000      0.75000000</v>
   <v>       0.00000000      0.00000000      0.00000000</v>
   <v>       0.50000000      0.00000000      0.00000000</v>
   <v>       0.00000000      0.50000000      0.00000000</v>
   <v>       0.50000000      0.50000000      0.00000000</v>
   <v>       0.00000000      0.00000000      0.50000000</v>
   <v>       0.50000000      0.00000000      0.50000000</v>
   <v>       0.00000000      0.50000000      0.50000000</v>
   <v>       0.50000000      0.50000000      0.50000000</v>
  </varray>
 </structure>
 <calculation>
  <scstep>
   <time name="dav"> 1828.26 1831.26</time>
   <time name="total"> 1833.09 1836.10</time>
   <energy>
    <i name="alphaZ">     -6.94132402</i>
    <i name="ewald">  -2402.85078487</i>
    <i name="hartreedc">     -2.61509261</i>
    <i name="XCdc">   -835.96869743</i>
    <i name="pawpsdc">   1137.73615723</i>
    <i name="pawaedc">   -115.16745734</i>
    <i name="eentropy">     -0.00043309</i>
    <i name="bandstr">    703.86596806</i>
    <i name="atom">   1713.23509266</i>
    <i name="e_fr_energy">    191.29342858</i>
    <i name="e_wo_entrp">    191.29386167</i>
    <i name="e_0_energy">    191.29364513</i>
   </energy>
  </scstep>
  <scstep>
   <time name="dav"> 2008.80 2011.18</time>
   <time name="total"> 2008.86 2011.24</time>
   <energy>
    <i name="e_fr_energy">   -101.79241834</i>
    <i name="e_wo_entrp">   -101.79189470</i>
    <i name="e_0_energy">   -101.79215652</i>
   </energy>
  </scstep>
  <scstep>
   <time name="dav"> 2107.50 2109.98</time>
   <time name="total"> 2107.56 2110.05</time>
   <energy>
    <i name="e_fr_energy">   -119.65873281</i>
    <i name="e_wo_entrp">   -119.65794066</i>
    <i name="e_0_energy">   -119.65833673</i>
   </energy>
  </scstep>
  <scstep>
   <time name="dav"> 2027.40 2029.79</time>
   <time name="total"> 2027.47 2029.86</time>
   <energy>
    <i name="e_fr_energy">   -120.08592592</i>
    <i name="e_wo_entrp">   -120.08514420</i>
    <i name="e_0_energy">   -120.08553506</i>
   </energy>
  </scstep>
  <scstep>
   <time name="dav"> 2041.00 2044.60</time>
   <time name="total"> 2175.56 2179.75</time>
   <energy>
    <i name="e_fr_energy">   -120.09131811</i>
    <i name="e_wo_entrp">   -120.09053917</i>
    <i name="e_0_energy">   -120.09092864</i>
   </energy>
  </scstep>
  <scstep>
   <time name="dav"> 2021.61 2029.37</time>
   <time name="total"> 2165.17 2173.49</time>
   <energy>
    <i name="e_fr_energy">   -119.64974066</i>
    <i name="e_wo_entrp">   -119.64879672</i>
    <i name="e_0_energy">   -119.64926869</i>
   </energy>
  </scstep>
  <scstep>
   <time name="dav"> 1929.37 1953.50</time>
   <time name="total"> 2066.86 2092.97</time>
   <energy>
    <i name="e_fr_energy">   -119.32861880</i>
    <i name="e_wo_entrp">   -119.32781752</i>
    <i name="e_0_energy">   -119.32821816</i>
   </energy>
  </scstep>
  <scstep>
   <time name="dav"> 2083.99 2084.86</time>
   <time name="total"> 2223.20 2224.13</time>
   <energy>
    <i name="e_fr_energy">   -119.32880778</i>
    <i name="e_wo_entrp">   -119.32800871</i>
    <i name="e_0_energy">   -119.32840825</i>
   </energy>
  </scstep>
  <scstep>
   <time name="dav"> 2036.26 2037.11</time>
   <time name="total"> 2176.07 2176.98</time>
   <energy>
    <i name="e_fr_energy">   -119.32884323</i>
    <i name="e_wo_entrp">   -119.32804712</i>
    <i name="e_0_energy">   -119.32844518</i>
   </energy>
  </scstep>
  <scstep>
   <time name="dav"> 2068.00 2069.54</time>
   <time name="total"> 2201.75 2203.42</time>
   <energy>
    <i name="e_fr_energy">   -119.32884513</i>
    <i name="e_wo_entrp">   -119.32804928</i>
    <i name="e_0_energy">   -119.32844721</i>
   </energy>
  </scstep>
  <scstep>
   <time name="dav"> 1996.24 1998.94</time>
   <time name="total"> 2129.24 2132.13</time>
   <energy>
    <i name="e_fr_energy">   -119.32884269</i>
    <i name="e_wo_entrp">   -119.32804681</i>
    <i name="e_0_energy">   -119.32844475</i>
   </energy>
  </scstep>
  <scstep>
   <time name="dav"> 1560.95 1563.15</time>
   <time name="total"> 1694.22 1696.61</time>
   <energy>
    <i name="e_fr_energy">   -119.32884180</i>
    <i name="e_wo_entrp">   -119.32804596</i>
    <i name="e_0_energy">   -119.32844388</i>
   </energy>
  </scstep>
  <scstep>
   <time name="dav"> 1374.74 1376.61</time>
   <time name="total"> 1508.29 1510.36</time>
   <energy>
    <i name="e_fr_energy">   -119.32884165</i>
    <i name="e_wo_entrp">   -119.32804579</i>
    <i name="e_0_energy">   -119.32844372</i>
   </energy>
  </scstep>
  <scstep>
   <time name="dav"> 1341.30 1343.14</time>
   <time name="total"> 1475.16 1477.20</time>
   <energy>
    <i name="e_fr_energy">   -119.32884164</i>
    <i name="e_wo_entrp">   -119.32804578</i>
    <i name="e_0_energy">   -119.32844371</i>
   </energy>
  </scstep>
  <scstep>
   <time name="dav"> 1350.36 1352.26</time>
   <time name="total"> 1355.13 1357.03</time>
   <energy>
    <i name="alphaZ">     -6.94132402</i>
    <i name="ewald">  -2402.85078487</i>
    <i name="hartreedc">     -3.73952074</i>
    <i name="XCdc">   -831.99831227</i>
    <i name="pawpsdc">   1148.16771300</i>
    <i name="pawaedc">   -126.36167897</i>
    <i name="eentropy">     -0.00079586</i>
    <i name="bandstr">    391.16076942</i>
    <i name="atom">   1713.23509266</i>
    <i name="e_fr_energy">   -119.32884165</i>
    <i name="e_wo_entrp">   -119.32804579</i>
    <i name="e_0_energy">   -119.32844372</i>
   </energy>
  </scstep>
  <structure>
   <crystal>
    <varray name="basis" >
     <v>       7.91312048      0.00000000      0.00000000</v>
     <v>       0.00000000      7.91312048      0.00000000</v>
     <v>       0.00000000      0.00000000      7.91312048</v>
    </varray>
    <i name="volume">    495.49963047</i>
    <varray name="rec_basis" >
     <v>       0.12637240      0.00000000      0.00000000</v>
     <v>       0.00000000      0.12637240      0.00000000</v>
     <v>       0.00000000      0.00000000      0.12637240</v>
    </varray>
   </crystal>
   <varray name="positions" >
    <v>       0.25126372      0.25000000      0.00000000</v>
    <v>       0.75000000      0.25000000      0.00000000</v>
    <v>       0.25000000      0.75000000      0.00000000</v>
    <v>       0.75000000      0.75000000      0.00000000</v>
    <v>       0.25000000      0.25000000      0.50000000</v>
    <v>       0.75000000      0.25000000      0.50000000</v>
    <v>       0.25000000      0.75000000      0.50000000</v>
    <v>       0.75000000      0.75000000      0.50000000</v>
    <v>       0.25000000      0.00000000      0.25000000</v>
    <v>       0.75000000      0.00000000      0.25000000</v>
    <v>       0.25000000      0.50000000      0.25000000</v>
    <v>       0.75000000      0.50000000      0.25000000</v>
    <v>       0.25000000      0.00000000      0.75000000</v>
    <v>       0.75000000      0.00000000      0.75000000</v>
    <v>       0.25000000      0.50000000      0.75000000</v>
    <v>       0.75000000      0.50000000      0.75000000</v>
    <v>       0.00000000      0.25000000      0.25000000</v>
    <v>       0.50000000      0.25000000      0.25000000</v>
    <v>       0.00000000      0.75000000      0.25000000</v>
    <v>       0.50000000      0.75000000      0.25000000</v>
    <v>       0.00000000      0.25000000      0.75000000</v>
    <v>       0.50000000      0.25000000      0.75000000</v>
    <v>       0.00000000      0.75000000      0.75000000</v>
    <v>       0.50000000      0.75000000      0.75000000</v>
    <v>       0.00000000      0.00000000      0.00000000</v>
    <v>       0.50000000      0.00000000      0.00000000</v>
    <v>       0.00000000      0.50000000      0.00000000</v>
    <v>       0.50000000      0.50000000      0.00000000</v>
    <v>       0.00000000      0.00000000      0.50000000</v>
    <v>       0.50000000      0.00000000      0.50000000</v>
    <v>       0.00000000      0.50000000      0.50000000</v>
    <v>       0.50000000      0.50000000      0.50000000</v>
   </varray>
  </structure>
  <varray name="forces" >
   <v>      -0.05929112     -0.00000000      0.00000000</v>
   <v>       0.00257772      0.00000000     -0.00000000</v>
   <v>      -0.00003120      0.00000000     -0.00000000</v>
   <v>       0.00091515      0.00000000     -0.00000000</v>
   <v>      -0.00003120      0.00000000     -0.00000000</v>
   <v>       0.00091515      0.00000000      0.00000000</v>
   <v>       0.00051698      0.00000000      0.00000000</v>
   <v>      -0.00008626     -0.00000000      0.00000000</v>
   <v>      -0.00138960      0.00002892     -0.00002892</v>
   <v>      -0.00032248     -0.00000510      0.00000510</v>
   <v>      -0.00138960     -0.00002892     -0.00002892</v>
   <v>      -0.00032248      0.00000510      0.00000510</v>
   <v>      -0.00138960      0.00002892      0.00002892</v>
   <v>      -0.00032248     -0.00000510     -0.00000510</v>
   <v>      -0.00138960     -0.00002892      0.00002892</v>
   <v>      -0.00032248      0.00000510     -0.00000510</v>
   <v>       0.00777053      0.00000000     -0.00823575</v>
   <v>       0.00794318     -0.00000000      0.00849405</v>
   <v>      -0.00019192      0.00000000      0.00018253</v>
   <v>      -0.00018100      0.00000000     -0.00017644</v>
   <v>       0.00777053      0.00000000      0.00823575</v>
   <v>       0.00794318      0.00000000     -0.00849405</v>
   <v>      -0.00019192      0.00000000     -0.00018253</v>
   <v>      -0.00018100      0.00000000      0.00017644</v>
   <v>       0.00777053      0.00823575     -0.00000000</v>
   <v>       0.00794318     -0.00849405      0.00000000</v>
   <v>       0.00777053     -0.00823575     -0.00000000</v>
   <v>       0.00794318      0.00849405     -0.00000000</v>
   <v>      -0.00019192     -0.00018253     -0.00000000</v>
   <v>      -0.00018100      0.00017644     -0.00000000</v>
   <v>      -0.00019192      0.00018253      0.00000000</v>
   <v>      -0.00018100     -0.00017644      0.00000000</v>
  </varray>
  <varray name="stress" >
   <v>      55.89174087      0.00000000      0.00000000</v>
   <v>       0.00000000     55.89112148      0.00000000</v>
   <v>       0.00000000      0.00000000     55.89112148</v>
  </varray>
  <energy>
   <i name="e_fr_energy">   -119.32884165</i>
   <i name="e_wo_entrp">   -119.32844372</i>
   <i name="e_0_energy">     -0.00079586</i>
  </energy>
  <eigenvalues>
   <array>
    <dimension dim="1">band</dimension>
    <dimension dim="2">kpoint</dimension>
    <dimension dim="3">spin</dimension>
    <field>eigene</field>
    <field>occ</field>
    <set>
     <set comment="spin 1">
      <set comment="kpoint 1">
       <r>  -2.9018  1.0000</r>
       <r>  -0.5630  1.0000</r>
       <r>  -0.5591  1.0000</r>
       <r>  -0.5591  1.0000</r>
       <r>  -0.5591  1.0000</r>
       <r>  -0.5591  1.0000</r>
       <r>  -0.5553  1.0000</r>
       <r>   1.7361  1.0000</r>
       <r>   1.7405  1.0000</r>
       <r>   1.7405  1.0000</r>
       <r>   1.7423  1.0000</r>
       <r>   1.7424  1.0000</r>
       <r>   1.7424  1.0000</r>
       <r>   1.7424  1.0000</r>
       <r>   1.7424  1.0000</r>
       <r>   1.7426  1.0000</r>
       <r>   1.7444  1.0000</r>
       <r>   1.7444  1.0000</r>
       <r>   1.7488  1.0000</r>
       <r>   3.8295  1.0000</r>
       <r>   3.8296  1.0000</r>
       <r>   3.8296  1.0000</r>
       <r>   3.8296  1.0000</r>
       <r>   4.2116  1.0000</r>
       <r>   4.2116  1.0000</r>
       <r>   4.2116  1.0000</r>
       <r>   4.2117  1.0000</r>
       <r>   5.6016  1.0000</r>
       <r>   5.6016  1.0000</r>
       <r>   5.6016  1.0000</r>
       <r>   7.0599  1.0000</r>
       <r>   7.0599  1.0000</r>
       <r>   7.0599  1.0000</r>
       <r>   7.7478  1.0000</r>
       <r>   7.7478  1.0000</r>
       <r>   7.7523  1.0000</r>
       <r>   7.7523  1.0000</r>
       <r>   7.7525  1.0000</r>
       <r>   7.7525  1.0000</r>
       <r>   7.7525  1.0000</r>
       <r>   7.7525  1.0000</r>
       <r>   7.7526  1.0000</r>
       <r>   7.7526  1.0000</r>
       <r>   7.7571  1.0000</r>
       <r>   7.7571  1.0000</r>
       <r>   8.7291  0.0000</r>
       <r>   8.7335  0.0000</r>
       <r>   8.7335  0.0000</r>
       <r>   8.7335  0.0000</r>
       <r>   8.7335  0.0000</r>
       <r>   8.7378  0.0000</r>
       <r>   9.9089  0.0000</r>
       <r>   9.9089  0.0000</r>
       <r>   9.9104  0.0000</r>
       <r>   9.9130  0.0000</r>
       <r>   9.9131  0.0000</r>
       <r>   9.9131  0.0000</r>
       <r>   9.9131  0.0000</r>
       <r>   9.9132  0.0000</r>
       <r>   9.9132  0.0000</r>
       <r>   9.9158  0.0000</r>
       <r>   9.9173  0.0000</r>
       <r>   9.9173  0.0000</r>
       <r>  10.1487  0.0000</r>
       <r>  10.1497  0.0000</r>
       <r>  10.1497  0.0000</r>
       <r>  10.1497  0.0000</r>
       <r>  10.1507  0.0000</r>
      </set>
      <set comment="kpoint 2">
       <r>  -2.8854  1.0000</r>
       <r>  -0.9305  1.0000</r>
       <r>  -0.5430  1.0000</r>
       <r>  -0.5430  1.0000</r>
       <r>  -0.5430  1.0000</r>
       <r>  -0.5430  1.0000</r>
       <r>  -0.1568  1.0000</r>
       <r>   1.3776  1.0000</r>
       <r>   1.3776  1.0000</r>
       <r>   1.3776  1.0000</r>
       <r>   1.3777  1.0000</r>
       <r>   1.7583  1.0000</r>
       <r>   1.7583  1.0000</r>
       <r>   1.7583  1.0000</r>
       <r>   1.7583  1.0000</r>
       <r>   2.1377  1.0000</r>
       <r>   2.1377  1.0000</r>
       <r>   2.1377  1.0000</r>
       <r>   2.1377  1.0000</r>
       <r>   3.6142  1.0000</r>
       <r>   3.6142  1.0000</r>
       <r>   3.6142  1.0000</r>
       <r>   3.6142  1.0000</r>
       <r>   4.4572  1.0000</r>
       <r>   4.4572  1.0000</r>
       <r>   4.4572  1.0000</r>
       <r>   4.4572  1.0000</r>
       <r>   5.3008  1.0000</r>
       <r>   5.6165  1.0000</r>
       <r>   5.6165  1.0000</r>
       <r>   7.0754  1.0000</r>
       <r>   7.0754  1.0000</r>
       <r>   7.3887  1.0000</r>
       <r>   7.4082  1.0000</r>
       <r>   7.4082  1.0000</r>
       <r>   7.4545  1.0000</r>
       <r>   7.4545  1.0000</r>
       <r>   7.4545  1.0000</r>
       <r>   7.4546  1.0000</r>
       <r>   7.7674  1.0000</r>
       <r>   7.7675  1.0000</r>
       <r>   7.7675  1.0000</r>
       <r>   7.7675  1.0000</r>
       <r>   8.1268  1.0000</r>
       <r>   8.1268  1.0000</r>
       <r>   8.6542  1.0000</r>
       <r>   8.6542  1.0000</r>
       <r>   8.9410  0.0000</r>
       <r>   8.9410  0.0000</r>
       <r>   8.9410  0.0000</r>
       <r>   8.9410  0.0000</r>
       <r>   9.5675  0.0000</r>
       <r>   9.5675  0.0000</r>
       <r>   9.5676  0.0000</r>
       <r>   9.5676  0.0000</r>
       <r>   9.6578  0.0000</r>
       <r>   9.6578  0.0000</r>
       <r>   9.6578  0.0000</r>
       <r>   9.6578  0.0000</r>
       <r>  10.2568  0.0000</r>
       <r>  10.2568  0.0000</r>
       <r>  10.2830  0.0000</r>
       <r>  10.2832  0.0000</r>
       <r>  10.2835  0.0000</r>
       <r>  10.2850  0.0000</r>
       <r>  10.2888  0.0000</r>
       <r>  10.2889  0.0000</r>
       <r>  10.2893  0.0000</r>
      </set>
      <set comment="kpoint 3">
       <r>  -2.8362  1.0000</r>
       <r>  -1.2705  1.0000</r>
       <r>  -0.4947  1.0000</r>
       <r>  -0.4947  1.0000</r>
       <r>  -0.4947  1.0000</r>
       <r>  -0.4947  1.0000</r>
       <r>   0.2762  1.0000</r>
       <r>   1.0436  1.0000</r>
       <r>   1.0436  1.0000</r>
       <r>   1.0436  1.0000</r>
       <r>   1.0436  1.0000</r>
       <r>   1.8058  1.0000</r>
       <r>   1.8058  1.0000</r>
       <r>   1.8058  1.0000</r>
       <r>   1.8058  1.0000</r>
       <r>   2.5629  1.0000</r>
       <r>   2.5629  1.0000</r>
       <r>   2.5629  1.0000</r>
       <r>   2.5629  1.0000</r>
       <r>   3.3060  1.0000</r>
       <r>   3.3060  1.0000</r>
       <r>   3.3060  1.0000</r>
       <r>   3.3060  1.0000</r>
       <r>   4.7244  1.0000</r>
       <r>   4.8560  1.0000</r>
       <r>   4.8560  1.0000</r>
       <r>   4.8560  1.0000</r>
       <r>   4.8560  1.0000</r>
       <r>   5.6612  1.0000</r>
       <r>   5.6612  1.0000</r>
       <r>   6.8994  1.0000</r>
       <r>   6.8994  1.0000</r>
       <r>   6.8994  1.0000</r>
       <r>   6.8994  1.0000</r>
       <r>   7.0942  1.0000</r>
       <r>   7.0942  1.0000</r>
       <r>   7.1220  1.0000</r>
       <r>   7.1220  1.0000</r>
       <r>   7.8124  1.0000</r>
       <r>   7.8124  1.0000</r>
       <r>   7.8124  1.0000</r>
       <r>   7.8124  1.0000</r>
       <r>   8.0491  1.0000</r>
       <r>   8.4663  1.0000</r>
       <r>   8.4663  1.0000</r>
       <r>   8.5314  1.0000</r>
       <r>   8.5314  1.0000</r>
       <r>   9.1314  0.0000</r>
       <r>   9.1314  0.0000</r>
       <r>   9.1314  0.0000</r>
       <r>   9.1314  0.0000</r>
       <r>   9.2202  0.0000</r>
       <r>   9.2202  0.0000</r>
       <r>   9.2202  0.0000</r>
       <r>   9.2203  0.0000</r>
       <r>   9.2522  0.0000</r>
       <r>   9.2522  0.0000</r>
       <r>   9.2524  0.0000</r>
       <r>   9.2524  0.0000</r>
       <r>  10.5280  0.0000</r>
       <r>  10.5280  0.0000</r>
       <r>  10.6888  0.0000</r>
       <r>  10.6889  0.0000</r>
       <r>  10.6893  0.0000</r>
       <r>  10.6915  0.0000</r>
       <r>  10.6947  0.0000</r>
       <r>  10.6949  0.0000</r>
       <r>  10.6952  0.0000</r>
      </set>
      <set comment="kpoint 4">
       <r>  -2.7542  1.0000</r>
       <r>  -1.5788  1.0000</r>
       <r>  -0.4141  1.0000</r>
       <r>  -0.4141  1.0000</r>
       <r>  -0.4141  1.0000</r>
       <r>  -0.4141  1.0000</r>
       <r>   0.7374  1.0000</r>
       <r>   0.7406  1.0000</r>
       <r>   0.7406  1.0000</r>
       <r>   0.7406  1.0000</r>
       <r>   0.7427  1.0000</r>
       <r>   1.8849  1.0000</r>
       <r>   1.8849  1.0000</r>
       <r>   1.8849  1.0000</r>
       <r>   1.8849  1.0000</r>
       <r>   3.0125  1.0000</r>
       <r>   3.0139  1.0000</r>
       <r>   3.0139  1.0000</r>
       <r>   3.0145  1.0000</r>
       <r>   3.0175  1.0000</r>
       <r>   3.0181  1.0000</r>
       <r>   3.0181  1.0000</r>
       <r>   3.0196  1.0000</r>
       <r>   4.1011  1.0000</r>
       <r>   5.2983  1.0000</r>
       <r>   5.2983  1.0000</r>
       <r>   5.2983  1.0000</r>
       <r>   5.2983  1.0000</r>
       <r>   5.7357  1.0000</r>
       <r>   5.7357  1.0000</r>
       <r>   6.2988  1.0000</r>
       <r>   6.2988  1.0000</r>
       <r>   6.2988  1.0000</r>
       <r>   6.2988  1.0000</r>
       <r>   6.8102  1.0000</r>
       <r>   6.8102  1.0000</r>
       <r>   7.1993  1.0000</r>
       <r>   7.1993  1.0000</r>
       <r>   7.8873  1.0000</r>
       <r>   7.8873  1.0000</r>
       <r>   7.8873  1.0000</r>
       <r>   7.8873  1.0000</r>
       <r>   8.2402  1.0000</r>
       <r>   8.2402  1.0000</r>
       <r>   8.5416  1.0000</r>
       <r>   8.5416  1.0000</r>
       <r>   8.5416  1.0000</r>
       <r>   8.5416  1.0000</r>
       <r>   8.8126  0.0000</r>
       <r>   8.9641  0.0000</r>
       <r>   8.9641  0.0000</r>
       <r>   8.9670  0.0000</r>
       <r>   8.9670  0.0000</r>
       <r>   8.9690  0.0000</r>
       <r>   8.9690  0.0000</r>
       <r>   9.4210  0.0000</r>
       <r>   9.4210  0.0000</r>
       <r>   9.4210  0.0000</r>
       <r>   9.4210  0.0000</r>
       <r>  10.6647  0.0000</r>
       <r>  10.6647  0.0000</r>
       <r>  10.6647  0.0000</r>
       <r>  10.6647  0.0000</r>
       <r>  10.8921  0.0000</r>
       <r>  10.8921  0.0000</r>
       <r>  11.1308  0.0000</r>
       <r>  11.1308  0.0000</r>
       <r>  11.1309  0.0000</r>
      </set>
      <set comment="kpoint 5">
       <r>  -2.6394  1.0000</r>
       <r>  -1.8554  1.0000</r>
       <r>  -0.3014  1.0000</r>
       <r>  -0.3014  1.0000</r>
       <r>  -0.3014  1.0000</r>
       <r>  -0.3014  1.0000</r>
       <r>   0.4689  1.0000</r>
       <r>   0.4689  1.0000</r>
       <r>   0.4689  1.0000</r>
       <r>   0.4689  1.0000</r>
       <r>   1.2324  1.0000</r>
       <r>   1.9956  1.0000</r>
       <r>   1.9956  1.0000</r>
       <r>   1.9956  1.0000</r>
       <r>   1.9956  1.0000</r>
       <r>   2.7501  1.0000</r>
       <r>   2.7501  1.0000</r>
       <r>   2.7501  1.0000</r>
       <r>   2.7501  1.0000</r>
       <r>   3.4819  1.0000</r>
       <r>   3.5011  1.0000</r>
       <r>   3.5011  1.0000</r>
       <r>   3.5011  1.0000</r>
       <r>   3.5012  1.0000</r>
       <r>   5.6987  1.0000</r>
       <r>   5.6987  1.0000</r>
       <r>   5.6988  1.0000</r>
       <r>   5.6988  1.0000</r>
       <r>   5.7733  1.0000</r>
       <r>   5.7733  1.0000</r>
       <r>   5.7733  1.0000</r>
       <r>   5.7733  1.0000</r>
       <r>   5.8401  1.0000</r>
       <r>   5.8401  1.0000</r>
       <r>   6.5563  1.0000</r>
       <r>   6.5563  1.0000</r>
       <r>   7.3068  1.0000</r>
       <r>   7.3068  1.0000</r>
       <r>   7.9475  1.0000</r>
       <r>   7.9475  1.0000</r>
       <r>   7.9476  1.0000</r>
       <r>   7.9476  1.0000</r>
       <r>   7.9922  1.0000</r>
       <r>   7.9922  1.0000</r>
       <r>   7.9923  1.0000</r>
       <r>   7.9923  1.0000</r>
       <r>   8.0126  1.0000</r>
       <r>   8.0127  1.0000</r>
       <r>   8.7119  0.0241</r>
       <r>   8.7119  0.0241</r>
       <r>   8.7119  0.0240</r>
       <r>   8.7119  0.0240</r>
       <r>   9.4311  0.0000</r>
       <r>   9.4311  0.0000</r>
       <r>   9.5889  0.0000</r>
       <r>   9.5889  0.0000</r>
       <r>   9.5889  0.0000</r>
       <r>   9.5889  0.0000</r>
       <r>   9.6279  0.0000</r>
       <r>  10.3986  0.0000</r>
       <r>  10.3986  0.0000</r>
       <r>  10.3986  0.0000</r>
       <r>  10.3986  0.0000</r>
       <r>  11.3109  0.0000</r>
       <r>  11.3109  0.0000</r>
       <r>  11.5916  0.0000</r>
       <r>  11.5929  0.0000</r>
       <r>  11.5972  0.0000</r>
      </set>
      <set comment="kpoint 6">
       <r>  -2.4921  1.0000</r>
       <r>  -2.0999  1.0000</r>
       <r>  -0.1567  1.0000</r>
       <r>  -0.1566  1.0000</r>
       <r>  -0.1566  1.0000</r>
       <r>  -0.1566  1.0000</r>
       <r>   0.2286  1.0000</r>
       <r>   0.2286  1.0000</r>
       <r>   0.2286  1.0000</r>
       <r>   0.2287  1.0000</r>
       <r>   1.7544  1.0000</r>
       <r>   2.1377  1.0000</r>
       <r>   2.1377  1.0000</r>
       <r>   2.1377  1.0000</r>
       <r>   2.1377  1.0000</r>
       <r>   2.5153  1.0000</r>
       <r>   2.5153  1.0000</r>
       <r>   2.5153  1.0000</r>
       <r>   2.5153  1.0000</r>
       <r>   2.8812  1.0000</r>
       <r>   4.0127  1.0000</r>
       <r>   4.0127  1.0000</r>
       <r>   4.0127  1.0000</r>
       <r>   4.0127  1.0000</r>
       <r>   5.1141  1.0000</r>
       <r>   5.1141  1.0000</r>
       <r>   5.1141  1.0000</r>
       <r>   5.1141  1.0000</r>
       <r>   5.9742  1.0000</r>
       <r>   5.9742  1.0000</r>
       <r>   6.2780  1.0000</r>
       <r>   6.2780  1.0000</r>
       <r>   6.2780  1.0000</r>
       <r>   6.2780  1.0000</r>
       <r>   6.3324  1.0000</r>
       <r>   6.3324  1.0000</r>
       <r>   7.3681  1.0000</r>
       <r>   7.3681  1.0000</r>
       <r>   7.3681  1.0000</r>
       <r>   7.3681  1.0000</r>
       <r>   7.4437  1.0000</r>
       <r>   7.4437  1.0000</r>
       <r>   7.7997  1.0000</r>
       <r>   7.7997  1.0000</r>
       <r>   8.1271  1.0000</r>
       <r>   8.1271  1.0000</r>
       <r>   8.1271  1.0000</r>
       <r>   8.1271  1.0000</r>
       <r>   8.4869  1.0000</r>
       <r>   8.4869  1.0000</r>
       <r>   8.4870  1.0000</r>
       <r>   8.4870  1.0000</r>
       <r>   9.7595  0.0000</r>
       <r>   9.7595  0.0000</r>
       <r>   9.7595  0.0000</r>
       <r>   9.7595  0.0000</r>
       <r>   9.9263  0.0000</r>
       <r>   9.9263  0.0000</r>
       <r>  10.1600  0.0000</r>
       <r>  10.1600  0.0000</r>
       <r>  10.1600  0.0000</r>
       <r>  10.1600  0.0000</r>
       <r>  10.4805  0.0000</r>
       <r>  11.0066  0.0000</r>
       <r>  11.0066  0.0000</r>
       <r>  11.7662  0.0000</r>
       <r>  11.7662  0.0000</r>
       <r>  12.0936  0.0000</r>
      </set>
      <set comment="kpoint 7">
       <r>  -2.3137  1.0000</r>
       <r>  -2.3107  1.0000</r>
       <r>   0.0160  1.0000</r>
       <r>   0.0192  1.0000</r>
       <r>   0.0192  1.0000</r>
       <r>   0.0200  1.0000</r>
       <r>   0.0202  1.0000</r>
       <r>   0.0210  1.0000</r>
       <r>   0.0210  1.0000</r>
       <r>   0.0242  1.0000</r>
       <r>   2.3022  1.0000</r>
       <r>   2.3046  1.0000</r>
       <r>   2.3093  1.0000</r>
       <r>   2.3097  1.0000</r>
       <r>   2.3097  1.0000</r>
       <r>   2.3106  1.0000</r>
       <r>   2.3115  1.0000</r>
       <r>   2.3123  1.0000</r>
       <r>   2.3123  1.0000</r>
       <r>   2.3149  1.0000</r>
       <r>   4.5501  1.0000</r>
       <r>   4.5501  1.0000</r>
       <r>   4.5504  1.0000</r>
       <r>   4.5508  1.0000</r>
       <r>   4.5511  1.0000</r>
       <r>   4.5515  1.0000</r>
       <r>   4.5518  1.0000</r>
       <r>   4.5518  1.0000</r>
       <r>   6.1367  1.0000</r>
       <r>   6.1367  1.0000</r>
       <r>   6.1399  1.0000</r>
       <r>   6.1399  1.0000</r>
       <r>   6.8093  1.0000</r>
       <r>   6.8093  1.0000</r>
       <r>   6.8097  1.0000</r>
       <r>   6.8102  1.0000</r>
       <r>   6.8104  1.0000</r>
       <r>   6.8110  1.0000</r>
       <r>   6.8113  1.0000</r>
       <r>   6.8113  1.0000</r>
       <r>   7.6067  1.0000</r>
       <r>   7.6078  1.0000</r>
       <r>   7.6096  1.0000</r>
       <r>   7.6108  1.0000</r>
       <r>   8.2895  1.0000</r>
       <r>   8.2895  1.0000</r>
       <r>   8.2905  1.0000</r>
       <r>   8.2919  1.0000</r>
       <r>   8.2921  1.0000</r>
       <r>   8.2935  1.0000</r>
       <r>   8.2945  1.0000</r>
       <r>   8.2945  1.0000</r>
       <r>   9.9456  0.0000</r>
       <r>   9.9465  0.0000</r>
       <r>   9.9465  0.0000</r>
       <r>   9.9466  0.0000</r>
       <r>   9.9490  0.0000</r>
       <r>   9.9492  0.0000</r>
       <r>   9.9492  0.0000</r>
       <r>   9.9501  0.0000</r>
       <r>  10.4504  0.0000</r>
       <r>  10.4504  0.0000</r>
       <r>  10.4527  0.0000</r>
       <r>  10.4527  0.0000</r>
       <r>  11.3645  0.0000</r>
       <r>  11.3656  0.0000</r>
       <r>  12.2461  0.0000</r>
       <r>  12.2468  0.0000</r>
      </set>
      <set comment="kpoint 8">
       <r>  -2.8854  1.0000</r>
       <r>  -0.9305  1.0000</r>
       <r>  -0.5460  1.0000</r>
       <r>  -0.5430  1.0000</r>
       <r>  -0.5430  1.0000</r>
       <r>  -0.5401  1.0000</r>
       <r>  -0.1568  1.0000</r>
       <r>   1.3747  1.0000</r>
       <r>   1.3776  1.0000</r>
       <r>   1.3777  1.0000</r>
       <r>   1.3806  1.0000</r>
       <r>   1.7562  1.0000</r>
       <r>   1.7571  1.0000</r>
       <r>   1.7595  1.0000</r>
       <r>   1.7604  1.0000</r>
       <r>   2.1347  1.0000</r>
       <r>   2.1377  1.0000</r>
       <r>   2.1377  1.0000</r>
       <r>   2.1407  1.0000</r>
       <r>   3.6123  1.0000</r>
       <r>   3.6131  1.0000</r>
       <r>   3.6153  1.0000</r>
       <r>   3.6161  1.0000</r>
       <r>   4.4553  1.0000</r>
       <r>   4.4561  1.0000</r>
       <r>   4.4583  1.0000</r>
       <r>   4.4591  1.0000</r>
       <r>   5.3007  1.0000</r>
       <r>   5.6165  1.0000</r>
       <r>   5.6165  1.0000</r>
       <r>   7.0754  1.0000</r>
       <r>   7.0754  1.0000</r>
       <r>   7.3887  1.0000</r>
       <r>   7.4082  1.0000</r>
       <r>   7.4083  1.0000</r>
       <r>   7.4512  1.0000</r>
       <r>   7.4545  1.0000</r>
       <r>   7.4545  1.0000</r>
       <r>   7.4579  1.0000</r>
       <r>   7.7646  1.0000</r>
       <r>   7.7674  1.0000</r>
       <r>   7.7675  1.0000</r>
       <r>   7.7703  1.0000</r>
       <r>   8.1268  1.0000</r>
       <r>   8.1268  1.0000</r>
       <r>   8.6542  1.0000</r>
       <r>   8.6542  1.0000</r>
       <r>   8.9380  0.0000</r>
       <r>   8.9410  0.0000</r>
       <r>   8.9410  0.0000</r>
       <r>   8.9439  0.0000</r>
       <r>   9.5647  0.0000</r>
       <r>   9.5676  0.0000</r>
       <r>   9.5676  0.0000</r>
       <r>   9.5704  0.0000</r>
       <r>   9.6550  0.0000</r>
       <r>   9.6566  0.0000</r>
       <r>   9.6590  0.0000</r>
       <r>   9.6606  0.0000</r>
       <r>  10.2567  0.0000</r>
       <r>  10.2571  0.0000</r>
       <r>  10.2827  0.0000</r>
       <r>  10.2828  0.0000</r>
       <r>  10.2845  0.0000</r>
       <r>  10.2861  0.0000</r>
       <r>  10.2877  0.0000</r>
       <r>  10.2889  0.0000</r>
       <r>  10.2910  0.0000</r>
      </set>
      <set comment="kpoint 9">
       <r>  -2.8690  1.0000</r>
       <r>  -0.9155  1.0000</r>
       <r>  -0.9131  1.0000</r>
       <r>  -0.5269  1.0000</r>
       <r>  -0.5269  1.0000</r>
       <r>  -0.1420  1.0000</r>
       <r>  -0.1395  1.0000</r>
       <r>   1.0118  1.0000</r>
       <r>   1.3918  1.0000</r>
       <r>   1.3928  1.0000</r>
       <r>   1.3943  1.0000</r>
       <r>   1.3952  1.0000</r>
       <r>   1.7735  1.0000</r>
       <r>   1.7745  1.0000</r>
       <r>   2.1517  1.0000</r>
       <r>   2.1527  1.0000</r>
       <r>   2.1542  1.0000</r>
       <r>   2.1552  1.0000</r>
       <r>   2.5316  1.0000</r>
       <r>   3.2749  1.0000</r>
       <r>   3.2749  1.0000</r>
       <r>   3.8598  1.0000</r>
       <r>   3.8598  1.0000</r>
       <r>   4.2435  1.0000</r>
       <r>   4.2435  1.0000</r>
       <r>   4.8250  1.0000</r>
       <r>   4.8250  1.0000</r>
       <r>   5.3155  1.0000</r>
       <r>   5.3162  1.0000</r>
       <r>   5.6314  1.0000</r>
       <r>   7.0909  1.0000</r>
       <r>   7.1149  1.0000</r>
       <r>   7.1172  1.0000</r>
       <r>   7.3908  1.0000</r>
       <r>   7.3908  1.0000</r>
       <r>   7.4037  1.0000</r>
       <r>   7.4044  1.0000</r>
       <r>   7.4219  1.0000</r>
       <r>   7.4246  1.0000</r>
       <r>   7.5648  1.0000</r>
       <r>   7.5648  1.0000</r>
       <r>   7.8105  1.0000</r>
       <r>   7.8125  1.0000</r>
       <r>   8.1404  1.0000</r>
       <r>   8.1432  1.0000</r>
       <r>   8.8156  0.0000</r>
       <r>   8.8180  0.0000</r>
       <r>   8.9171  0.0000</r>
       <r>   8.9200  0.0000</r>
       <r>   9.1565  0.0000</r>
       <r>   9.1565  0.0000</r>
       <r>   9.2222  0.0000</r>
       <r>   9.3094  0.0000</r>
       <r>   9.3103  0.0000</r>
       <r>   9.3118  0.0000</r>
       <r>   9.3128  0.0000</r>
       <r>   9.9422  0.0000</r>
       <r>   9.9441  0.0000</r>
       <r>  10.0332  0.0000</r>
       <r>  10.0342  0.0000</r>
       <r>  10.0348  0.0000</r>
       <r>  10.0357  0.0000</r>
       <r>  10.3277  0.0000</r>
       <r>  10.3284  0.0000</r>
       <r>  10.3926  0.0000</r>
       <r>  10.3926  0.0000</r>
       <r>  10.4520  0.0000</r>
       <r>  10.4536  0.0000</r>
      </set>
      <set comment="kpoint 10">
       <r>  -2.8198  1.0000</r>
       <r>  -1.2543  1.0000</r>
       <r>  -0.8658  1.0000</r>
       <r>  -0.4786  1.0000</r>
       <r>  -0.4785  1.0000</r>
       <r>  -0.0925  1.0000</r>
       <r>   0.2922  1.0000</r>
       <r>   0.6768  1.0000</r>
       <r>   1.0595  1.0000</r>
       <r>   1.0595  1.0000</r>
       <r>   1.4404  1.0000</r>
       <r>   1.4412  1.0000</r>
       <r>   1.4418  1.0000</r>
       <r>   2.1999  1.0000</r>
       <r>   2.2008  1.0000</r>
       <r>   2.2013  1.0000</r>
       <r>   2.5786  1.0000</r>
       <r>   2.5786  1.0000</r>
       <r>   2.9520  1.0000</r>
       <r>   2.9520  1.0000</r>
       <r>   2.9554  1.0000</r>
       <r>   3.6758  1.0000</r>
       <r>   3.6758  1.0000</r>
       <r>   4.5198  1.0000</r>
       <r>   4.5198  1.0000</r>
       <r>   4.7397  1.0000</r>
       <r>   5.2369  1.0000</r>
       <r>   5.2369  1.0000</r>
       <r>   5.3611  1.0000</r>
       <r>   5.6761  1.0000</r>
       <r>   6.5585  1.0000</r>
       <r>   6.8037  1.0000</r>
       <r>   6.9023  1.0000</r>
       <r>   6.9023  1.0000</r>
       <r>   7.1092  1.0000</r>
       <r>   7.1374  1.0000</r>
       <r>   7.2619  1.0000</r>
       <r>   7.4499  1.0000</r>
       <r>   7.4682  1.0000</r>
       <r>   7.5531  1.0000</r>
       <r>   7.5531  1.0000</r>
       <r>   8.0642  1.0000</r>
       <r>   8.1414  1.0000</r>
       <r>   8.1868  1.0000</r>
       <r>   8.5464  1.0000</r>
       <r>   8.6685  1.0000</r>
       <r>   8.7612  0.0000</r>
       <r>   8.7830  0.0000</r>
       <r>   8.7830  0.0000</r>
       <r>   8.9071  0.0000</r>
       <r>   8.9922  0.0000</r>
       <r>   8.9943  0.0000</r>
       <r>   8.9952  0.0000</r>
       <r>   9.3534  0.0000</r>
       <r>   9.4732  0.0000</r>
       <r>   9.4733  0.0000</r>
       <r>   9.5097  0.0000</r>
       <r>   9.5098  0.0000</r>
       <r>   9.6277  0.0000</r>
       <r>  10.3489  0.0000</r>
       <r>  10.4410  0.0000</r>
       <r>  10.4410  0.0000</r>
       <r>  10.5671  0.0000</r>
       <r>  10.5809  0.0000</r>
       <r>  10.6095  0.0000</r>
       <r>  10.7509  0.0000</r>
       <r>  10.7509  0.0000</r>
       <r>  10.7588  0.0000</r>
      </set>
      <set comment="kpoint 11">
       <r>  -2.7378  1.0000</r>
       <r>  -1.5626  1.0000</r>
       <r>  -0.7850  1.0000</r>
       <r>  -0.3980  1.0000</r>
       <r>  -0.3980  1.0000</r>
       <r>  -0.0122  1.0000</r>
       <r>   0.3729  1.0000</r>
       <r>   0.7541  1.0000</r>
       <r>   0.7566  1.0000</r>
       <r>   0.7579  1.0000</r>
       <r>   1.1390  1.0000</r>
       <r>   1.5206  1.0000</r>
       <r>   1.5206  1.0000</r>
       <r>   2.2796  1.0000</r>
       <r>   2.2796  1.0000</r>
       <r>   2.6545  1.0000</r>
       <r>   2.6561  1.0000</r>
       <r>   2.6582  1.0000</r>
       <r>   3.0332  1.0000</r>
       <r>   3.0332  1.0000</r>
       <r>   3.3988  1.0000</r>
       <r>   3.3992  1.0000</r>
       <r>   3.4088  1.0000</r>
       <r>   4.1166  1.0000</r>
       <r>   4.9488  1.0000</r>
       <r>   4.9488  1.0000</r>
       <r>   5.4365  1.0000</r>
       <r>   5.6820  1.0000</r>
       <r>   5.6820  1.0000</r>
       <r>   5.7506  1.0000</r>
       <r>   5.9532  1.0000</r>
       <r>   6.3098  1.0000</r>
       <r>   6.3098  1.0000</r>
       <r>   6.5195  1.0000</r>
       <r>   6.6695  1.0000</r>
       <r>   6.8252  1.0000</r>
       <r>   7.2144  1.0000</r>
       <r>   7.5261  1.0000</r>
       <r>   7.5430  1.0000</r>
       <r>   7.6234  1.0000</r>
       <r>   7.6234  1.0000</r>
       <r>   8.1912  1.0000</r>
       <r>   8.1917  1.0000</r>
       <r>   8.1927  1.0000</r>
       <r>   8.2618  1.0000</r>
       <r>   8.5480  1.0000</r>
       <r>   8.6220  1.0000</r>
       <r>   8.7076  0.0856</r>
       <r>   8.7077  0.0845</r>
       <r>   8.8095  0.0000</r>
       <r>   8.8273  0.0000</r>
       <r>   8.9213  0.0000</r>
       <r>   8.9213  0.0000</r>
       <r>   8.9812  0.0000</r>
       <r>   9.1313  0.0000</r>
       <r>   9.3423  0.0000</r>
       <r>   9.6844  0.0000</r>
       <r>   9.6985  0.0000</r>
       <r>   9.6985  0.0000</r>
       <r>  10.3160  0.0000</r>
       <r>  10.7849  0.0000</r>
       <r>  10.8772  0.0000</r>
       <r>  10.8773  0.0000</r>
       <r>  10.9184  0.0000</r>
       <r>  10.9513  0.0000</r>
       <r>  10.9514  0.0000</r>
       <r>  11.0415  0.0000</r>
       <r>  11.0730  0.0000</r>
      </set>
      <set comment="kpoint 12">
       <r>  -2.6231  1.0000</r>
       <r>  -1.8391  1.0000</r>
       <r>  -0.6720  1.0000</r>
       <r>  -0.2853  1.0000</r>
       <r>  -0.2853  1.0000</r>
       <r>   0.0997  1.0000</r>
       <r>   0.1009  1.0000</r>
       <r>   0.4849  1.0000</r>
       <r>   0.4849  1.0000</r>
       <r>   0.8681  1.0000</r>
       <r>   1.2483  1.0000</r>
       <r>   1.6316  1.0000</r>
       <r>   1.6316  1.0000</r>
       <r>   2.3888  1.0000</r>
       <r>   2.3893  1.0000</r>
       <r>   2.3901  1.0000</r>
       <r>   2.3905  1.0000</r>
       <r>   3.1393  1.0000</r>
       <r>   3.1393  1.0000</r>
       <r>   3.1419  1.0000</r>
       <r>   3.4975  1.0000</r>
       <r>   3.5166  1.0000</r>
       <r>   3.5166  1.0000</r>
       <r>   3.8901  1.0000</r>
       <r>   5.3491  1.0000</r>
       <r>   5.4209  1.0000</r>
       <r>   5.4209  1.0000</r>
       <r>   5.5421  1.0000</r>
       <r>   5.7122  1.0000</r>
       <r>   5.7123  1.0000</r>
       <r>   5.8549  1.0000</r>
       <r>   6.0755  1.0000</r>
       <r>   6.1575  1.0000</r>
       <r>   6.1575  1.0000</r>
       <r>   6.2646  1.0000</r>
       <r>   6.5712  1.0000</r>
       <r>   7.3214  1.0000</r>
       <r>   7.5965  1.0000</r>
       <r>   7.5966  1.0000</r>
       <r>   7.6321  1.0000</r>
       <r>   7.6479  1.0000</r>
       <r>   7.7276  1.0000</r>
       <r>   7.7276  1.0000</r>
       <r>   8.0104  1.0000</r>
       <r>   8.3261  1.0000</r>
       <r>   8.3285  1.0000</r>
       <r>   8.3293  1.0000</r>
       <r>   8.3661  1.0000</r>
       <r>   8.3678  1.0000</r>
       <r>   8.4512  1.0000</r>
       <r>   8.4512  1.0000</r>
       <r>   9.0870  0.0000</r>
       <r>   9.2199  0.0000</r>
       <r>   9.2698  0.0000</r>
       <r>   9.4461  0.0000</r>
       <r>   9.6422  0.0000</r>
       <r>   9.8752  0.0000</r>
       <r>   9.8753  0.0000</r>
       <r>   9.9139  0.0000</r>
       <r>  10.0510  0.0000</r>
       <r>  10.6865  0.0000</r>
       <r>  10.6866  0.0000</r>
       <r>  10.7723  0.0000</r>
       <r>  11.2511  0.0000</r>
       <r>  11.3318  0.0000</r>
       <r>  11.3405  0.0000</r>
       <r>  11.3430  0.0000</r>
       <r>  11.3435  0.0000</r>
      </set>
      <set comment="kpoint 13">
       <r>  -2.4757  1.0000</r>
       <r>  -2.0836  1.0000</r>
       <r>  -0.5268  1.0000</r>
       <r>  -0.1419  1.0000</r>
       <r>  -0.1406  1.0000</r>
       <r>  -0.1391  1.0000</r>
       <r>   0.2431  1.0000</r>
       <r>   0.2447  1.0000</r>
       <r>   0.2460  1.0000</r>
       <r>   0.6286  1.0000</r>
       <r>   1.7698  1.0000</r>
       <r>   1.7742  1.0000</r>
       <r>   1.7747  1.0000</r>
       <r>   2.1534  1.0000</r>
       <r>   2.1534  1.0000</r>
       <r>   2.5313  1.0000</r>
       <r>   2.5313  1.0000</r>
       <r>   2.8967  1.0000</r>
       <r>   2.9067  1.0000</r>
       <r>   2.9069  1.0000</r>
       <r>   3.6552  1.0000</r>
       <r>   4.0280  1.0000</r>
       <r>   4.0280  1.0000</r>
       <r>   4.3995  1.0000</r>
       <r>   4.7613  1.0000</r>
       <r>   5.1286  1.0000</r>
       <r>   5.1286  1.0000</r>
       <r>   5.4951  1.0000</r>
       <r>   5.6778  1.0000</r>
       <r>   5.9250  1.0000</r>
       <r>   5.9250  1.0000</r>
       <r>   5.9892  1.0000</r>
       <r>   6.0391  1.0000</r>
       <r>   6.3472  1.0000</r>
       <r>   6.6618  1.0000</r>
       <r>   6.6618  1.0000</r>
       <r>   7.0161  1.0000</r>
       <r>   7.0161  1.0000</r>
       <r>   7.4575  1.0000</r>
       <r>   7.7501  1.0000</r>
       <r>   7.7502  1.0000</r>
       <r>   7.7672  1.0000</r>
       <r>   7.7826  1.0000</r>
       <r>   7.8081  1.0000</r>
       <r>   7.8629  1.0000</r>
       <r>   7.8629  1.0000</r>
       <r>   8.1178  1.0000</r>
       <r>   8.1422  1.0000</r>
       <r>   8.2248  1.0000</r>
       <r>   8.2248  1.0000</r>
       <r>   8.5017  1.0000</r>
       <r>   8.8619  0.0000</r>
       <r>   9.4260  0.0000</r>
       <r>   9.6990  0.0000</r>
       <r>   9.8147  0.0000</r>
       <r>   9.9413  0.0000</r>
       <r>  10.0486  0.0000</r>
       <r>  10.0486  0.0000</r>
       <r>  10.1112  0.0000</r>
       <r>  10.4490  0.0000</r>
       <r>  10.4490  0.0000</r>
       <r>  10.4944  0.0000</r>
       <r>  10.5305  0.0000</r>
       <r>  10.7645  0.0000</r>
       <r>  11.0217  0.0000</r>
       <r>  11.7481  0.0000</r>
       <r>  11.7860  0.0000</r>
       <r>  11.8380  0.0000</r>
      </set>
      <set comment="kpoint 14">
       <r>  -2.2973  1.0000</r>
       <r>  -2.2943  1.0000</r>
       <r>  -0.3511  1.0000</r>
       <r>  -0.3481  1.0000</r>
       <r>   0.0340  1.0000</r>
       <r>   0.0352  1.0000</r>
       <r>   0.0370  1.0000</r>
       <r>   0.0382  1.0000</r>
       <r>   0.4192  1.0000</r>
       <r>   0.4222  1.0000</r>
       <r>   1.9461  1.0000</r>
       <r>   1.9473  1.0000</r>
       <r>   1.9491  1.0000</r>
       <r>   1.9503  1.0000</r>
       <r>   2.3196  1.0000</r>
       <r>   2.3209  1.0000</r>
       <r>   2.7016  1.0000</r>
       <r>   2.7028  1.0000</r>
       <r>   2.7046  1.0000</r>
       <r>   2.7059  1.0000</r>
       <r>   4.1950  1.0000</r>
       <r>   4.1962  1.0000</r>
       <r>   4.5651  1.0000</r>
       <r>   4.5656  1.0000</r>
       <r>   4.5663  1.0000</r>
       <r>   4.5669  1.0000</r>
       <r>   4.9346  1.0000</r>
       <r>   4.9358  1.0000</r>
       <r>   5.8419  1.0000</r>
       <r>   5.8451  1.0000</r>
       <r>   6.1516  1.0000</r>
       <r>   6.1548  1.0000</r>
       <r>   6.4569  1.0000</r>
       <r>   6.4571  1.0000</r>
       <r>   6.4582  1.0000</r>
       <r>   6.4585  1.0000</r>
       <r>   7.1926  1.0000</r>
       <r>   7.1928  1.0000</r>
       <r>   7.1939  1.0000</r>
       <r>   7.1942  1.0000</r>
       <r>   7.6194  1.0000</r>
       <r>   7.6223  1.0000</r>
       <r>   7.9283  1.0000</r>
       <r>   7.9313  1.0000</r>
       <r>   7.9458  1.0000</r>
       <r>   7.9490  1.0000</r>
       <r>   8.0264  1.0000</r>
       <r>   8.0278  1.0000</r>
       <r>   8.0296  1.0000</r>
       <r>   8.0311  1.0000</r>
       <r>   8.6651  1.0000</r>
       <r>   8.6684  1.0000</r>
       <r>   9.6052  0.0000</r>
       <r>   9.6082  0.0000</r>
       <r>  10.2150  0.0000</r>
       <r>  10.2171  0.0000</r>
       <r>  10.2355  0.0000</r>
       <r>  10.2361  0.0000</r>
       <r>  10.2387  0.0000</r>
       <r>  10.2392  0.0000</r>
       <r>  10.3104  0.0000</r>
       <r>  10.3136  0.0000</r>
       <r>  10.4654  0.0000</r>
       <r>  10.4677  0.0000</r>
       <r>  11.3776  0.0000</r>
       <r>  11.3787  0.0000</r>
       <r>  12.2659  0.0000</r>
       <r>  12.2708  0.0000</r>
      </set>
      <set comment="kpoint 15">
       <r>  -2.8362  1.0000</r>
       <r>  -1.2705  1.0000</r>
       <r>  -0.4976  1.0000</r>
       <r>  -0.4947  1.0000</r>
       <r>  -0.4947  1.0000</r>
       <r>  -0.4917  1.0000</r>
       <r>   0.2762  1.0000</r>
       <r>   1.0406  1.0000</r>
       <r>   1.0436  1.0000</r>
       <r>   1.0436  1.0000</r>
       <r>   1.0466  1.0000</r>
       <r>   1.8037  1.0000</r>
       <r>   1.8046  1.0000</r>
       <r>   1.8070  1.0000</r>
       <r>   1.8079  1.0000</r>
       <r>   2.5599  1.0000</r>
       <r>   2.5629  1.0000</r>
       <r>   2.5629  1.0000</r>
       <r>   2.5659  1.0000</r>
       <r>   3.3039  1.0000</r>
       <r>   3.3048  1.0000</r>
       <r>   3.3072  1.0000</r>
       <r>   3.3081  1.0000</r>
       <r>   4.7244  1.0000</r>
       <r>   4.8539  1.0000</r>
       <r>   4.8548  1.0000</r>
       <r>   4.8572  1.0000</r>
       <r>   4.8581  1.0000</r>
       <r>   5.6612  1.0000</r>
       <r>   5.6612  1.0000</r>
       <r>   6.8961  1.0000</r>
       <r>   6.8994  1.0000</r>
       <r>   6.8994  1.0000</r>
       <r>   6.9026  1.0000</r>
       <r>   7.0942  1.0000</r>
       <r>   7.0942  1.0000</r>
       <r>   7.1220  1.0000</r>
       <r>   7.1220  1.0000</r>
       <r>   7.8096  1.0000</r>
       <r>   7.8124  1.0000</r>
       <r>   7.8124  1.0000</r>
       <r>   7.8152  1.0000</r>
       <r>   8.0491  1.0000</r>
       <r>   8.4663  1.0000</r>
       <r>   8.4663  1.0000</r>
       <r>   8.5314  1.0000</r>
       <r>   8.5314  1.0000</r>
       <r>   9.1289  0.0000</r>
       <r>   9.1302  0.0000</r>
       <r>   9.1326  0.0000</r>
       <r>   9.1340  0.0000</r>
       <r>   9.2175  0.0000</r>
       <r>   9.2202  0.0000</r>
       <r>   9.2203  0.0000</r>
       <r>   9.2230  0.0000</r>
       <r>   9.2494  0.0000</r>
       <r>   9.2522  0.0000</r>
       <r>   9.2524  0.0000</r>
       <r>   9.2551  0.0000</r>
       <r>  10.5280  0.0000</r>
       <r>  10.5280  0.0000</r>
       <r>  10.6882  0.0000</r>
       <r>  10.6886  0.0000</r>
       <r>  10.6903  0.0000</r>
       <r>  10.6918  0.0000</r>
       <r>  10.6934  0.0000</r>
       <r>  10.6949  0.0000</r>
       <r>  10.6977  0.0000</r>
      </set>
      <set comment="kpoint 16">
       <r>  -2.8198  1.0000</r>
       <r>  -1.2543  1.0000</r>
       <r>  -0.8658  1.0000</r>
       <r>  -0.4786  1.0000</r>
       <r>  -0.4785  1.0000</r>
       <r>  -0.0925  1.0000</r>
       <r>   0.2922  1.0000</r>
       <r>   0.6768  1.0000</r>
       <r>   1.0595  1.0000</r>
       <r>   1.0595  1.0000</r>
       <r>   1.4397  1.0000</r>
       <r>   1.4412  1.0000</r>
       <r>   1.4425  1.0000</r>
       <r>   2.1992  1.0000</r>
       <r>   2.2008  1.0000</r>
       <r>   2.2020  1.0000</r>
       <r>   2.5786  1.0000</r>
       <r>   2.5786  1.0000</r>
       <r>   2.9520  1.0000</r>
       <r>   2.9520  1.0000</r>
       <r>   2.9554  1.0000</r>
       <r>   3.6758  1.0000</r>
       <r>   3.6758  1.0000</r>
       <r>   4.5198  1.0000</r>
       <r>   4.5198  1.0000</r>
       <r>   4.7397  1.0000</r>
       <r>   5.2369  1.0000</r>
       <r>   5.2369  1.0000</r>
       <r>   5.3611  1.0000</r>
       <r>   5.6761  1.0000</r>
       <r>   6.5585  1.0000</r>
       <r>   6.8036  1.0000</r>
       <r>   6.9023  1.0000</r>
       <r>   6.9024  1.0000</r>
       <r>   7.1091  1.0000</r>
       <r>   7.1374  1.0000</r>
       <r>   7.2619  1.0000</r>
       <r>   7.4499  1.0000</r>
       <r>   7.4681  1.0000</r>
       <r>   7.5531  1.0000</r>
       <r>   7.5531  1.0000</r>
       <r>   8.0641  1.0000</r>
       <r>   8.1415  1.0000</r>
       <r>   8.1868  1.0000</r>
       <r>   8.5464  1.0000</r>
       <r>   8.6685  1.0000</r>
       <r>   8.7612  0.0000</r>
       <r>   8.7830  0.0000</r>
       <r>   8.7830  0.0000</r>
       <r>   8.9070  0.0000</r>
       <r>   8.9925  0.0000</r>
       <r>   8.9944  0.0000</r>
       <r>   8.9949  0.0000</r>
       <r>   9.3533  0.0000</r>
       <r>   9.4733  0.0000</r>
       <r>   9.4733  0.0000</r>
       <r>   9.5097  0.0000</r>
       <r>   9.5097  0.0000</r>
       <r>   9.6276  0.0000</r>
       <r>  10.3489  0.0000</r>
       <r>  10.4410  0.0000</r>
       <r>  10.4410  0.0000</r>
       <r>  10.5671  0.0000</r>
       <r>  10.5809  0.0000</r>
       <r>  10.6095  0.0000</r>
       <r>  10.7509  0.0000</r>
       <r>  10.7509  0.0000</r>
       <r>  10.7588  0.0000</r>
      </set>
      <set comment="kpoint 17">
       <r>  -2.7706  1.0000</r>
       <r>  -1.2069  1.0000</r>
       <r>  -1.2044  1.0000</r>
       <r>  -0.4302  1.0000</r>
       <r>  -0.4302  1.0000</r>
       <r>   0.3385  1.0000</r>
       <r>   0.3405  1.0000</r>
       <r>   0.3424  1.0000</r>
       <r>   1.1056  1.0000</r>
       <r>   1.1066  1.0000</r>
       <r>   1.1081  1.0000</r>
       <r>   1.1090  1.0000</r>
       <r>   1.8682  1.0000</r>
       <r>   1.8691  1.0000</r>
       <r>   2.6228  1.0000</r>
       <r>   2.6239  1.0000</r>
       <r>   2.6252  1.0000</r>
       <r>   2.6254  1.0000</r>
       <r>   2.6268  1.0000</r>
       <r>   2.6280  1.0000</r>
       <r>   3.3775  1.0000</r>
       <r>   3.9505  1.0000</r>
       <r>   3.9505  1.0000</r>
       <r>   4.3390  1.0000</r>
       <r>   4.3391  1.0000</r>
       <r>   4.7852  1.0000</r>
       <r>   4.7860  1.0000</r>
       <r>   5.6515  1.0000</r>
       <r>   5.6515  1.0000</r>
       <r>   5.7208  1.0000</r>
       <r>   6.2426  1.0000</r>
       <r>   6.2451  1.0000</r>
       <r>   6.8180  1.0000</r>
       <r>   6.8180  1.0000</r>
       <r>   7.1427  1.0000</r>
       <r>   7.1429  1.0000</r>
       <r>   7.1528  1.0000</r>
       <r>   7.1555  1.0000</r>
       <r>   7.1834  1.0000</r>
       <r>   7.6299  1.0000</r>
       <r>   7.6320  1.0000</r>
       <r>   8.1087  1.0000</r>
       <r>   8.1096  1.0000</r>
       <r>   8.4627  1.0000</r>
       <r>   8.4637  1.0000</r>
       <r>   8.4652  1.0000</r>
       <r>   8.4663  1.0000</r>
       <r>   8.5892  1.0000</r>
       <r>   8.5916  1.0000</r>
       <r>   8.5940  1.0000</r>
       <r>   8.7604  0.0000</r>
       <r>   8.7620  0.0000</r>
       <r>   9.3134  0.0000</r>
       <r>   9.3162  0.0000</r>
       <r>   9.9121  0.0000</r>
       <r>   9.9131  0.0000</r>
       <r>   9.9169  0.0000</r>
       <r>   9.9174  0.0000</r>
       <r>   9.9178  0.0000</r>
       <r>   9.9193  0.0000</r>
       <r>  10.0323  0.0000</r>
       <r>  10.0342  0.0000</r>
       <r>  10.2880  0.0000</r>
       <r>  10.7030  0.0000</r>
       <r>  10.7037  0.0000</r>
       <r>  10.9801  0.0000</r>
       <r>  10.9801  0.0000</r>
       <r>  11.3053  0.0000</r>
      </set>
      <set comment="kpoint 18">
       <r>  -2.6886  1.0000</r>
       <r>  -1.5139  1.0000</r>
       <r>  -1.1246  1.0000</r>
       <r>  -0.3497  1.0000</r>
       <r>  -0.3497  1.0000</r>
       <r>   0.0363  1.0000</r>
       <r>   0.4203  1.0000</r>
       <r>   0.8019  1.0000</r>
       <r>   0.8045  1.0000</r>
       <r>   0.8058  1.0000</r>
       <r>   1.1869  1.0000</r>
       <r>   1.1869  1.0000</r>
       <r>   1.5676  1.0000</r>
       <r>   2.3245  1.0000</r>
       <r>   2.3266  1.0000</r>
       <r>   2.3282  1.0000</r>
       <r>   2.7041  1.0000</r>
       <r>   2.7041  1.0000</r>
       <r>   3.0800  1.0000</r>
       <r>   3.0800  1.0000</r>
       <r>   3.7987  1.0000</r>
       <r>   3.7988  1.0000</r>
       <r>   3.8288  1.0000</r>
       <r>   4.1629  1.0000</r>
       <r>   4.6447  1.0000</r>
       <r>   4.6448  1.0000</r>
       <r>   4.8621  1.0000</r>
       <r>   5.6351  1.0000</r>
       <r>   5.7953  1.0000</r>
       <r>   5.9573  1.0000</r>
       <r>   6.0970  1.0000</r>
       <r>   6.0970  1.0000</r>
       <r>   6.3339  1.0000</r>
       <r>   6.3339  1.0000</r>
       <r>   6.8700  1.0000</r>
       <r>   7.0594  1.0000</r>
       <r>   7.1063  1.0000</r>
       <r>   7.1063  1.0000</r>
       <r>   7.2288  1.0000</r>
       <r>   7.2595  1.0000</r>
       <r>   7.8719  1.0000</r>
       <r>   7.8719  1.0000</r>
       <r>   7.9353  1.0000</r>
       <r>   8.1762  1.0000</r>
       <r>   8.1762  1.0000</r>
       <r>   8.1838  1.0000</r>
       <r>   8.3072  1.0000</r>
       <r>   8.6284  1.0000</r>
       <r>   8.6664  1.0000</r>
       <r>   8.8559  0.0000</r>
       <r>   8.8713  0.0000</r>
       <r>   9.0262  0.0000</r>
       <r>   9.1547  0.0000</r>
       <r>   9.3305  0.0000</r>
       <r>   9.3305  0.0000</r>
       <r>   9.7477  0.0000</r>
       <r>   9.8378  0.0000</r>
       <r>   9.9950  0.0000</r>
       <r>  10.2467  0.0000</r>
       <r>  10.2467  0.0000</r>
       <r>  10.3546  0.0000</r>
       <r>  10.3546  0.0000</r>
       <r>  10.4691  0.0000</r>
       <r>  11.0038  0.0000</r>
       <r>  11.0057  0.0000</r>
       <r>  11.4154  0.0000</r>
       <r>  11.4424  0.0000</r>
       <r>  11.4590  0.0000</r>
      </set>
      <set comment="kpoint 19">
       <r>  -2.5739  1.0000</r>
       <r>  -1.7903  1.0000</r>
       <r>  -1.0113  1.0000</r>
       <r>  -0.2384  1.0000</r>
       <r>  -0.2370  1.0000</r>
       <r>  -0.2356  1.0000</r>
       <r>   0.5311  1.0000</r>
       <r>   0.5329  1.0000</r>
       <r>   0.5340  1.0000</r>
       <r>   1.2948  1.0000</r>
       <r>   1.2977  1.0000</r>
       <r>   1.2983  1.0000</r>
       <r>   1.2994  1.0000</r>
       <r>   2.0588  1.0000</r>
       <r>   2.0588  1.0000</r>
       <r>   2.8123  1.0000</r>
       <r>   2.8138  1.0000</r>
       <r>   2.8141  1.0000</r>
[...]
       <r>   2.8915  1.0000</r>
       <r>   3.2574  1.0000</r>
       <r>   3.2592  1.0000</r>
       <r>   3.2611  1.0000</r>
       <r>   3.2614  1.0000</r>
       <r>   3.2615  1.0000</r>
       <r>   3.2618  1.0000</r>
       <r>   3.2636  1.0000</r>
       <r>   3.2655  1.0000</r>
       <r>   3.6308  1.0000</r>
       <r>   3.6327  1.0000</r>
       <r>   3.6344  1.0000</r>
       <r>   3.6348  1.0000</r>
       <r>   3.6349  1.0000</r>
       <r>   3.6352  1.0000</r>
       <r>   3.6370  1.0000</r>
       <r>   3.6389  1.0000</r>
       <r>   3.9997  1.0000</r>
       <r>   4.0023  1.0000</r>
       <r>   4.0028  1.0000</r>
       <r>   4.0054  1.0000</r>
       <r>   7.3609  1.0000</r>
       <r>   7.3627  1.0000</r>
       <r>   7.3648  1.0000</r>
       <r>   7.3651  1.0000</r>
       <r>   7.3652  1.0000</r>
       <r>   7.3654  1.0000</r>
       <r>   7.3675  1.0000</r>
       <r>   7.3693  1.0000</r>
       <r>   7.7188  1.0000</r>
       <r>   7.7202  1.0000</r>
       <r>   7.7202  1.0000</r>
       <r>   7.7216  1.0000</r>
       <r>   8.0903  1.0000</r>
       <r>   8.0916  1.0000</r>
       <r>   8.0917  1.0000</r>
       <r>   8.0930  1.0000</r>
       <r>   8.4374  1.0000</r>
       <r>   8.4395  1.0000</r>
       <r>   8.4415  1.0000</r>
       <r>   8.4418  1.0000</r>
       <r>   8.4419  1.0000</r>
       <r>   8.4422  1.0000</r>
       <r>   8.4442  1.0000</r>
       <r>   8.4463  1.0000</r>
       <r>  11.6269  0.0000</r>
       <r>  11.6292  0.0000</r>
       <r>  11.6301  0.0000</r>
       <r>  11.6323  0.0000</r>
       <r>  11.7273  0.0000</r>
       <r>  11.7286  0.0000</r>
       <r>  11.7289  0.0000</r>
       <r>  11.7302  0.0000</r>
       <r>  12.3332  0.0000</r>
       <r>  12.3338  0.0000</r>
       <r>  12.3351  0.0000</r>
       <r>  12.3360  0.0000</r>
      </set>
      <set comment="kpoint 190">
       <r>  -1.7252  1.0000</r>
       <r>  -1.7252  1.0000</r>
       <r>  -1.7252  1.0000</r>
       <r>  -1.7252  1.0000</r>
       <r>   0.5916  1.0000</r>
       <r>   0.5962  1.0000</r>
       <r>   0.5962  1.0000</r>
       <r>   0.5968  1.0000</r>
       <r>   0.5969  1.0000</r>
       <r>   0.5975  1.0000</r>
       <r>   0.5975  1.0000</r>
       <r>   0.6021  1.0000</r>
       <r>   2.8704  1.0000</r>
       <r>   2.8704  1.0000</r>
       <r>   2.8704  1.0000</r>
       <r>   2.8704  1.0000</r>
       <r>   2.8704  1.0000</r>
       <r>   2.8704  1.0000</r>
       <r>   2.8704  1.0000</r>
       <r>   2.8704  1.0000</r>
       <r>   4.9148  1.0000</r>
       <r>   4.9148  1.0000</r>
       <r>   4.9163  1.0000</r>
       <r>   4.9164  1.0000</r>
       <r>   4.9164  1.0000</r>
       <r>   4.9164  1.0000</r>
       <r>   4.9179  1.0000</r>
       <r>   4.9179  1.0000</r>
       <r>   5.3381  1.0000</r>
       <r>   5.3381  1.0000</r>
       <r>   5.3399  1.0000</r>
       <r>   5.3399  1.0000</r>
       <r>   5.3399  1.0000</r>
       <r>   5.3400  1.0000</r>
       <r>   5.3418  1.0000</r>
       <r>   5.3418  1.0000</r>
       <r>   6.6758  1.0000</r>
       <r>   6.6758  1.0000</r>
       <r>   6.6758  1.0000</r>
       <r>   6.6759  1.0000</r>
       <r>   7.1980  1.0000</r>
       <r>   7.1980  1.0000</r>
       <r>   7.1980  1.0000</r>
       <r>   7.1980  1.0000</r>
       <r>   8.3999  1.0000</r>
       <r>   8.3999  1.0000</r>
       <r>   8.3999  1.0000</r>
       <r>   8.3999  1.0000</r>
       <r>   9.5415  0.0000</r>
       <r>   9.5415  0.0000</r>
       <r>   9.5419  0.0000</r>
       <r>   9.5432  0.0000</r>
       <r>   9.5446  0.0000</r>
       <r>   9.5459  0.0000</r>
       <r>   9.5462  0.0000</r>
       <r>   9.5462  0.0000</r>
       <r>  10.9939  0.0000</r>
       <r>  10.9939  0.0000</r>
       <r>  10.9939  0.0000</r>
       <r>  10.9940  0.0000</r>
       <r>  10.9940  0.0000</r>
       <r>  10.9940  0.0000</r>
       <r>  10.9940  0.0000</r>
       <r>  10.9940  0.0000</r>
       <r>  11.7142  0.0000</r>
       <r>  11.7142  0.0000</r>
       <r>  11.7142  0.0000</r>
       <r>  11.7143  0.0000</r>
      </set>
      <set comment="kpoint 191">
       <r>  -1.7090  1.0000</r>
       <r>  -1.7089  1.0000</r>
       <r>  -1.7089  1.0000</r>
       <r>  -1.7089  1.0000</r>
       <r>   0.2288  1.0000</r>
       <r>   0.2288  1.0000</r>
       <r>   0.2288  1.0000</r>
       <r>   0.2288  1.0000</r>
       <r>   0.9957  1.0000</r>
       <r>   0.9957  1.0000</r>
       <r>   0.9957  1.0000</r>
       <r>   0.9957  1.0000</r>
       <r>   2.8861  1.0000</r>
       <r>   2.8861  1.0000</r>
       <r>   2.8861  1.0000</r>
       <r>   2.8861  1.0000</r>
       <r>   2.8861  1.0000</r>
       <r>   2.8861  1.0000</r>
       <r>   2.8861  1.0000</r>
       <r>   2.8861  1.0000</r>
       <r>   4.7143  1.0000</r>
       <r>   4.7143  1.0000</r>
       <r>   4.7149  1.0000</r>
       <r>   4.7150  1.0000</r>
       <r>   4.7150  1.0000</r>
       <r>   4.7150  1.0000</r>
       <r>   4.7157  1.0000</r>
       <r>   4.7157  1.0000</r>
       <r>   5.5702  1.0000</r>
       <r>   5.5702  1.0000</r>
       <r>   5.5712  1.0000</r>
       <r>   5.5712  1.0000</r>
       <r>   5.5712  1.0000</r>
       <r>   5.5712  1.0000</r>
       <r>   5.5722  1.0000</r>
       <r>   5.5722  1.0000</r>
       <r>   6.3720  1.0000</r>
       <r>   6.3720  1.0000</r>
       <r>   6.3720  1.0000</r>
       <r>   6.3720  1.0000</r>
       <r>   7.2791  1.0000</r>
       <r>   7.2791  1.0000</r>
       <r>   7.2791  1.0000</r>
       <r>   7.2791  1.0000</r>
       <r>   8.6659  1.0000</r>
       <r>   8.6659  1.0000</r>
       <r>   8.6659  1.0000</r>
       <r>   8.6659  1.0000</r>
       <r>   9.1938  0.0000</r>
       <r>   9.1938  0.0000</r>
       <r>   9.1938  0.0000</r>
       <r>   9.1938  0.0000</r>
       <r>   9.9235  0.0000</r>
       <r>   9.9235  0.0000</r>
       <r>   9.9235  0.0000</r>
       <r>   9.9235  0.0000</r>
       <r>  10.7134  0.0000</r>
       <r>  10.7134  0.0000</r>
       <r>  10.7141  0.0000</r>
       <r>  10.7141  0.0000</r>
       <r>  10.7141  0.0000</r>
       <r>  10.7142  0.0000</r>
       <r>  10.7148  0.0000</r>
       <r>  10.7148  0.0000</r>
       <r>  11.8246  0.0000</r>
       <r>  11.8250  0.0000</r>
       <r>  11.8253  0.0000</r>
       <r>  11.8258  0.0000</r>
      </set>
      <set comment="kpoint 192">
       <r>  -1.6602  1.0000</r>
       <r>  -1.6601  1.0000</r>
       <r>  -1.6601  1.0000</r>
       <r>  -1.6601  1.0000</r>
       <r>  -0.1082  1.0000</r>
       <r>  -0.1082  1.0000</r>
       <r>  -0.1082  1.0000</r>
       <r>  -0.1082  1.0000</r>
       <r>   1.4248  1.0000</r>
       <r>   1.4248  1.0000</r>
       <r>   1.4248  1.0000</r>
       <r>   1.4248  1.0000</r>
       <r>   2.9331  1.0000</r>
       <r>   2.9331  1.0000</r>
       <r>   2.9331  1.0000</r>
       <r>   2.9331  1.0000</r>
       <r>   2.9331  1.0000</r>
       <r>   2.9331  1.0000</r>
       <r>   2.9331  1.0000</r>
       <r>   2.9331  1.0000</r>
       <r>   4.4142  1.0000</r>
       <r>   4.4142  1.0000</r>
       <r>   4.4145  1.0000</r>
       <r>   4.4145  1.0000</r>
       <r>   4.4145  1.0000</r>
       <r>   4.4145  1.0000</r>
       <r>   4.4149  1.0000</r>
       <r>   4.4149  1.0000</r>
       <r>   5.8111  1.0000</r>
       <r>   5.8111  1.0000</r>
       <r>   5.8112  1.0000</r>
       <r>   5.8112  1.0000</r>
       <r>   5.9607  1.0000</r>
       <r>   5.9607  1.0000</r>
       <r>   5.9613  1.0000</r>
       <r>   5.9613  1.0000</r>
       <r>   5.9613  1.0000</r>
       <r>   5.9613  1.0000</r>
       <r>   5.9619  1.0000</r>
       <r>   5.9619  1.0000</r>
       <r>   7.3700  1.0000</r>
       <r>   7.3700  1.0000</r>
       <r>   7.3700  1.0000</r>
       <r>   7.3701  1.0000</r>
       <r>   8.8734  0.0000</r>
       <r>   8.8734  0.0000</r>
       <r>   8.8734  0.0000</r>
       <r>   8.8734  0.0000</r>
       <r>   9.2654  0.0000</r>
       <r>   9.2655  0.0000</r>
       <r>   9.2655  0.0000</r>
       <r>   9.2655  0.0000</r>
       <r>  10.1818  0.0000</r>
       <r>  10.1818  0.0000</r>
       <r>  10.1824  0.0000</r>
       <r>  10.1824  0.0000</r>
       <r>  10.1824  0.0000</r>
       <r>  10.1825  0.0000</r>
       <r>  10.1831  0.0000</r>
       <r>  10.1831  0.0000</r>
       <r>  10.3322  0.0000</r>
       <r>  10.3322  0.0000</r>
       <r>  10.3322  0.0000</r>
       <r>  10.3322  0.0000</r>
       <r>  11.9569  0.0000</r>
       <r>  11.9573  0.0000</r>
       <r>  11.9579  0.0000</r>
       <r>  11.9586  0.0000</r>
      </set>
      <set comment="kpoint 193">
       <r>  -1.5789  1.0000</r>
       <r>  -1.5789  1.0000</r>
       <r>  -1.5789  1.0000</r>
       <r>  -1.5789  1.0000</r>
       <r>  -0.4139  1.0000</r>
       <r>  -0.4139  1.0000</r>
       <r>  -0.4139  1.0000</r>
       <r>  -0.4139  1.0000</r>
       <r>   1.8838  1.0000</r>
       <r>   1.8838  1.0000</r>
       <r>   1.8838  1.0000</r>
       <r>   1.8838  1.0000</r>
       <r>   3.0114  1.0000</r>
       <r>   3.0114  1.0000</r>
       <r>   3.0114  1.0000</r>
       <r>   3.0114  1.0000</r>
       <r>   3.0114  1.0000</r>
       <r>   3.0114  1.0000</r>
       <r>   3.0114  1.0000</r>
       <r>   3.0114  1.0000</r>
       <r>   4.1275  1.0000</r>
       <r>   4.1275  1.0000</r>
       <r>   4.1277  1.0000</r>
       <r>   4.1277  1.0000</r>
       <r>   4.1277  1.0000</r>
       <r>   4.1277  1.0000</r>
       <r>   4.1279  1.0000</r>
       <r>   4.1279  1.0000</r>
       <r>   5.2025  1.0000</r>
       <r>   5.2025  1.0000</r>
       <r>   5.2025  1.0000</r>
       <r>   5.2026  1.0000</r>
       <r>   6.3968  1.0000</r>
       <r>   6.3968  1.0000</r>
       <r>   6.3973  1.0000</r>
       <r>   6.3973  1.0000</r>
       <r>   6.3973  1.0000</r>
       <r>   6.3973  1.0000</r>
       <r>   6.3978  1.0000</r>
       <r>   6.3978  1.0000</r>
       <r>   7.4636  1.0000</r>
       <r>   7.4636  1.0000</r>
       <r>   7.4636  1.0000</r>
       <r>   7.4636  1.0000</r>
       <r>   8.5828  1.0000</r>
       <r>   8.5828  1.0000</r>
       <r>   8.5828  1.0000</r>
       <r>   8.5828  1.0000</r>
       <r>   9.5987  0.0000</r>
       <r>   9.5987  0.0000</r>
       <r>   9.5993  0.0000</r>
       <r>   9.5993  0.0000</r>
       <r>   9.5993  0.0000</r>
       <r>   9.5993  0.0000</r>
       <r>   9.5999  0.0000</r>
       <r>   9.5999  0.0000</r>
       <r>   9.9965  0.0000</r>
       <r>   9.9965  0.0000</r>
       <r>   9.9965  0.0000</r>
       <r>   9.9965  0.0000</r>
       <r>  10.7697  0.0000</r>
       <r>  10.7697  0.0000</r>
       <r>  10.7697  0.0000</r>
       <r>  10.7697  0.0000</r>
       <r>  12.0699  0.0000</r>
       <r>  12.0706  0.0000</r>
       <r>  12.0710  0.0000</r>
       <r>  12.0713  0.0000</r>
      </set>
      <set comment="kpoint 194">
       <r>  -1.4652  1.0000</r>
       <r>  -1.4652  1.0000</r>
       <r>  -1.4652  1.0000</r>
       <r>  -1.4652  1.0000</r>
       <r>  -0.6880  1.0000</r>
       <r>  -0.6880  1.0000</r>
       <r>  -0.6880  1.0000</r>
       <r>  -0.6880  1.0000</r>
       <r>   2.3720  1.0000</r>
       <r>   2.3720  1.0000</r>
       <r>   2.3720  1.0000</r>
       <r>   2.3720  1.0000</r>
       <r>   3.1208  1.0000</r>
       <r>   3.1208  1.0000</r>
       <r>   3.1209  1.0000</r>
       <r>   3.1209  1.0000</r>
       <r>   3.1209  1.0000</r>
       <r>   3.1209  1.0000</r>
       <r>   3.1209  1.0000</r>
       <r>   3.1209  1.0000</r>
       <r>   3.8667  1.0000</r>
       <r>   3.8667  1.0000</r>
       <r>   3.8668  1.0000</r>
       <r>   3.8668  1.0000</r>
       <r>   3.8668  1.0000</r>
       <r>   3.8668  1.0000</r>
       <r>   3.8670  1.0000</r>
       <r>   3.8670  1.0000</r>
       <r>   4.5945  1.0000</r>
       <r>   4.5945  1.0000</r>
       <r>   4.5945  1.0000</r>
       <r>   4.5946  1.0000</r>
       <r>   6.8660  1.0000</r>
       <r>   6.8660  1.0000</r>
       <r>   6.8664  1.0000</r>
       <r>   6.8664  1.0000</r>
       <r>   6.8664  1.0000</r>
       <r>   6.8664  1.0000</r>
       <r>   6.8669  1.0000</r>
       <r>   6.8669  1.0000</r>
       <r>   7.5783  1.0000</r>
       <r>   7.5783  1.0000</r>
       <r>   7.5783  1.0000</r>
       <r>   7.5783  1.0000</r>
       <r>   8.3222  1.0000</r>
       <r>   8.3222  1.0000</r>
       <r>   8.3222  1.0000</r>
       <r>   8.3222  1.0000</r>
       <r>   9.0131  0.0000</r>
       <r>   9.0131  0.0000</r>
       <r>   9.0136  0.0000</r>
       <r>   9.0136  0.0000</r>
       <r>   9.0136  0.0000</r>
       <r>   9.0136  0.0000</r>
       <r>   9.0141  0.0000</r>
       <r>   9.0141  0.0000</r>
       <r>  10.7918  0.0000</r>
       <r>  10.7918  0.0000</r>
       <r>  10.7918  0.0000</r>
       <r>  10.7918  0.0000</r>
       <r>  11.2355  0.0000</r>
       <r>  11.2355  0.0000</r>
       <r>  11.2355  0.0000</r>
       <r>  11.2355  0.0000</r>
       <r>  12.1920  0.0000</r>
       <r>  12.1924  0.0000</r>
       <r>  12.1926  0.0000</r>
       <r>  12.1931  0.0000</r>
      </set>
      <set comment="kpoint 195">
       <r>  -1.3192  1.0000</r>
       <r>  -1.3191  1.0000</r>
       <r>  -1.3191  1.0000</r>
       <r>  -1.3191  1.0000</r>
       <r>  -0.9304  1.0000</r>
       <r>  -0.9304  1.0000</r>
       <r>  -0.9304  1.0000</r>
       <r>  -0.9304  1.0000</r>
       <r>   2.8887  1.0000</r>
       <r>   2.8888  1.0000</r>
       <r>   2.8888  1.0000</r>
       <r>   2.8888  1.0000</r>
       <r>   3.2614  1.0000</r>
       <r>   3.2614  1.0000</r>
       <r>   3.2614  1.0000</r>
       <r>   3.2614  1.0000</r>
       <r>   3.2614  1.0000</r>
       <r>   3.2614  1.0000</r>
       <r>   3.2615  1.0000</r>
       <r>   3.2615  1.0000</r>
       <r>   3.6348  1.0000</r>
       <r>   3.6348  1.0000</r>
       <r>   3.6348  1.0000</r>
       <r>   3.6348  1.0000</r>
       <r>   3.6348  1.0000</r>
       <r>   3.6349  1.0000</r>
       <r>   3.6349  1.0000</r>
       <r>   3.6349  1.0000</r>
       <r>   4.0025  1.0000</r>
       <r>   4.0025  1.0000</r>
       <r>   4.0025  1.0000</r>
       <r>   4.0026  1.0000</r>
       <r>   7.3647  1.0000</r>
       <r>   7.3647  1.0000</r>
       <r>   7.3651  1.0000</r>
       <r>   7.3651  1.0000</r>
       <r>   7.3651  1.0000</r>
       <r>   7.3651  1.0000</r>
       <r>   7.3655  1.0000</r>
       <r>   7.3655  1.0000</r>
       <r>   7.7202  1.0000</r>
       <r>   7.7202  1.0000</r>
       <r>   7.7202  1.0000</r>
       <r>   7.7202  1.0000</r>
       <r>   8.0917  1.0000</r>
       <r>   8.0917  1.0000</r>
       <r>   8.0917  1.0000</r>
       <r>   8.0917  1.0000</r>
       <r>   8.4414  1.0000</r>
       <r>   8.4414  1.0000</r>
       <r>   8.4418  1.0000</r>
       <r>   8.4418  1.0000</r>
       <r>   8.4418  1.0000</r>
       <r>   8.4419  1.0000</r>
       <r>   8.4423  1.0000</r>
       <r>   8.4423  1.0000</r>
       <r>  11.6296  0.0000</r>
       <r>  11.6297  0.0000</r>
       <r>  11.6297  0.0000</r>
       <r>  11.6297  0.0000</r>
       <r>  11.7288  0.0000</r>
       <r>  11.7288  0.0000</r>
       <r>  11.7288  0.0000</r>
       <r>  11.7288  0.0000</r>
       <r>  12.3340  0.0000</r>
       <r>  12.3345  0.0000</r>
       <r>  12.3346  0.0000</r>
       <r>  12.3352  0.0000</r>
      </set>
      <set comment="kpoint 196">
       <r>  -1.1458  1.0000</r>
       <r>  -1.1413  1.0000</r>
       <r>  -1.1413  1.0000</r>
       <r>  -1.1409  1.0000</r>
       <r>  -1.1408  1.0000</r>
       <r>  -1.1403  1.0000</r>
       <r>  -1.1403  1.0000</r>
       <r>  -1.1359  1.0000</r>
       <r>   3.4225  1.0000</r>
       <r>   3.4286  1.0000</r>
       <r>   3.4286  1.0000</r>
       <r>   3.4320  1.0000</r>
       <r>   3.4323  1.0000</r>
       <r>   3.4324  1.0000</r>
       <r>   3.4328  1.0000</r>
       <r>   3.4328  1.0000</r>
       <r>   3.4328  1.0000</r>
       <r>   3.4328  1.0000</r>
       <r>   3.4328  1.0000</r>
       <r>   3.4329  1.0000</r>
       <r>   3.4329  1.0000</r>
       <r>   3.4329  1.0000</r>
       <r>   3.4329  1.0000</r>
       <r>   3.4329  1.0000</r>
       <r>   3.4330  1.0000</r>
       <r>   3.4330  1.0000</r>
       <r>   3.4334  1.0000</r>
       <r>   3.4335  1.0000</r>
       <r>   3.4338  1.0000</r>
       <r>   3.4371  1.0000</r>
       <r>   3.4371  1.0000</r>
       <r>   3.4433  1.0000</r>
       <r>   7.8847  1.0000</r>
       <r>   7.8847  1.0000</r>
       <r>   7.8870  1.0000</r>
       <r>   7.8886  1.0000</r>
       <r>   7.8903  1.0000</r>
       <r>   7.8907  1.0000</r>
       <r>   7.8908  1.0000</r>
       <r>   7.8908  1.0000</r>
       <r>   7.8910  1.0000</r>
       <r>   7.8910  1.0000</r>
       <r>   7.8910  1.0000</r>
       <r>   7.8910  1.0000</r>
       <r>   7.8911  1.0000</r>
       <r>   7.8911  1.0000</r>
       <r>   7.8911  1.0000</r>
       <r>   7.8911  1.0000</r>
       <r>   7.8914  1.0000</r>
       <r>   7.8914  1.0000</r>
       <r>   7.8915  1.0000</r>
       <r>   7.8919  1.0000</r>
       <r>   7.8935  1.0000</r>
       <r>   7.8951  1.0000</r>
       <r>   7.8974  1.0000</r>
       <r>   7.8974  1.0000</r>
       <r>  12.2468  0.0000</r>
       <r>  12.2472  0.0000</r>
       <r>  12.2472  0.0000</r>
       <r>  12.2475  0.0000</r>
       <r>  12.2493  0.0000</r>
       <r>  12.2497  0.0000</r>
       <r>  12.2497  0.0000</r>
       <r>  12.2502  0.0000</r>
       <r>  12.4995  0.0000</r>
       <r>  12.5003  0.0000</r>
       <r>  12.5014  0.0000</r>
       <r>  12.5022  0.0000</r>
      </set>
     </set>
    </set>
   </array>
  </eigenvalues>
 </calculation>
 <structure name="finalpos" >
  <crystal>
   <varray name="basis" >
    <v>       7.91312048      0.00000000      0.00000000</v>
    <v>       0.00000000      7.91312048      0.00000000</v>
    <v>       0.00000000      0.00000000      7.91312048</v>
   </varray>
   <i name="volume">    495.49963047</i>
   <varray name="rec_basis" >
    <v>       0.12637240      0.00000000      0.00000000</v>
    <v>       0.00000000      0.12637240      0.00000000</v>
    <v>       0.00000000      0.00000000      0.12637240</v>
   </varray>
  </crystal>
  <varray name="positions" >
   <v>       0.25126372      0.25000000      0.00000000</v>
   <v>       0.75000000      0.25000000      0.00000000</v>
   <v>       0.25000000      0.75000000      0.00000000</v>
   <v>       0.75000000      0.75000000      0.00000000</v>
   <v>       0.25000000      0.25000000      0.50000000</v>
   <v>       0.75000000      0.25000000      0.50000000</v>
   <v>       0.25000000      0.75000000      0.50000000</v>
   <v>       0.75000000      0.75000000      0.50000000</v>
   <v>       0.25000000      0.00000000      0.25000000</v>
   <v>       0.75000000      0.00000000      0.25000000</v>
   <v>       0.25000000      0.50000000      0.25000000</v>
   <v>       0.75000000      0.50000000      0.25000000</v>
   <v>       0.25000000      0.00000000      0.75000000</v>
   <v>       0.75000000      0.00000000      0.75000000</v>
   <v>       0.25000000      0.50000000      0.75000000</v>
   <v>       0.75000000      0.50000000      0.75000000</v>
   <v>       0.00000000      0.25000000      0.25000000</v>
   <v>       0.50000000      0.25000000      0.25000000</v>
   <v>       0.00000000      0.75000000      0.25000000</v>
   <v>       0.50000000      0.75000000      0.25000000</v>
   <v>       0.00000000      0.25000000      0.75000000</v>
   <v>       0.50000000      0.25000000      0.75000000</v>
   <v>       0.00000000      0.75000000      0.75000000</v>
   <v>       0.50000000      0.75000000      0.75000000</v>
   <v>       0.00000000      0.00000000      0.00000000</v>
   <v>       0.50000000      0.00000000      0.00000000</v>
   <v>       0.00000000      0.50000000      0.00000000</v>
   <v>       0.50000000      0.50000000      0.00000000</v>
   <v>       0.00000000      0.00000000      0.50000000</v>
   <v>       0.50000000      0.00000000      0.50000000</v>
   <v>       0.00000000      0.50000000      0.50000000</v>
   <v>       0.50000000      0.50000000      0.50000000</v>
  </varray>
 </structure>
</modeling>
