 running on    4 nodes
 distr:  one band on    1 nodes,    4 groups
 vasp.4.6.28 25Jul05 complex 
 POSCAR found :  1 types and   32 ions

 ----------------------------------------------------------------------------- 
|                                                                             |
|  ADVICE TO THIS USER RUNNING 'VASP/VAMP'   (HEAR YOUR MASTER'S VOICE ...):  |
|                                                                             |
|      You have a (more or less) 'large supercell' and for larger cells       |
|      it might be more efficient to use real space projection operators      |
|      So try LREAL= Auto  in the INCAR   file.                               |
|      Mind: If you want to do an extremely accurate calculations keep the    |
|      reciprocal projection scheme          (i.e. LREAL=.FALSE.)             |
|                                                                             |
 ----------------------------------------------------------------------------- 

 LDA part: xc-table for Pade appr. of Perdew
 POSCAR, INCAR and KPOINTS ok, starting setup
 WARNING: wrap around errors must be expected
 FFT: planning ...           1
 reading WAVECAR
 entering main loop
       N       E                     dE             d eps       ncg     rms          rms(c)
DAV:   1     0.181199641164E+03    0.18120E+03   -0.42361E+04 26656   0.153E+03
DAV:   2    -0.102646793247E+03   -0.28385E+03   -0.26616E+03 31144   0.168E+02
DAV:   3    -0.120139095081E+03   -0.17492E+02   -0.16480E+02 33160   0.318E+01
DAV:   4    -0.120572986716E+03   -0.43389E+00   -0.42761E+00 31404   0.498E+00
DAV:   5    -0.120578629497E+03   -0.56428E-02   -0.56333E-02 31732   0.672E-01    0.530E+00
DAV:   6    -0.120160604403E+03    0.41803E+00   -0.51128E-02 30908   0.752E-01    0.329E+00
DAV:   7    -0.119855360783E+03    0.30524E+00   -0.15085E-01 29508   0.121E+00    0.134E-01
DAV:   8    -0.119855481125E+03   -0.12034E-03   -0.12560E-03 31736   0.138E-01    0.450E-02
DAV:   9    -0.119855511692E+03   -0.30567E-04   -0.50766E-05 31212   0.207E-02    0.352E-03
DAV:  10    -0.119855512166E+03   -0.47372E-06   -0.24584E-06 31948   0.520E-03    0.195E-03
DAV:  11    -0.119855509328E+03    0.28371E-05   -0.19483E-07 31364   0.133E-03    0.728E-04
DAV:  12    -0.119855508307E+03    0.10214E-05   -0.21946E-08 21292   0.479E-04    0.116E-04
DAV:  13    -0.119855508176E+03    0.13089E-06   -0.30117E-09 17760   0.200E-04    0.344E-05
DAV:  14    -0.119855508171E+03    0.48710E-08   -0.47320E-10 17224   0.764E-05
   1 F= -.11985551E+03 E0= -.11985523E+03  d E =-.555505E-03
