  32  32   0   0
  0.1645186E+02  0.8074613E-09  0.8074613E-09  0.8074613E-09  0.5000000E-15
  1.000000000000000E-004
  CAR 
 unknown system                          
     12.43722642     -3.86514419  301      8.03650709      1.00000000
     -3.865  0.0000E+00  0.0000E+00
     -3.811  0.0000E+00  0.0000E+00
     -3.756  0.0000E+00  0.0000E+00
     -3.702  0.0000E+00  0.0000E+00
     -3.648  0.0000E+00  0.0000E+00
     -3.593  0.0000E+00  0.0000E+00
     -3.539  0.0000E+00  0.0000E+00
     -3.485  0.0000E+00  0.0000E+00
     -3.430  0.0000E+00  0.0000E+00
     -3.376  0.0000E+00  0.0000E+00
     -3.322  0.0000E+00  0.0000E+00
     -3.267  0.0000E+00  0.0000E+00
     -3.213  0.0000E+00  0.0000E+00
     -3.159  0.1071E-07  0.5822E-09
     -3.104  0.1249E+00  0.6785E-02
     -3.050  0.7005E+00  0.4485E-01
     -2.996  0.1079E+01  0.1035E+00
     -2.941  0.1723E+01  0.1971E+00
     -2.887  0.1711E+01  0.2901E+00
     -2.833  0.1893E+01  0.3929E+00
     -2.778  0.2296E+01  0.5177E+00
     -2.724  0.1474E+01  0.5978E+00
     -2.670  0.2781E+01  0.7489E+00
     -2.615  0.2223E+01  0.8697E+00
     -2.561  0.3221E+01  0.1045E+01
     -2.507  0.2541E+01  0.1183E+01
     -2.452  0.3632E+01  0.1380E+01
     -2.398  0.3136E+01  0.1551E+01
     -2.344  0.1974E+01  0.1658E+01
     -2.289  0.3986E+01  0.1874E+01
     -2.235  0.3720E+01  0.2077E+01
     -2.181  0.3009E+01  0.2240E+01
     -2.126  0.3586E+01  0.2435E+01
     -2.072  0.4428E+01  0.2676E+01
     -2.018  0.4208E+01  0.2904E+01
     -1.963  0.3055E+01  0.3070E+01
     -1.909  0.4915E+01  0.3337E+01
     -1.855  0.2672E+01  0.3483E+01
     -1.800  0.4755E+01  0.3741E+01
     -1.746  0.3924E+01  0.3954E+01
     -1.691  0.6700E+01  0.4318E+01
     -1.637  0.3242E+01  0.4494E+01
     -1.583  0.3387E+01  0.4679E+01
     -1.528  0.6423E+01  0.5028E+01
     -1.474  0.3935E+01  0.5241E+01
     -1.420  0.4676E+01  0.5495E+01
     -1.365  0.4287E+01  0.5728E+01
     -1.311  0.5381E+01  0.6021E+01
     -1.257  0.5298E+01  0.6309E+01
     -1.202  0.5309E+01  0.6597E+01
     -1.148  0.6014E+01  0.6924E+01
     -1.094  0.4420E+01  0.7164E+01
     -1.039  0.5346E+01  0.7455E+01
     -0.985  0.5256E+01  0.7740E+01
     -0.931  0.5922E+01  0.8062E+01
     -0.876  0.3515E+01  0.8253E+01
     -0.822  0.7400E+01  0.8655E+01
     -0.768  0.6882E+01  0.9029E+01
     -0.713  0.6199E+01  0.9366E+01
     -0.659  0.4629E+01  0.9618E+01
     -0.605  0.4987E+01  0.9889E+01
     -0.550  0.6510E+01  0.1024E+02
     -0.496  0.4954E+01  0.1051E+02
     -0.442  0.7540E+01  0.1092E+02
     -0.387  0.7152E+01  0.1131E+02
     -0.333  0.4275E+01  0.1154E+02
     -0.279  0.8181E+01  0.1199E+02
     -0.224  0.6812E+01  0.1236E+02
     -0.170  0.6384E+01  0.1270E+02
     -0.116  0.2506E+01  0.1284E+02
     -0.061  0.8896E+01  0.1332E+02
     -0.007  0.5896E+01  0.1364E+02
      0.047  0.7422E+01  0.1405E+02
      0.102  0.8334E+01  0.1450E+02
      0.156  0.7627E+01  0.1491E+02
      0.210  0.6007E+01  0.1524E+02
      0.265  0.4977E+01  0.1551E+02
      0.319  0.6829E+01  0.1588E+02
      0.373  0.6347E+01  0.1623E+02
      0.428  0.7971E+01  0.1666E+02
      0.482  0.8142E+01  0.1710E+02
      0.536  0.8822E+01  0.1758E+02
      0.591  0.6782E+01  0.1795E+02
      0.645  0.5369E+01  0.1824E+02
      0.700  0.8862E+01  0.1872E+02
      0.754  0.6847E+01  0.1910E+02
      0.808  0.7510E+01  0.1950E+02
      0.863  0.5279E+01  0.1979E+02
      0.917  0.8799E+01  0.2027E+02
      0.971  0.7443E+01  0.2067E+02
      1.026  0.9363E+01  0.2118E+02
      1.080  0.1037E+02  0.2175E+02
      1.134  0.5562E+01  0.2205E+02
      1.189  0.8050E+01  0.2249E+02
      1.243  0.7637E+01  0.2290E+02
      1.297  0.6275E+01  0.2324E+02
      1.352  0.6419E+01  0.2359E+02
      1.406  0.9796E+01  0.2412E+02
      1.460  0.9103E+01  0.2462E+02
      1.515  0.1026E+02  0.2518E+02
      1.569  0.7609E+01  0.2559E+02
      1.623  0.8642E+01  0.2606E+02
      1.678  0.8568E+01  0.2652E+02
      1.732  0.4738E+01  0.2678E+02
      1.786  0.1070E+02  0.2736E+02
      1.841  0.5726E+01  0.2767E+02
      1.895  0.9812E+01  0.2821E+02
      1.949  0.1038E+02  0.2877E+02
      2.004  0.9935E+01  0.2931E+02
      2.058  0.7438E+01  0.2972E+02
      2.112  0.6660E+01  0.3008E+02
      2.167  0.1387E+02  0.3083E+02
      2.221  0.7094E+01  0.3122E+02
      2.275  0.7731E+01  0.3164E+02
      2.330  0.7903E+01  0.3207E+02
      2.384  0.1133E+02  0.3268E+02
      2.438  0.5352E+01  0.3297E+02
      2.493  0.1092E+02  0.3357E+02
      2.547  0.8950E+01  0.3405E+02
      2.601  0.1070E+02  0.3463E+02
      2.656  0.1206E+02  0.3529E+02
      2.710  0.9714E+01  0.3582E+02
      2.764  0.8289E+01  0.3627E+02
      2.819  0.4696E+01  0.3652E+02
      2.873  0.1095E+02  0.3712E+02
      2.928  0.9847E+01  0.3765E+02
      2.982  0.1051E+02  0.3822E+02
      3.036  0.7723E+01  0.3864E+02
      3.091  0.1069E+02  0.3923E+02
      3.145  0.1222E+02  0.3989E+02
      3.199  0.9565E+01  0.4041E+02
      3.254  0.1103E+02  0.4101E+02
      3.308  0.7245E+01  0.4140E+02
      3.362  0.1043E+02  0.4197E+02
      3.417  0.9154E+01  0.4247E+02
      3.471  0.1330E+02  0.4319E+02
      3.525  0.6729E+01  0.4355E+02
      3.580  0.1161E+02  0.4419E+02
      3.634  0.8498E+01  0.4465E+02
      3.688  0.1217E+02  0.4531E+02
      3.743  0.8673E+01  0.4578E+02
      3.797  0.1220E+02  0.4644E+02
      3.851  0.1023E+02  0.4700E+02
      3.906  0.8632E+01  0.4747E+02
      3.960  0.1316E+02  0.4818E+02
      4.014  0.1031E+02  0.4874E+02
      4.069  0.1194E+02  0.4939E+02
      4.123  0.8249E+01  0.4984E+02
      4.177  0.8133E+01  0.5028E+02
      4.232  0.9729E+01  0.5081E+02
      4.286  0.1108E+02  0.5141E+02
      4.340  0.1338E+02  0.5214E+02
      4.395  0.1227E+02  0.5281E+02
      4.449  0.1076E+02  0.5339E+02
      4.503  0.1261E+02  0.5408E+02
      4.558  0.9235E+01  0.5458E+02
      4.612  0.1253E+02  0.5526E+02
      4.666  0.9518E+01  0.5578E+02
      4.721  0.9178E+01  0.5628E+02
      4.775  0.1139E+02  0.5689E+02
      4.829  0.1126E+02  0.5751E+02
      4.884  0.1566E+02  0.5836E+02
      4.938  0.1044E+02  0.5892E+02
      4.992  0.1229E+02  0.5959E+02
      5.047  0.9933E+01  0.6013E+02
      5.101  0.1218E+02  0.6079E+02
      5.156  0.8782E+01  0.6127E+02
      5.210  0.1588E+02  0.6213E+02
      5.264  0.1589E+02  0.6300E+02
      5.319  0.1256E+02  0.6368E+02
      5.373  0.9186E+01  0.6418E+02
      5.427  0.1166E+02  0.6481E+02
      5.482  0.1079E+02  0.6540E+02
      5.536  0.1233E+02  0.6607E+02
      5.590  0.1716E+02  0.6700E+02
      5.645  0.7972E+01  0.6743E+02
      5.699  0.9835E+01  0.6797E+02
      5.753  0.1245E+02  0.6865E+02
      5.808  0.1265E+02  0.6933E+02
      5.862  0.1362E+02  0.7007E+02
      5.916  0.6976E+01  0.7045E+02
      5.971  0.1339E+02  0.7118E+02
      6.025  0.1151E+02  0.7181E+02
      6.079  0.1277E+02  0.7250E+02
      6.134  0.1258E+02  0.7318E+02
      6.188  0.9161E+01  0.7368E+02
      6.242  0.5765E+01  0.7399E+02
      6.297  0.1385E+02  0.7475E+02
      6.351  0.1431E+02  0.7552E+02
      6.405  0.1151E+02  0.7615E+02
      6.460  0.9749E+01  0.7668E+02
      6.514  0.1188E+02  0.7733E+02
      6.568  0.1120E+02  0.7793E+02
      6.623  0.1050E+02  0.7850E+02
      6.677  0.1044E+02  0.7907E+02
      6.731  0.1141E+02  0.7969E+02
      6.786  0.1439E+02  0.8047E+02
      6.840  0.1196E+02  0.8112E+02
      6.894  0.9665E+01  0.8165E+02
      6.949  0.1535E+02  0.8248E+02
      7.003  0.1554E+02  0.8333E+02
      7.057  0.9790E+01  0.8386E+02
      7.112  0.1179E+02  0.8450E+02
      7.166  0.9973E+01  0.8504E+02
      7.220  0.1442E+02  0.8583E+02
      7.275  0.1477E+02  0.8663E+02
      7.329  0.1045E+02  0.8720E+02
      7.383  0.1332E+02  0.8792E+02
      7.438  0.1070E+02  0.8850E+02
      7.492  0.1192E+02  0.8915E+02
      7.547  0.1523E+02  0.8998E+02
      7.601  0.1043E+02  0.9054E+02
      7.655  0.1090E+02  0.9114E+02
      7.710  0.1550E+02  0.9198E+02
      7.764  0.9657E+01  0.9250E+02
      7.818  0.1348E+02  0.9324E+02
      7.873  0.1085E+02  0.9383E+02
      7.927  0.1199E+02  0.9448E+02
      7.981  0.1393E+02  0.9523E+02
      8.036  0.1391E+02  0.9599E+02
      8.090  0.1201E+02  0.9664E+02
      8.144  0.1337E+02  0.9737E+02
      8.199  0.1298E+02  0.9807E+02
      8.253  0.1203E+02  0.9873E+02
      8.307  0.1262E+02  0.9941E+02
      8.362  0.1403E+02  0.1002E+03
      8.416  0.1335E+02  0.1009E+03
      8.470  0.1380E+02  0.1017E+03
      8.525  0.1256E+02  0.1023E+03
      8.579  0.1918E+02  0.1034E+03
      8.633  0.1510E+02  0.1042E+03
      8.688  0.1232E+02  0.1049E+03
      8.742  0.1270E+02  0.1056E+03
      8.796  0.1148E+02  0.1062E+03
      8.851  0.1037E+02  0.1067E+03
      8.905  0.1248E+02  0.1074E+03
      8.959  0.9432E+01  0.1079E+03
      9.014  0.1245E+02  0.1086E+03
      9.068  0.2275E+02  0.1098E+03
      9.122  0.1406E+02  0.1106E+03
      9.177  0.1281E+02  0.1113E+03
      9.231  0.1466E+02  0.1121E+03
      9.285  0.1313E+02  0.1128E+03
      9.340  0.1649E+02  0.1137E+03
      9.394  0.1098E+02  0.1143E+03
      9.448  0.9754E+01  0.1148E+03
      9.503  0.1092E+02  0.1154E+03
      9.557  0.1445E+02  0.1162E+03
      9.611  0.1747E+02  0.1172E+03
      9.666  0.1344E+02  0.1179E+03
      9.720  0.1168E+02  0.1185E+03
      9.775  0.1699E+02  0.1195E+03
      9.829  0.1360E+02  0.1202E+03
      9.883  0.1734E+02  0.1211E+03
      9.938  0.1282E+02  0.1218E+03
      9.992  0.1076E+02  0.1224E+03
     10.046  0.1612E+02  0.1233E+03
     10.101  0.1039E+02  0.1239E+03
     10.155  0.1585E+02  0.1247E+03
     10.209  0.1579E+02  0.1256E+03
     10.264  0.1417E+02  0.1263E+03
     10.318  0.1308E+02  0.1271E+03
     10.372  0.9219E+01  0.1276E+03
     10.427  0.1108E+02  0.1282E+03
     10.481  0.1798E+02  0.1291E+03
     10.535  0.1315E+02  0.1299E+03
     10.590  0.8778E+01  0.1303E+03
     10.644  0.1321E+02  0.1310E+03
     10.698  0.1446E+02  0.1318E+03
     10.753  0.1159E+02  0.1325E+03
     10.807  0.1106E+02  0.1331E+03
     10.861  0.9941E+01  0.1336E+03
     10.916  0.6356E+01  0.1340E+03
     10.970  0.7653E+01  0.1344E+03
     11.024  0.9562E+01  0.1349E+03
     11.079  0.8695E+01  0.1354E+03
     11.133  0.4054E+01  0.1356E+03
     11.187  0.2428E+01  0.1357E+03
     11.242  0.8364E+00  0.1358E+03
     11.296  0.1756E+01  0.1359E+03
     11.350  0.7772E+00  0.1359E+03
     11.405  0.9276E+00  0.1359E+03
     11.459  0.2615E+00  0.1360E+03
     11.513  0.1691E+00  0.1360E+03
     11.568  0.5107E+00  0.1360E+03
     11.622  0.0000E+00  0.1360E+03
     11.676  0.4251E-03  0.1360E+03
     11.731  0.8477E-01  0.1360E+03
     11.785  0.0000E+00  0.1360E+03
     11.839  0.0000E+00  0.1360E+03
     11.894  0.0000E+00  0.1360E+03
     11.948  0.0000E+00  0.1360E+03
     12.002  0.0000E+00  0.1360E+03
     12.057  0.0000E+00  0.1360E+03
     12.111  0.0000E+00  0.1360E+03
     12.166  0.0000E+00  0.1360E+03
     12.220  0.0000E+00  0.1360E+03
     12.274  0.0000E+00  0.1360E+03
     12.329  0.0000E+00  0.1360E+03
     12.383  0.0000E+00  0.1360E+03
     12.437  0.0000E+00  0.1360E+03
