   32   32    1    1
  0.1645186E+02  0.8074613E-09  0.8074613E-09  0.8074613E-09  0.5000000E-15
  1.000000000000000E-004
  CAR 
 unknown system                          
   96  196   68
 
  0.0000000E+00  0.0000000E+00  0.0000000E+00  0.5787037E-03
   1       -3.1241
   2       -0.8753
   3       -0.8716
   4       -0.8716
   5       -0.8716
   6       -0.8716
   7       -0.8680
   8        1.3393
   9        1.3438
  10        1.3438
  11        1.3454
  12        1.3456
  13        1.3456
  14        1.3456
  15        1.3456
  16        1.3458
  17        1.3474
  18        1.3474
  19        1.3518
  20        3.4258
  21        3.4258
  22        3.4258
  23        3.4258
  24        3.6468
  25        3.6468
  26        3.6468
  27        3.6468
  28        5.0996
  29        5.0996
  30        5.0996
  31        6.4293
  32        6.4293
  33        6.4293
  34        7.1763
  35        7.1763
  36        7.1806
  37        7.1806
  38        7.1807
  39        7.1807
  40        7.1807
  41        7.1808
  42        7.1808
  43        7.1808
  44        7.1851
  45        7.1851
  46        8.1909
  47        8.1951
  48        8.1951
  49        8.1951
  50        8.1951
  51        8.1992
  52        9.1527
  53        9.1537
  54        9.1537
  55        9.1537
  56        9.1537
  57        9.1547
  58        9.2642
  59        9.2645
  60        9.2659
  61        9.2682
  62        9.2683
  63        9.2683
  64        9.2684
  65        9.2684
  66        9.2702
  67        9.2720
  68        9.2724
 
  0.8333333E-01  0.0000000E+00  0.0000000E+00  0.1157407E-02
   1       -3.1084
   2       -1.2290
   3       -0.8561
   4       -0.8561
   5       -0.8561
   6       -0.8561
   7       -0.4844
   8        0.9938
   9        0.9938
  10        0.9938
  11        0.9938
  12        1.3609
  13        1.3609
  14        1.3609
  15        1.3609
  16        1.7268
  17        1.7268
  18        1.7268
  19        1.7269
  20        3.1723
  21        3.1723
  22        3.1723
  23        3.1723
  24        3.9295
  25        3.9295
  26        3.9295
  27        3.9295
  28        4.7972
  29        5.1140
  30        5.1140
  31        6.4445
  32        6.4446
  33        6.7589
  34        6.8477
  35        6.8477
  36        6.8902
  37        6.8902
  38        6.8902
  39        6.8903
  40        7.1952
  41        7.1952
  42        7.1952
  43        7.1952
  44        7.5428
  45        7.5428
  46        8.0883
  47        8.0884
  48        8.3760
  49        8.3760
  50        8.3760
  51        8.3760
  52        8.9345
  53        8.9345
  54        8.9346
  55        8.9346
  56        9.0058
  57        9.0059
  58        9.0059
  59        9.0059
  60        9.2874
  61        9.2875
  62        9.3051
  63        9.3051
  64        9.3052
  65        9.3052
  66        9.6312
  67        9.6312
  68        9.6312
 
  0.1666667E+00  0.0000000E+00  0.0000000E+00  0.1157407E-02
   1       -3.0611
   2       -1.5560
   3       -0.8096
   4       -0.8096
   5       -0.8096
   6       -0.8096
   7       -0.0675
   8        0.6719
   9        0.6719
  10        0.6719
  11        0.6719
  12        1.4067
  13        1.4067
  14        1.4067
  15        1.4067
  16        2.1372
  17        2.1372
  18        2.1372
  19        2.1372
  20        2.8624
  21        2.8624
  22        2.8624
  23        2.8624
  24        4.2311
  25        4.3271
  26        4.3271
  27        4.3271
  28        4.3271
  29        5.1573
  30        5.1573
  31        6.3459
  32        6.3459
  33        6.3459
  34        6.3459
  35        6.4902
  36        6.4903
  37        6.5439
  38        6.5439
  39        7.2386
  40        7.2386
  41        7.2386
  42        7.2386
  43        7.4069
  44        7.8640
  45        7.8640
  46        7.9341
  47        7.9341
  48        8.4816
  49        8.4817
  50        8.4817
  51        8.4817
  52        8.5882
  53        8.5882
  54        8.5882
  55        8.5883
  56        8.6299
  57        8.6299
  58        8.6300
  59        8.6300
  60        9.5929
  61        9.5929
  62        9.7626
  63        9.7626
  64        9.7626
  65        9.7626
  66       10.0232
  67       10.0232
  68       10.0234
 
  0.2500000E+00  0.0000000E+00  0.0000000E+00  0.1157407E-02
   1       -2.9823
   2       -1.8526
   3       -0.7321
   4       -0.7320
   5       -0.7320
   6       -0.7320
   7        0.3767
   8        0.3799
   9        0.3799
  10        0.3799
  11        0.3820
  12        1.4831
  13        1.4831
  14        1.4831
  15        1.4831
  16        2.5733
  17        2.5752
  18        2.5752
  19        2.5763
  20        2.5769
  21        2.5780
  22        2.5780
  23        2.5799
  24        3.6251
  25        4.7585
  26        4.7585
  27        4.7585
  28        4.7585
  29        5.2294
  30        5.2294
  31        5.7586
  32        5.7586
  33        5.7586
  34        5.7586
  35        6.2692
  36        6.2692
  37        6.5662
  38        6.5662
  39        7.3110
  40        7.3110
  41        7.3110
  42        7.3110
  43        7.6170
  44        7.6170
  45        7.9039
  46        7.9039
  47        7.9039
  48        7.9039
  49        8.1494
  50        8.3521
  51        8.3521
  52        8.3544
  53        8.3544
  54        8.3568
  55        8.3568
  56        8.7323
  57        8.7323
  58        8.7323
  59        8.7323
  60        9.8671
  61        9.8671
  62        9.8671
  63        9.8671
  64        9.9741
  65        9.9741
  66       10.4170
  67       10.4235
  68       10.4389
 
  0.3333333E+00  0.0000000E+00  0.0000000E+00  0.1157407E-02
   1       -2.8721
   2       -2.1185
   3       -0.6236
   4       -0.6236
   5       -0.6236
   6       -0.6236
   7        0.1181
   8        0.1181
   9        0.1181
  10        0.1181
  11        0.8538
  12        1.5899
  13        1.5899
  14        1.5899
  15        1.5899
  16        2.3199
  17        2.3199
  18        2.3199
  19        2.3199
  20        3.0253
  21        3.0436
  22        3.0436
  23        3.0436
  24        3.0437
  25        5.1739
  26        5.1739
  27        5.1740
  28        5.1740
  29        5.2193
  30        5.2193
  31        5.2193
  32        5.2193
  33        5.3304
  34        5.3304
  35        6.0235
  36        6.0235
  37        6.6721
  38        6.6721
  39        7.3259
  40        7.3259
  41        7.3259
  42        7.3260
  43        7.3797
  44        7.3798
  45        7.4124
  46        7.4124
  47        7.4125
  48        7.4125
  49        8.1079
  50        8.1079
  51        8.1079
  52        8.1079
  53        8.8043
  54        8.8043
  55        8.8665
  56        8.8665
  57        8.8665
  58        8.8665
  59        8.9399
  60        9.6133
  61        9.6133
  62        9.6133
  63        9.6133
  64       10.3976
  65       10.3976
  66       10.8941
  67       10.8945
  68       10.8952
 
  0.4166667E+00  0.0000000E+00  0.0000000E+00  0.1157407E-02
   1       -2.7305
   2       -2.3536
   3       -0.4843
   4       -0.4842
   5       -0.4842
   6       -0.4842
   7       -0.1132
   8       -0.1132
   9       -0.1132
  10       -0.1132
  11        1.3571
  12        1.7271
  13        1.7272
  14        1.7272
  15        1.7272
  16        2.0923
  17        2.0923
  18        2.0923
  19        2.0923
  20        2.4447
  21        3.5384
  22        3.5384
  23        3.5384
  24        3.5384
  25        4.6058
  26        4.6058
  27        4.6058
  28        4.6058
  29        5.4603
  30        5.4603
  31        5.7081
  32        5.7081
  33        5.7081
  34        5.7081
  35        5.8068
  36        5.8068
  37        6.7637
  38        6.7638
  39        6.7638
  40        6.7638
  41        6.8074
  42        6.8075
  43        7.1630
  44        7.1630
  45        7.5428
  46        7.5428
  47        7.5428
  48        7.5428
  49        7.8905
  50        7.8905
  51        7.8905
  52        7.8905
  53        9.0157
  54        9.0157
  55        9.0157
  56        9.0157
  57        9.2832
  58        9.2832
  59        9.3871
  60        9.3871
  61        9.3871
  62        9.3871
  63        9.7658
  64       10.3288
  65       10.3288
  66       10.8504
  67       10.8504
  68       11.3740
 
  0.5000000E+00  0.0000000E+00  0.0000000E+00  0.5787037E-03
   1       -2.5590
   2       -2.5561
   3       -0.3181
   4       -0.3149
   5       -0.3149
   6       -0.3142
   7       -0.3140
   8       -0.3132
   9       -0.3132
  10       -0.3101
  11        1.8857
  12        1.8880
  13        1.8930
  14        1.8934
  15        1.8934
  16        1.8942
  17        1.8951
  18        1.8960
  19        1.8960
  20        1.8984
  21        4.0588
  22        4.0588
  23        4.0589
  24        4.0595
  25        4.0598
  26        4.0605
  27        4.0605
  28        4.0605
  29        5.6175
  30        5.6175
  31        5.6206
  32        5.6206
  33        6.2224
  34        6.2224
  35        6.2230
  36        6.2233
  37        6.2237
  38        6.2240
  39        6.2245
  40        6.2245
  41        6.9696
  42        6.9706
  43        6.9724
  44        6.9735
  45        7.6997
  46        7.6997
  47        7.7007
  48        7.7021
  49        7.7022
  50        7.7036
  51        7.7045
  52        7.7045
  53        9.1860
  54        9.1870
  55        9.1870
  56        9.1871
  57        9.1893
  58        9.1895
  59        9.1895
  60        9.1905
  61        9.7903
  62        9.7903
  63        9.7926
  64        9.7926
  65       10.6215
  66       10.6228
  67       11.3236
  68       11.3254
 
  0.0000000E+00  0.8333333E-01  0.0000000E+00  0.2314815E-02
   1       -3.1084
   2       -1.2290
   3       -0.8590
   4       -0.8561
   5       -0.8561
   6       -0.8533
   7       -0.4844
   8        0.9910
   9        0.9938
  10        0.9938
  11        0.9967
  12        1.3587
  13        1.3597
  14        1.3620
  15        1.3630
  16        1.7240
  17        1.7268
  18        1.7268
  19        1.7297
  20        3.1703
  21        3.1712
  22        3.1735
  23        3.1744
  24        3.9274
  25        3.9284
  26        3.9306
  27        3.9316
  28        4.7972
  29        5.1140
  30        5.1140
  31        6.4445
  32        6.4446
  33        6.7590
  34        6.8476
  35        6.8477
  36        6.8871
  37        6.8902
  38        6.8902
  39        6.8935
  40        7.1925
  41        7.1952
  42        7.1952
  43        7.1979
  44        7.5428
  45        7.5428
  46        8.0883
  47        8.0884
  48        8.3732
  49        8.3760
  50        8.3760
  51        8.3788
  52        8.9318
  53        8.9345
  54        8.9346
  55        8.9373
  56        9.0031
  57        9.0047
  58        9.0070
  59        9.0086
  60        9.2875
  61        9.2875
  62        9.3041
  63        9.3051
  64        9.3052
  65        9.3062
  66        9.6287
  67        9.6312
  68        9.6330
 
  0.8333333E-01  0.8333333E-01  0.0000000E+00  0.4629630E-02
   1       -3.0926
   2       -1.2146
   3       -1.2122
   4       -0.8406
   5       -0.8406
   6       -0.4701
   7       -0.4677
   8        0.6412
   9        1.0075
  10        1.0085
  11        1.0099
  12        1.0108
  13        1.3755
  14        1.3765
  15        1.7404
  16        1.7414
  17        1.7428
  18        1.7437
  19        2.1070
  20        2.8324
  21        2.8324
  22        3.4550
  23        3.4550
  24        3.6776
  25        3.6776
  26        4.2972
  27        4.2972
  28        4.8115
  29        4.8122
  30        5.1284
  31        6.4598
  32        6.5581
  33        6.5604
  34        6.7736
  35        6.7744
  36        6.8466
  37        6.8467
  38        6.8609
  39        6.8636
  40        6.9720
  41        6.9721
  42        7.2424
  43        7.2442
  44        7.5560
  45        7.5586
  46        8.1986
  47        8.2007
  48        8.3545
  49        8.3572
  50        8.5880
  51        8.5880
  52        8.6009
  53        8.6693
  54        8.6702
  55        8.6716
  56        8.6726
  57        9.2964
  58        9.2983
  59        9.3501
  60        9.3507
  61        9.3685
  62        9.3694
  63        9.3699
  64        9.3709
  65        9.4161
  66        9.4161
  67        9.5166
  68        9.5182
 
  0.1666667E+00  0.8333333E-01  0.0000000E+00  0.4629630E-02
   1       -3.0453
   2       -1.5404
   3       -1.1667
   4       -0.7941
   5       -0.7941
   6       -0.4225
   7       -0.0520
   8        0.3184
   9        0.6872
  10        0.6872
  11        1.0543
  12        1.0551
  13        1.0557
  14        1.7869
  15        1.7878
  16        1.7883
  17        2.1524
  18        2.1524
  19        2.5159
  20        2.5165
  21        2.5169
  22        3.2320
  23        3.2321
  24        3.9898
  25        3.9898
  26        4.2460
  27        4.6991
  28        4.6991
  29        4.8557
  30        5.1717
  31        6.0122
  32        6.2551
  33        6.3543
  34        6.3543
  35        6.5054
  36        6.5584
  37        6.7038
  38        6.8190
  39        6.9057
  40        6.9690
  41        6.9690
  42        7.4217
  43        7.5832
  44        7.6007
  45        7.9486
  46        7.9966
  47        8.1451
  48        8.1451
  49        8.1642
  50        8.2964
  51        8.3178
  52        8.3649
  53        8.3650
  54        8.7720
  55        8.8467
  56        8.8469
  57        8.8576
  58        8.8579
  59        8.9927
  60        9.6068
  61        9.6234
  62        9.6893
  63        9.7622
  64        9.7622
  65        9.8104
  66        9.8108
  67        9.8118
  68        9.8526
 
  0.2500000E+00  0.8333333E-01  0.0000000E+00  0.4629630E-02
   1       -2.9665
   2       -1.8370
   3       -1.0890
   4       -0.7166
   5       -0.7165
   6       -0.3452
   7        0.0257
   8        0.3928
   9        0.3953
  10        0.3966
  11        0.7638
  12        1.1317
  13        1.1317
  14        1.8639
  15        1.8639
  16        2.2264
  17        2.2290
  18        2.2303
  19        2.5914
  20        2.5915
  21        2.9514
  22        2.9526
  23        2.9553
  24        3.6400
  25        4.4166
  26        4.4166
  27        4.9288
  28        5.1309
  29        5.1310
  30        5.2438
  31        5.4213
  32        5.7713
  33        5.7713
  34        5.9790
  35        6.1222
  36        6.2837
  37        6.5812
  38        6.8939
  39        6.9780
  40        7.0390
  41        7.0390
  42        7.5659
  43        7.5659
  44        7.5976
  45        7.6732
  46        7.9279
  47        8.0209
  48        8.0879
  49        8.0880
  50        8.1447
  51        8.1639
  52        8.2707
  53        8.2707
  54        8.3691
  55        8.4225
  56        8.7170
  57        9.0228
  58        9.0228
  59        9.0348
  60        9.5294
  61        9.9952
  62       10.1104
  63       10.1439
  64       10.1600
  65       10.1603
  66       10.1835
  67       10.1844
  68       10.2322
 
  0.3333333E+00  0.8333333E-01  0.0000000E+00  0.4629630E-02
   1       -2.8563
   2       -2.1029
   3       -0.9802
   4       -0.6081
   5       -0.6081
   6       -0.2375
   7       -0.2362
   8        0.1335
   9        0.1335
  10        0.5027
  11        0.8691
  12        1.2388
  13        1.2388
  14        1.9698
  15        1.9702
  16        1.9711
  17        1.9715
  18        2.6962
  19        2.6976
  20        2.6977
  21        3.0404
  22        3.0587
  23        3.0587
  24        3.4199
  25        4.8338
  26        4.8770
  27        4.8770
  28        5.0311
  29        5.1880
  30        5.1880
  31        5.3448
  32        5.5415
  33        5.5914
  34        5.5914
  35        5.7315
  36        6.0380
  37        6.6869
  38        6.9868
  39        6.9868
  40        6.9983
  41        7.0794
  42        7.1404
  43        7.1404
  44        7.3861
  45        7.6933
  46        7.6940
  47        7.6965
  48        7.7738
  49        7.7754
  50        7.8401
  51        7.8401
  52        8.4705
  53        8.5411
  54        8.5636
  55        8.8188
  56        8.9542
  57        9.1621
  58        9.1622
  59        9.2073
  60        9.2754
  61        9.9075
  62        9.9075
  63        9.9772
  64       10.4154
  65       10.5608
  66       10.6296
  67       10.6334
  68       10.6519
 
  0.4166667E+00  0.8333333E-01  0.0000000E+00  0.4629630E-02
   1       -2.7147
   2       -2.3379
   3       -0.8405
   4       -0.4701
   5       -0.4687
   6       -0.4673
   7       -0.0993
   8       -0.0978
   9       -0.0965
  10        0.2720
  11        1.3719
  12        1.3764
  13        1.3768
  14        1.7426
  15        1.7426
  16        2.1073
  17        2.1073
  18        2.4596
  19        2.4711
  20        2.4713
  21        3.1925
  22        3.5534
  23        3.5534
  24        3.9131
  25        4.2634
  26        4.6203
  27        4.6203
  28        4.9763
  29        5.1626
  30        5.3661
  31        5.3661
  32        5.4747
  33        5.5129
  34        5.8213
  35        6.0793
  36        6.0793
  37        6.4235
  38        6.4235
  39        6.8218
  40        7.1310
  41        7.1330
  42        7.1338
  43        7.1748
  44        7.2096
  45        7.2714
  46        7.2714
  47        7.4825
  48        7.5572
  49        7.6213
  50        7.6214
  51        7.9051
  52        8.2530
  53        8.6833
  54        9.0341
  55        9.0498
  56        9.2977
  57        9.3124
  58        9.3125
  59        9.3703
  60        9.6825
  61        9.6825
  62        9.7500
  63        9.7798
  64       10.0701
  65       10.3433
  66       10.8666
  67       11.0403
  68       11.1120
 
  0.5000000E+00  0.8333333E-01  0.0000000E+00  0.2314815E-02
   1       -2.5433
   2       -2.5404
   3       -0.6714
   4       -0.6685
   5       -0.3007
   6       -0.2995
   7       -0.2978
   8       -0.2966
   9        0.0702
  10        0.0731
  11        1.5423
  12        1.5435
  13        1.5452
  14        1.5464
  15        1.9024
  16        1.9037
  17        2.2722
  18        2.2734
  19        2.2751
  20        2.2763
  21        3.7147
  22        3.7161
  23        4.0736
  24        4.0740
  25        4.0750
  26        4.0753
  27        4.4318
  28        4.4332
  29        5.3217
  30        5.3247
  31        5.6320
  32        5.6351
  33        5.8815
  34        5.8817
  35        5.8829
  36        5.8831
  37        6.5930
  38        6.5931
  39        6.5944
  40        6.5946
  41        6.9837
  42        6.9865
  43        7.2922
  44        7.2951
  45        7.3674
  46        7.3705
  47        7.4295
  48        7.4309
  49        7.4326
  50        7.4340
  51        8.0629
  52        8.0661
  53        8.8511
  54        8.8540
  55        9.4828
  56        9.4834
  57        9.4858
  58        9.4864
  59        9.5365
  60        9.5385
  61        9.5472
  62        9.5502
  63        9.8048
  64        9.8071
  65       10.6351
  66       10.6364
  67       11.3397
  68       11.3406
 
  0.0000000E+00  0.1666667E+00  0.0000000E+00  0.2314815E-02
   1       -3.0611
   2       -1.5560
   3       -0.8124
   4       -0.8096
   5       -0.8096
   6       -0.8067
   7       -0.0675
   8        0.6690
   9        0.6719
  10        0.6719
  11        0.6747
  12        1.4046
  13        1.4056
  14        1.4079
  15        1.4089
  16        2.1343
  17        2.1372
  18        2.1372
  19        2.1401
  20        2.8603
  21        2.8613
  22        2.8636
  23        2.8646
  24        4.2311
  25        4.3249
  26        4.3259
  27        4.3282
  28        4.3292
  29        5.1573
  30        5.1573
  31        6.3428
  32        6.3459
  33        6.3459
  34        6.3490
  35        6.4902
  36        6.4902
  37        6.5439
  38        6.5440
  39        7.2359
  40        7.2386
  41        7.2386
  42        7.2413
  43        7.4069
  44        7.8639
  45        7.8640
  46        7.9341
  47        7.9341
  48        8.4792
  49        8.4805
  50        8.4828
  51        8.4842
  52        8.5857
  53        8.5882
  54        8.5882
  55        8.5907
  56        8.6272
  57        8.6299
  58        8.6300
  59        8.6327
  60        9.5928
  61        9.5929
  62        9.7608
  63        9.7625
  64        9.7626
  65        9.7644
  66       10.0214
  67       10.0232
  68       10.0254
 
  0.8333333E-01  0.1666667E+00  0.0000000E+00  0.4629630E-02
   1       -3.0453
   2       -1.5404
   3       -1.1667
   4       -0.7941
   5       -0.7941
   6       -0.4225
   7       -0.0520
   8        0.3184
   9        0.6872
  10        0.6872
  11        1.0536
  12        1.0551
  13        1.0564
  14        1.7862
  15        1.7878
  16        1.7890
  17        2.1524
  18        2.1524
  19        2.5159
  20        2.5165
  21        2.5169
  22        3.2321
  23        3.2321
  24        3.9898
  25        3.9898
  26        4.2459
  27        4.6991
  28        4.6991
  29        4.8557
  30        5.1717
  31        6.0122
  32        6.2551
  33        6.3543
  34        6.3543
  35        6.5054
  36        6.5584
  37        6.7039
  38        6.8190
  39        6.9056
  40        6.9690
  41        6.9690
  42        7.4217
  43        7.5832
  44        7.6007
  45        7.9486
  46        7.9966
  47        8.1451
  48        8.1451
  49        8.1642
  50        8.2963
  51        8.3178
  52        8.3650
  53        8.3650
  54        8.7720
  55        8.8470
  56        8.8470
  57        8.8575
  58        8.8576
  59        8.9927
  60        9.6069
  61        9.6234
  62        9.6893
  63        9.7622
  64        9.7623
  65        9.8104
  66        9.8108
  67        9.8118
  68        9.8526
 
  0.1666667E+00  0.1666667E+00  0.0000000E+00  0.4629630E-02
   1       -2.9980
   2       -1.4948
   3       -1.4925
   4       -0.7476
   5       -0.7475
   6       -0.0074
   7       -0.0055
   8       -0.0037
   9        0.7316
  10        0.7326
  11        0.7340
  12        0.7349
  13        1.4668
  14        1.4678
  15        2.1957
  16        2.1969
  17        2.1982
  18        2.1983
  19        2.1996
  20        2.2007
  21        2.9242
  22        3.5425
  23        3.5425
  24        3.7700
  25        3.7700
  26        4.2899
  27        4.2909
  28        5.1015
  29        5.1015
  30        5.2150
  31        5.7043
  32        5.7066
  33        6.3023
  34        6.3024
  35        6.5283
  36        6.5283
  37        6.5508
  38        6.6005
  39        6.6031
  40        7.0751
  41        7.0770
  42        7.4655
  43        7.4664
  44        7.8357
  45        7.8367
  46        7.8381
  47        7.8391
  48        7.9897
  49        7.9920
  50        7.9943
  51        8.0532
  52        8.0547
  53        8.7262
  54        8.7286
  55        9.2397
  56        9.2407
  57        9.2410
  58        9.2420
  59        9.3089
  60        9.3090
  61        9.3836
  62        9.3855
  63        9.5012
  64        9.7352
  65        9.7358
  66       10.0207
  67       10.0207
  68       10.4267
 
  0.2500000E+00  0.1666667E+00  0.0000000E+00  0.4629630E-02
   1       -2.9193
   2       -1.7901
   3       -1.4157
   4       -0.6701
   5       -0.6700
   6       -0.2985
   7        0.0713
   8        0.4389
   9        0.4414
  10        0.4428
  11        0.8100
  12        0.8100
  13        1.1770
  14        1.9074
  15        1.9101
  16        1.9114
  17        2.2738
  18        2.2739
  19        2.6368
  20        2.6368
  21        3.3510
  22        3.3513
  23        3.3609
  24        3.6849
  25        4.1101
  26        4.1101
  27        4.3645
  28        5.1118
  29        5.2871
  30        5.4268
  31        5.5328
  32        5.5328
  33        5.8049
  34        5.8049
  35        6.3270
  36        6.5084
  37        6.5137
  38        6.5138
  39        6.6262
  40        6.6741
  41        7.2569
  42        7.2569
  43        7.3954
  44        7.5395
  45        7.5588
  46        7.5588
  47        7.7166
  48        7.8865
  49        8.0645
  50        8.1330
  51        8.2075
  52        8.4126
  53        8.5371
  54        8.6659
  55        8.6659
  56        9.1088
  57        9.2188
  58        9.2372
  59        9.5927
  60        9.5927
  61        9.6630
  62        9.6630
  63        9.8056
  64       10.0284
  65       10.0638
  66       10.5298
  67       10.5303
  68       10.6276
 
  0.3333333E+00  0.1666667E+00  0.0000000E+00  0.4629630E-02
   1       -2.8091
   2       -2.0559
   3       -1.3067
   4       -0.5629
   5       -0.5616
   6       -0.5602
   7        0.1781
   8        0.1798
   9        0.1809
  10        0.9139
  11        0.9168
  12        0.9174
  13        0.9185
  14        1.6512
  15        1.6512
  16        2.3781
  17        2.3800
  18        2.3802
  19        3.0854
  20        3.1016
  21        3.1021
  22        3.1044
  23        3.1050
  24        3.8248
  25        4.4680
  26        4.5221
  27        4.5655
  28        4.5656
  29        5.1767
  30        5.2291
  31        5.2292
  32        5.3881
  33        5.9350
  34        5.9924
  35        5.9924
  36        6.0813
  37        6.6082
  38        6.6082
  39        6.6767
  40        6.6767
  41        6.7311
  42        6.7754
  43        7.3094
  44        7.3094
  45        7.3865
  46        7.4703
  47        7.6421
  48        8.0905
  49        8.0905
  50        8.0984
  51        8.1660
  52        8.2404
  53        8.3211
  54        8.8606
  55        8.8639
  56        8.9649
  57        8.9971
  58        9.5382
  59        9.7627
  60        9.7627
  61       10.1081
  62       10.1131
  63       10.1132
  64       10.2559
  65       10.3657
  66       10.4703
  67       10.5173
  68       10.5179
 
  0.4166667E+00  0.1666667E+00  0.0000000E+00  0.4629630E-02
   1       -2.6676
   2       -2.2908
   3       -1.1667
   4       -0.7939
   5       -0.4223
   6       -0.4223
   7       -0.0515
   8       -0.0515
   9        0.3178
  10        0.6867
  11        1.0552
  12        1.0553
  13        1.4177
  14        1.4223
  15        1.4228
  16        2.5050
  17        2.5163
  18        2.5165
  19        2.8757
  20        2.8783
  21        2.8784
  22        3.5982
  23        3.5982
  24        3.9497
  25        4.3161
  26        4.6012
  27        4.6637
  28        4.6637
  29        4.9557
  30        5.0541
  31        5.0541
  32        5.3741
  33        5.5180
  34        5.8646
  35        6.1125
  36        6.1125
  37        6.4794
  38        6.4794
  39        6.7380
  40        6.7380
  41        6.8645
  42        6.9056
  43        7.0893
  44        7.0893
  45        7.2064
  46        7.2531
  47        7.5308
  48        7.5308
  49        7.7732
  50        8.1157
  51        8.2965
  52        8.3773
  53        8.5353
  54        8.6446
  55        8.7397
  56        9.3413
  57        9.5552
  58        9.7390
  59        9.8217
  60        9.9211
  61        9.9211
  62       10.1365
  63       10.2933
  64       10.2933
  65       10.3869
  66       10.5906
  67       10.5906
  68       10.7354
 
  0.5000000E+00  0.1666667E+00  0.0000000E+00  0.2314815E-02
   1       -2.4962
   2       -2.4933
   3       -0.9972
   4       -0.9943
   5       -0.2543
   6       -0.2531
   7       -0.2514
   8       -0.2502
   9        0.4855
  10        0.4884
  11        1.2216
  12        1.2228
  13        1.2245
  14        1.2257
  15        1.9480
  16        1.9493
  17        2.6804
  18        2.6817
  19        2.6834
  20        2.6846
  21        3.3994
  22        3.4008
  23        4.1180
  24        4.1183
  25        4.1193
  26        4.1196
  27        4.7623
  28        4.7653
  29        4.8326
  30        4.8339
  31        5.5697
  32        5.5699
  33        5.5712
  34        5.5713
  35        5.6753
  36        5.6784
  37        6.8965
  38        6.8978
  39        6.8996
  40        6.9008
  41        6.9919
  42        6.9921
  43        6.9934
  44        6.9936
  45        7.0234
  46        7.0262
  47        7.0633
  48        7.0664
  49        7.9302
  50        7.9331
  51        8.4545
  52        8.4576
  53        8.5424
  54        8.5452
  55        9.0277
  56        9.0295
  57        9.8484
  58        9.8507
  59        9.9285
  60        9.9316
  61       10.0935
  62       10.0943
  63       10.0966
  64       10.0973
  65       10.6755
  66       10.6768
  67       11.0942
  68       11.0960
 
  0.0000000E+00  0.2500000E+00  0.0000000E+00  0.2314815E-02
   1       -2.9823
   2       -1.8526
   3       -0.7349
   4       -0.7320
   5       -0.7320
   6       -0.7292
   7        0.3768
   8        0.3789
   9        0.3799
  10        0.3799
  11        0.3828
  12        1.4809
  13        1.4819
  14        1.4842
  15        1.4852
  16        2.5730
  17        2.5751
  18        2.5755
  19        2.5763
  20        2.5764
  21        2.5782
  22        2.5783
  23        2.5800
  24        3.6251
  25        4.7563
  26        4.7573
  27        4.7597
  28        4.7607
  29        5.2294
  30        5.2294
  31        5.7555
  32        5.7586
  33        5.7586
  34        5.7616
  35        6.2692
  36        6.2692
  37        6.5661
  38        6.5662
  39        7.3083
  40        7.3110
  41        7.3110
  42        7.3137
  43        7.6170
  44        7.6170
  45        7.9015
  46        7.9028
  47        7.9051
  48        7.9063
  49        8.1493
  50        8.3513
  51        8.3544
  52        8.3544
  53        8.3545
  54        8.3546
  55        8.3576
  56        8.7300
  57        8.7323
  58        8.7323
  59        8.7347
  60        9.8649
  61        9.8671
  62        9.8672
  63        9.8694
  64        9.9740
  65        9.9741
  66       10.4150
  67       10.4207
  68       10.4330
 