 vasp.4.6.28 25Jul05 complex 
 executed on             LinuxIFC date 2016.11.11  17:41:14
 running on    4 nodes
 distr:  one band on    1 nodes,    4 groups


--------------------------------------------------------------------------------------------------------


 INCAR:
 POTCAR:   PAW_PBE Al 04Jan2001                   
 POTCAR:   PAW_PBE Al 04Jan2001                   
   VRHFIN =Al: s2p1                                                             
   LEXCH  = PE                                                                  
   EATOM  =    53.5387 eV,    3.9350 Ry                                         
                                                                                
   TITEL  = PAW_PBE Al 04Jan2001                                                
   LULTRA =        F    use ultrasoft PP ?                                      
   IUNSCR =        1    unscreen: 0-lin 1-nonlin 2-no                           
   RPACOR =    1.500    partial core radius                                     
   POMASS =   26.982; ZVAL   =    3.000    mass and valenz                      
   RCORE  =    1.900    outmost cutoff radius                                   
   RWIGS  =    2.650; RWIGS  =    1.402    wigner-seitz radius (au A)           
   ENMAX  =  240.300; ENMIN  =  180.225 eV                                      
   ICORE  =        2    local potential                                         
   LCOR   =        T    correct aug charges                                     
   LPAW   =        T    paw PP                                                  
   EAUG   =  291.052                                                            
   DEXC   =    -.041                                                            
   RMAX   =    2.974    core radius for proj-oper                               
   RAUG   =    1.300    factor for augmentation sphere                          
   RDEP   =    1.966    radius for radial grids                                 
   QCUT   =   -4.203; QGAM   =    8.405    optimization parameters              
                                                                                
   Description                                                                  
     l     E      TYP  RCUT    TYP  RCUT                                        
     0   .000     23  1.900                                                     
     0   .000     23  1.900                                                     
     1   .000     23  1.900                                                     
     1  1.000     23  1.900                                                     
     2   .000      7  1.900                                                     
  local pseudopotential read in
  partial core-charges read in
  atomic valenz-charges read in
  non local Contribution for L=           0  read in
    real space projection operators read in
  non local Contribution for L=           0  read in
    real space projection operators read in
  non local Contribution for L=           1  read in
    real space projection operators read in
  non local Contribution for L=           1  read in
    real space projection operators read in
    PAW grid and wavefunctions read in
 
   number of l-projection  operators is LMAX  =           4
   number of lm-projection operators is LMMAX =           8
 

 ----------------------------------------------------------------------------- 
|                                                                             |
|  ADVICE TO THIS USER RUNNING 'VASP/VAMP'   (HEAR YOUR MASTER'S VOICE ...):  |
|                                                                             |
|      You have a (more or less) 'large supercell' and for larger cells       |
|      it might be more efficient to use real space projection operators      |
|      So try LREAL= Auto  in the INCAR   file.                               |
|      Mind: If you want to do an extremely accurate calculations keep the    |
|      reciprocal projection scheme          (i.e. LREAL=.FALSE.)             |
|                                                                             |
 ----------------------------------------------------------------------------- 

 PAW_PBE Al 04Jan2001                   :
 energy of atom  1       EATOM=  -53.5387
 kinetic energy error for atom=    0.0001 (will be added to EATOM!!)
 
 EXHCAR: internal setup
 exchange correlation table for  LEXCH =        8
   RHO(1)=    0.500       N(1)  =     2000
   RHO(2)=  100.500       N(2)  =     4000
 
 POSCAR: Al                                      
  positions in direct lattice
  No initial velocities read in
 


--------------------------------------------------------------------------------------------------------


 ion  position               nearest neighbor table
   1  0.251  0.250  0.000-  18 2.85  22 2.85  26 2.85  28 2.85   9 2.85  11 2.85  13 2.85  15 2.85
                            25 2.86  21 2.86  27 2.86  17 2.86
   2  0.750  0.250  0.000-  10 2.85  12 2.85  14 2.85  16 2.85  17 2.85  18 2.85  21 2.85  22 2.85
                            25 2.85  26 2.85  27 2.85  28 2.85
   3  0.250  0.750  0.000-   9 2.85  11 2.85  13 2.85  15 2.85  19 2.85  20 2.85  23 2.85  24 2.85
                            25 2.85  26 2.85  27 2.85  28 2.85
   4  0.750  0.750  0.000-  10 2.85  12 2.85  14 2.85  16 2.85  19 2.85  20 2.85  23 2.85  24 2.85
                            25 2.85  26 2.85  27 2.85  28 2.85
   5  0.250  0.250  0.500-   9 2.85  11 2.85  13 2.85  15 2.85  17 2.85  18 2.85  21 2.85  22 2.85
                            29 2.85  30 2.85  31 2.85  32 2.85
   6  0.750  0.250  0.500-  10 2.85  12 2.85  14 2.85  16 2.85  17 2.85  18 2.85  21 2.85  22 2.85
                            29 2.85  30 2.85  31 2.85  32 2.85
   7  0.250  0.750  0.500-   9 2.85  11 2.85  13 2.85  15 2.85  19 2.85  20 2.85  23 2.85  24 2.85
                            29 2.85  30 2.85  31 2.85  32 2.85
   8  0.750  0.750  0.500-  10 2.85  12 2.85  14 2.85  16 2.85  19 2.85  20 2.85  23 2.85  24 2.85
                            29 2.85  30 2.85  31 2.85  32 2.85
   9  0.250  0.000  0.250-   3 2.85   5 2.85   7 2.85  17 2.85  18 2.85  19 2.85  20 2.85  25 2.85
                            26 2.85  29 2.85  30 2.85   1 2.85
  10  0.750  0.000  0.250-   2 2.85   4 2.85   6 2.85   8 2.85  17 2.85  18 2.85  19 2.85  20 2.85
                            25 2.85  26 2.85  29 2.85  30 2.85
  11  0.250  0.500  0.250-   3 2.85   5 2.85   7 2.85  17 2.85  18 2.85  19 2.85  20 2.85  27 2.85
                            28 2.85  31 2.85  32 2.85   1 2.85
  12  0.750  0.500  0.250-   2 2.85   4 2.85   6 2.85   8 2.85  17 2.85  18 2.85  19 2.85  20 2.85
                            27 2.85  28 2.85  31 2.85  32 2.85
  13  0.250  0.000  0.750-   3 2.85   5 2.85   7 2.85  21 2.85  22 2.85  23 2.85  24 2.85  25 2.85
                            26 2.85  29 2.85  30 2.85   1 2.85
  14  0.750  0.000  0.750-   2 2.85   4 2.85   6 2.85   8 2.85  21 2.85  22 2.85  23 2.85  24 2.85
                            25 2.85  26 2.85  29 2.85  30 2.85
  15  0.250  0.500  0.750-   3 2.85   5 2.85   7 2.85  21 2.85  22 2.85  23 2.85  24 2.85  27 2.85
                            28 2.85  31 2.85  32 2.85   1 2.85
  16  0.750  0.500  0.750-   2 2.85   4 2.85   6 2.85   8 2.85  21 2.85  22 2.85  23 2.85  24 2.85
                            27 2.85  28 2.85  31 2.85  32 2.85
  17  0.000  0.250  0.250-   2 2.85   5 2.85   6 2.85   9 2.85  10 2.85  11 2.85  12 2.85  25 2.85
                            27 2.85  29 2.85  31 2.85   1 2.86
  18  0.500  0.250  0.250-   1 2.85   2 2.85   5 2.85   6 2.85   9 2.85  10 2.85  11 2.85  12 2.85
                            26 2.85  28 2.85  30 2.85  32 2.85
  19  0.000  0.750  0.250-   3 2.85   4 2.85   7 2.85   8 2.85   9 2.85  10 2.85  11 2.85  12 2.85
                            25 2.85  27 2.85  29 2.85  31 2.85
  20  0.500  0.750  0.250-   3 2.85   4 2.85   7 2.85   8 2.85   9 2.85  10 2.85  11 2.85  12 2.85
                            26 2.85  28 2.85  30 2.85  32 2.85
  21  0.000  0.250  0.750-   2 2.85   5 2.85   6 2.85  13 2.85  14 2.85  15 2.85  16 2.85  25 2.85
                            27 2.85  29 2.85  31 2.85   1 2.86
  22  0.500  0.250  0.750-   1 2.85   2 2.85   5 2.85   6 2.85  13 2.85  14 2.85  15 2.85  16 2.85
                            26 2.85  28 2.85  30 2.85  32 2.85
  23  0.000  0.750  0.750-   3 2.85   4 2.85   7 2.85   8 2.85  13 2.85  14 2.85  15 2.85  16 2.85
                            25 2.85  27 2.85  29 2.85  31 2.85
  24  0.500  0.750  0.750-   3 2.85   4 2.85   7 2.85   8 2.85  13 2.85  14 2.85  15 2.85  16 2.85
                            26 2.85  28 2.85  30 2.85  32 2.85
  25  0.000  0.000  0.000-   2 2.85   3 2.85   4 2.85   9 2.85  10 2.85  13 2.85  14 2.85  17 2.85
                            19 2.85  21 2.85  23 2.85   1 2.86
  26  0.500  0.000  0.000-   1 2.85   2 2.85   3 2.85   4 2.85   9 2.85  10 2.85  13 2.85  14 2.85
                            18 2.85  20 2.85  22 2.85  24 2.85
  27  0.000  0.500  0.000-   2 2.85   3 2.85   4 2.85  11 2.85  12 2.85  15 2.85  16 2.85  17 2.85
                            19 2.85  21 2.85  23 2.85   1 2.86
  28  0.500  0.500  0.000-   1 2.85   2 2.85   3 2.85   4 2.85  11 2.85  12 2.85  15 2.85  16 2.85
                            18 2.85  20 2.85  22 2.85  24 2.85
  29  0.000  0.000  0.500-   5 2.85   6 2.85   7 2.85   8 2.85   9 2.85  10 2.85  13 2.85  14 2.85
                            17 2.85  19 2.85  21 2.85  23 2.85
  30  0.500  0.000  0.500-   5 2.85   6 2.85   7 2.85   8 2.85   9 2.85  10 2.85  13 2.85  14 2.85
                            18 2.85  20 2.85  22 2.85  24 2.85
  31  0.000  0.500  0.500-   5 2.85   6 2.85   7 2.85   8 2.85  11 2.85  12 2.85  15 2.85  16 2.85
                            17 2.85  19 2.85  21 2.85  23 2.85
  32  0.500  0.500  0.500-   5 2.85   6 2.85   7 2.85   8 2.85  11 2.85  12 2.85  15 2.85  16 2.85
                            18 2.85  20 2.85  22 2.85  24 2.85
 
  LATTYP: Found a simple cubic cell.
 ALAT       =     8.0746127393
  
  Lattice vectors:
  
 A1 = (   8.0746127393,   0.0000000000,   0.0000000000)
 A2 = (   0.0000000000,   8.0746127393,   0.0000000000)
 A3 = (   0.0000000000,   0.0000000000,   8.0746127393)
 Subroutine PRICEL returns:
 Original cell was already a primitive cell.
 

Analysis of symmetry for initial positions (statically):

 Routine SETGRP: Setting up the symmetry group for a 
 simple cubic supercell.


 Subroutine GETGRP returns: Found  8 space group operations
 (whereof  2 operations were pure point group operations)
 out of a pool of 48 trial point group operations.


The static configuration has the point symmetry C_1h.
 The point group associated with its full space group is C_4v.

Analysis of symmetry for dynamics (positions and initial velocities):

 Subroutine DYNSYM returns: Found  8 space group operations
 (whereof  2 operations were pure point group operations)
 out of a pool of  8 trial space group operations
 (whereof  2 operations were pure point group operations)
 and found also     1 'primitive' translations


The dynamic configuration has the point symmetry C_1h.
 The point group associated with its full space group is C_4v.
 
 
 KPOINTS: Automatic mesh                          

Automatic generation of k-mesh.
 
 Subroutine IBZKPT returns following result:
 ===========================================
 
 Found    196 irreducible k-points:
 
 Following reciprocal coordinates:
            Coordinates               Weight
  0.000000  0.000000  0.000000      1.000000
  0.083333  0.000000  0.000000      2.000000
  0.166667  0.000000  0.000000      2.000000
  0.250000  0.000000  0.000000      2.000000
  0.333333  0.000000  0.000000      2.000000
  0.416667  0.000000  0.000000      2.000000
  0.500000  0.000000  0.000000      1.000000
  0.000000  0.083333  0.000000      4.000000
  0.083333  0.083333  0.000000      8.000000
  0.166667  0.083333  0.000000      8.000000
  0.250000  0.083333  0.000000      8.000000
  0.333333  0.083333  0.000000      8.000000
  0.416667  0.083333  0.000000      8.000000
  0.500000  0.083333  0.000000      4.000000
  0.000000  0.166667  0.000000      4.000000
  0.083333  0.166667  0.000000      8.000000
  0.166667  0.166667  0.000000      8.000000
  0.250000  0.166667  0.000000      8.000000
  0.333333  0.166667  0.000000      8.000000
  0.416667  0.166667  0.000000      8.000000
  0.500000  0.166667  0.000000      4.000000
  0.000000  0.250000  0.000000      4.000000
  0.083333  0.250000  0.000000      8.000000
  0.166667  0.250000  0.000000      8.000000
  0.250000  0.250000  0.000000      8.000000
  0.333333  0.250000  0.000000      8.000000
  0.416667  0.250000  0.000000      8.000000
  0.500000  0.250000  0.000000      4.000000
  0.000000  0.333333  0.000000      4.000000
  0.083333  0.333333  0.000000      8.000000
  0.166667  0.333333  0.000000      8.000000
  0.250000  0.333333  0.000000      8.000000
  0.333333  0.333333  0.000000      8.000000
  0.416667  0.333333  0.000000      8.000000
  0.500000  0.333333  0.000000      4.000000
  0.000000  0.416667  0.000000      4.000000
  0.083333  0.416667  0.000000      8.000000
  0.166667  0.416667  0.000000      8.000000
  0.250000  0.416667  0.000000      8.000000
  0.333333  0.416667  0.000000      8.000000
  0.416667  0.416667  0.000000      8.000000
  0.500000  0.416667  0.000000      4.000000
  0.000000  0.500000  0.000000      2.000000
  0.083333  0.500000  0.000000      4.000000
  0.166667  0.500000  0.000000      4.000000
  0.250000  0.500000  0.000000      4.000000
  0.333333  0.500000  0.000000      4.000000
  0.416667  0.500000  0.000000      4.000000
  0.500000  0.500000  0.000000      2.000000
  0.000000  0.083333  0.083333      4.000000
  0.083333  0.083333  0.083333      8.000000
  0.166667  0.083333  0.083333      8.000000
  0.250000  0.083333  0.083333      8.000000
  0.333333  0.083333  0.083333      8.000000
  0.416667  0.083333  0.083333      8.000000
  0.500000  0.083333  0.083333      4.000000
  0.000000  0.166667  0.083333      8.000000
  0.083333  0.166667  0.083333     16.000000
  0.166667  0.166667  0.083333     16.000000
  0.250000  0.166667  0.083333     16.000000
  0.333333  0.166667  0.083333     16.000000
  0.416667  0.166667  0.083333     16.000000
  0.500000  0.166667  0.083333      8.000000
  0.000000  0.250000  0.083333      8.000000
  0.083333  0.250000  0.083333     16.000000
  0.166667  0.250000  0.083333     16.000000
  0.250000  0.250000  0.083333     16.000000
  0.333333  0.250000  0.083333     16.000000
  0.416667  0.250000  0.083333     16.000000
  0.500000  0.250000  0.083333      8.000000
  0.000000  0.333333  0.083333      8.000000
  0.083333  0.333333  0.083333     16.000000
  0.166667  0.333333  0.083333     16.000000
  0.250000  0.333333  0.083333     16.000000
  0.333333  0.333333  0.083333     16.000000
  0.416667  0.333333  0.083333     16.000000
  0.500000  0.333333  0.083333      8.000000
  0.000000  0.416667  0.083333      8.000000
  0.083333  0.416667  0.083333     16.000000
  0.166667  0.416667  0.083333     16.000000
  0.250000  0.416667  0.083333     16.000000
  0.333333  0.416667  0.083333     16.000000
  0.416667  0.416667  0.083333     16.000000
  0.500000  0.416667  0.083333      8.000000
  0.000000  0.500000  0.083333      4.000000
  0.083333  0.500000  0.083333      8.000000
  0.166667  0.500000  0.083333      8.000000
  0.250000  0.500000  0.083333      8.000000
  0.333333  0.500000  0.083333      8.000000
  0.416667  0.500000  0.083333      8.000000
  0.500000  0.500000  0.083333      4.000000
  0.000000  0.166667  0.166667      4.000000
  0.083333  0.166667  0.166667      8.000000
  0.166667  0.166667  0.166667      8.000000
  0.250000  0.166667  0.166667      8.000000
  0.333333  0.166667  0.166667      8.000000
  0.416667  0.166667  0.166667      8.000000
  0.500000  0.166667  0.166667      4.000000
  0.000000  0.250000  0.166667      8.000000
  0.083333  0.250000  0.166667     16.000000
  0.166667  0.250000  0.166667     16.000000
  0.250000  0.250000  0.166667     16.000000
  0.333333  0.250000  0.166667     16.000000
  0.416667  0.250000  0.166667     16.000000
  0.500000  0.250000  0.166667      8.000000
  0.000000  0.333333  0.166667      8.000000
  0.083333  0.333333  0.166667     16.000000
  0.166667  0.333333  0.166667     16.000000
  0.250000  0.333333  0.166667     16.000000
  0.333333  0.333333  0.166667     16.000000
  0.416667  0.333333  0.166667     16.000000
  0.500000  0.333333  0.166667      8.000000
  0.000000  0.416667  0.166667      8.000000
  0.083333  0.416667  0.166667     16.000000
  0.166667  0.416667  0.166667     16.000000
  0.250000  0.416667  0.166667     16.000000
  0.333333  0.416667  0.166667     16.000000
  0.416667  0.416667  0.166667     16.000000
  0.500000  0.416667  0.166667      8.000000
  0.000000  0.500000  0.166667      4.000000
  0.083333  0.500000  0.166667      8.000000
  0.166667  0.500000  0.166667      8.000000
  0.250000  0.500000  0.166667      8.000000
  0.333333  0.500000  0.166667      8.000000
  0.416667  0.500000  0.166667      8.000000
  0.500000  0.500000  0.166667      4.000000
  0.000000  0.250000  0.250000      4.000000
  0.083333  0.250000  0.250000      8.000000
  0.166667  0.250000  0.250000      8.000000
  0.250000  0.250000  0.250000      8.000000
  0.333333  0.250000  0.250000      8.000000
  0.416667  0.250000  0.250000      8.000000
  0.500000  0.250000  0.250000      4.000000
  0.000000  0.333333  0.250000      8.000000
  0.083333  0.333333  0.250000     16.000000
  0.166667  0.333333  0.250000     16.000000
  0.250000  0.333333  0.250000     16.000000
  0.333333  0.333333  0.250000     16.000000
  0.416667  0.333333  0.250000     16.000000
  0.500000  0.333333  0.250000      8.000000
  0.000000  0.416667  0.250000      8.000000
  0.083333  0.416667  0.250000     16.000000
  0.166667  0.416667  0.250000     16.000000
  0.250000  0.416667  0.250000     16.000000
  0.333333  0.416667  0.250000     16.000000
  0.416667  0.416667  0.250000     16.000000
  0.500000  0.416667  0.250000      8.000000
  0.000000  0.500000  0.250000      4.000000
  0.083333  0.500000  0.250000      8.000000
  0.166667  0.500000  0.250000      8.000000
  0.250000  0.500000  0.250000      8.000000
  0.333333  0.500000  0.250000      8.000000
  0.416667  0.500000  0.250000      8.000000
  0.500000  0.500000  0.250000      4.000000
  0.000000  0.333333  0.333333      4.000000
  0.083333  0.333333  0.333333      8.000000
  0.166667  0.333333  0.333333      8.000000
  0.250000  0.333333  0.333333      8.000000
  0.333333  0.333333  0.333333      8.000000
  0.416667  0.333333  0.333333      8.000000
  0.500000  0.333333  0.333333      4.000000
  0.000000  0.416667  0.333333      8.000000
  0.083333  0.416667  0.333333     16.000000
  0.166667  0.416667  0.333333     16.000000
  0.250000  0.416667  0.333333     16.000000
  0.333333  0.416667  0.333333     16.000000
  0.416667  0.416667  0.333333     16.000000
  0.500000  0.416667  0.333333      8.000000
  0.000000  0.500000  0.333333      4.000000
  0.083333  0.500000  0.333333      8.000000
  0.166667  0.500000  0.333333      8.000000
  0.250000  0.500000  0.333333      8.000000
  0.333333  0.500000  0.333333      8.000000
  0.416667  0.500000  0.333333      8.000000
  0.500000  0.500000  0.333333      4.000000
  0.000000  0.416667  0.416667      4.000000
  0.083333  0.416667  0.416667      8.000000
  0.166667  0.416667  0.416667      8.000000
  0.250000  0.416667  0.416667      8.000000
  0.333333  0.416667  0.416667      8.000000
  0.416667  0.416667  0.416667      8.000000
  0.500000  0.416667  0.416667      4.000000
  0.000000  0.500000  0.416667      4.000000
  0.083333  0.500000  0.416667      8.000000
  0.166667  0.500000  0.416667      8.000000
  0.250000  0.500000  0.416667      8.000000
  0.333333  0.500000  0.416667      8.000000
  0.416667  0.500000  0.416667      8.000000
  0.500000  0.500000  0.416667      4.000000
  0.000000  0.500000  0.500000      1.000000
  0.083333  0.500000  0.500000      2.000000
  0.166667  0.500000  0.500000      2.000000
  0.250000  0.500000  0.500000      2.000000
  0.333333  0.500000  0.500000      2.000000
  0.416667  0.500000  0.500000      2.000000
  0.500000  0.500000  0.500000      1.000000
 
 Following cartesian coordinates:
            Coordinates               Weight
  0.000000  0.000000  0.000000      1.000000
  0.010320  0.000000  0.000000      2.000000
  0.020641  0.000000  0.000000      2.000000
  0.030961  0.000000  0.000000      2.000000
  0.041282  0.000000  0.000000      2.000000
  0.051602  0.000000  0.000000      2.000000
  0.061922  0.000000  0.000000      1.000000
  0.000000  0.010320  0.000000      4.000000
  0.010320  0.010320  0.000000      8.000000
  0.020641  0.010320  0.000000      8.000000
  0.030961  0.010320  0.000000      8.000000
  0.041282  0.010320  0.000000      8.000000
  0.051602  0.010320  0.000000      8.000000
  0.061922  0.010320  0.000000      4.000000
  0.000000  0.020641  0.000000      4.000000
  0.010320  0.020641  0.000000      8.000000
  0.020641  0.020641  0.000000      8.000000
  0.030961  0.020641  0.000000      8.000000
  0.041282  0.020641  0.000000      8.000000
  0.051602  0.020641  0.000000      8.000000
  0.061922  0.020641  0.000000      4.000000
  0.000000  0.030961  0.000000      4.000000
  0.010320  0.030961  0.000000      8.000000
  0.020641  0.030961  0.000000      8.000000
  0.030961  0.030961  0.000000      8.000000
  0.041282  0.030961  0.000000      8.000000
  0.051602  0.030961  0.000000      8.000000
  0.061922  0.030961  0.000000      4.000000
  0.000000  0.041282  0.000000      4.000000
  0.010320  0.041282  0.000000      8.000000
  0.020641  0.041282  0.000000      8.000000
  0.030961  0.041282  0.000000      8.000000
  0.041282  0.041282  0.000000      8.000000
  0.051602  0.041282  0.000000      8.000000
  0.061922  0.041282  0.000000      4.000000
  0.000000  0.051602  0.000000      4.000000
  0.010320  0.051602  0.000000      8.000000
  0.020641  0.051602  0.000000      8.000000
  0.030961  0.051602  0.000000      8.000000
  0.041282  0.051602  0.000000      8.000000
  0.051602  0.051602  0.000000      8.000000
  0.061922  0.051602  0.000000      4.000000
  0.000000  0.061922  0.000000      2.000000
  0.010320  0.061922  0.000000      4.000000
  0.020641  0.061922  0.000000      4.000000
  0.030961  0.061922  0.000000      4.000000
  0.041282  0.061922  0.000000      4.000000
  0.051602  0.061922  0.000000      4.000000
  0.061922  0.061922  0.000000      2.000000
  0.000000  0.010320  0.010320      4.000000
  0.010320  0.010320  0.010320      8.000000
  0.020641  0.010320  0.010320      8.000000
  0.030961  0.010320  0.010320      8.000000
  0.041282  0.010320  0.010320      8.000000
  0.051602  0.010320  0.010320      8.000000
  0.061922  0.010320  0.010320      4.000000
  0.000000  0.020641  0.010320      8.000000
  0.010320  0.020641  0.010320     16.000000
  0.020641  0.020641  0.010320     16.000000
  0.030961  0.020641  0.010320     16.000000
  0.041282  0.020641  0.010320     16.000000
  0.051602  0.020641  0.010320     16.000000
  0.061922  0.020641  0.010320      8.000000
  0.000000  0.030961  0.010320      8.000000
  0.010320  0.030961  0.010320     16.000000
  0.020641  0.030961  0.010320     16.000000
  0.030961  0.030961  0.010320     16.000000
  0.041282  0.030961  0.010320     16.000000
  0.051602  0.030961  0.010320     16.000000
  0.061922  0.030961  0.010320      8.000000
  0.000000  0.041282  0.010320      8.000000
  0.010320  0.041282  0.010320     16.000000
  0.020641  0.041282  0.010320     16.000000
  0.030961  0.041282  0.010320     16.000000
  0.041282  0.041282  0.010320     16.000000
  0.051602  0.041282  0.010320     16.000000
  0.061922  0.041282  0.010320      8.000000
  0.000000  0.051602  0.010320      8.000000
  0.010320  0.051602  0.010320     16.000000
  0.020641  0.051602  0.010320     16.000000
  0.030961  0.051602  0.010320     16.000000
  0.041282  0.051602  0.010320     16.000000
  0.051602  0.051602  0.010320     16.000000
  0.061922  0.051602  0.010320      8.000000
  0.000000  0.061922  0.010320      4.000000
  0.010320  0.061922  0.010320      8.000000
  0.020641  0.061922  0.010320      8.000000
  0.030961  0.061922  0.010320      8.000000
  0.041282  0.061922  0.010320      8.000000
  0.051602  0.061922  0.010320      8.000000
  0.061922  0.061922  0.010320      4.000000
  0.000000  0.020641  0.020641      4.000000
  0.010320  0.020641  0.020641      8.000000
  0.020641  0.020641  0.020641      8.000000
  0.030961  0.020641  0.020641      8.000000
  0.041282  0.020641  0.020641      8.000000
  0.051602  0.020641  0.020641      8.000000
  0.061922  0.020641  0.020641      4.000000
  0.000000  0.030961  0.020641      8.000000
  0.010320  0.030961  0.020641     16.000000
  0.020641  0.030961  0.020641     16.000000
  0.030961  0.030961  0.020641     16.000000
  0.041282  0.030961  0.020641     16.000000
  0.051602  0.030961  0.020641     16.000000
  0.061922  0.030961  0.020641      8.000000
  0.000000  0.041282  0.020641      8.000000
  0.010320  0.041282  0.020641     16.000000
  0.020641  0.041282  0.020641     16.000000
  0.030961  0.041282  0.020641     16.000000
  0.041282  0.041282  0.020641     16.000000
  0.051602  0.041282  0.020641     16.000000
  0.061922  0.041282  0.020641      8.000000
  0.000000  0.051602  0.020641      8.000000
  0.010320  0.051602  0.020641     16.000000
  0.020641  0.051602  0.020641     16.000000
  0.030961  0.051602  0.020641     16.000000
  0.041282  0.051602  0.020641     16.000000
  0.051602  0.051602  0.020641     16.000000
  0.061922  0.051602  0.020641      8.000000
  0.000000  0.061922  0.020641      4.000000
  0.010320  0.061922  0.020641      8.000000
  0.020641  0.061922  0.020641      8.000000
  0.030961  0.061922  0.020641      8.000000
  0.041282  0.061922  0.020641      8.000000
  0.051602  0.061922  0.020641      8.000000
  0.061922  0.061922  0.020641      4.000000
  0.000000  0.030961  0.030961      4.000000
  0.010320  0.030961  0.030961      8.000000
  0.020641  0.030961  0.030961      8.000000
  0.030961  0.030961  0.030961      8.000000
  0.041282  0.030961  0.030961      8.000000
  0.051602  0.030961  0.030961      8.000000
  0.061922  0.030961  0.030961      4.000000
  0.000000  0.041282  0.030961      8.000000
  0.010320  0.041282  0.030961     16.000000
  0.020641  0.041282  0.030961     16.000000
  0.030961  0.041282  0.030961     16.000000
  0.041282  0.041282  0.030961     16.000000
  0.051602  0.041282  0.030961     16.000000
  0.061922  0.041282  0.030961      8.000000
  0.000000  0.051602  0.030961      8.000000
  0.010320  0.051602  0.030961     16.000000
  0.020641  0.051602  0.030961     16.000000
  0.030961  0.051602  0.030961     16.000000
  0.041282  0.051602  0.030961     16.000000
  0.051602  0.051602  0.030961     16.000000
  0.061922  0.051602  0.030961      8.000000
  0.000000  0.061922  0.030961      4.000000
  0.010320  0.061922  0.030961      8.000000
  0.020641  0.061922  0.030961      8.000000
  0.030961  0.061922  0.030961      8.000000
  0.041282  0.061922  0.030961      8.000000
  0.051602  0.061922  0.030961      8.000000
  0.061922  0.061922  0.030961      4.000000
  0.000000  0.041282  0.041282      4.000000
  0.010320  0.041282  0.041282      8.000000
  0.020641  0.041282  0.041282      8.000000
  0.030961  0.041282  0.041282      8.000000
  0.041282  0.041282  0.041282      8.000000
  0.051602  0.041282  0.041282      8.000000
  0.061922  0.041282  0.041282      4.000000
  0.000000  0.051602  0.041282      8.000000
  0.010320  0.051602  0.041282     16.000000
  0.020641  0.051602  0.041282     16.000000
  0.030961  0.051602  0.041282     16.000000
  0.041282  0.051602  0.041282     16.000000
  0.051602  0.051602  0.041282     16.000000
  0.061922  0.051602  0.041282      8.000000
  0.000000  0.061922  0.041282      4.000000
  0.010320  0.061922  0.041282      8.000000
  0.020641  0.061922  0.041282      8.000000
  0.030961  0.061922  0.041282      8.000000
  0.041282  0.061922  0.041282      8.000000
  0.051602  0.061922  0.041282      8.000000
  0.061922  0.061922  0.041282      4.000000
  0.000000  0.051602  0.051602      4.000000
  0.010320  0.051602  0.051602      8.000000
  0.020641  0.051602  0.051602      8.000000
  0.030961  0.051602  0.051602      8.000000
  0.041282  0.051602  0.051602      8.000000
  0.051602  0.051602  0.051602      8.000000
  0.061922  0.051602  0.051602      4.000000
  0.000000  0.061922  0.051602      4.000000
  0.010320  0.061922  0.051602      8.000000
  0.020641  0.061922  0.051602      8.000000
  0.030961  0.061922  0.051602      8.000000
  0.041282  0.061922  0.051602      8.000000
  0.051602  0.061922  0.051602      8.000000
  0.061922  0.061922  0.051602      4.000000
  0.000000  0.061922  0.061922      1.000000
  0.010320  0.061922  0.061922      2.000000
  0.020641  0.061922  0.061922      2.000000
  0.030961  0.061922  0.061922      2.000000
  0.041282  0.061922  0.061922      2.000000
  0.051602  0.061922  0.061922      2.000000
  0.061922  0.061922  0.061922      1.000000
 


--------------------------------------------------------------------------------------------------------




 Dimension of arrays:
   k-Points           NKPTS =    196   number of bands    NBANDS=     68
   number of dos      NEDOS =    301   number of ions     NIONS =     32
   non local maximal  LDIM  =      4   non local SUM 2l+1 LMDIM =      8
   total plane-waves  NPLWV = 373248
   max r-space proj   IRMAX =      1   max aug-charges    IRDMAX= 220919
   dimension x,y,z NGX =    72 NGY =   72 NGZ =   72
   dimension x,y,z NGXF=   144 NGYF=  144 NGZF=  144
   support grid    NGXF=   288 NGYF=  288 NGZF=  288
   ions per type =              32
 NGX,Y,Z   is equivalent  to a cutoff of  14.82, 14.82, 14.82 a.u.
 NGXF,Y,Z  is equivalent  to a cutoff of  29.65, 29.65, 29.65 a.u.


 I would recommend the setting:
   dimension x,y,z NGX =    72 NGY =   72 NGZ =   72
 SYSTEM =  unknown system                          
 POSCAR =  Al                                      

 Startparameter for this run:
   NWRITE =      2    write-flag & timer
   PREC   = accura    medium, high low
   ISTART =      0    job   : 0-new  1-cont  2-samecut
   ICHARG =      2    charge: 1-file 2-atom 10-const
   ISPIN  =      1    spin polarized calculation?
   LNONCOLLINEAR =      F non collinear calculations
   LSORBIT =      F    spin-orbit coupling
   INIWAV =      1    electr: 0-lowe 1-rand  2-diag
   LASPH  =      F    aspherical Exc in radial PAW
   METAGGA=      F    non-selfconsistent MetaGGA calc.

 Electronic Relaxation 1
   ENCUT  =  750.0 eV  55.12 Ry    7.42 a.u.  18.03 18.03 18.03*2*pi/ulx,y,z
   ENINI  =  750.0     initial cutoff
   ENAUG  =  291.1 eV  augmentation charge cutoff
   NELM   =     60;   NELMIN=  2; NELMDL= -5     # of ELM steps 
   EDIFF  = 0.1E-07   stopping-criterion for ELM
   LREAL  =      F    real-space projection
   LCOMPAT=      F    compatible to vasp.4.4
   LREAL_COMPAT= F    compatible to vasp.4.5.1-3
   GGA_COMPAT  = T    GGA compatible to vasp.4.4-vasp.4.6
   LMAXPAW     = -100 max onsite density
   LMAXMIX     =    2 max onsite mixed and CHGCAR
   VOSKOWN=      0    Vosko Wilk Nusair interpolation
   ROPT   =    0.00000
 Ionic relaxation
   EDIFFG = 0.1E-06   stopping-criterion for IOM
   NSW    =      0    number of steps for IOM
   NBLOCK =      1;   KBLOCK =      1    inner block; outer block 
   IBRION =     -1    ionic relax: 0-MD 1-quasi-New 2-CG
   NFREE  =      0    steps in history (QN), initial steepest desc. (CG)
   ISIF   =      2    stress and relaxation
   IWAVPR =     10    prediction:  0-non 1-charg 2-wave 3-comb
   ISYM   =      2    0-nonsym 1-usesym 2-fastsym
   LCORR  =      T    Harris-Foulkes like correction to forces

   POTIM  =   0.50    time-step for ionic-motion
   TEIN   =    0.0    initial temperature
   TEBEG  =    0.0;   TEEND  =   0.0 temperature during run
   SMASS  =  -3.00    Nose mass-parameter (am)
   estimated Nose-frequenzy (Omega)   =  0.10E-29 period in steps =****** mass=  -0.149E-26a.u.
   NPACO  =    256;   APACO  = 16.0  distance and # of slots for P.C.
   PSTRESS=    0.0 pullay stress

  Mass of Ions in am
   POMASS =  26.98
  Ionic Valenz
   ZVAL   =   3.00
  Atomic Wigner-Seitz radii
   RWIGS  =  -1.00
   NELECT =      96.0000    total number of electrons
   NUPDOWN=      -1.0000    fix difference up-down

 DOS related values:
   EMIN   =  10.00;   EMAX   =-10.00  energy-range for DOS
   ISMEAR =     0;   SIGMA  =   0.01  broadening in eV -4-tet -1-fermi 0-gaus

 Electronic relaxation 2 (details)
   IALGO  =     38    algorithm
   LDIAG  =      T    sub-space diagonalisation
   IMIX   =      4    mixing-type and parameters
     AMIX     =   0.40;   BMIX     =  1.00
     AMIX_MAG =   1.60;   BMIX_MAG =  1.00
     AMIN     =   0.10
     WC   =   100.;   INIMIX=   1;  MIXPRE=   1

 Intra band minimization:
   WEIMIN = 0.0000     energy-eigenvalue tresh-hold
   EBREAK =  0.38E-10  absolut break condition
   DEPER  =   0.30     relativ break condition  

   TIME   =   0.10     timestep for ELM

  volume/ion in A,a.u.               =      16.45       111.02
  Fermi-wavevector in a.u.,eV,Ry     =   0.928347 11.725877  0.861828

 Second variation
   LSECVAR=     F    do a second variation
 
 Write flags
   LWAVE  =      F    write WAVECAR
   LCHARG =      F    write CHGCAR
   LVTOT  =      F    write LOCPOT, local potential
   LELF   =      F    write electronic localiz. function (ELF)
   LORBIT =      0    0 simple, 1 ext, 2 COOP (PROOUT)


 Dipole corrections
   IDIPOL =      0    1-x, 2-y, 3-z
   LDIPOL =      F    correct potential



--------------------------------------------------------------------------------------------------------


 Static calculation
 charge density will be updated during run
 non-spin polarized calculation
 Variant of blocked Davidson
 Davidson routine will perform the subspace rotation
 performe sub-space diagonalisation
    after iterative eigenvector-optimisation
 modified Broyden-mixing scheme, WC =      100.0
 initial mixing is a Kerker type mixing with AMIX =  0.4000 and BMIX =      1.0000
 Hartree-type preconditioning will be used
 using additional bands           20
 reciprocal scheme for non local part
 use partial core corrections
 calculate Harris-corrections to forces 
   (improved forces if not selfconsistent)
 use gradient corrections 
 use of overlap-Matrix (Vanderbilt PP)
 Gauss-broadening in eV      SIGMA  =   0.01


--------------------------------------------------------------------------------------------------------


  energy-cutoff  :      750.00
  volume of cell :      526.46
      direct lattice vectors                 reciprocal lattice vectors
     8.074612739  0.000000000  0.000000000     0.123844949  0.000000000  0.000000000
     0.000000000  8.074612739  0.000000000     0.000000000  0.123844949  0.000000000
     0.000000000  0.000000000  8.074612739     0.000000000  0.000000000  0.123844949

  length of vectors
     8.074612739  8.074612739  8.074612739     0.123844949  0.123844949  0.123844949


 
 k-points in units of 2pi/SCALE and weight: Automatic mesh                          
   0.00000000  0.00000000  0.00000000       0.001
   0.01032041  0.00000000  0.00000000       0.001
   0.02064082  0.00000000  0.00000000       0.001
   0.03096124  0.00000000  0.00000000       0.001
   0.04128165  0.00000000  0.00000000       0.001
   0.05160206  0.00000000  0.00000000       0.001
   0.06192247  0.00000000  0.00000000       0.001
   0.00000000  0.01032041  0.00000000       0.002
   0.01032041  0.01032041  0.00000000       0.005
   0.02064082  0.01032041  0.00000000       0.005
   0.03096124  0.01032041  0.00000000       0.005
   0.04128165  0.01032041  0.00000000       0.005
   0.05160206  0.01032041  0.00000000       0.005
   0.06192247  0.01032041  0.00000000       0.002
   0.00000000  0.02064082  0.00000000       0.002
   0.01032041  0.02064082  0.00000000       0.005
   0.02064082  0.02064082  0.00000000       0.005
   0.03096124  0.02064082  0.00000000       0.005
   0.04128165  0.02064082  0.00000000       0.005
   0.05160206  0.02064082  0.00000000       0.005
   0.06192247  0.02064082  0.00000000       0.002
   0.00000000  0.03096124  0.00000000       0.002
   0.01032041  0.03096124  0.00000000       0.005
   0.02064082  0.03096124  0.00000000       0.005
   0.03096124  0.03096124  0.00000000       0.005
   0.04128165  0.03096124  0.00000000       0.005
   0.05160206  0.03096124  0.00000000       0.005
   0.06192247  0.03096124  0.00000000       0.002
   0.00000000  0.04128165  0.00000000       0.002
   0.01032041  0.04128165  0.00000000       0.005
   0.02064082  0.04128165  0.00000000       0.005
   0.03096124  0.04128165  0.00000000       0.005
   0.04128165  0.04128165  0.00000000       0.005
   0.05160206  0.04128165  0.00000000       0.005
   0.06192247  0.04128165  0.00000000       0.002
   0.00000000  0.05160206  0.00000000       0.002
   0.01032041  0.05160206  0.00000000       0.005
   0.02064082  0.05160206  0.00000000       0.005
   0.03096124  0.05160206  0.00000000       0.005
   0.04128165  0.05160206  0.00000000       0.005
   0.05160206  0.05160206  0.00000000       0.005
   0.06192247  0.05160206  0.00000000       0.002
   0.00000000  0.06192247  0.00000000       0.001
   0.01032041  0.06192247  0.00000000       0.002
   0.02064082  0.06192247  0.00000000       0.002
   0.03096124  0.06192247  0.00000000       0.002
   0.04128165  0.06192247  0.00000000       0.002
   0.05160206  0.06192247  0.00000000       0.002
   0.06192247  0.06192247  0.00000000       0.001
   0.00000000  0.01032041  0.01032041       0.002
   0.01032041  0.01032041  0.01032041       0.005
   0.02064082  0.01032041  0.01032041       0.005
   0.03096124  0.01032041  0.01032041       0.005
   0.04128165  0.01032041  0.01032041       0.005
   0.05160206  0.01032041  0.01032041       0.005
   0.06192247  0.01032041  0.01032041       0.002
   0.00000000  0.02064082  0.01032041       0.005
   0.01032041  0.02064082  0.01032041       0.009
   0.02064082  0.02064082  0.01032041       0.009
   0.03096124  0.02064082  0.01032041       0.009
   0.04128165  0.02064082  0.01032041       0.009
   0.05160206  0.02064082  0.01032041       0.009
   0.06192247  0.02064082  0.01032041       0.005
   0.00000000  0.03096124  0.01032041       0.005
   0.01032041  0.03096124  0.01032041       0.009
   0.02064082  0.03096124  0.01032041       0.009
   0.03096124  0.03096124  0.01032041       0.009
   0.04128165  0.03096124  0.01032041       0.009
   0.05160206  0.03096124  0.01032041       0.009
   0.06192247  0.03096124  0.01032041       0.005
   0.00000000  0.04128165  0.01032041       0.005
   0.01032041  0.04128165  0.01032041       0.009
   0.02064082  0.04128165  0.01032041       0.009
   0.03096124  0.04128165  0.01032041       0.009
   0.04128165  0.04128165  0.01032041       0.009
   0.05160206  0.04128165  0.01032041       0.009
   0.06192247  0.04128165  0.01032041       0.005
   0.00000000  0.05160206  0.01032041       0.005
   0.01032041  0.05160206  0.01032041       0.009
   0.02064082  0.05160206  0.01032041       0.009
   0.03096124  0.05160206  0.01032041       0.009
   0.04128165  0.05160206  0.01032041       0.009
   0.05160206  0.05160206  0.01032041       0.009
   0.06192247  0.05160206  0.01032041       0.005
   0.00000000  0.06192247  0.01032041       0.002
   0.01032041  0.06192247  0.01032041       0.005
   0.02064082  0.06192247  0.01032041       0.005
   0.03096124  0.06192247  0.01032041       0.005
   0.04128165  0.06192247  0.01032041       0.005
   0.05160206  0.06192247  0.01032041       0.005
   0.06192247  0.06192247  0.01032041       0.002
   0.00000000  0.02064082  0.02064082       0.002
   0.01032041  0.02064082  0.02064082       0.005
   0.02064082  0.02064082  0.02064082       0.005
   0.03096124  0.02064082  0.02064082       0.005
   0.04128165  0.02064082  0.02064082       0.005
   0.05160206  0.02064082  0.02064082       0.005
   0.06192247  0.02064082  0.02064082       0.002
   0.00000000  0.03096124  0.02064082       0.005
   0.01032041  0.03096124  0.02064082       0.009
   0.02064082  0.03096124  0.02064082       0.009
   0.03096124  0.03096124  0.02064082       0.009
   0.04128165  0.03096124  0.02064082       0.009
   0.05160206  0.03096124  0.02064082       0.009
   0.06192247  0.03096124  0.02064082       0.005
   0.00000000  0.04128165  0.02064082       0.005
   0.01032041  0.04128165  0.02064082       0.009
   0.02064082  0.04128165  0.02064082       0.009
   0.03096124  0.04128165  0.02064082       0.009
   0.04128165  0.04128165  0.02064082       0.009
   0.05160206  0.04128165  0.02064082       0.009
   0.06192247  0.04128165  0.02064082       0.005
   0.00000000  0.05160206  0.02064082       0.005
   0.01032041  0.05160206  0.02064082       0.009
   0.02064082  0.05160206  0.02064082       0.009
   0.03096124  0.05160206  0.02064082       0.009
   0.04128165  0.05160206  0.02064082       0.009
   0.05160206  0.05160206  0.02064082       0.009
   0.06192247  0.05160206  0.02064082       0.005
   0.00000000  0.06192247  0.02064082       0.002
   0.01032041  0.06192247  0.02064082       0.005
   0.02064082  0.06192247  0.02064082       0.005
   0.03096124  0.06192247  0.02064082       0.005
   0.04128165  0.06192247  0.02064082       0.005
   0.05160206  0.06192247  0.02064082       0.005
   0.06192247  0.06192247  0.02064082       0.002
   0.00000000  0.03096124  0.03096124       0.002
   0.01032041  0.03096124  0.03096124       0.005
   0.02064082  0.03096124  0.03096124       0.005
   0.03096124  0.03096124  0.03096124       0.005
   0.04128165  0.03096124  0.03096124       0.005
   0.05160206  0.03096124  0.03096124       0.005
   0.06192247  0.03096124  0.03096124       0.002
   0.00000000  0.04128165  0.03096124       0.005
   0.01032041  0.04128165  0.03096124       0.009
   0.02064082  0.04128165  0.03096124       0.009
   0.03096124  0.04128165  0.03096124       0.009
   0.04128165  0.04128165  0.03096124       0.009
   0.05160206  0.04128165  0.03096124       0.009
   0.06192247  0.04128165  0.03096124       0.005
   0.00000000  0.05160206  0.03096124       0.005
   0.01032041  0.05160206  0.03096124       0.009
   0.02064082  0.05160206  0.03096124       0.009
   0.03096124  0.05160206  0.03096124       0.009
   0.04128165  0.05160206  0.03096124       0.009
   0.05160206  0.05160206  0.03096124       0.009
   0.06192247  0.05160206  0.03096124       0.005
   0.00000000  0.06192247  0.03096124       0.002
   0.01032041  0.06192247  0.03096124       0.005
   0.02064082  0.06192247  0.03096124       0.005
   0.03096124  0.06192247  0.03096124       0.005
   0.04128165  0.06192247  0.03096124       0.005
   0.05160206  0.06192247  0.03096124       0.005
   0.06192247  0.06192247  0.03096124       0.002
   0.00000000  0.04128165  0.04128165       0.002
   0.01032041  0.04128165  0.04128165       0.005
   0.02064082  0.04128165  0.04128165       0.005
   0.03096124  0.04128165  0.04128165       0.005
   0.04128165  0.04128165  0.04128165       0.005
   0.05160206  0.04128165  0.04128165       0.005
   0.06192247  0.04128165  0.04128165       0.002
   0.00000000  0.05160206  0.04128165       0.005
   0.01032041  0.05160206  0.04128165       0.009
   0.02064082  0.05160206  0.04128165       0.009
   0.03096124  0.05160206  0.04128165       0.009
   0.04128165  0.05160206  0.04128165       0.009
   0.05160206  0.05160206  0.04128165       0.009
   0.06192247  0.05160206  0.04128165       0.005
   0.00000000  0.06192247  0.04128165       0.002
   0.01032041  0.06192247  0.04128165       0.005
   0.02064082  0.06192247  0.04128165       0.005
   0.03096124  0.06192247  0.04128165       0.005
   0.04128165  0.06192247  0.04128165       0.005
   0.05160206  0.06192247  0.04128165       0.005
   0.06192247  0.06192247  0.04128165       0.002
   0.00000000  0.05160206  0.05160206       0.002
   0.01032041  0.05160206  0.05160206       0.005
   0.02064082  0.05160206  0.05160206       0.005
   0.03096124  0.05160206  0.05160206       0.005
   0.04128165  0.05160206  0.05160206       0.005
   0.05160206  0.05160206  0.05160206       0.005
   0.06192247  0.05160206  0.05160206       0.002
   0.00000000  0.06192247  0.05160206       0.002
   0.01032041  0.06192247  0.05160206       0.005
   0.02064082  0.06192247  0.05160206       0.005
   0.03096124  0.06192247  0.05160206       0.005
   0.04128165  0.06192247  0.05160206       0.005
   0.05160206  0.06192247  0.05160206       0.005
   0.06192247  0.06192247  0.05160206       0.002
   0.00000000  0.06192247  0.06192247       0.001
   0.01032041  0.06192247  0.06192247       0.001
   0.02064082  0.06192247  0.06192247       0.001
   0.03096124  0.06192247  0.06192247       0.001
   0.04128165  0.06192247  0.06192247       0.001
   0.05160206  0.06192247  0.06192247       0.001
   0.06192247  0.06192247  0.06192247       0.001
 
 k-points in reciprocal lattice and weights: Automatic mesh                          
   0.00000000  0.00000000  0.00000000       0.001
   0.08333333  0.00000000  0.00000000       0.001
   0.16666667  0.00000000  0.00000000       0.001
   0.25000000  0.00000000  0.00000000       0.001
   0.33333333  0.00000000  0.00000000       0.001
   0.41666667  0.00000000  0.00000000       0.001
   0.50000000  0.00000000  0.00000000       0.001
   0.00000000  0.08333333  0.00000000       0.002
   0.08333333  0.08333333  0.00000000       0.005
   0.16666667  0.08333333  0.00000000       0.005
   0.25000000  0.08333333  0.00000000       0.005
   0.33333333  0.08333333  0.00000000       0.005
   0.41666667  0.08333333  0.00000000       0.005
   0.50000000  0.08333333  0.00000000       0.002
   0.00000000  0.16666667  0.00000000       0.002
   0.08333333  0.16666667  0.00000000       0.005
   0.16666667  0.16666667  0.00000000       0.005
   0.25000000  0.16666667  0.00000000       0.005
   0.33333333  0.16666667  0.00000000       0.005
   0.41666667  0.16666667  0.00000000       0.005
   0.50000000  0.16666667  0.00000000       0.002
   0.00000000  0.25000000  0.00000000       0.002
   0.08333333  0.25000000  0.00000000       0.005
   0.16666667  0.25000000  0.00000000       0.005
   0.25000000  0.25000000  0.00000000       0.005
   0.33333333  0.25000000  0.00000000       0.005
   0.41666667  0.25000000  0.00000000       0.005
   0.50000000  0.25000000  0.00000000       0.002
   0.00000000  0.33333333  0.00000000       0.002
   0.08333333  0.33333333  0.00000000       0.005
   0.16666667  0.33333333  0.00000000       0.005
   0.25000000  0.33333333  0.00000000       0.005
   0.33333333  0.33333333  0.00000000       0.005
   0.41666667  0.33333333  0.00000000       0.005
   0.50000000  0.33333333  0.00000000       0.002
   0.00000000  0.41666667  0.00000000       0.002
   0.08333333  0.41666667  0.00000000       0.005
   0.16666667  0.41666667  0.00000000       0.005
   0.25000000  0.41666667  0.00000000       0.005
   0.33333333  0.41666667  0.00000000       0.005
   0.41666667  0.41666667  0.00000000       0.005
   0.50000000  0.41666667  0.00000000       0.002
   0.00000000  0.50000000  0.00000000       0.001
   0.08333333  0.50000000  0.00000000       0.002
   0.16666667  0.50000000  0.00000000       0.002
   0.25000000  0.50000000  0.00000000       0.002
   0.33333333  0.50000000  0.00000000       0.002
   0.41666667  0.50000000  0.00000000       0.002
   0.50000000  0.50000000  0.00000000       0.001
   0.00000000  0.08333333  0.08333333       0.002
   0.08333333  0.08333333  0.08333333       0.005
   0.16666667  0.08333333  0.08333333       0.005
   0.25000000  0.08333333  0.08333333       0.005
   0.33333333  0.08333333  0.08333333       0.005
   0.41666667  0.08333333  0.08333333       0.005
   0.50000000  0.08333333  0.08333333       0.002
   0.00000000  0.16666667  0.08333333       0.005
   0.08333333  0.16666667  0.08333333       0.009
   0.16666667  0.16666667  0.08333333       0.009
   0.25000000  0.16666667  0.08333333       0.009
   0.33333333  0.16666667  0.08333333       0.009
   0.41666667  0.16666667  0.08333333       0.009
   0.50000000  0.16666667  0.08333333       0.005
   0.00000000  0.25000000  0.08333333       0.005
   0.08333333  0.25000000  0.08333333       0.009
   0.16666667  0.25000000  0.08333333       0.009
   0.25000000  0.25000000  0.08333333       0.009
   0.33333333  0.25000000  0.08333333       0.009
   0.41666667  0.25000000  0.08333333       0.009
   0.50000000  0.25000000  0.08333333       0.005
   0.00000000  0.33333333  0.08333333       0.005
   0.08333333  0.33333333  0.08333333       0.009
   0.16666667  0.33333333  0.08333333       0.009
   0.25000000  0.33333333  0.08333333       0.009
   0.33333333  0.33333333  0.08333333       0.009
   0.41666667  0.33333333  0.08333333       0.009
   0.50000000  0.33333333  0.08333333       0.005
   0.00000000  0.41666667  0.08333333       0.005
   0.08333333  0.41666667  0.08333333       0.009
   0.16666667  0.41666667  0.08333333       0.009
   0.25000000  0.41666667  0.08333333       0.009
   0.33333333  0.41666667  0.08333333       0.009
   0.41666667  0.41666667  0.08333333       0.009
   0.50000000  0.41666667  0.08333333       0.005
   0.00000000  0.50000000  0.08333333       0.002
   0.08333333  0.50000000  0.08333333       0.005
   0.16666667  0.50000000  0.08333333       0.005
   0.25000000  0.50000000  0.08333333       0.005
   0.33333333  0.50000000  0.08333333       0.005
   0.41666667  0.50000000  0.08333333       0.005
   0.50000000  0.50000000  0.08333333       0.002
   0.00000000  0.16666667  0.16666667       0.002
   0.08333333  0.16666667  0.16666667       0.005
   0.16666667  0.16666667  0.16666667       0.005
   0.25000000  0.16666667  0.16666667       0.005
   0.33333333  0.16666667  0.16666667       0.005
   0.41666667  0.16666667  0.16666667       0.005
   0.50000000  0.16666667  0.16666667       0.002
   0.00000000  0.25000000  0.16666667       0.005
   0.08333333  0.25000000  0.16666667       0.009
   0.16666667  0.25000000  0.16666667       0.009
   0.25000000  0.25000000  0.16666667       0.009
   0.33333333  0.25000000  0.16666667       0.009
   0.41666667  0.25000000  0.16666667       0.009
   0.50000000  0.25000000  0.16666667       0.005
   0.00000000  0.33333333  0.16666667       0.005
   0.08333333  0.33333333  0.16666667       0.009
   0.16666667  0.33333333  0.16666667       0.009
   0.25000000  0.33333333  0.16666667       0.009
   0.33333333  0.33333333  0.16666667       0.009
   0.41666667  0.33333333  0.16666667       0.009
   0.50000000  0.33333333  0.16666667       0.005
   0.00000000  0.41666667  0.16666667       0.005
   0.08333333  0.41666667  0.16666667       0.009
   0.16666667  0.41666667  0.16666667       0.009
   0.25000000  0.41666667  0.16666667       0.009
   0.33333333  0.41666667  0.16666667       0.009
   0.41666667  0.41666667  0.16666667       0.009
   0.50000000  0.41666667  0.16666667       0.005
   0.00000000  0.50000000  0.16666667       0.002
   0.08333333  0.50000000  0.16666667       0.005
   0.16666667  0.50000000  0.16666667       0.005
   0.25000000  0.50000000  0.16666667       0.005
   0.33333333  0.50000000  0.16666667       0.005
   0.41666667  0.50000000  0.16666667       0.005
   0.50000000  0.50000000  0.16666667       0.002
   0.00000000  0.25000000  0.25000000       0.002
   0.08333333  0.25000000  0.25000000       0.005
   0.16666667  0.25000000  0.25000000       0.005
   0.25000000  0.25000000  0.25000000       0.005
   0.33333333  0.25000000  0.25000000       0.005
   0.41666667  0.25000000  0.25000000       0.005
   0.50000000  0.25000000  0.25000000       0.002
   0.00000000  0.33333333  0.25000000       0.005
   0.08333333  0.33333333  0.25000000       0.009
   0.16666667  0.33333333  0.25000000       0.009
   0.25000000  0.33333333  0.25000000       0.009
   0.33333333  0.33333333  0.25000000       0.009
   0.41666667  0.33333333  0.25000000       0.009
   0.50000000  0.33333333  0.25000000       0.005
   0.00000000  0.41666667  0.25000000       0.005
   0.08333333  0.41666667  0.25000000       0.009
   0.16666667  0.41666667  0.25000000       0.009
   0.25000000  0.41666667  0.25000000       0.009
   0.33333333  0.41666667  0.25000000       0.009
   0.41666667  0.41666667  0.25000000       0.009
   0.50000000  0.41666667  0.25000000       0.005
   0.00000000  0.50000000  0.25000000       0.002
   0.08333333  0.50000000  0.25000000       0.005
   0.16666667  0.50000000  0.25000000       0.005
   0.25000000  0.50000000  0.25000000       0.005
   0.33333333  0.50000000  0.25000000       0.005
   0.41666667  0.50000000  0.25000000       0.005
   0.50000000  0.50000000  0.25000000       0.002
   0.00000000  0.33333333  0.33333333       0.002
   0.08333333  0.33333333  0.33333333       0.005
   0.16666667  0.33333333  0.33333333       0.005
   0.25000000  0.33333333  0.33333333       0.005
   0.33333333  0.33333333  0.33333333       0.005
   0.41666667  0.33333333  0.33333333       0.005
   0.50000000  0.33333333  0.33333333       0.002
   0.00000000  0.41666667  0.33333333       0.005
   0.08333333  0.41666667  0.33333333       0.009
   0.16666667  0.41666667  0.33333333       0.009
   0.25000000  0.41666667  0.33333333       0.009
   0.33333333  0.41666667  0.33333333       0.009
   0.41666667  0.41666667  0.33333333       0.009
   0.50000000  0.41666667  0.33333333       0.005
   0.00000000  0.50000000  0.33333333       0.002
   0.08333333  0.50000000  0.33333333       0.005
   0.16666667  0.50000000  0.33333333       0.005
   0.25000000  0.50000000  0.33333333       0.005
   0.33333333  0.50000000  0.33333333       0.005
   0.41666667  0.50000000  0.33333333       0.005
   0.50000000  0.50000000  0.33333333       0.002
   0.00000000  0.41666667  0.41666667       0.002
   0.08333333  0.41666667  0.41666667       0.005
   0.16666667  0.41666667  0.41666667       0.005
   0.25000000  0.41666667  0.41666667       0.005
   0.33333333  0.41666667  0.41666667       0.005
   0.41666667  0.41666667  0.41666667       0.005
   0.50000000  0.41666667  0.41666667       0.002
   0.00000000  0.50000000  0.41666667       0.002
   0.08333333  0.50000000  0.41666667       0.005
   0.16666667  0.50000000  0.41666667       0.005
   0.25000000  0.50000000  0.41666667       0.005
   0.33333333  0.50000000  0.41666667       0.005
   0.41666667  0.50000000  0.41666667       0.005
   0.50000000  0.50000000  0.41666667       0.002
   0.00000000  0.50000000  0.50000000       0.001
   0.08333333  0.50000000  0.50000000       0.001
   0.16666667  0.50000000  0.50000000       0.001
   0.25000000  0.50000000  0.50000000       0.001
   0.33333333  0.50000000  0.50000000       0.001
   0.41666667  0.50000000  0.50000000       0.001
   0.50000000  0.50000000  0.50000000       0.001
 
 position of ions in fractional coordinates (direct lattice) 
   0.25123845  0.25000000  0.00000000
   0.75000000  0.25000000  0.00000000
   0.25000000  0.75000000  0.00000000
   0.75000000  0.75000000  0.00000000
   0.25000000  0.25000000  0.50000000
   0.75000000  0.25000000  0.50000000
   0.25000000  0.75000000  0.50000000
   0.75000000  0.75000000  0.50000000
   0.25000000  0.00000000  0.25000000
   0.75000000  0.00000000  0.25000000
   0.25000000  0.50000000  0.25000000
   0.75000000  0.50000000  0.25000000
   0.25000000  0.00000000  0.75000000
   0.75000000  0.00000000  0.75000000
   0.25000000  0.50000000  0.75000000
   0.75000000  0.50000000  0.75000000
   0.00000000  0.25000000  0.25000000
   0.50000000  0.25000000  0.25000000
   0.00000000  0.75000000  0.25000000
   0.50000000  0.75000000  0.25000000
   0.00000000  0.25000000  0.75000000
   0.50000000  0.25000000  0.75000000
   0.00000000  0.75000000  0.75000000
   0.50000000  0.75000000  0.75000000
   0.00000000  0.00000000  0.00000000
   0.50000000  0.00000000  0.00000000
   0.00000000  0.50000000  0.00000000
   0.50000000  0.50000000  0.00000000
   0.00000000  0.00000000  0.50000000
   0.50000000  0.00000000  0.50000000
   0.00000000  0.50000000  0.50000000
   0.50000000  0.50000000  0.50000000
 
 position of ions in cartesian coordinates  (Angst):
   2.02865318  2.01865318  0.00000000
   6.05595955  2.01865318  0.00000000
   2.01865318  6.05595955  0.00000000
   6.05595955  6.05595955  0.00000000
   2.01865318  2.01865318  4.03730637
   6.05595955  2.01865318  4.03730637
   2.01865318  6.05595955  4.03730637
   6.05595955  6.05595955  4.03730637
   2.01865318  0.00000000  2.01865318
   6.05595955  0.00000000  2.01865318
   2.01865318  4.03730637  2.01865318
   6.05595955  4.03730637  2.01865318
   2.01865318  0.00000000  6.05595955
   6.05595955  0.00000000  6.05595955
   2.01865318  4.03730637  6.05595955
   6.05595955  4.03730637  6.05595955
   0.00000000  2.01865318  2.01865318
   4.03730637  2.01865318  2.01865318
   0.00000000  6.05595955  2.01865318
   4.03730637  6.05595955  2.01865318
   0.00000000  2.01865318  6.05595955
   4.03730637  2.01865318  6.05595955
   0.00000000  6.05595955  6.05595955
   4.03730637  6.05595955  6.05595955
   0.00000000  0.00000000  0.00000000
   4.03730637  0.00000000  0.00000000
   0.00000000  4.03730637  0.00000000
   4.03730637  4.03730637  0.00000000
   0.00000000  0.00000000  4.03730637
   4.03730637  0.00000000  4.03730637
   0.00000000  4.03730637  4.03730637
   4.03730637  4.03730637  4.03730637
 


--------------------------------------------------------------------------------------------------------


 k-point  1 :  0.00000.00000.0000  plane waves:  24573
 k-point  2 :  0.08330.00000.0000  plane waves:  24556
 k-point  3 :  0.16670.00000.0000  plane waves:  24552
 k-point  4 :  0.25000.00000.0000  plane waves:  24576
 k-point  5 :  0.33330.00000.0000  plane waves:  24468
 k-point  6 :  0.41670.00000.0000  plane waves:  24516
 k-point  7 :  0.50000.00000.0000  plane waves:  24412
 k-point  8 :  0.00000.08330.0000  plane waves:  24556
 k-point  9 :  0.08330.08330.0000  plane waves:  24537
 k-point 10 :  0.16670.08330.0000  plane waves:  24534
 k-point 11 :  0.25000.08330.0000  plane waves:  24546
 k-point 12 :  0.33330.08330.0000  plane waves:  24527
 k-point 13 :  0.41670.08330.0000  plane waves:  24517
 k-point 14 :  0.50000.08330.0000  plane waves:  24548
 k-point 15 :  0.00000.16670.0000  plane waves:  24552
 k-point 16 :  0.08330.16670.0000  plane waves:  24534
 k-point 17 :  0.16670.16670.0000  plane waves:  24549
 k-point 18 :  0.25000.16670.0000  plane waves:  24567
 k-point 19 :  0.33330.16670.0000  plane waves:  24527
 k-point 20 :  0.41670.16670.0000  plane waves:  24532
 k-point 21 :  0.50000.16670.0000  plane waves:  24550
 k-point 22 :  0.00000.25000.0000  plane waves:  24576
 k-point 23 :  0.08330.25000.0000  plane waves:  24546
 k-point 24 :  0.16670.25000.0000  plane waves:  24567
 k-point 25 :  0.25000.25000.0000  plane waves:  24537
 k-point 26 :  0.33330.25000.0000  plane waves:  24535
 k-point 27 :  0.41670.25000.0000  plane waves:  24548
 k-point 28 :  0.50000.25000.0000  plane waves:  24536
 k-point 29 :  0.00000.33330.0000  plane waves:  24468
 k-point 30 :  0.08330.33330.0000  plane waves:  24527
 k-point 31 :  0.16670.33330.0000  plane waves:  24527
 k-point 32 :  0.25000.33330.0000  plane waves:  24535
 k-point 33 :  0.33330.33330.0000  plane waves:  24554
 k-point 34 :  0.41670.33330.0000  plane waves:  24542
 k-point 35 :  0.50000.33330.0000  plane waves:  24544
 k-point 36 :  0.00000.41670.0000  plane waves:  24516
 k-point 37 :  0.08330.41670.0000  plane waves:  24517
 k-point 38 :  0.16670.41670.0000  plane waves:  24532
 k-point 39 :  0.25000.41670.0000  plane waves:  24548
 k-point 40 :  0.33330.41670.0000  plane waves:  24542
 k-point 41 :  0.41670.41670.0000  plane waves:  24534
 k-point 42 :  0.50000.41670.0000  plane waves:  24538
 k-point 43 :  0.00000.50000.0000  plane waves:  24412
 k-point 44 :  0.08330.50000.0000  plane waves:  24548
 k-point 45 :  0.16670.50000.0000  plane waves:  24550
 k-point 46 :  0.25000.50000.0000  plane waves:  24536
 k-point 47 :  0.33330.50000.0000  plane waves:  24544
 k-point 48 :  0.41670.50000.0000  plane waves:  24538
 k-point 49 :  0.50000.50000.0000  plane waves:  24564
 k-point 50 :  0.00000.08330.0833  plane waves:  24537
 k-point 51 :  0.08330.08330.0833  plane waves:  24513
 k-point 52 :  0.16670.08330.0833  plane waves:  24557
 k-point 53 :  0.25000.08330.0833  plane waves:  24562
 k-point 54 :  0.33330.08330.0833  plane waves:  24546
 k-point 55 :  0.41670.08330.0833  plane waves:  24529
 k-point 56 :  0.50000.08330.0833  plane waves:  24550
 k-point 57 :  0.00000.16670.0833  plane waves:  24534
 k-point 58 :  0.08330.16670.0833  plane waves:  24557
 k-point 59 :  0.16670.16670.0833  plane waves:  24561
 k-point 60 :  0.25000.16670.0833  plane waves:  24571
 k-point 61 :  0.33330.16670.0833  plane waves:  24541
 k-point 62 :  0.41670.16670.0833  plane waves:  24537
 k-point 63 :  0.50000.16670.0833  plane waves:  24542
 k-point 64 :  0.00000.25000.0833  plane waves:  24546
 k-point 65 :  0.08330.25000.0833  plane waves:  24562
 k-point 66 :  0.16670.25000.0833  plane waves:  24571
 k-point 67 :  0.25000.25000.0833  plane waves:  24529
 k-point 68 :  0.33330.25000.0833  plane waves:  24525
 k-point 69 :  0.41670.25000.0833  plane waves:  24547
 k-point 70 :  0.50000.25000.0833  plane waves:  24552
 k-point 71 :  0.00000.33330.0833  plane waves:  24527
 k-point 72 :  0.08330.33330.0833  plane waves:  24546
 k-point 73 :  0.16670.33330.0833  plane waves:  24541
 k-point 74 :  0.25000.33330.0833  plane waves:  24525
 k-point 75 :  0.33330.33330.0833  plane waves:  24549
 k-point 76 :  0.41670.33330.0833  plane waves:  24549
 k-point 77 :  0.50000.33330.0833  plane waves:  24552
 k-point 78 :  0.00000.41670.0833  plane waves:  24517
 k-point 79 :  0.08330.41670.0833  plane waves:  24529
 k-point 80 :  0.16670.41670.0833  plane waves:  24537
 k-point 81 :  0.25000.41670.0833  plane waves:  24547
 k-point 82 :  0.33330.41670.0833  plane waves:  24549
 k-point 83 :  0.41670.41670.0833  plane waves:  24539
 k-point 84 :  0.50000.41670.0833  plane waves:  24562
 k-point 85 :  0.00000.50000.0833  plane waves:  24548
 k-point 86 :  0.08330.50000.0833  plane waves:  24550
 k-point 87 :  0.16670.50000.0833  plane waves:  24542
 k-point 88 :  0.25000.50000.0833  plane waves:  24552
 k-point 89 :  0.33330.50000.0833  plane waves:  24552
 k-point 90 :  0.41670.50000.0833  plane waves:  24562
 k-point 91 :  0.50000.50000.0833  plane waves:  24572
 k-point 92 :  0.00000.16670.1667  plane waves:  24549
 k-point 93 :  0.08330.16670.1667  plane waves:  24561
 k-point 94 :  0.16670.16670.1667  plane waves:  24555
 k-point 95 :  0.25000.16670.1667  plane waves:  24540
 k-point 96 :  0.33330.16670.1667  plane waves:  24531
 k-point 97 :  0.41670.16670.1667  plane waves:  24550
 k-point 98 :  0.50000.16670.1667  plane waves:  24606
 k-point 99 :  0.00000.25000.1667  plane waves:  24567
 k-point ** :  0.08330.25000.1667  plane waves:  24571
 k-point ** :  0.16670.25000.1667  plane waves:  24540
 k-point ** :  0.25000.25000.1667  plane waves:  24528
 k-point ** :  0.33330.25000.1667  plane waves:  24545
 k-point ** :  0.41670.25000.1667  plane waves:  24565
 k-point ** :  0.50000.25000.1667  plane waves:  24564
 k-point ** :  0.00000.33330.1667  plane waves:  24527
 k-point ** :  0.08330.33330.1667  plane waves:  24541
 k-point ** :  0.16670.33330.1667  plane waves:  24531
 k-point ** :  0.25000.33330.1667  plane waves:  24545
 k-point ** :  0.33330.33330.1667  plane waves:  24538
 k-point ** :  0.41670.33330.1667  plane waves:  24562
 k-point ** :  0.50000.33330.1667  plane waves:  24556
 k-point ** :  0.00000.41670.1667  plane waves:  24532
 k-point ** :  0.08330.41670.1667  plane waves:  24537
 k-point ** :  0.16670.41670.1667  plane waves:  24550
 k-point ** :  0.25000.41670.1667  plane waves:  24565
 k-point ** :  0.33330.41670.1667  plane waves:  24562
 k-point ** :  0.41670.41670.1667  plane waves:  24571
 k-point ** :  0.50000.41670.1667  plane waves:  24570
 k-point ** :  0.00000.50000.1667  plane waves:  24550
 k-point ** :  0.08330.50000.1667  plane waves:  24542
 k-point ** :  0.16670.50000.1667  plane waves:  24606
 k-point ** :  0.25000.50000.1667  plane waves:  24564
 k-point ** :  0.33330.50000.1667  plane waves:  24556
 k-point ** :  0.41670.50000.1667  plane waves:  24570
 k-point ** :  0.50000.50000.1667  plane waves:  24548
 k-point ** :  0.00000.25000.2500  plane waves:  24537
 k-point ** :  0.08330.25000.2500  plane waves:  24529
 k-point ** :  0.16670.25000.2500  plane waves:  24528
 k-point ** :  0.25000.25000.2500  plane waves:  24516
 k-point ** :  0.33330.25000.2500  plane waves:  24576
 k-point ** :  0.41670.25000.2500  plane waves:  24569
 k-point ** :  0.50000.25000.2500  plane waves:  24572
 k-point ** :  0.00000.33330.2500  plane waves:  24535
 k-point ** :  0.08330.33330.2500  plane waves:  24525
 k-point ** :  0.16670.33330.2500  plane waves:  24545
 k-point ** :  0.25000.33330.2500  plane waves:  24576
 k-point ** :  0.33330.33330.2500  plane waves:  24583
 k-point ** :  0.41670.33330.2500  plane waves:  24586
 k-point ** :  0.50000.33330.2500  plane waves:  24592
 k-point ** :  0.00000.41670.2500  plane waves:  24548
 k-point ** :  0.08330.41670.2500  plane waves:  24547
 k-point ** :  0.16670.41670.2500  plane waves:  24565
 k-point ** :  0.25000.41670.2500  plane waves:  24569
 k-point ** :  0.33330.41670.2500  plane waves:  24586
 k-point ** :  0.41670.41670.2500  plane waves:  24591
 k-point ** :  0.50000.41670.2500  plane waves:  24562
 k-point ** :  0.00000.50000.2500  plane waves:  24536
 k-point ** :  0.08330.50000.2500  plane waves:  24552
 k-point ** :  0.16670.50000.2500  plane waves:  24564
 k-point ** :  0.25000.50000.2500  plane waves:  24572
 k-point ** :  0.33330.50000.2500  plane waves:  24592
 k-point ** :  0.41670.50000.2500  plane waves:  24562
 k-point ** :  0.50000.50000.2500  plane waves:  24612
 k-point ** :  0.00000.33330.3333  plane waves:  24554
 k-point ** :  0.08330.33330.3333  plane waves:  24549
 k-point ** :  0.16670.33330.3333  plane waves:  24538
 k-point ** :  0.25000.33330.3333  plane waves:  24583
 k-point ** :  0.33330.33330.3333  plane waves:  24639
 k-point ** :  0.41670.33330.3333  plane waves:  24598
 k-point ** :  0.50000.33330.3333  plane waves:  24580
 k-point ** :  0.00000.41670.3333  plane waves:  24542
 k-point ** :  0.08330.41670.3333  plane waves:  24549
 k-point ** :  0.16670.41670.3333  plane waves:  24562
 k-point ** :  0.25000.41670.3333  plane waves:  24586
 k-point ** :  0.33330.41670.3333  plane waves:  24598
 k-point ** :  0.41670.41670.3333  plane waves:  24583
 k-point ** :  0.50000.41670.3333  plane waves:  24586
 k-point ** :  0.00000.50000.3333  plane waves:  24544
 k-point ** :  0.08330.50000.3333  plane waves:  24552
 k-point ** :  0.16670.50000.3333  plane waves:  24556
 k-point ** :  0.25000.50000.3333  plane waves:  24592
 k-point ** :  0.33330.50000.3333  plane waves:  24580
 k-point ** :  0.41670.50000.3333  plane waves:  24586
 k-point ** :  0.50000.50000.3333  plane waves:  24564
 k-point ** :  0.00000.41670.4167  plane waves:  24534
 k-point ** :  0.08330.41670.4167  plane waves:  24539
 k-point ** :  0.16670.41670.4167  plane waves:  24571
 k-point ** :  0.25000.41670.4167  plane waves:  24591
 k-point ** :  0.33330.41670.4167  plane waves:  24583
 k-point ** :  0.41670.41670.4167  plane waves:  24605
 k-point ** :  0.50000.41670.4167  plane waves:  24628
 k-point ** :  0.00000.50000.4167  plane waves:  24538
 k-point ** :  0.08330.50000.4167  plane waves:  24562
 k-point ** :  0.16670.50000.4167  plane waves:  24570
 k-point ** :  0.25000.50000.4167  plane waves:  24562
 k-point ** :  0.33330.50000.4167  plane waves:  24586
 k-point ** :  0.41670.50000.4167  plane waves:  24628
 k-point ** :  0.50000.50000.4167  plane waves:  24600
 k-point ** :  0.00000.50000.5000  plane waves:  24564
 k-point ** :  0.08330.50000.5000  plane waves:  24572
 k-point ** :  0.16670.50000.5000  plane waves:  24548
 k-point ** :  0.25000.50000.5000  plane waves:  24612
 k-point ** :  0.33330.50000.5000  plane waves:  24564
 k-point ** :  0.41670.50000.5000  plane waves:  24600
 k-point ** :  0.50000.50000.5000  plane waves:  24656

 maximum and minimum number of plane-waves per node :  24656 24412

 maximum number of plane-waves:  24656
 maximal index in each direction: 
   IXMAX= 18   IYMAX= 18   IZMAX= 18
   IXMIN=-18   IYMIN=-18   IZMIN=-18

 WARNING: wrap around error must be expected set NGX to  74
 WARNING: wrap around error must be expected set NGY to  74
 WARNING: wrap around error must be expected set NGZ to  74

 parallel 3dFFT wavefunction:
    minimum data exchange during FFTs selected (reduces bandwidth)
 parallel 3dFFT charge:
    minimum data exchange during FFTs selected (reduces bandwidth)

 For storing wavefunctions 5235.96 MBYTES are necessary
 For predicting wavefunctions   61.86 MBYTES are necessary
Broyden mixing: mesh for mixing (old mesh)
   NGX = 37   NGY = 37   NGZ = 37
  (NGX  =144   NGY  =144   NGZ  =144)
 gives a total of  50653 points
 initial charge density was supplied:
 charge density of overlapping atoms calculated
 number of electron   96.0000000 magnetization 
 keeping initial charge density in first step


--------------------------------------------------------------------------------------------------------


 Maximum index for augmentation-charges        53655 (set IRDMAX)


--------------------------------------------------------------------------------------------------------


 First call to EWALD:  gamma=   0.220
 Maximum number of real-space cells 3x 3x 3
 Maximum number of reciprocal cells 3x 3x 3

    FEWALD:  VPU time    0.01: CPU time    0.01


----------------------------------------- Iteration    1(   1)  ---------------------------------------


    POTLOK:  VPU time    1.95: CPU time    1.95
    SETDIJ:  VPU time    1.82: CPU time    1.82
    EDDAV :  VPU time 1851.24: CPU time 1853.46
    DOS   :  VPU time    0.00: CPU time   -0.00
    ------------------------------------------
      LOOP:  VPU time 1855.07: CPU time 1857.30

 eigenvalue-minimisations  : 26656
 total energy-change (2. order) : 0.1811996E+03  (-0.4236132E+04)
 number of electron   96.0000000 magnetization 
 augmentation part    96.0000000 magnetization 

 Free energy of the ion-electron system (eV)
  ---------------------------------------------------
  alpha Z        PSCENC =        -6.53311864
  Ewald energy   TEWEN  =     -2354.79383508
  -1/2 Hartree   DENC   =        -3.21085913
  -V(xc)+E(xc)   XCENC  =      -839.50331866
  PAW double counting   =      1137.73615723     -115.16745734
  entropy T*S    EENTRO =        -0.00038708
  eigenvalues    EBANDS =       649.43736720
  atomic energy  EATOM  =      1713.23509266
  ---------------------------------------------------
  free energy    TOTEN  =       181.19964116 eV

  energy without entropy =      181.20002825  energy(sigma->0) =      181.19983471


--------------------------------------------------------------------------------------------------------




----------------------------------------- Iteration    1(   2)  ---------------------------------------


    EDDAV :  VPU time 2108.59: CPU time 2110.26
    DOS   :  VPU time   -0.00: CPU time   -0.00
    ------------------------------------------
      LOOP:  VPU time 2108.65: CPU time 2110.32

 eigenvalue-minimisations  : 31144
 total energy-change (2. order) :-0.2838464E+03  (-0.2661584E+03)
 number of electron   96.0000000 magnetization 
 augmentation part    96.0000000 magnetization 

 Free energy of the ion-electron system (eV)
  ---------------------------------------------------
  alpha Z        PSCENC =        -6.53311864
  Ewald energy   TEWEN  =     -2354.79383508
  -1/2 Hartree   DENC   =        -3.21085913
  -V(xc)+E(xc)   XCENC  =      -839.50331866
  PAW double counting   =      1137.73615723     -115.16745734
  entropy T*S    EENTRO =        -0.00067504
  eigenvalues    EBANDS =       365.59122075
  atomic energy  EATOM  =      1713.23509266
  ---------------------------------------------------
  free energy    TOTEN  =      -102.64679325 eV

  energy without entropy =     -102.64611820  energy(sigma->0) =     -102.64645573


--------------------------------------------------------------------------------------------------------




----------------------------------------- Iteration    1(   3)  ---------------------------------------


    EDDAV :  VPU time 2203.76: CPU time 2225.97
    DOS   :  VPU time    0.00: CPU time   -0.00
    ------------------------------------------
      LOOP:  VPU time 2203.82: CPU time 2226.04

 eigenvalue-minimisations  : 33160
 total energy-change (2. order) :-0.1749230E+02  (-0.1648014E+02)
 number of electron   96.0000000 magnetization 
 augmentation part    96.0000000 magnetization 

 Free energy of the ion-electron system (eV)
  ---------------------------------------------------
  alpha Z        PSCENC =        -6.53311864
  Ewald energy   TEWEN  =     -2354.79383508
  -1/2 Hartree   DENC   =        -3.21085913
  -V(xc)+E(xc)   XCENC  =      -839.50331866
  PAW double counting   =      1137.73615723     -115.16745734
  entropy T*S    EENTRO =        -0.00077793
  eigenvalues    EBANDS =       348.09902180
  atomic energy  EATOM  =      1713.23509266
  ---------------------------------------------------
  free energy    TOTEN  =      -120.13909508 eV

  energy without entropy =     -120.13831715  energy(sigma->0) =     -120.13870612


--------------------------------------------------------------------------------------------------------




----------------------------------------- Iteration    1(   4)  ---------------------------------------


    EDDAV :  VPU time 2106.19: CPU time 2135.41
    DOS   :  VPU time    0.00: CPU time   -0.00
    ------------------------------------------
      LOOP:  VPU time 2106.25: CPU time 2135.48

 eigenvalue-minimisations  : 31404
 total energy-change (2. order) :-0.4338916E+00  (-0.4276124E+00)
 number of electron   96.0000000 magnetization 
 augmentation part    96.0000000 magnetization 

 Free energy of the ion-electron system (eV)
  ---------------------------------------------------
  alpha Z        PSCENC =        -6.53311864
  Ewald energy   TEWEN  =     -2354.79383508
  -1/2 Hartree   DENC   =        -3.21085913
  -V(xc)+E(xc)   XCENC  =      -839.50331866
  PAW double counting   =      1137.73615723     -115.16745734
  entropy T*S    EENTRO =        -0.00050397
  eigenvalues    EBANDS =       347.66485621
  atomic energy  EATOM  =      1713.23509266
  ---------------------------------------------------
  free energy    TOTEN  =      -120.57298672 eV

  energy without entropy =     -120.57248275  energy(sigma->0) =     -120.57273473


--------------------------------------------------------------------------------------------------------




----------------------------------------- Iteration    1(   5)  ---------------------------------------


    EDDAV :  VPU time 2161.92: CPU time 2162.62
    DOS   :  VPU time    0.00: CPU time   -0.00
    CHARGE:  VPU time  133.37: CPU time  133.41
    MIXING:  VPU time    0.09: CPU time    0.09
    ------------------------------------------
      LOOP:  VPU time 2295.43: CPU time 2296.18

 eigenvalue-minimisations  : 31732
 total energy-change (2. order) :-0.5642781E-02  (-0.5633343E-02)
 number of electron   96.0000000 magnetization 
 augmentation part    -1.1866140 magnetization 

 Broyden mixing:
  rms(total) = 0.53021E+00    rms(broyden)= 0.53021E+00
  rms(prec ) = 0.76687E+00
  weight for this iteration     100.00

 Free energy of the ion-electron system (eV)
  ---------------------------------------------------
  alpha Z        PSCENC =        -6.53311864
  Ewald energy   TEWEN  =     -2354.79383508
  -1/2 Hartree   DENC   =        -3.21085913
  -V(xc)+E(xc)   XCENC  =      -839.50331866
  PAW double counting   =      1137.73615723     -115.16745734
  entropy T*S    EENTRO =        -0.00050104
  eigenvalues    EBANDS =       347.65921050
  atomic energy  EATOM  =      1713.23509266
  ---------------------------------------------------
  free energy    TOTEN  =      -120.57862950 eV

  energy without entropy =     -120.57812846  energy(sigma->0) =     -120.57837898


--------------------------------------------------------------------------------------------------------




----------------------------------------- Iteration    1(   6)  ---------------------------------------


    POTLOK:  VPU time    2.48: CPU time    2.48
    SETDIJ:  VPU time    2.22: CPU time    2.22
    EDDAV :  VPU time 2116.99: CPU time 2117.67
    DOS   :  VPU time    0.00: CPU time   -0.00
    CHARGE:  VPU time  132.18: CPU time  132.22
    MIXING:  VPU time    0.12: CPU time    0.12
    ------------------------------------------
      LOOP:  VPU time 2254.05: CPU time 2254.79

 eigenvalue-minimisations  : 30908
 total energy-change (2. order) : 0.4180251E+00  (-0.5112794E-02)
 number of electron   96.0000000 magnetization 
 augmentation part    -1.2034269 magnetization 

 Broyden mixing:
  rms(total) = 0.32930E+00    rms(broyden)= 0.32930E+00
  rms(prec ) = 0.47809E+00
  weight for this iteration     100.00

 eigenvalues of (default mixing * dielectric matrix)
  average eigenvalue GAMMA=   2.6300
  2.6300

 Free energy of the ion-electron system (eV)
  ---------------------------------------------------
  alpha Z        PSCENC =        -6.53311864
  Ewald energy   TEWEN  =     -2354.79383508
  -1/2 Hartree   DENC   =        -2.70689679
  -V(xc)+E(xc)   XCENC  =      -838.36393280
  PAW double counting   =      1138.95162764     -116.49192934
  entropy T*S    EENTRO =        -0.00047714
  eigenvalues    EBANDS =       346.54286508
  atomic energy  EATOM  =      1713.23509266
  ---------------------------------------------------
  free energy    TOTEN  =      -120.16060440 eV

  energy without entropy =     -120.16012726  energy(sigma->0) =     -120.16036583


--------------------------------------------------------------------------------------------------------




----------------------------------------- Iteration    1(   7)  ---------------------------------------


    POTLOK:  VPU time    2.48: CPU time    2.48
    SETDIJ:  VPU time    2.23: CPU time    2.23
    EDDAV :  VPU time 2041.18: CPU time 2041.80
    DOS   :  VPU time   -0.00: CPU time   -0.00
    CHARGE:  VPU time  133.34: CPU time  133.38
    MIXING:  VPU time    0.08: CPU time    0.08
    ------------------------------------------
      LOOP:  VPU time 2179.37: CPU time 2180.04

 eigenvalue-minimisations  : 29508
 total energy-change (2. order) : 0.3052436E+00  (-0.1508479E-01)
 number of electron   96.0000000 magnetization 
 augmentation part    -1.2360391 magnetization 

 Broyden mixing:
  rms(total) = 0.13399E-01    rms(broyden)= 0.13399E-01
  rms(prec ) = 0.15892E-01
  weight for this iteration     100.00

 eigenvalues of (default mixing * dielectric matrix)
  average eigenvalue GAMMA=   2.4825
  2.4825  2.4825

 Free energy of the ion-electron system (eV)
  ---------------------------------------------------
  alpha Z        PSCENC =        -6.53311864
  Ewald energy   TEWEN  =     -2354.79383508
  -1/2 Hartree   DENC   =        -3.28378179
  -V(xc)+E(xc)   XCENC  =      -836.05036324
  PAW double counting   =      1140.60400761     -118.37737190
  entropy T*S    EENTRO =        -0.00055077
  eigenvalues    EBANDS =       345.34456037
  atomic energy  EATOM  =      1713.23509266
  ---------------------------------------------------
  free energy    TOTEN  =      -119.85536078 eV

  energy without entropy =     -119.85481001  energy(sigma->0) =     -119.85508540

[...]
     64      10.0479      0.00000
     65      11.2920      0.00000
     66      11.2923      0.00000
     67      11.2926      0.00000
     68      11.2928      0.00000

 k-point 194 :       0.3333    0.5000    0.5000
  band No.  band energies     occupation 
      1      -1.7433      2.00000
      2      -1.7433      2.00000
      3      -1.7433      2.00000
      4      -1.7433      2.00000
      5      -0.9957      2.00000
      6      -0.9957      2.00000
      7      -0.9957      2.00000
      8      -0.9957      2.00000
      9       1.9532      2.00000
     10       1.9532      2.00000
     11       1.9532      2.00000
     12       1.9532      2.00000
     13       2.6762      2.00000
     14       2.6762      2.00000
     15       2.6762      2.00000
     16       2.6763      2.00000
     17       2.6763      2.00000
     18       2.6763      2.00000
     19       2.6763      2.00000
     20       2.6763      2.00000
     21       3.3991      2.00000
     22       3.3991      2.00000
     23       3.3992      2.00000
     24       3.3992      2.00000
     25       3.3992      2.00000
     26       3.3992      2.00000
     27       3.3993      2.00000
     28       3.3993      2.00000
     29       4.1036      2.00000
     30       4.1036      2.00000
     31       4.1036      2.00000
     32       4.1037      2.00000
     33       6.2784      2.00000
     34       6.2784      2.00000
     35       6.2787      2.00000
     36       6.2787      2.00000
     37       6.2787      2.00000
     38       6.2787      2.00000
     39       6.2790      2.00000
     40       6.2790      2.00000
     41       6.9748      2.00000
     42       6.9748      2.00000
     43       6.9749      2.00000
     44       6.9749      2.00000
     45       7.6881      2.00000
     46       7.6881      2.00000
     47       7.6881      2.00000
     48       7.6881      2.00000
     49       8.3650      0.00000
     50       8.3650      0.00000
     51       8.3653      0.00000
     52       8.3653      0.00000
     53       8.3653      0.00000
     54       8.3653      0.00000
     55       8.3656      0.00000
     56       8.3656      0.00000
     57      10.0337      0.00000
     58      10.0337      0.00000
     59      10.0337      0.00000
     60      10.0337      0.00000
     61      10.4974      0.00000
     62      10.4974      0.00000
     63      10.4974      0.00000
     64      10.4974      0.00000
     65      11.4014      0.00000
     66      11.4017      0.00000
     67      11.4020      0.00000
     68      11.4022      0.00000

 k-point 195 :       0.4167    0.5000    0.5000
  band No.  band energies     occupation 
      1      -1.6029      2.00000
      2      -1.6028      2.00000
      3      -1.6028      2.00000
      4      -1.6028      2.00000
      5      -1.2289      2.00000
      6      -1.2289      2.00000
      7      -1.2289      2.00000
      8      -1.2289      2.00000
      9       2.4521      2.00000
     10       2.4522      2.00000
     11       2.4522      2.00000
     12       2.4522      2.00000
     13       2.8122      2.00000
     14       2.8122      2.00000
     15       2.8122      2.00000
     16       2.8122      2.00000
     17       2.8122      2.00000
     18       2.8122      2.00000
     19       2.8122      2.00000
     20       2.8122      2.00000
     21       3.1739      2.00000
     22       3.1739      2.00000
     23       3.1739      2.00000
     24       3.1739      2.00000
     25       3.1739      2.00000
     26       3.1739      2.00000
     27       3.1740      2.00000
     28       3.1740      2.00000
     29       3.5295      2.00000
     30       3.5295      2.00000
     31       3.5295      2.00000
     32       3.5296      2.00000
     33       6.7626      2.00000
     34       6.7626      2.00000
     35       6.7629      2.00000
     36       6.7629      2.00000
     37       6.7629      2.00000
     38       6.7629      2.00000
     39       6.7632      2.00000
     40       6.7632      2.00000
     41       7.1098      2.00000
     42       7.1098      2.00000
     43       7.1098      2.00000
     44       7.1098      2.00000
     45       7.4662      2.00000
     46       7.4662      2.00000
     47       7.4662      2.00000
     48       7.4662      2.00000
     49       7.8083      2.00000
     50       7.8083      2.00000
     51       7.8086      2.00000
     52       7.8086      2.00000
     53       7.8086      2.00000
     54       7.8087      2.00000
     55       7.8090      2.00000
     56       7.8090      2.00000
     57      10.8489      0.00000
     58      10.8490      0.00000
     59      10.8490      0.00000
     60      10.8490      0.00000
     61      10.9736      0.00000
     62      10.9736      0.00000
     63      10.9736      0.00000
     64      10.9737      0.00000
     65      11.5351      0.00000
     66      11.5353      0.00000
     67      11.5355      0.00000
     68      11.5358      0.00000

 k-point 196 :       0.5000    0.5000    0.5000
  band No.  band energies     occupation 
      1      -1.4361      2.00000
      2      -1.4318      2.00000
      3      -1.4318      2.00000
      4      -1.4314      2.00000
      5      -1.4312      2.00000
      6      -1.4308      2.00000
      7      -1.4308      2.00000
      8      -1.4266      2.00000
      9       2.9679      2.00000
     10       2.9741      2.00000
     11       2.9741      2.00000
     12       2.9774      2.00000
     13       2.9776      2.00000
     14       2.9777      2.00000
     15       2.9781      2.00000
     16       2.9781      2.00000
     17       2.9781      2.00000
     18       2.9781      2.00000
     19       2.9781      2.00000
     20       2.9782      2.00000
     21       2.9782      2.00000
     22       2.9782      2.00000
     23       2.9782      2.00000
     24       2.9782      2.00000
     25       2.9783      2.00000
     26       2.9783      2.00000
     27       2.9787      2.00000
     28       2.9787      2.00000
     29       2.9790      2.00000
     30       2.9822      2.00000
     31       2.9822      2.00000
     32       2.9884      2.00000
     33       7.2674      2.00000
     34       7.2674      2.00000
     35       7.2695      2.00000
     36       7.2713      2.00000
     37       7.2727      2.00000
     38       7.2731      2.00000
     39       7.2732      2.00000
     40       7.2732      2.00000
     41       7.2734      2.00000
     42       7.2734      2.00000
     43       7.2734      2.00000
     44       7.2734      2.00000
     45       7.2735      2.00000
     46       7.2735      2.00000
     47       7.2735      2.00000
     48       7.2735      2.00000
     49       7.2737      2.00000
     50       7.2737      2.00000
     51       7.2738      2.00000
     52       7.2742      2.00000
     53       7.2757      2.00000
     54       7.2775      2.00000
     55       7.2795      2.00000
     56       7.2795      2.00000
     57      11.4741      0.00000
     58      11.4743      0.00000
     59      11.4743      0.00000
     60      11.4748      0.00000
     61      11.4764      0.00000
     62      11.4769      0.00000
     63      11.4769      0.00000
     64      11.4772      0.00000
     65      11.6935      0.00000
     66      11.6945      0.00000
     67      11.6951      0.00000
     68      11.6962      0.00000


--------------------------------------------------------------------------------------------------------


 soft charge-density along one line, spin component           1
         0         1         2         3         4         5         6         7         8         9
 total charge-density along one line
 
 pseudopotential strength for first ion, spin component:           1
  8.443  -0.006  -0.000  -0.000  -0.000  -0.000  -0.000  -0.000
 -0.006   0.000  -0.000  -0.000  -0.000   0.000   0.000   0.000
 -0.000  -0.000   1.988  -0.000   0.000  -0.027   0.000  -0.000
 -0.000  -0.000  -0.000   1.988  -0.000   0.000  -0.027   0.000
 -0.000  -0.000   0.000  -0.000   1.988  -0.000   0.000  -0.027
 -0.000   0.000  -0.027   0.000  -0.000  -0.012   0.000  -0.000
 -0.000   0.000   0.000  -0.027   0.000   0.000  -0.012   0.000
 -0.000   0.000  -0.000   0.000  -0.027  -0.000   0.000  -0.012
 total augmentation occupancy for first ion, spin component:           1
  1.328  -0.479  -0.000   0.000   0.002   0.000  -0.000  -0.001
 -0.479   0.476   0.000   0.000  -0.003   0.000  -0.000   0.001
 -0.000   0.000   0.731   0.002   0.007  -0.149  -0.001  -0.001
  0.000   0.000   0.002   0.739  -0.002  -0.001  -0.146  -0.001
  0.002  -0.003   0.007  -0.002   0.735  -0.001  -0.001  -0.147
  0.000   0.000  -0.149  -0.001  -0.001   0.035   0.000   0.000
 -0.000  -0.000  -0.001  -0.146  -0.001   0.000   0.034   0.000
 -0.001   0.001  -0.001  -0.001  -0.147   0.000   0.000   0.034


------------------------ aborting loop because EDIFF is reached ----------------------------------------




--------------------------------------------------------------------------------------------------------


    CHARGE:  VPU time  134.78: CPU time  134.92
    FORLOC:  VPU time    0.36: CPU time    0.37
    FORNL :  VPU time  275.26: CPU time  275.53
    STRESS:  VPU time  938.97: CPU time  944.68
    FORCOR:  VPU time    2.58: CPU time    2.58
    FORHAR:  VPU time    0.90: CPU time    0.90
    MIXING:  VPU time    0.06: CPU time    0.06


--------------------------------------------------------------------------------------------------------



  FREE ENERGIE OF THE ION-ELECTRON SYSTEM (eV)
  ---------------------------------------------------
  free  energy   TOTEN  =      -119.855508 eV

  energy  without entropy=     -119.854953  energy(sigma->0) =     -119.855230
 

  FORCE on cell =-STRESS in cart. coord.  units (eV/reduce length):
  Direction    X        Y        Z        XY       YZ       ZX
  --------------------------------------------------------------------------------------
  Alpha Z     -6.53     -6.53     -6.53
  Ewald     -784.94   -784.93   -784.93     -0.00     -0.00     -0.00
  Hartree      1.12      1.12      1.12     -0.00     -0.00     -0.00
  E(xc)     -274.28   -274.28   -274.28     -0.00      0.00      0.00
  Local       11.63     11.63     11.63     -0.00     -0.00     -0.00
  n-local    605.20    605.32    605.08     -0.94     -0.26      0.43
  augment    -33.06    -33.06    -33.06      0.00      0.00      0.00
  Kinetic    481.34    474.14    488.53      6.27      0.79     -4.69
  -------------------------------------------------------------------------------------
  Total        0.48      0.48      0.48      0.00      0.00      0.00
  in kB        1.48      1.48      1.48      0.00      0.00      0.00
  external pressure =        1.48 kB  Pullay stress =        0.00 kB


 VOLUME and BASIS-vectors are now :
 -----------------------------------------------------------------------------
  energy-cutoff  :      750.00
  volume of cell :      526.46
      direct lattice vectors                 reciprocal lattice vectors
     8.074612739  0.000000000  0.000000000     0.123844949  0.000000000  0.000000000
     0.000000000  8.074612739  0.000000000     0.000000000  0.123844949  0.000000000
     0.000000000  0.000000000  8.074612739     0.000000000  0.000000000  0.123844949

  length of vectors
     8.074612739  8.074612739  8.074612739     0.123844949  0.123844949  0.123844949


 FORCES acting on ions
    electron-ion (+dipol)            ewald-force                    non-local-force                 convergence-correction
 -----------------------------------------------------------------------------------------------
   0.389E+00 0.114E-12 -.302E-08   -.320E+00 0.311E-14 -.397E-14   -.116E+00 0.000E+00 0.678E-20   0.485E-06 0.143E-13 -.677E-14
   -.865E-01 0.895E-13 0.115E-08   0.844E-01 -.278E-14 -.146E-13   0.419E-02 0.678E-20 0.000E+00   0.183E-05 0.155E-13 -.509E-14
   0.269E-01 -.463E-13 0.278E-12   -.267E-01 -.122E-14 -.243E-14   -.612E-03 0.000E+00 0.000E+00   0.889E-06 -.144E-13 -.694E-14
   -.209E-01 0.378E-13 0.167E-12   0.210E-01 0.233E-14 -.954E-14   0.448E-03 0.271E-19 0.000E+00   -.215E-05 -.153E-13 -.517E-14
   0.269E-01 -.122E-13 -.917E-11   -.267E-01 0.999E-15 -.983E-15   -.612E-03 0.813E-19 0.000E+00   0.897E-06 0.132E-13 0.682E-14
   -.209E-01 0.762E-13 -.937E-11   0.210E-01 -.255E-14 -.121E-14   0.448E-03 -.127E-19 0.203E-19   -.216E-05 0.148E-13 0.507E-14
   0.107E-01 -.120E-13 0.466E-13   -.110E-01 -.999E-15 -.542E-14   0.383E-03 0.169E-19 0.000E+00   -.172E-05 -.132E-13 0.705E-14
   -.103E-01 0.222E-12 -.238E-12   0.103E-01 0.255E-14 -.542E-14   -.315E-03 0.741E-20 0.000E+00   0.128E-05 -.145E-13 0.522E-14
   0.484E-01 -.227E-03 0.227E-03   -.504E-01 0.196E-03 -.196E-03   0.539E-03 0.520E-04 -.520E-04   -.723E-06 -.924E-07 0.924E-07
   -.298E-01 0.747E-04 -.747E-04   0.283E-01 -.588E-04 0.588E-04   0.108E-02 -.167E-04 0.167E-04   0.248E-06 -.305E-07 0.305E-07
   0.484E-01 0.227E-03 0.227E-03   -.504E-01 -.196E-03 -.196E-03   0.539E-03 -.520E-04 -.520E-04   -.723E-06 0.924E-07 0.924E-07
   -.298E-01 -.747E-04 -.747E-04   0.283E-01 0.588E-04 0.588E-04   0.108E-02 0.167E-04 0.167E-04   0.248E-06 0.305E-07 0.305E-07
   0.484E-01 -.227E-03 -.227E-03   -.504E-01 0.196E-03 0.196E-03   0.539E-03 0.520E-04 0.520E-04   -.723E-06 -.924E-07 -.924E-07
   -.298E-01 0.747E-04 0.747E-04   0.283E-01 -.588E-04 -.588E-04   0.108E-02 -.167E-04 -.167E-04   0.248E-06 -.305E-07 -.305E-07
   0.484E-01 0.227E-03 -.227E-03   -.504E-01 -.196E-03 0.196E-03   0.539E-03 -.520E-04 0.520E-04   -.723E-06 0.924E-07 -.924E-07
   -.298E-01 -.747E-04 0.747E-04   0.283E-01 0.588E-04 -.588E-04   0.108E-02 0.167E-04 -.167E-04   0.248E-06 0.305E-07 -.305E-07
   -.480E-01 0.278E-14 0.849E-01   0.408E-01 -.588E-14 -.773E-01   0.137E-01 0.000E+00 -.141E-01   -.150E-06 0.151E-13 -.106E-05
   -.479E-01 0.205E-12 -.857E-01   0.405E-01 -.966E-14 0.779E-01   0.139E-01 0.678E-20 0.145E-01   -.194E-06 0.168E-13 0.111E-05
   -.776E-03 -.102E-13 0.685E-02   0.136E-02 -.877E-14 -.639E-02   -.568E-03 0.000E+00 -.213E-03   0.582E-06 -.149E-13 0.155E-05
   -.649E-03 -.314E-13 -.685E-02   0.123E-02 -.455E-14 0.640E-02   -.563E-03 0.000E+00 0.208E-03   0.410E-06 -.167E-13 -.146E-05
   -.480E-01 0.230E-14 -.849E-01   0.408E-01 -.588E-14 0.773E-01   0.137E-01 0.000E+00 0.141E-01   -.150E-06 0.128E-13 0.106E-05
   -.479E-01 -.120E-12 0.857E-01   0.405E-01 -.966E-14 -.779E-01   0.139E-01 0.000E+00 -.145E-01   -.194E-06 0.132E-13 -.111E-05
   -.776E-03 -.137E-13 -.685E-02   0.136E-02 -.699E-14 0.639E-02   -.568E-03 0.339E-20 0.213E-03   0.582E-06 -.127E-13 -.155E-05
   -.649E-03 -.278E-12 0.685E-02   0.123E-02 -.455E-14 -.640E-02   -.563E-03 0.000E+00 -.208E-03   0.410E-06 -.133E-13 0.146E-05
   -.480E-01 -.849E-01 0.517E-11   0.408E-01 0.773E-01 0.734E-15   0.137E-01 0.141E-01 0.169E-20   -.149E-06 0.105E-05 -.593E-14
   -.479E-01 0.857E-01 0.541E-11   0.405E-01 -.779E-01 0.606E-14   0.139E-01 -.145E-01 0.000E+00   -.193E-06 -.111E-05 -.897E-14
   -.480E-01 0.849E-01 0.516E-11   0.408E-01 -.773E-01 0.503E-15   0.137E-01 -.141E-01 0.000E+00   -.149E-06 -.105E-05 -.366E-14
   -.479E-01 -.857E-01 0.507E-11   0.405E-01 0.779E-01 0.249E-14   0.139E-01 0.145E-01 -.339E-20   -.193E-06 0.111E-05 -.545E-14
   -.776E-03 -.685E-02 -.721E-12   0.136E-02 0.639E-02 0.124E-13   -.568E-03 0.213E-03 -.339E-20   0.582E-06 -.155E-05 0.598E-14
   -.649E-03 0.685E-02 -.843E-12   0.123E-02 -.640E-02 0.135E-13   -.563E-03 -.208E-03 0.678E-20   0.409E-06 0.146E-05 0.899E-14
   -.776E-03 0.685E-02 -.718E-12   0.136E-02 -.639E-02 0.904E-14   -.568E-03 -.213E-03 0.000E+00   0.582E-06 0.155E-05 0.373E-14
   -.649E-03 -.685E-02 -.546E-12   0.123E-02 0.640E-02 0.637E-14   -.563E-03 0.208E-03 0.000E+00   0.409E-06 -.146E-05 0.550E-14
 -----------------------------------------------------------------------------------------------
   0.258E-05 -.864E-13 -.188E-08   0.118E-14 -.914E-14 0.117E-13   -.207E-05 0.347E-17 -.176E-17   0.448E-07 -.890E-16 0.950E-16
 
 
 POSITION                                       TOTAL-FORCE (eV/Angst)
 -----------------------------------------------------------------------------------
      2.02865      2.01865      0.00000        -0.046732     -0.000000     -0.000000
      6.05596      2.01865      0.00000         0.002051     -0.000000     -0.000000
      2.01865      6.05596      0.00000        -0.000419      0.000000     -0.000000
      6.05596      6.05596      0.00000         0.000498      0.000000     -0.000000
      2.01865      2.01865      4.03731        -0.000419      0.000000      0.000000
      6.05596      2.01865      4.03731         0.000498      0.000000      0.000000
      2.01865      6.05596      4.03731         0.000013     -0.000000     -0.000000
      6.05596      6.05596      4.03731        -0.000284     -0.000000     -0.000000
      2.01865      0.00000      2.01865        -0.001453      0.000021     -0.000021
      6.05596      0.00000      2.01865        -0.000414     -0.000001      0.000001
      2.01865      4.03731      2.01865        -0.001453     -0.000021     -0.000021
      6.05596      4.03731      2.01865        -0.000414      0.000001      0.000001
      2.01865      0.00000      6.05596        -0.001453      0.000021      0.000021
      6.05596      0.00000      6.05596        -0.000414     -0.000001     -0.000001
      2.01865      4.03731      6.05596        -0.001453     -0.000021      0.000021
      6.05596      4.03731      6.05596        -0.000414      0.000001     -0.000001
      0.00000      2.01865      2.01865         0.006438      0.000000     -0.006488
      4.03731      2.01865      2.01865         0.006589      0.000000      0.006705
      0.00000      6.05596      2.01865         0.000017      0.000000      0.000242
      4.03731      6.05596      2.01865         0.000022      0.000000     -0.000243
      0.00000      2.01865      6.05596         0.006438     -0.000000      0.006488
      4.03731      2.01865      6.05596         0.006589      0.000000     -0.006705
      0.00000      6.05596      6.05596         0.000017      0.000000     -0.000242
      4.03731      6.05596      6.05596         0.000022      0.000000      0.000243
      0.00000      0.00000      0.00000         0.006438      0.006488     -0.000000
      4.03731      0.00000      0.00000         0.006589     -0.006705     -0.000000
      0.00000      4.03731      0.00000         0.006438     -0.006488     -0.000000
      4.03731      4.03731      0.00000         0.006589      0.006705     -0.000000
      0.00000      0.00000      4.03731         0.000017     -0.000242     -0.000000
      4.03731      0.00000      4.03731         0.000022      0.000243      0.000000
      0.00000      4.03731      4.03731         0.000017      0.000242     -0.000000
      4.03731      4.03731      4.03731         0.000022     -0.000243     -0.000000
 -----------------------------------------------------------------------------------
    total drift:                                0.000001     -0.000000     -0.000000


--------------------------------------------------------------------------------------------------------



 mean value of Nose-termostat <S>:     1.000 mean value of <T> :     0.000
 mean temperature <T/S>/<1/S>  :     0.000

     LOOP+:  VPU time30270.90: CPU time30363.22
  
  
 General timing and accounting informations for this job:
 ========================================================
  
                  Total CPU time used (sec):    30389.260
                            User time (sec):    29270.378
                          System time (sec):     1118.882
                         Elapsed time (sec):    30481.608
  
                   Maximum memory used (kb):     3549812.
                   Average memory used (kb):           0.
  
                          Minor page faults:       412648
                          Major page faults:            0
                 Voluntary context switches:          869
