<?xml version="1.0" encoding="ISO-8859-1"?>
<modeling>
 <generator>
  <i name="program" type="string">vasp</i>
  <i name="version" type="string">4.6.28 </i>
  <i name="subversion" type="string">25Jul05 complex  parallel</i>
  <i name="platform" type="string">LinuxIFC</i>
  <i name="date" type="string">2016 11 11</i>
  <i name="time" type="string">17:41:14</i>
 </generator>
 <incar>
  <i type="string" name="PREC">accurate</i>
  <i type="int" name="IALGO">    38</i>
  <i type="logical" name="ADDGRID"> T  </i>
  <i name="EDIFF">      0.00000001</i>
  <i type="int" name="IBRION">    -1</i>
  <i name="ENCUT">    750.00000000</i>
  <i type="logical" name="LREAL"> F  </i>
  <i type="int" name="ISMEAR">     0</i>
  <i name="SIGMA">      0.01000000</i>
  <i type="logical" name="LWAVE"> F  </i>
  <i type="logical" name="LCHARG"> F  </i>
 </incar>
 <kpoints>
  <generation param="Gamma">
   <v type="int" name="divisions">      12      12      12</v>
   <v name="usershift">      0.00000000      0.00000000      0.00000000</v>
   <v name="genvec1">      0.08333333      0.00000000      0.00000000</v>
   <v name="genvec2">      0.00000000      0.08333333      0.00000000</v>
   <v name="genvec3">      0.00000000      0.00000000      0.08333333</v>
   <v name="shift">      0.00000000      0.00000000      0.00000000</v>
  </generation>
  <varray name="kpointlist" >
   <v>       0.00000000      0.00000000      0.00000000</v>
   <v>       0.08333333      0.00000000      0.00000000</v>
   <v>       0.16666667      0.00000000      0.00000000</v>
   <v>       0.25000000      0.00000000      0.00000000</v>
   <v>       0.33333333      0.00000000      0.00000000</v>
   <v>       0.41666667      0.00000000      0.00000000</v>
   <v>       0.50000000      0.00000000      0.00000000</v>
   <v>       0.00000000      0.08333333      0.00000000</v>
   <v>       0.08333333      0.08333333      0.00000000</v>
   <v>       0.16666667      0.08333333      0.00000000</v>
   <v>       0.25000000      0.08333333      0.00000000</v>
   <v>       0.33333333      0.08333333      0.00000000</v>
   <v>       0.41666667      0.08333333      0.00000000</v>
   <v>       0.50000000      0.08333333      0.00000000</v>
   <v>       0.00000000      0.16666667      0.00000000</v>
   <v>       0.08333333      0.16666667      0.00000000</v>
   <v>       0.16666667      0.16666667      0.00000000</v>
   <v>       0.25000000      0.16666667      0.00000000</v>
   <v>       0.33333333      0.16666667      0.00000000</v>
   <v>       0.41666667      0.16666667      0.00000000</v>
   <v>       0.50000000      0.16666667      0.00000000</v>
   <v>       0.00000000      0.25000000      0.00000000</v>
   <v>       0.08333333      0.25000000      0.00000000</v>
   <v>       0.16666667      0.25000000      0.00000000</v>
   <v>       0.25000000      0.25000000      0.00000000</v>
   <v>       0.33333333      0.25000000      0.00000000</v>
   <v>       0.41666667      0.25000000      0.00000000</v>
   <v>       0.50000000      0.25000000      0.00000000</v>
   <v>       0.00000000      0.33333333      0.00000000</v>
   <v>       0.08333333      0.33333333      0.00000000</v>
   <v>       0.16666667      0.33333333      0.00000000</v>
   <v>       0.25000000      0.33333333      0.00000000</v>
   <v>       0.33333333      0.33333333      0.00000000</v>
   <v>       0.41666667      0.33333333      0.00000000</v>
   <v>       0.50000000      0.33333333      0.00000000</v>
   <v>       0.00000000      0.41666667      0.00000000</v>
   <v>       0.08333333      0.41666667      0.00000000</v>
   <v>       0.16666667      0.41666667      0.00000000</v>
   <v>       0.25000000      0.41666667      0.00000000</v>
   <v>       0.33333333      0.41666667      0.00000000</v>
   <v>       0.41666667      0.41666667      0.00000000</v>
   <v>       0.50000000      0.41666667      0.00000000</v>
   <v>       0.00000000      0.50000000      0.00000000</v>
   <v>       0.08333333      0.50000000      0.00000000</v>
   <v>       0.16666667      0.50000000      0.00000000</v>
   <v>       0.25000000      0.50000000      0.00000000</v>
   <v>       0.33333333      0.50000000      0.00000000</v>
   <v>       0.41666667      0.50000000      0.00000000</v>
   <v>       0.50000000      0.50000000      0.00000000</v>
   <v>       0.00000000      0.08333333      0.08333333</v>
   <v>       0.08333333      0.08333333      0.08333333</v>
   <v>       0.16666667      0.08333333      0.08333333</v>
   <v>       0.25000000      0.08333333      0.08333333</v>
   <v>       0.33333333      0.08333333      0.08333333</v>
   <v>       0.41666667      0.08333333      0.08333333</v>
   <v>       0.50000000      0.08333333      0.08333333</v>
   <v>       0.00000000      0.16666667      0.08333333</v>
   <v>       0.08333333      0.16666667      0.08333333</v>
   <v>       0.16666667      0.16666667      0.08333333</v>
   <v>       0.25000000      0.16666667      0.08333333</v>
   <v>       0.33333333      0.16666667      0.08333333</v>
   <v>       0.41666667      0.16666667      0.08333333</v>
   <v>       0.50000000      0.16666667      0.08333333</v>
   <v>       0.00000000      0.25000000      0.08333333</v>
   <v>       0.08333333      0.25000000      0.08333333</v>
   <v>       0.16666667      0.25000000      0.08333333</v>
   <v>       0.25000000      0.25000000      0.08333333</v>
   <v>       0.33333333      0.25000000      0.08333333</v>
   <v>       0.41666667      0.25000000      0.08333333</v>
   <v>       0.50000000      0.25000000      0.08333333</v>
   <v>       0.00000000      0.33333333      0.08333333</v>
   <v>       0.08333333      0.33333333      0.08333333</v>
   <v>       0.16666667      0.33333333      0.08333333</v>
   <v>       0.25000000      0.33333333      0.08333333</v>
   <v>       0.33333333      0.33333333      0.08333333</v>
   <v>       0.41666667      0.33333333      0.08333333</v>
   <v>       0.50000000      0.33333333      0.08333333</v>
   <v>       0.00000000      0.41666667      0.08333333</v>
   <v>       0.08333333      0.41666667      0.08333333</v>
   <v>       0.16666667      0.41666667      0.08333333</v>
   <v>       0.25000000      0.41666667      0.08333333</v>
   <v>       0.33333333      0.41666667      0.08333333</v>
   <v>       0.41666667      0.41666667      0.08333333</v>
   <v>       0.50000000      0.41666667      0.08333333</v>
   <v>       0.00000000      0.50000000      0.08333333</v>
   <v>       0.08333333      0.50000000      0.08333333</v>
   <v>       0.16666667      0.50000000      0.08333333</v>
   <v>       0.25000000      0.50000000      0.08333333</v>
   <v>       0.33333333      0.50000000      0.08333333</v>
   <v>       0.41666667      0.50000000      0.08333333</v>
   <v>       0.50000000      0.50000000      0.08333333</v>
   <v>       0.00000000      0.16666667      0.16666667</v>
   <v>       0.08333333      0.16666667      0.16666667</v>
   <v>       0.16666667      0.16666667      0.16666667</v>
   <v>       0.25000000      0.16666667      0.16666667</v>
   <v>       0.33333333      0.16666667      0.16666667</v>
   <v>       0.41666667      0.16666667      0.16666667</v>
   <v>       0.50000000      0.16666667      0.16666667</v>
   <v>       0.00000000      0.25000000      0.16666667</v>
   <v>       0.08333333      0.25000000      0.16666667</v>
   <v>       0.16666667      0.25000000      0.16666667</v>
   <v>       0.25000000      0.25000000      0.16666667</v>
   <v>       0.33333333      0.25000000      0.16666667</v>
   <v>       0.41666667      0.25000000      0.16666667</v>
   <v>       0.50000000      0.25000000      0.16666667</v>
   <v>       0.00000000      0.33333333      0.16666667</v>
   <v>       0.08333333      0.33333333      0.16666667</v>
   <v>       0.16666667      0.33333333      0.16666667</v>
   <v>       0.25000000      0.33333333      0.16666667</v>
   <v>       0.33333333      0.33333333      0.16666667</v>
   <v>       0.41666667      0.33333333      0.16666667</v>
   <v>       0.50000000      0.33333333      0.16666667</v>
   <v>       0.00000000      0.41666667      0.16666667</v>
   <v>       0.08333333      0.41666667      0.16666667</v>
   <v>       0.16666667      0.41666667      0.16666667</v>
   <v>       0.25000000      0.41666667      0.16666667</v>
   <v>       0.33333333      0.41666667      0.16666667</v>
   <v>       0.41666667      0.41666667      0.16666667</v>
   <v>       0.50000000      0.41666667      0.16666667</v>
   <v>       0.00000000      0.50000000      0.16666667</v>
   <v>       0.08333333      0.50000000      0.16666667</v>
   <v>       0.16666667      0.50000000      0.16666667</v>
   <v>       0.25000000      0.50000000      0.16666667</v>
   <v>       0.33333333      0.50000000      0.16666667</v>
   <v>       0.41666667      0.50000000      0.16666667</v>
   <v>       0.50000000      0.50000000      0.16666667</v>
   <v>       0.00000000      0.25000000      0.25000000</v>
   <v>       0.08333333      0.25000000      0.25000000</v>
   <v>       0.16666667      0.25000000      0.25000000</v>
   <v>       0.25000000      0.25000000      0.25000000</v>
   <v>       0.33333333      0.25000000      0.25000000</v>
   <v>       0.41666667      0.25000000      0.25000000</v>
   <v>       0.50000000      0.25000000      0.25000000</v>
   <v>       0.00000000      0.33333333      0.25000000</v>
   <v>       0.08333333      0.33333333      0.25000000</v>
   <v>       0.16666667      0.33333333      0.25000000</v>
   <v>       0.25000000      0.33333333      0.25000000</v>
   <v>       0.33333333      0.33333333      0.25000000</v>
   <v>       0.41666667      0.33333333      0.25000000</v>
   <v>       0.50000000      0.33333333      0.25000000</v>
   <v>       0.00000000      0.41666667      0.25000000</v>
   <v>       0.08333333      0.41666667      0.25000000</v>
   <v>       0.16666667      0.41666667      0.25000000</v>
   <v>       0.25000000      0.41666667      0.25000000</v>
   <v>       0.33333333      0.41666667      0.25000000</v>
   <v>       0.41666667      0.41666667      0.25000000</v>
   <v>       0.50000000      0.41666667      0.25000000</v>
   <v>       0.00000000      0.50000000      0.25000000</v>
   <v>       0.08333333      0.50000000      0.25000000</v>
   <v>       0.16666667      0.50000000      0.25000000</v>
   <v>       0.25000000      0.50000000      0.25000000</v>
   <v>       0.33333333      0.50000000      0.25000000</v>
   <v>       0.41666667      0.50000000      0.25000000</v>
   <v>       0.50000000      0.50000000      0.25000000</v>
   <v>       0.00000000      0.33333333      0.33333333</v>
   <v>       0.08333333      0.33333333      0.33333333</v>
   <v>       0.16666667      0.33333333      0.33333333</v>
   <v>       0.25000000      0.33333333      0.33333333</v>
   <v>       0.33333333      0.33333333      0.33333333</v>
   <v>       0.41666667      0.33333333      0.33333333</v>
   <v>       0.50000000      0.33333333      0.33333333</v>
   <v>       0.00000000      0.41666667      0.33333333</v>
   <v>       0.08333333      0.41666667      0.33333333</v>
   <v>       0.16666667      0.41666667      0.33333333</v>
   <v>       0.25000000      0.41666667      0.33333333</v>
   <v>       0.33333333      0.41666667      0.33333333</v>
   <v>       0.41666667      0.41666667      0.33333333</v>
   <v>       0.50000000      0.41666667      0.33333333</v>
   <v>       0.00000000      0.50000000      0.33333333</v>
   <v>       0.08333333      0.50000000      0.33333333</v>
   <v>       0.16666667      0.50000000      0.33333333</v>
   <v>       0.25000000      0.50000000      0.33333333</v>
   <v>       0.33333333      0.50000000      0.33333333</v>
   <v>       0.41666667      0.50000000      0.33333333</v>
   <v>       0.50000000      0.50000000      0.33333333</v>
   <v>       0.00000000      0.41666667      0.41666667</v>
   <v>       0.08333333      0.41666667      0.41666667</v>
   <v>       0.16666667      0.41666667      0.41666667</v>
   <v>       0.25000000      0.41666667      0.41666667</v>
   <v>       0.33333333      0.41666667      0.41666667</v>
   <v>       0.41666667      0.41666667      0.41666667</v>
   <v>       0.50000000      0.41666667      0.41666667</v>
   <v>       0.00000000      0.50000000      0.41666667</v>
   <v>       0.08333333      0.50000000      0.41666667</v>
   <v>       0.16666667      0.50000000      0.41666667</v>
   <v>       0.25000000      0.50000000      0.41666667</v>
   <v>       0.33333333      0.50000000      0.41666667</v>
   <v>       0.41666667      0.50000000      0.41666667</v>
   <v>       0.50000000      0.50000000      0.41666667</v>
   <v>       0.00000000      0.50000000      0.50000000</v>
   <v>       0.08333333      0.50000000      0.50000000</v>
   <v>       0.16666667      0.50000000      0.50000000</v>
   <v>       0.25000000      0.50000000      0.50000000</v>
   <v>       0.33333333      0.50000000      0.50000000</v>
   <v>       0.41666667      0.50000000      0.50000000</v>
   <v>       0.50000000      0.50000000      0.50000000</v>
  </varray>
  <varray name="weights" >
   <v>       0.00057870</v>
   <v>       0.00115741</v>
   <v>       0.00115741</v>
   <v>       0.00115741</v>
   <v>       0.00115741</v>
   <v>       0.00115741</v>
   <v>       0.00057870</v>
   <v>       0.00231481</v>
   <v>       0.00462963</v>
   <v>       0.00462963</v>
   <v>       0.00462963</v>
   <v>       0.00462963</v>
   <v>       0.00462963</v>
   <v>       0.00231481</v>
   <v>       0.00231481</v>
   <v>       0.00462963</v>
   <v>       0.00462963</v>
   <v>       0.00462963</v>
   <v>       0.00462963</v>
   <v>       0.00462963</v>
   <v>       0.00231481</v>
   <v>       0.00231481</v>
   <v>       0.00462963</v>
   <v>       0.00462963</v>
   <v>       0.00462963</v>
   <v>       0.00462963</v>
   <v>       0.00462963</v>
   <v>       0.00231481</v>
   <v>       0.00231481</v>
   <v>       0.00462963</v>
   <v>       0.00462963</v>
   <v>       0.00462963</v>
   <v>       0.00462963</v>
   <v>       0.00462963</v>
   <v>       0.00231481</v>
   <v>       0.00231481</v>
   <v>       0.00462963</v>
   <v>       0.00462963</v>
   <v>       0.00462963</v>
   <v>       0.00462963</v>
   <v>       0.00462963</v>
   <v>       0.00231481</v>
   <v>       0.00115741</v>
   <v>       0.00231481</v>
   <v>       0.00231481</v>
   <v>       0.00231481</v>
   <v>       0.00231481</v>
   <v>       0.00231481</v>
   <v>       0.00115741</v>
   <v>       0.00231481</v>
   <v>       0.00462963</v>
   <v>       0.00462963</v>
   <v>       0.00462963</v>
   <v>       0.00462963</v>
   <v>       0.00462963</v>
   <v>       0.00231481</v>
   <v>       0.00462963</v>
   <v>       0.00925926</v>
   <v>       0.00925926</v>
   <v>       0.00925926</v>
   <v>       0.00925926</v>
   <v>       0.00925926</v>
   <v>       0.00462963</v>
   <v>       0.00462963</v>
   <v>       0.00925926</v>
   <v>       0.00925926</v>
   <v>       0.00925926</v>
   <v>       0.00925926</v>
   <v>       0.00925926</v>
   <v>       0.00462963</v>
   <v>       0.00462963</v>
   <v>       0.00925926</v>
   <v>       0.00925926</v>
   <v>       0.00925926</v>
   <v>       0.00925926</v>
   <v>       0.00925926</v>
   <v>       0.00462963</v>
   <v>       0.00462963</v>
   <v>       0.00925926</v>
   <v>       0.00925926</v>
   <v>       0.00925926</v>
   <v>       0.00925926</v>
   <v>       0.00925926</v>
   <v>       0.00462963</v>
   <v>       0.00231481</v>
   <v>       0.00462963</v>
   <v>       0.00462963</v>
   <v>       0.00462963</v>
   <v>       0.00462963</v>
   <v>       0.00462963</v>
   <v>       0.00231481</v>
   <v>       0.00231481</v>
   <v>       0.00462963</v>
   <v>       0.00462963</v>
   <v>       0.00462963</v>
   <v>       0.00462963</v>
   <v>       0.00462963</v>
   <v>       0.00231481</v>
   <v>       0.00462963</v>
   <v>       0.00925926</v>
   <v>       0.00925926</v>
   <v>       0.00925926</v>
   <v>       0.00925926</v>
   <v>       0.00925926</v>
   <v>       0.00462963</v>
   <v>       0.00462963</v>
   <v>       0.00925926</v>
   <v>       0.00925926</v>
   <v>       0.00925926</v>
   <v>       0.00925926</v>
   <v>       0.00925926</v>
   <v>       0.00462963</v>
   <v>       0.00462963</v>
   <v>       0.00925926</v>
   <v>       0.00925926</v>
   <v>       0.00925926</v>
   <v>       0.00925926</v>
   <v>       0.00925926</v>
   <v>       0.00462963</v>
   <v>       0.00231481</v>
   <v>       0.00462963</v>
   <v>       0.00462963</v>
   <v>       0.00462963</v>
   <v>       0.00462963</v>
   <v>       0.00462963</v>
   <v>       0.00231481</v>
   <v>       0.00231481</v>
   <v>       0.00462963</v>
   <v>       0.00462963</v>
   <v>       0.00462963</v>
   <v>       0.00462963</v>
   <v>       0.00462963</v>
   <v>       0.00231481</v>
   <v>       0.00462963</v>
   <v>       0.00925926</v>
   <v>       0.00925926</v>
   <v>       0.00925926</v>
   <v>       0.00925926</v>
   <v>       0.00925926</v>
   <v>       0.00462963</v>
   <v>       0.00462963</v>
   <v>       0.00925926</v>
   <v>       0.00925926</v>
   <v>       0.00925926</v>
   <v>       0.00925926</v>
   <v>       0.00925926</v>
   <v>       0.00462963</v>
   <v>       0.00231481</v>
   <v>       0.00462963</v>
   <v>       0.00462963</v>
   <v>       0.00462963</v>
   <v>       0.00462963</v>
   <v>       0.00462963</v>
   <v>       0.00231481</v>
   <v>       0.00231481</v>
   <v>       0.00462963</v>
   <v>       0.00462963</v>
   <v>       0.00462963</v>
   <v>       0.00462963</v>
   <v>       0.00462963</v>
   <v>       0.00231481</v>
   <v>       0.00462963</v>
   <v>       0.00925926</v>
   <v>       0.00925926</v>
   <v>       0.00925926</v>
   <v>       0.00925926</v>
   <v>       0.00925926</v>
   <v>       0.00462963</v>
   <v>       0.00231481</v>
   <v>       0.00462963</v>
   <v>       0.00462963</v>
   <v>       0.00462963</v>
   <v>       0.00462963</v>
   <v>       0.00462963</v>
   <v>       0.00231481</v>
   <v>       0.00231481</v>
   <v>       0.00462963</v>
   <v>       0.00462963</v>
   <v>       0.00462963</v>
   <v>       0.00462963</v>
   <v>       0.00462963</v>
   <v>       0.00231481</v>
   <v>       0.00231481</v>
   <v>       0.00462963</v>
   <v>       0.00462963</v>
   <v>       0.00462963</v>
   <v>       0.00462963</v>
   <v>       0.00462963</v>
   <v>       0.00231481</v>
   <v>       0.00057870</v>
   <v>       0.00115741</v>
   <v>       0.00115741</v>
   <v>       0.00115741</v>
   <v>       0.00115741</v>
   <v>       0.00115741</v>
   <v>       0.00057870</v>
  </varray>
 </kpoints>
 <parameters>
  <separator name="general" >
   <i type="string" name="SYSTEM">unknown system</i>
   <i type="logical" name="LCOMPAT"> F  </i>
  </separator>
  <separator name="electronic" >
   <i type="string" name="PREC">accura</i>
   <i name="ENMAX">    750.00000000</i>
   <i name="ENAUG">    291.05200000</i>
   <i name="EDIFF">      0.00000001</i>
   <i type="int" name="IALGO">    38</i>
   <i type="int" name="IWAVPR">    10</i>
   <i type="int" name="NBANDS">    65</i>
   <i name="NELECT">     96.00000000</i>
   <separator name="electronic smearing" >
    <i type="int" name="ISMEAR">     0</i>
    <i name="SIGMA">      0.01000000</i>
   </separator>
   <separator name="electronic projectors" >
    <i type="logical" name="LREAL"> F  </i>
    <v name="ROPT">      0.00000000</v>
    <i type="int" name="LMAXPAW">  -100</i>
    <i type="int" name="LMAXMIX">     2</i>
   </separator>
   <separator name="electronic startup" >
    <i type="int" name="ISTART">     0</i>
    <i type="int" name="ICHARG">     2</i>
    <i type="int" name="INIWAV">     1</i>
   </separator>
   <separator name="electronic spin" >
    <i type="int" name="ISPIN">     1</i>
    <i type="logical" name="LNONCOLLINEAR"> F  </i>
    <v name="MAGMOM">      1.00000000      1.00000000      1.00000000      1.00000000      1.00000000      1.00000000      1.00000000      1.00000000      1.00000000      1.00000000      1.00000000      1.00000000      1.00000000      1.00000000      1.00000000      1.00000000      1.00000000      1.00000000      1.00000000      1.00000000
      1.00000000      1.00000000      1.00000000      1.00000000      1.00000000      1.00000000      1.00000000      1.00000000      1.00000000      1.00000000      1.00000000      1.00000000</v>
    <i name="NUPDOWN">     -1.00000000</i>
    <i type="logical" name="LSORBIT"> F  </i>
    <v name="SAXIS">      0.00000000      0.00000000      1.00000000</v>
    <i type="logical" name="LSPIRAL"> F  </i>
    <v name="QSPIRAL">      0.00000000      0.00000000      0.00000000</v>
    <i type="logical" name="LZEROZ"> F  </i>
   </separator>
   <separator name="electronic exchange-correlation" >
    <i type="string" name="GGA">--</i>
    <i type="int" name="VOSKOWN">     0</i>
    <i type="logical" name="LASPH"> F  </i>
    <i type="logical" name="LMETAGGA"> F  </i>
    <i type="string" name="GGA2">--</i>
   </separator>
   <separator name="electronic convergence" >
    <i type="int" name="NELM">    60</i>
    <i type="int" name="NELMDL">    -5</i>
    <i type="int" name="NELMIN">     2</i>
    <i name="ENINI">    750.00000000</i>
    <separator name="electronic convergence detail" >
     <i type="logical" name="LDIAG"> T  </i>
     <i name="WEIMIN">      0.00000000</i>
     <i name="EBREAK">      0.00000000</i>
     <i name="DEPER">      0.30000000</i>
     <i type="int" name="NRMM">     4</i>
     <i name="TIME">      0.10000000</i>
    </separator>
   </separator>
   <separator name="electronic mixer" >
    <i name="AMIX">      0.40000000</i>
    <i name="BMIX">      1.00000000</i>
    <i name="AMIN">      0.10000000</i>
    <i name="AMIX_MAG">      1.60000000</i>
    <i name="BMIX_MAG">      1.00000000</i>
    <separator name="electronic mixer details" >
     <i type="int" name="IMIX">     4</i>
     <i type="int" name="MAXMIX">   -45</i>
     <i name="WC">    100.00000000</i>
     <i type="int" name="INIMIX">     1</i>
     <i type="int" name="MIXPRE">     1</i>
     <i type="int" name="MREMOVE">     5</i>
    </separator>
   </separator>
   <separator name="electronic dipolcorrection" >
    <i type="int" name="IDIPOL">     0</i>
    <i type="logical" name="LDIPOL"> F  </i>
    <v name="DIPOL">   -100.00000000</v>
    <i name="EFIELD">      0.00000000</i>
   </separator>
  </separator>
  <separator name="grids" >
   <i type="int" name="NGX">    72</i>
   <i type="int" name="NGY">    72</i>
   <i type="int" name="NGZ">    72</i>
   <i type="int" name="NGXF">   144</i>
   <i type="int" name="NGYF">   144</i>
   <i type="int" name="NGZF">   144</i>
   <i type="logical" name="ADDGRID"> T  </i>
  </separator>
  <separator name="ionic" >
   <i type="int" name="NSW">     0</i>
   <i type="int" name="IBRION">    -1</i>
   <i type="int" name="ISIF">     2</i>
   <i name="PSTRESS">      0.00000000</i>
   <i name="EDIFFG">      0.00000010</i>
   <i type="int" name="NFREE">     0</i>
   <i name="POTIM">      0.50000000</i>
   <i name="SMASS">     -3.00000000</i>
  </separator>
  <separator name="ionic md" >
   <i name="TEBEG">      0.00010000</i>
   <i name="TEEND">      0.00010000</i>
   <i type="int" name="NBLOCK">     1</i>
   <i type="int" name="KBLOCK">     1</i>
   <i type="int" name="NPACO">   256</i>
   <i name="APACO">     16.00000000</i>
  </separator>
  <separator name="symmetry" >
   <i type="int" name="ISYM">     2</i>
   <i name="SYMPREC">      0.00001000</i>
  </separator>
  <separator name="dos" >
   <i type="logical" name="LORBIT"> F  </i>
   <v name="RWIGS">     -1.00000000</v>
   <i type="int" name="NEDOS">   301</i>
   <i name="EMIN">     10.00000000</i>
   <i name="EMAX">    -10.00000000</i>
  </separator>
  <separator name="writing" >
   <i type="int" name="NWRITE">     2</i>
   <i type="logical" name="LWAVE"> F  </i>
   <i type="logical" name="LCHARG"> F  </i>
   <i type="logical" name="LPARD"> F  </i>
   <i type="logical" name="LVTOT"> F  </i>
   <i type="logical" name="LELF"> F  </i>
   <i type="logical" name="LOPTICS"> F  </i>
   <i name="STM">      0.00000000</i>
  </separator>
  <separator name="performance" >
   <i type="int" name="NPAR">     4</i>
   <i type="int" name="NSIM">     4</i>
   <i type="int" name="NBLK">   256</i>
   <i type="logical" name="LPLANE"> T  </i>
   <i type="logical" name="LCRITICAL_MEM"> F  </i>
   <i type="logical" name="LSCALAPACK"> F  </i>
   <i type="logical" name="LSCALU"> F  </i>
   <i type="logical" name="LASYNC"> F  </i>
  </separator>
  <separator name="miscellaneous" >
   <i type="int" name="IDIOT">     3</i>
   <i type="logical" name="LMUSIC"> F  </i>
   <v name="POMASS">     26.98200000</v>
   <i type="logical" name="LCORR"> T  </i>
  </separator>
  <i type="logical" name="LREAL_COMPAT"> F  </i>
  <i type="logical" name="GGA_COMPAT"> T  </i>
  <i type="logical" name="LBERRY"> F  </i>
  <i type="int" name="ICORELEVEL">     0</i>
  <i type="logical" name="LDAU"> F  </i>
  <i type="int" name="I_CONSTRAINED_M">     0</i>
 </parameters>
 <atominfo>
  <atoms>      32</atoms>
  <types>       1</types>
  <array name="atoms" >
   <dimension dim="1">ion</dimension>
   <field type="string">element</field>
   <field type="int">atomtype</field>
   <set>
    <rc><c>Al</c><c>   1</c></rc>
    <rc><c>Al</c><c>   1</c></rc>
    <rc><c>Al</c><c>   1</c></rc>
    <rc><c>Al</c><c>   1</c></rc>
    <rc><c>Al</c><c>   1</c></rc>
    <rc><c>Al</c><c>   1</c></rc>
    <rc><c>Al</c><c>   1</c></rc>
    <rc><c>Al</c><c>   1</c></rc>
    <rc><c>Al</c><c>   1</c></rc>
    <rc><c>Al</c><c>   1</c></rc>
    <rc><c>Al</c><c>   1</c></rc>
    <rc><c>Al</c><c>   1</c></rc>
    <rc><c>Al</c><c>   1</c></rc>
    <rc><c>Al</c><c>   1</c></rc>
    <rc><c>Al</c><c>   1</c></rc>
    <rc><c>Al</c><c>   1</c></rc>
    <rc><c>Al</c><c>   1</c></rc>
    <rc><c>Al</c><c>   1</c></rc>
    <rc><c>Al</c><c>   1</c></rc>
    <rc><c>Al</c><c>   1</c></rc>
    <rc><c>Al</c><c>   1</c></rc>
    <rc><c>Al</c><c>   1</c></rc>
    <rc><c>Al</c><c>   1</c></rc>
    <rc><c>Al</c><c>   1</c></rc>
    <rc><c>Al</c><c>   1</c></rc>
    <rc><c>Al</c><c>   1</c></rc>
    <rc><c>Al</c><c>   1</c></rc>
    <rc><c>Al</c><c>   1</c></rc>
    <rc><c>Al</c><c>   1</c></rc>
    <rc><c>Al</c><c>   1</c></rc>
    <rc><c>Al</c><c>   1</c></rc>
    <rc><c>Al</c><c>   1</c></rc>
   </set>
  </array>
  <array name="atomtypes" >
   <dimension dim="1">type</dimension>
   <field type="int">atomspertype</field>
   <field type="string">element</field>
   <field>mass</field>
   <field>valence</field>
   <field type="string">pseudopotential</field>
   <set>
    <rc><c>  32</c><c>Al</c><c>     26.98200000</c><c>      3.00000000</c><c> PAW_PBE Al 04Jan2001                   </c></rc>
   </set>
  </array>
 </atominfo>
 <structure name="initialpos" >
  <crystal>
   <varray name="basis" >
    <v>       8.07461274      0.00000000      0.00000000</v>
    <v>       0.00000000      8.07461274      0.00000000</v>
    <v>       0.00000000      0.00000000      8.07461274</v>
   </varray>
   <i name="volume">    526.45967079</i>
   <varray name="rec_basis" >
    <v>       0.12384495      0.00000000      0.00000000</v>
    <v>       0.00000000      0.12384495      0.00000000</v>
    <v>       0.00000000      0.00000000      0.12384495</v>
   </varray>
  </crystal>
  <varray name="positions" >
   <v>       0.25123845      0.25000000      0.00000000</v>
   <v>       0.75000000      0.25000000      0.00000000</v>
   <v>       0.25000000      0.75000000      0.00000000</v>
   <v>       0.75000000      0.75000000      0.00000000</v>
   <v>       0.25000000      0.25000000      0.50000000</v>
   <v>       0.75000000      0.25000000      0.50000000</v>
   <v>       0.25000000      0.75000000      0.50000000</v>
   <v>       0.75000000      0.75000000      0.50000000</v>
   <v>       0.25000000      0.00000000      0.25000000</v>
   <v>       0.75000000      0.00000000      0.25000000</v>
   <v>       0.25000000      0.50000000      0.25000000</v>
   <v>       0.75000000      0.50000000      0.25000000</v>
   <v>       0.25000000      0.00000000      0.75000000</v>
   <v>       0.75000000      0.00000000      0.75000000</v>
   <v>       0.25000000      0.50000000      0.75000000</v>
   <v>       0.75000000      0.50000000      0.75000000</v>
   <v>       0.00000000      0.25000000      0.25000000</v>
   <v>       0.50000000      0.25000000      0.25000000</v>
   <v>       0.00000000      0.75000000      0.25000000</v>
   <v>       0.50000000      0.75000000      0.25000000</v>
   <v>       0.00000000      0.25000000      0.75000000</v>
   <v>       0.50000000      0.25000000      0.75000000</v>
   <v>       0.00000000      0.75000000      0.75000000</v>
   <v>       0.50000000      0.75000000      0.75000000</v>
   <v>       0.00000000      0.00000000      0.00000000</v>
   <v>       0.50000000      0.00000000      0.00000000</v>
   <v>       0.00000000      0.50000000      0.00000000</v>
   <v>       0.50000000      0.50000000      0.00000000</v>
   <v>       0.00000000      0.00000000      0.50000000</v>
   <v>       0.50000000      0.00000000      0.50000000</v>
   <v>       0.00000000      0.50000000      0.50000000</v>
   <v>       0.50000000      0.50000000      0.50000000</v>
  </varray>
 </structure>
 <calculation>
  <scstep>
   <time name="dav"> 1851.24 1853.46</time>
   <time name="total"> 1855.07 1857.30</time>
   <energy>
    <i name="alphaZ">     -6.53311864</i>
    <i name="ewald">  -2354.79383508</i>
    <i name="hartreedc">     -3.21085913</i>
    <i name="XCdc">   -839.50331866</i>
    <i name="pawpsdc">   1137.73615723</i>
    <i name="pawaedc">   -115.16745734</i>
    <i name="eentropy">     -0.00038708</i>
    <i name="bandstr">    649.43736720</i>
    <i name="atom">   1713.23509266</i>
    <i name="e_fr_energy">    181.19964116</i>
    <i name="e_wo_entrp">    181.20002825</i>
    <i name="e_0_energy">    181.19983471</i>
   </energy>
  </scstep>
  <scstep>
   <time name="dav"> 2108.59 2110.26</time>
   <time name="total"> 2108.65 2110.32</time>
   <energy>
    <i name="e_fr_energy">   -102.64679325</i>
    <i name="e_wo_entrp">   -102.64611820</i>
    <i name="e_0_energy">   -102.64645573</i>
   </energy>
  </scstep>
  <scstep>
   <time name="dav"> 2203.76 2225.97</time>
   <time name="total"> 2203.82 2226.04</time>
   <energy>
    <i name="e_fr_energy">   -120.13909508</i>
    <i name="e_wo_entrp">   -120.13831715</i>
    <i name="e_0_energy">   -120.13870612</i>
   </energy>
  </scstep>
  <scstep>
   <time name="dav"> 2106.19 2135.41</time>
   <time name="total"> 2106.25 2135.48</time>
   <energy>
    <i name="e_fr_energy">   -120.57298672</i>
    <i name="e_wo_entrp">   -120.57248275</i>
    <i name="e_0_energy">   -120.57273473</i>
   </energy>
  </scstep>
  <scstep>
   <time name="dav"> 2161.92 2162.62</time>
   <time name="total"> 2295.43 2296.18</time>
   <energy>
    <i name="e_fr_energy">   -120.57862950</i>
    <i name="e_wo_entrp">   -120.57812846</i>
    <i name="e_0_energy">   -120.57837898</i>
   </energy>
  </scstep>
  <scstep>
   <time name="dav"> 2116.99 2117.67</time>
   <time name="total"> 2254.05 2254.79</time>
   <energy>
    <i name="e_fr_energy">   -120.16060440</i>
    <i name="e_wo_entrp">   -120.16012726</i>
    <i name="e_0_energy">   -120.16036583</i>
   </energy>
  </scstep>
  <scstep>
   <time name="dav"> 2041.18 2041.80</time>
   <time name="total"> 2179.37 2180.04</time>
   <energy>
    <i name="e_fr_energy">   -119.85536078</i>
    <i name="e_wo_entrp">   -119.85481001</i>
    <i name="e_0_energy">   -119.85508540</i>
   </energy>
  </scstep>
  <scstep>
   <time name="dav"> 2159.03 2160.32</time>
   <time name="total"> 2296.64 2297.98</time>
   <energy>
    <i name="e_fr_energy">   -119.85548112</i>
    <i name="e_wo_entrp">   -119.85492782</i>
    <i name="e_0_energy">   -119.85520447</i>
   </energy>
  </scstep>
  <scstep>
   <time name="dav"> 2129.55 2130.64</time>
   <time name="total"> 2267.74 2268.87</time>
   <energy>
    <i name="e_fr_energy">   -119.85551169</i>
    <i name="e_wo_entrp">   -119.85495635</i>
    <i name="e_0_energy">   -119.85523402</i>
   </energy>
  </scstep>
  <scstep>
   <time name="dav"> 2169.36 2170.61</time>
   <time name="total"> 2307.17 2308.46</time>
   <energy>
    <i name="e_fr_energy">   -119.85551217</i>
    <i name="e_wo_entrp">   -119.85495670</i>
    <i name="e_0_energy">   -119.85523443</i>
   </energy>
  </scstep>
  <scstep>
   <time name="dav"> 2130.37 2131.20</time>
   <time name="total"> 2273.65 2274.54</time>
   <energy>
    <i name="e_fr_energy">   -119.85550933</i>
    <i name="e_wo_entrp">   -119.85495384</i>
    <i name="e_0_energy">   -119.85523158</i>
   </energy>
  </scstep>
  <scstep>
   <time name="dav"> 1630.15 1632.30</time>
   <time name="total"> 1775.30 1779.43</time>
   <energy>
    <i name="e_fr_energy">   -119.85550831</i>
    <i name="e_wo_entrp">   -119.85495280</i>
    <i name="e_0_energy">   -119.85523055</i>
   </energy>
  </scstep>
  <scstep>
   <time name="dav"> 1445.20 1446.37</time>
   <time name="total"> 1590.34 1591.63</time>
   <energy>
    <i name="e_fr_energy">   -119.85550818</i>
    <i name="e_wo_entrp">   -119.85495267</i>
    <i name="e_0_energy">   -119.85523042</i>
   </energy>
  </scstep>
  <scstep>
   <time name="dav"> 1399.42 1417.99</time>
   <time name="total"> 1404.14 1422.78</time>
   <energy>
    <i name="alphaZ">     -6.53311864</i>
    <i name="ewald">  -2354.79383508</i>
    <i name="hartreedc">     -3.36030156</i>
    <i name="XCdc">   -835.96653817</i>
    <i name="pawpsdc">   1141.59168122</i>
    <i name="pawaedc">   -119.44043926</i>
    <i name="eentropy">     -0.00055551</i>
    <i name="bandstr">    345.41250615</i>
    <i name="atom">   1713.23509266</i>
    <i name="e_fr_energy">   -119.85550817</i>
    <i name="e_wo_entrp">   -119.85495267</i>
    <i name="e_0_energy">   -119.85523042</i>
   </energy>
  </scstep>
  <structure>
   <crystal>
    <varray name="basis" >
     <v>       8.07461274      0.00000000      0.00000000</v>
     <v>       0.00000000      8.07461274      0.00000000</v>
     <v>       0.00000000      0.00000000      8.07461274</v>
    </varray>
    <i name="volume">    526.45967079</i>
    <varray name="rec_basis" >
     <v>       0.12384495      0.00000000      0.00000000</v>
     <v>       0.00000000      0.12384495      0.00000000</v>
     <v>       0.00000000      0.00000000      0.12384495</v>
    </varray>
   </crystal>
   <varray name="positions" >
    <v>       0.25123845      0.25000000      0.00000000</v>
    <v>       0.75000000      0.25000000      0.00000000</v>
    <v>       0.25000000      0.75000000      0.00000000</v>
    <v>       0.75000000      0.75000000      0.00000000</v>
    <v>       0.25000000      0.25000000      0.50000000</v>
    <v>       0.75000000      0.25000000      0.50000000</v>
    <v>       0.25000000      0.75000000      0.50000000</v>
    <v>       0.75000000      0.75000000      0.50000000</v>
    <v>       0.25000000      0.00000000      0.25000000</v>
    <v>       0.75000000      0.00000000      0.25000000</v>
    <v>       0.25000000      0.50000000      0.25000000</v>
    <v>       0.75000000      0.50000000      0.25000000</v>
    <v>       0.25000000      0.00000000      0.75000000</v>
    <v>       0.75000000      0.00000000      0.75000000</v>
    <v>       0.25000000      0.50000000      0.75000000</v>
    <v>       0.75000000      0.50000000      0.75000000</v>
    <v>       0.00000000      0.25000000      0.25000000</v>
    <v>       0.50000000      0.25000000      0.25000000</v>
    <v>       0.00000000      0.75000000      0.25000000</v>
    <v>       0.50000000      0.75000000      0.25000000</v>
    <v>       0.00000000      0.25000000      0.75000000</v>
    <v>       0.50000000      0.25000000      0.75000000</v>
    <v>       0.00000000      0.75000000      0.75000000</v>
    <v>       0.50000000      0.75000000      0.75000000</v>
    <v>       0.00000000      0.00000000      0.00000000</v>
    <v>       0.50000000      0.00000000      0.00000000</v>
    <v>       0.00000000      0.50000000      0.00000000</v>
    <v>       0.50000000      0.50000000      0.00000000</v>
    <v>       0.00000000      0.00000000      0.50000000</v>
    <v>       0.50000000      0.00000000      0.50000000</v>
    <v>       0.00000000      0.50000000      0.50000000</v>
    <v>       0.50000000      0.50000000      0.50000000</v>
   </varray>
  </structure>
  <varray name="forces" >
   <v>      -0.04673208     -0.00000000     -0.00000000</v>
   <v>       0.00205067     -0.00000000     -0.00000000</v>
   <v>      -0.00041872      0.00000000     -0.00000000</v>
   <v>       0.00049756      0.00000000     -0.00000000</v>
   <v>      -0.00041872      0.00000000      0.00000000</v>
   <v>       0.00049756      0.00000000      0.00000000</v>
   <v>       0.00001339     -0.00000000     -0.00000000</v>
   <v>      -0.00028416     -0.00000000     -0.00000000</v>
   <v>      -0.00145309      0.00002087     -0.00002087</v>
   <v>      -0.00041411     -0.00000075      0.00000075</v>
   <v>      -0.00145309     -0.00002087     -0.00002087</v>
   <v>      -0.00041411      0.00000075      0.00000075</v>
   <v>      -0.00145309      0.00002087      0.00002087</v>
   <v>      -0.00041411     -0.00000075     -0.00000075</v>
   <v>      -0.00145309     -0.00002087      0.00002087</v>
   <v>      -0.00041411      0.00000075     -0.00000075</v>
   <v>       0.00643804      0.00000000     -0.00648796</v>
   <v>       0.00658883      0.00000000      0.00670536</v>
   <v>       0.00001693      0.00000000      0.00024180</v>
   <v>       0.00002202      0.00000000     -0.00024326</v>
   <v>       0.00643804     -0.00000000      0.00648796</v>
   <v>       0.00658883      0.00000000     -0.00670536</v>
   <v>       0.00001693      0.00000000     -0.00024180</v>
   <v>       0.00002202      0.00000000      0.00024326</v>
   <v>       0.00643804      0.00648796     -0.00000000</v>
   <v>       0.00658883     -0.00670536     -0.00000000</v>
   <v>       0.00643804     -0.00648796     -0.00000000</v>
   <v>       0.00658883      0.00670536     -0.00000000</v>
   <v>       0.00001693     -0.00024180     -0.00000000</v>
   <v>       0.00002202      0.00024326      0.00000000</v>
   <v>       0.00001693      0.00024180     -0.00000000</v>
   <v>       0.00002202     -0.00024326     -0.00000000</v>
  </varray>
  <varray name="stress" >
   <v>       1.47572452     -0.00000000      0.00000000</v>
   <v>       0.00000000      1.47568424      0.00000000</v>
   <v>       0.00000000      0.00000000      1.47568424</v>
  </varray>
  <energy>
   <i name="e_fr_energy">   -119.85550817</i>
   <i name="e_wo_entrp">   -119.85523042</i>
   <i name="e_0_energy">     -0.00055551</i>
  </energy>
  <eigenvalues>
   <array>
    <dimension dim="1">band</dimension>
    <dimension dim="2">kpoint</dimension>
    <dimension dim="3">spin</dimension>
    <field>eigene</field>
    <field>occ</field>
    <set>
     <set comment="spin 1">
      <set comment="kpoint 1">
       <r>  -3.1241  1.0000</r>
       <r>  -0.8753  1.0000</r>
       <r>  -0.8716  1.0000</r>
       <r>  -0.8716  1.0000</r>
       <r>  -0.8716  1.0000</r>
       <r>  -0.8716  1.0000</r>
       <r>  -0.8680  1.0000</r>
       <r>   1.3393  1.0000</r>
       <r>   1.3438  1.0000</r>
       <r>   1.3438  1.0000</r>
       <r>   1.3454  1.0000</r>
       <r>   1.3456  1.0000</r>
       <r>   1.3456  1.0000</r>
       <r>   1.3456  1.0000</r>
       <r>   1.3456  1.0000</r>
       <r>   1.3458  1.0000</r>
       <r>   1.3474  1.0000</r>
       <r>   1.3474  1.0000</r>
       <r>   1.3518  1.0000</r>
       <r>   3.4258  1.0000</r>
       <r>   3.4258  1.0000</r>
       <r>   3.4258  1.0000</r>
       <r>   3.4258  1.0000</r>
       <r>   3.6468  1.0000</r>
       <r>   3.6468  1.0000</r>
       <r>   3.6468  1.0000</r>
       <r>   3.6468  1.0000</r>
       <r>   5.0996  1.0000</r>
       <r>   5.0996  1.0000</r>
       <r>   5.0996  1.0000</r>
       <r>   6.4293  1.0000</r>
       <r>   6.4293  1.0000</r>
       <r>   6.4293  1.0000</r>
       <r>   7.1763  1.0000</r>
       <r>   7.1763  1.0000</r>
       <r>   7.1806  1.0000</r>
       <r>   7.1806  1.0000</r>
       <r>   7.1807  1.0000</r>
       <r>   7.1807  1.0000</r>
       <r>   7.1807  1.0000</r>
       <r>   7.1808  1.0000</r>
       <r>   7.1808  1.0000</r>
       <r>   7.1808  1.0000</r>
       <r>   7.1851  1.0000</r>
       <r>   7.1851  1.0000</r>
       <r>   8.1909  0.0000</r>
       <r>   8.1951  0.0000</r>
       <r>   8.1951  0.0000</r>
       <r>   8.1951  0.0000</r>
       <r>   8.1951  0.0000</r>
       <r>   8.1992  0.0000</r>
       <r>   9.1527  0.0000</r>
       <r>   9.1537  0.0000</r>
       <r>   9.1537  0.0000</r>
       <r>   9.1537  0.0000</r>
       <r>   9.1537  0.0000</r>
       <r>   9.1547  0.0000</r>
       <r>   9.2642  0.0000</r>
       <r>   9.2645  0.0000</r>
       <r>   9.2659  0.0000</r>
       <r>   9.2682  0.0000</r>
       <r>   9.2683  0.0000</r>
       <r>   9.2683  0.0000</r>
       <r>   9.2684  0.0000</r>
       <r>   9.2684  0.0000</r>
       <r>   9.2702  0.0000</r>
       <r>   9.2720  0.0000</r>
       <r>   9.2724  0.0000</r>
      </set>
      <set comment="kpoint 2">
       <r>  -3.1084  1.0000</r>
       <r>  -1.2290  1.0000</r>
       <r>  -0.8561  1.0000</r>
       <r>  -0.8561  1.0000</r>
       <r>  -0.8561  1.0000</r>
       <r>  -0.8561  1.0000</r>
       <r>  -0.4844  1.0000</r>
       <r>   0.9938  1.0000</r>
       <r>   0.9938  1.0000</r>
       <r>   0.9938  1.0000</r>
       <r>   0.9938  1.0000</r>
       <r>   1.3609  1.0000</r>
       <r>   1.3609  1.0000</r>
       <r>   1.3609  1.0000</r>
       <r>   1.3609  1.0000</r>
       <r>   1.7268  1.0000</r>
       <r>   1.7268  1.0000</r>
       <r>   1.7268  1.0000</r>
       <r>   1.7269  1.0000</r>
       <r>   3.1723  1.0000</r>
       <r>   3.1723  1.0000</r>
       <r>   3.1723  1.0000</r>
       <r>   3.1723  1.0000</r>
       <r>   3.9295  1.0000</r>
       <r>   3.9295  1.0000</r>
       <r>   3.9295  1.0000</r>
       <r>   3.9295  1.0000</r>
       <r>   4.7972  1.0000</r>
       <r>   5.1140  1.0000</r>
       <r>   5.1140  1.0000</r>
       <r>   6.4445  1.0000</r>
       <r>   6.4446  1.0000</r>
       <r>   6.7589  1.0000</r>
       <r>   6.8477  1.0000</r>
       <r>   6.8477  1.0000</r>
       <r>   6.8902  1.0000</r>
       <r>   6.8902  1.0000</r>
       <r>   6.8902  1.0000</r>
       <r>   6.8903  1.0000</r>
       <r>   7.1952  1.0000</r>
       <r>   7.1952  1.0000</r>
       <r>   7.1952  1.0000</r>
       <r>   7.1952  1.0000</r>
       <r>   7.5428  1.0000</r>
       <r>   7.5428  1.0000</r>
       <r>   8.0883  0.0000</r>
       <r>   8.0884  0.0000</r>
       <r>   8.3760  0.0000</r>
       <r>   8.3760  0.0000</r>
       <r>   8.3760  0.0000</r>
       <r>   8.3760  0.0000</r>
       <r>   8.9345  0.0000</r>
       <r>   8.9345  0.0000</r>
       <r>   8.9346  0.0000</r>
       <r>   8.9346  0.0000</r>
       <r>   9.0058  0.0000</r>
       <r>   9.0059  0.0000</r>
       <r>   9.0059  0.0000</r>
       <r>   9.0059  0.0000</r>
       <r>   9.2874  0.0000</r>
       <r>   9.2875  0.0000</r>
       <r>   9.3051  0.0000</r>
       <r>   9.3051  0.0000</r>
       <r>   9.3052  0.0000</r>
       <r>   9.3052  0.0000</r>
       <r>   9.6312  0.0000</r>
       <r>   9.6312  0.0000</r>
       <r>   9.6312  0.0000</r>
      </set>
      <set comment="kpoint 3">
       <r>  -3.0611  1.0000</r>
       <r>  -1.5560  1.0000</r>
       <r>  -0.8096  1.0000</r>
       <r>  -0.8096  1.0000</r>
       <r>  -0.8096  1.0000</r>
       <r>  -0.8096  1.0000</r>
       <r>  -0.0675  1.0000</r>
       <r>   0.6719  1.0000</r>
       <r>   0.6719  1.0000</r>
       <r>   0.6719  1.0000</r>
       <r>   0.6719  1.0000</r>
       <r>   1.4067  1.0000</r>
       <r>   1.4067  1.0000</r>
       <r>   1.4067  1.0000</r>
       <r>   1.4067  1.0000</r>
       <r>   2.1372  1.0000</r>
       <r>   2.1372  1.0000</r>
       <r>   2.1372  1.0000</r>
       <r>   2.1372  1.0000</r>
       <r>   2.8624  1.0000</r>
       <r>   2.8624  1.0000</r>
       <r>   2.8624  1.0000</r>
       <r>   2.8624  1.0000</r>
       <r>   4.2311  1.0000</r>
       <r>   4.3271  1.0000</r>
       <r>   4.3271  1.0000</r>
       <r>   4.3271  1.0000</r>
       <r>   4.3271  1.0000</r>
       <r>   5.1573  1.0000</r>
       <r>   5.1573  1.0000</r>
       <r>   6.3459  1.0000</r>
       <r>   6.3459  1.0000</r>
       <r>   6.3459  1.0000</r>
       <r>   6.3459  1.0000</r>
       <r>   6.4902  1.0000</r>
       <r>   6.4903  1.0000</r>
       <r>   6.5439  1.0000</r>
       <r>   6.5439  1.0000</r>
       <r>   7.2386  1.0000</r>
       <r>   7.2386  1.0000</r>
       <r>   7.2386  1.0000</r>
       <r>   7.2386  1.0000</r>
       <r>   7.4069  1.0000</r>
       <r>   7.8640  1.0000</r>
       <r>   7.8640  1.0000</r>
       <r>   7.9341  1.0000</r>
       <r>   7.9341  1.0000</r>
       <r>   8.4816  0.0000</r>
       <r>   8.4817  0.0000</r>
       <r>   8.4817  0.0000</r>
       <r>   8.4817  0.0000</r>
       <r>   8.5882  0.0000</r>
       <r>   8.5882  0.0000</r>
       <r>   8.5882  0.0000</r>
       <r>   8.5883  0.0000</r>
       <r>   8.6299  0.0000</r>
       <r>   8.6299  0.0000</r>
       <r>   8.6300  0.0000</r>
       <r>   8.6300  0.0000</r>
       <r>   9.5929  0.0000</r>
       <r>   9.5929  0.0000</r>
       <r>   9.7626  0.0000</r>
       <r>   9.7626  0.0000</r>
       <r>   9.7626  0.0000</r>
       <r>   9.7626  0.0000</r>
       <r>  10.0232  0.0000</r>
       <r>  10.0232  0.0000</r>
       <r>  10.0234  0.0000</r>
      </set>
      <set comment="kpoint 4">
       <r>  -2.9823  1.0000</r>
       <r>  -1.8526  1.0000</r>
       <r>  -0.7321  1.0000</r>
       <r>  -0.7320  1.0000</r>
       <r>  -0.7320  1.0000</r>
       <r>  -0.7320  1.0000</r>
       <r>   0.3767  1.0000</r>
       <r>   0.3799  1.0000</r>
       <r>   0.3799  1.0000</r>
       <r>   0.3799  1.0000</r>
       <r>   0.3820  1.0000</r>
       <r>   1.4831  1.0000</r>
       <r>   1.4831  1.0000</r>
       <r>   1.4831  1.0000</r>
       <r>   1.4831  1.0000</r>
       <r>   2.5733  1.0000</r>
       <r>   2.5752  1.0000</r>
       <r>   2.5752  1.0000</r>
       <r>   2.5763  1.0000</r>
       <r>   2.5769  1.0000</r>
       <r>   2.5780  1.0000</r>
       <r>   2.5780  1.0000</r>
       <r>   2.5799  1.0000</r>
       <r>   3.6251  1.0000</r>
       <r>   4.7585  1.0000</r>
       <r>   4.7585  1.0000</r>
       <r>   4.7585  1.0000</r>
       <r>   4.7585  1.0000</r>
       <r>   5.2294  1.0000</r>
       <r>   5.2294  1.0000</r>
       <r>   5.7586  1.0000</r>
       <r>   5.7586  1.0000</r>
       <r>   5.7586  1.0000</r>
       <r>   5.7586  1.0000</r>
       <r>   6.2692  1.0000</r>
       <r>   6.2692  1.0000</r>
       <r>   6.5662  1.0000</r>
       <r>   6.5662  1.0000</r>
       <r>   7.3110  1.0000</r>
       <r>   7.3110  1.0000</r>
       <r>   7.3110  1.0000</r>
       <r>   7.3110  1.0000</r>
       <r>   7.6170  1.0000</r>
       <r>   7.6170  1.0000</r>
       <r>   7.9039  1.0000</r>
       <r>   7.9039  1.0000</r>
       <r>   7.9039  1.0000</r>
       <r>   7.9039  1.0000</r>
       <r>   8.1494  0.0000</r>
       <r>   8.3521  0.0000</r>
       <r>   8.3521  0.0000</r>
       <r>   8.3544  0.0000</r>
       <r>   8.3544  0.0000</r>
       <r>   8.3568  0.0000</r>
       <r>   8.3568  0.0000</r>
       <r>   8.7323  0.0000</r>
       <r>   8.7323  0.0000</r>
       <r>   8.7323  0.0000</r>
       <r>   8.7323  0.0000</r>
       <r>   9.8671  0.0000</r>
       <r>   9.8671  0.0000</r>
       <r>   9.8671  0.0000</r>
       <r>   9.8671  0.0000</r>
       <r>   9.9741  0.0000</r>
       <r>   9.9741  0.0000</r>
       <r>  10.4170  0.0000</r>
       <r>  10.4235  0.0000</r>
       <r>  10.4389  0.0000</r>
      </set>
      <set comment="kpoint 5">
       <r>  -2.8721  1.0000</r>
       <r>  -2.1185  1.0000</r>
       <r>  -0.6236  1.0000</r>
       <r>  -0.6236  1.0000</r>
       <r>  -0.6236  1.0000</r>
       <r>  -0.6236  1.0000</r>
       <r>   0.1181  1.0000</r>
       <r>   0.1181  1.0000</r>
       <r>   0.1181  1.0000</r>
       <r>   0.1181  1.0000</r>
       <r>   0.8538  1.0000</r>
       <r>   1.5899  1.0000</r>
       <r>   1.5899  1.0000</r>
       <r>   1.5899  1.0000</r>
       <r>   1.5899  1.0000</r>
       <r>   2.3199  1.0000</r>
       <r>   2.3199  1.0000</r>
       <r>   2.3199  1.0000</r>
       <r>   2.3199  1.0000</r>
       <r>   3.0253  1.0000</r>
       <r>   3.0436  1.0000</r>
       <r>   3.0436  1.0000</r>
       <r>   3.0436  1.0000</r>
       <r>   3.0437  1.0000</r>
       <r>   5.1739  1.0000</r>
       <r>   5.1739  1.0000</r>
       <r>   5.1740  1.0000</r>
       <r>   5.1740  1.0000</r>
       <r>   5.2193  1.0000</r>
       <r>   5.2193  1.0000</r>
       <r>   5.2193  1.0000</r>
       <r>   5.2193  1.0000</r>
       <r>   5.3304  1.0000</r>
       <r>   5.3304  1.0000</r>
       <r>   6.0235  1.0000</r>
       <r>   6.0235  1.0000</r>
       <r>   6.6721  1.0000</r>
       <r>   6.6721  1.0000</r>
       <r>   7.3259  1.0000</r>
       <r>   7.3259  1.0000</r>
       <r>   7.3259  1.0000</r>
       <r>   7.3260  1.0000</r>
       <r>   7.3797  1.0000</r>
       <r>   7.3798  1.0000</r>
       <r>   7.4124  1.0000</r>
       <r>   7.4124  1.0000</r>
       <r>   7.4125  1.0000</r>
       <r>   7.4125  1.0000</r>
       <r>   8.1079  0.0000</r>
       <r>   8.1079  0.0000</r>
       <r>   8.1079  0.0000</r>
       <r>   8.1079  0.0000</r>
       <r>   8.8043  0.0000</r>
       <r>   8.8043  0.0000</r>
       <r>   8.8665  0.0000</r>
       <r>   8.8665  0.0000</r>
       <r>   8.8665  0.0000</r>
       <r>   8.8665  0.0000</r>
       <r>   8.9399  0.0000</r>
       <r>   9.6133  0.0000</r>
       <r>   9.6133  0.0000</r>
       <r>   9.6133  0.0000</r>
       <r>   9.6133  0.0000</r>
       <r>  10.3976  0.0000</r>
       <r>  10.3976  0.0000</r>
       <r>  10.8941  0.0000</r>
       <r>  10.8945  0.0000</r>
       <r>  10.8952  0.0000</r>
      </set>
      <set comment="kpoint 6">
       <r>  -2.7305  1.0000</r>
       <r>  -2.3536  1.0000</r>
       <r>  -0.4843  1.0000</r>
       <r>  -0.4842  1.0000</r>
       <r>  -0.4842  1.0000</r>
       <r>  -0.4842  1.0000</r>
       <r>  -0.1132  1.0000</r>
       <r>  -0.1132  1.0000</r>
       <r>  -0.1132  1.0000</r>
       <r>  -0.1132  1.0000</r>
       <r>   1.3571  1.0000</r>
       <r>   1.7271  1.0000</r>
       <r>   1.7272  1.0000</r>
       <r>   1.7272  1.0000</r>
       <r>   1.7272  1.0000</r>
       <r>   2.0923  1.0000</r>
       <r>   2.0923  1.0000</r>
       <r>   2.0923  1.0000</r>
       <r>   2.0923  1.0000</r>
       <r>   2.4447  1.0000</r>
       <r>   3.5384  1.0000</r>
       <r>   3.5384  1.0000</r>
       <r>   3.5384  1.0000</r>
       <r>   3.5384  1.0000</r>
       <r>   4.6058  1.0000</r>
       <r>   4.6058  1.0000</r>
       <r>   4.6058  1.0000</r>
       <r>   4.6058  1.0000</r>
       <r>   5.4603  1.0000</r>
       <r>   5.4603  1.0000</r>
       <r>   5.7081  1.0000</r>
       <r>   5.7081  1.0000</r>
       <r>   5.7081  1.0000</r>
       <r>   5.7081  1.0000</r>
       <r>   5.8068  1.0000</r>
       <r>   5.8068  1.0000</r>
       <r>   6.7637  1.0000</r>
       <r>   6.7638  1.0000</r>
       <r>   6.7638  1.0000</r>
       <r>   6.7638  1.0000</r>
       <r>   6.8074  1.0000</r>
       <r>   6.8075  1.0000</r>
       <r>   7.1630  1.0000</r>
       <r>   7.1630  1.0000</r>
       <r>   7.5428  1.0000</r>
       <r>   7.5428  1.0000</r>
       <r>   7.5428  1.0000</r>
       <r>   7.5428  1.0000</r>
       <r>   7.8905  1.0000</r>
       <r>   7.8905  1.0000</r>
       <r>   7.8905  1.0000</r>
       <r>   7.8905  1.0000</r>
       <r>   9.0157  0.0000</r>
       <r>   9.0157  0.0000</r>
       <r>   9.0157  0.0000</r>
       <r>   9.0157  0.0000</r>
       <r>   9.2832  0.0000</r>
       <r>   9.2832  0.0000</r>
       <r>   9.3871  0.0000</r>
       <r>   9.3871  0.0000</r>
       <r>   9.3871  0.0000</r>
       <r>   9.3871  0.0000</r>
       <r>   9.7658  0.0000</r>
       <r>  10.3288  0.0000</r>
       <r>  10.3288  0.0000</r>
       <r>  10.8504  0.0000</r>
       <r>  10.8504  0.0000</r>
       <r>  11.3740  0.0000</r>
      </set>
      <set comment="kpoint 7">
       <r>  -2.5590  1.0000</r>
       <r>  -2.5561  1.0000</r>
       <r>  -0.3181  1.0000</r>
       <r>  -0.3149  1.0000</r>
       <r>  -0.3149  1.0000</r>
       <r>  -0.3142  1.0000</r>
       <r>  -0.3140  1.0000</r>
       <r>  -0.3132  1.0000</r>
       <r>  -0.3132  1.0000</r>
       <r>  -0.3101  1.0000</r>
       <r>   1.8857  1.0000</r>
       <r>   1.8880  1.0000</r>
       <r>   1.8930  1.0000</r>
       <r>   1.8934  1.0000</r>
       <r>   1.8934  1.0000</r>
       <r>   1.8942  1.0000</r>
       <r>   1.8951  1.0000</r>
       <r>   1.8960  1.0000</r>
       <r>   1.8960  1.0000</r>
       <r>   1.8984  1.0000</r>
       <r>   4.0588  1.0000</r>
       <r>   4.0588  1.0000</r>
       <r>   4.0589  1.0000</r>
       <r>   4.0595  1.0000</r>
       <r>   4.0598  1.0000</r>
       <r>   4.0605  1.0000</r>
       <r>   4.0605  1.0000</r>
       <r>   4.0605  1.0000</r>
       <r>   5.6175  1.0000</r>
       <r>   5.6175  1.0000</r>
       <r>   5.6206  1.0000</r>
       <r>   5.6206  1.0000</r>
       <r>   6.2224  1.0000</r>
       <r>   6.2224  1.0000</r>
       <r>   6.2230  1.0000</r>
       <r>   6.2233  1.0000</r>
       <r>   6.2237  1.0000</r>
       <r>   6.2240  1.0000</r>
       <r>   6.2245  1.0000</r>
       <r>   6.2245  1.0000</r>
       <r>   6.9696  1.0000</r>
       <r>   6.9706  1.0000</r>
       <r>   6.9724  1.0000</r>
       <r>   6.9735  1.0000</r>
       <r>   7.6997  1.0000</r>
       <r>   7.6997  1.0000</r>
       <r>   7.7007  1.0000</r>
       <r>   7.7021  1.0000</r>
       <r>   7.7022  1.0000</r>
       <r>   7.7036  1.0000</r>
       <r>   7.7045  1.0000</r>
       <r>   7.7045  1.0000</r>
       <r>   9.1860  0.0000</r>
       <r>   9.1870  0.0000</r>
       <r>   9.1870  0.0000</r>
       <r>   9.1871  0.0000</r>
       <r>   9.1893  0.0000</r>
       <r>   9.1895  0.0000</r>
       <r>   9.1895  0.0000</r>
       <r>   9.1905  0.0000</r>
       <r>   9.7903  0.0000</r>
       <r>   9.7903  0.0000</r>
       <r>   9.7926  0.0000</r>
       <r>   9.7926  0.0000</r>
       <r>  10.6215  0.0000</r>
       <r>  10.6228  0.0000</r>
       <r>  11.3236  0.0000</r>
       <r>  11.3254  0.0000</r>
      </set>
      <set comment="kpoint 8">
       <r>  -3.1084  1.0000</r>
       <r>  -1.2290  1.0000</r>
       <r>  -0.8590  1.0000</r>
       <r>  -0.8561  1.0000</r>
       <r>  -0.8561  1.0000</r>
       <r>  -0.8533  1.0000</r>
       <r>  -0.4844  1.0000</r>
       <r>   0.9910  1.0000</r>
       <r>   0.9938  1.0000</r>
       <r>   0.9938  1.0000</r>
       <r>   0.9967  1.0000</r>
       <r>   1.3587  1.0000</r>
       <r>   1.3597  1.0000</r>
       <r>   1.3620  1.0000</r>
       <r>   1.3630  1.0000</r>
       <r>   1.7240  1.0000</r>
       <r>   1.7268  1.0000</r>
       <r>   1.7268  1.0000</r>
       <r>   1.7297  1.0000</r>
       <r>   3.1703  1.0000</r>
       <r>   3.1712  1.0000</r>
       <r>   3.1735  1.0000</r>
       <r>   3.1744  1.0000</r>
       <r>   3.9274  1.0000</r>
       <r>   3.9284  1.0000</r>
       <r>   3.9306  1.0000</r>
       <r>   3.9316  1.0000</r>
       <r>   4.7972  1.0000</r>
       <r>   5.1140  1.0000</r>
       <r>   5.1140  1.0000</r>
       <r>   6.4445  1.0000</r>
       <r>   6.4446  1.0000</r>
       <r>   6.7590  1.0000</r>
       <r>   6.8476  1.0000</r>
       <r>   6.8477  1.0000</r>
       <r>   6.8871  1.0000</r>
       <r>   6.8902  1.0000</r>
       <r>   6.8902  1.0000</r>
       <r>   6.8935  1.0000</r>
       <r>   7.1925  1.0000</r>
       <r>   7.1952  1.0000</r>
       <r>   7.1952  1.0000</r>
       <r>   7.1979  1.0000</r>
       <r>   7.5428  1.0000</r>
       <r>   7.5428  1.0000</r>
       <r>   8.0883  0.0000</r>
       <r>   8.0884  0.0000</r>
       <r>   8.3732  0.0000</r>
       <r>   8.3760  0.0000</r>
       <r>   8.3760  0.0000</r>
       <r>   8.3788  0.0000</r>
       <r>   8.9318  0.0000</r>
       <r>   8.9345  0.0000</r>
       <r>   8.9346  0.0000</r>
       <r>   8.9373  0.0000</r>
       <r>   9.0031  0.0000</r>
       <r>   9.0047  0.0000</r>
       <r>   9.0070  0.0000</r>
       <r>   9.0086  0.0000</r>
       <r>   9.2875  0.0000</r>
       <r>   9.2875  0.0000</r>
       <r>   9.3041  0.0000</r>
       <r>   9.3051  0.0000</r>
       <r>   9.3052  0.0000</r>
       <r>   9.3062  0.0000</r>
       <r>   9.6287  0.0000</r>
       <r>   9.6312  0.0000</r>
       <r>   9.6330  0.0000</r>
      </set>
      <set comment="kpoint 9">
       <r>  -3.0926  1.0000</r>
       <r>  -1.2146  1.0000</r>
       <r>  -1.2122  1.0000</r>
       <r>  -0.8406  1.0000</r>
       <r>  -0.8406  1.0000</r>
       <r>  -0.4701  1.0000</r>
       <r>  -0.4677  1.0000</r>
       <r>   0.6412  1.0000</r>
       <r>   1.0075  1.0000</r>
       <r>   1.0085  1.0000</r>
       <r>   1.0099  1.0000</r>
       <r>   1.0108  1.0000</r>
       <r>   1.3755  1.0000</r>
       <r>   1.3765  1.0000</r>
       <r>   1.7404  1.0000</r>
       <r>   1.7414  1.0000</r>
       <r>   1.7428  1.0000</r>
       <r>   1.7437  1.0000</r>
       <r>   2.1070  1.0000</r>
       <r>   2.8324  1.0000</r>
       <r>   2.8324  1.0000</r>
       <r>   3.4550  1.0000</r>
       <r>   3.4550  1.0000</r>
       <r>   3.6776  1.0000</r>
       <r>   3.6776  1.0000</r>
       <r>   4.2972  1.0000</r>
       <r>   4.2972  1.0000</r>
       <r>   4.8115  1.0000</r>
       <r>   4.8122  1.0000</r>
       <r>   5.1284  1.0000</r>
       <r>   6.4598  1.0000</r>
       <r>   6.5581  1.0000</r>
       <r>   6.5604  1.0000</r>
       <r>   6.7736  1.0000</r>
       <r>   6.7744  1.0000</r>
       <r>   6.8466  1.0000</r>
       <r>   6.8467  1.0000</r>
       <r>   6.8609  1.0000</r>
       <r>   6.8636  1.0000</r>
       <r>   6.9720  1.0000</r>
       <r>   6.9721  1.0000</r>
       <r>   7.2424  1.0000</r>
       <r>   7.2442  1.0000</r>
       <r>   7.5560  1.0000</r>
       <r>   7.5586  1.0000</r>
       <r>   8.1986  0.0000</r>
       <r>   8.2007  0.0000</r>
       <r>   8.3545  0.0000</r>
       <r>   8.3572  0.0000</r>
       <r>   8.5880  0.0000</r>
       <r>   8.5880  0.0000</r>
       <r>   8.6009  0.0000</r>
       <r>   8.6693  0.0000</r>
       <r>   8.6702  0.0000</r>
       <r>   8.6716  0.0000</r>
       <r>   8.6726  0.0000</r>
       <r>   9.2964  0.0000</r>
       <r>   9.2983  0.0000</r>
       <r>   9.3501  0.0000</r>
       <r>   9.3507  0.0000</r>
       <r>   9.3685  0.0000</r>
       <r>   9.3694  0.0000</r>
       <r>   9.3699  0.0000</r>
       <r>   9.3709  0.0000</r>
       <r>   9.4161  0.0000</r>
       <r>   9.4161  0.0000</r>
       <r>   9.5166  0.0000</r>
       <r>   9.5182  0.0000</r>
      </set>
      <set comment="kpoint 10">
       <r>  -3.0453  1.0000</r>
       <r>  -1.5404  1.0000</r>
       <r>  -1.1667  1.0000</r>
       <r>  -0.7941  1.0000</r>
       <r>  -0.7941  1.0000</r>
       <r>  -0.4225  1.0000</r>
       <r>  -0.0520  1.0000</r>
       <r>   0.3184  1.0000</r>
       <r>   0.6872  1.0000</r>
       <r>   0.6872  1.0000</r>
       <r>   1.0543  1.0000</r>
       <r>   1.0551  1.0000</r>
       <r>   1.0557  1.0000</r>
       <r>   1.7869  1.0000</r>
       <r>   1.7878  1.0000</r>
       <r>   1.7883  1.0000</r>
       <r>   2.1524  1.0000</r>
       <r>   2.1524  1.0000</r>
       <r>   2.5159  1.0000</r>
       <r>   2.5165  1.0000</r>
       <r>   2.5169  1.0000</r>
       <r>   3.2320  1.0000</r>
       <r>   3.2321  1.0000</r>
       <r>   3.9898  1.0000</r>
       <r>   3.9898  1.0000</r>
       <r>   4.2460  1.0000</r>
       <r>   4.6991  1.0000</r>
       <r>   4.6991  1.0000</r>
       <r>   4.8557  1.0000</r>
       <r>   5.1717  1.0000</r>
       <r>   6.0122  1.0000</r>
       <r>   6.2551  1.0000</r>
       <r>   6.3543  1.0000</r>
       <r>   6.3543  1.0000</r>
       <r>   6.5054  1.0000</r>
       <r>   6.5584  1.0000</r>
       <r>   6.7038  1.0000</r>
       <r>   6.8190  1.0000</r>
       <r>   6.9057  1.0000</r>
       <r>   6.9690  1.0000</r>
       <r>   6.9690  1.0000</r>
       <r>   7.4217  1.0000</r>
       <r>   7.5832  1.0000</r>
       <r>   7.6007  1.0000</r>
       <r>   7.9486  1.0000</r>
       <r>   7.9966  1.0000</r>
       <r>   8.1451  0.0000</r>
       <r>   8.1451  0.0000</r>
       <r>   8.1642  0.0000</r>
       <r>   8.2964  0.0000</r>
       <r>   8.3178  0.0000</r>
       <r>   8.3649  0.0000</r>
       <r>   8.3650  0.0000</r>
       <r>   8.7720  0.0000</r>
       <r>   8.8467  0.0000</r>
       <r>   8.8469  0.0000</r>
       <r>   8.8576  0.0000</r>
       <r>   8.8579  0.0000</r>
       <r>   8.9927  0.0000</r>
       <r>   9.6068  0.0000</r>
       <r>   9.6234  0.0000</r>
       <r>   9.6893  0.0000</r>
       <r>   9.7622  0.0000</r>
       <r>   9.7622  0.0000</r>
       <r>   9.8104  0.0000</r>
       <r>   9.8108  0.0000</r>
       <r>   9.8118  0.0000</r>
       <r>   9.8526  0.0000</r>
      </set>
      <set comment="kpoint 11">
       <r>  -2.9665  1.0000</r>
       <r>  -1.8370  1.0000</r>
       <r>  -1.0890  1.0000</r>
       <r>  -0.7166  1.0000</r>
       <r>  -0.7165  1.0000</r>
       <r>  -0.3452  1.0000</r>
       <r>   0.0257  1.0000</r>
       <r>   0.3928  1.0000</r>
       <r>   0.3953  1.0000</r>
       <r>   0.3966  1.0000</r>
       <r>   0.7638  1.0000</r>
       <r>   1.1317  1.0000</r>
       <r>   1.1317  1.0000</r>
       <r>   1.8639  1.0000</r>
       <r>   1.8639  1.0000</r>
       <r>   2.2264  1.0000</r>
       <r>   2.2290  1.0000</r>
       <r>   2.2303  1.0000</r>
       <r>   2.5914  1.0000</r>
       <r>   2.5915  1.0000</r>
       <r>   2.9514  1.0000</r>
       <r>   2.9526  1.0000</r>
       <r>   2.9553  1.0000</r>
       <r>   3.6400  1.0000</r>
       <r>   4.4166  1.0000</r>
       <r>   4.4166  1.0000</r>
       <r>   4.9288  1.0000</r>
       <r>   5.1309  1.0000</r>
       <r>   5.1310  1.0000</r>
       <r>   5.2438  1.0000</r>
       <r>   5.4213  1.0000</r>
       <r>   5.7713  1.0000</r>
       <r>   5.7713  1.0000</r>
       <r>   5.9790  1.0000</r>
       <r>   6.1222  1.0000</r>
       <r>   6.2837  1.0000</r>
       <r>   6.5812  1.0000</r>
       <r>   6.8939  1.0000</r>
       <r>   6.9780  1.0000</r>
       <r>   7.0390  1.0000</r>
       <r>   7.0390  1.0000</r>
       <r>   7.5659  1.0000</r>
       <r>   7.5659  1.0000</r>
       <r>   7.5976  1.0000</r>
       <r>   7.6732  1.0000</r>
       <r>   7.9279  1.0000</r>
       <r>   8.0209  0.9863</r>
       <r>   8.0879  0.0000</r>
       <r>   8.0880  0.0000</r>
       <r>   8.1447  0.0000</r>
       <r>   8.1639  0.0000</r>
       <r>   8.2707  0.0000</r>
       <r>   8.2707  0.0000</r>
       <r>   8.3691  0.0000</r>
       <r>   8.4225  0.0000</r>
       <r>   8.7170  0.0000</r>
       <r>   9.0228  0.0000</r>
       <r>   9.0228  0.0000</r>
       <r>   9.0348  0.0000</r>
       <r>   9.5294  0.0000</r>
       <r>   9.9952  0.0000</r>
       <r>  10.1104  0.0000</r>
       <r>  10.1439  0.0000</r>
       <r>  10.1600  0.0000</r>
       <r>  10.1603  0.0000</r>
       <r>  10.1835  0.0000</r>
       <r>  10.1844  0.0000</r>
       <r>  10.2322  0.0000</r>
      </set>
      <set comment="kpoint 12">
       <r>  -2.8563  1.0000</r>
       <r>  -2.1029  1.0000</r>
       <r>  -0.9802  1.0000</r>
       <r>  -0.6081  1.0000</r>
       <r>  -0.6081  1.0000</r>
       <r>  -0.2375  1.0000</r>
       <r>  -0.2362  1.0000</r>
       <r>   0.1335  1.0000</r>
       <r>   0.1335  1.0000</r>
       <r>   0.5027  1.0000</r>
       <r>   0.8691  1.0000</r>
       <r>   1.2388  1.0000</r>
       <r>   1.2388  1.0000</r>
       <r>   1.9698  1.0000</r>
       <r>   1.9702  1.0000</r>
       <r>   1.9711  1.0000</r>
       <r>   1.9715  1.0000</r>
       <r>   2.6962  1.0000</r>
       <r>   2.6976  1.0000</r>
       <r>   2.6977  1.0000</r>
       <r>   3.0404  1.0000</r>
       <r>   3.0587  1.0000</r>
       <r>   3.0587  1.0000</r>
       <r>   3.4199  1.0000</r>
       <r>   4.8338  1.0000</r>
       <r>   4.8770  1.0000</r>
       <r>   4.8770  1.0000</r>
       <r>   5.0311  1.0000</r>
       <r>   5.1880  1.0000</r>
       <r>   5.1880  1.0000</r>
       <r>   5.3448  1.0000</r>
       <r>   5.5415  1.0000</r>
       <r>   5.5914  1.0000</r>
       <r>   5.5914  1.0000</r>
       <r>   5.7315  1.0000</r>
       <r>   6.0380  1.0000</r>
       <r>   6.6869  1.0000</r>
       <r>   6.9868  1.0000</r>
       <r>   6.9868  1.0000</r>
       <r>   6.9983  1.0000</r>
       <r>   7.0794  1.0000</r>
       <r>   7.1404  1.0000</r>
       <r>   7.1404  1.0000</r>
       <r>   7.3861  1.0000</r>
       <r>   7.6933  1.0000</r>
       <r>   7.6940  1.0000</r>
       <r>   7.6965  1.0000</r>
       <r>   7.7738  1.0000</r>
       <r>   7.7754  1.0000</r>
       <r>   7.8401  1.0000</r>
       <r>   7.8401  1.0000</r>
       <r>   8.4705  0.0000</r>
       <r>   8.5411  0.0000</r>
       <r>   8.5636  0.0000</r>
       <r>   8.8188  0.0000</r>
       <r>   8.9542  0.0000</r>
       <r>   9.1621  0.0000</r>
       <r>   9.1622  0.0000</r>
       <r>   9.2073  0.0000</r>
       <r>   9.2754  0.0000</r>
       <r>   9.9075  0.0000</r>
       <r>   9.9075  0.0000</r>
       <r>   9.9772  0.0000</r>
       <r>  10.4154  0.0000</r>
       <r>  10.5608  0.0000</r>
       <r>  10.6296  0.0000</r>
       <r>  10.6334  0.0000</r>
       <r>  10.6519  0.0000</r>
      </set>
      <set comment="kpoint 13">
       <r>  -2.7147  1.0000</r>
       <r>  -2.3379  1.0000</r>
       <r>  -0.8405  1.0000</r>
       <r>  -0.4701  1.0000</r>
       <r>  -0.4687  1.0000</r>
       <r>  -0.4673  1.0000</r>
       <r>  -0.0993  1.0000</r>
       <r>  -0.0978  1.0000</r>
       <r>  -0.0965  1.0000</r>
       <r>   0.2720  1.0000</r>
       <r>   1.3719  1.0000</r>
       <r>   1.3764  1.0000</r>
       <r>   1.3768  1.0000</r>
       <r>   1.7426  1.0000</r>
       <r>   1.7426  1.0000</r>
       <r>   2.1073  1.0000</r>
       <r>   2.1073  1.0000</r>
       <r>   2.4596  1.0000</r>
       <r>   2.4711  1.0000</r>
       <r>   2.4713  1.0000</r>
       <r>   3.1925  1.0000</r>
       <r>   3.5534  1.0000</r>
       <r>   3.5534  1.0000</r>
       <r>   3.9131  1.0000</r>
       <r>   4.2634  1.0000</r>
       <r>   4.6203  1.0000</r>
       <r>   4.6203  1.0000</r>
       <r>   4.9763  1.0000</r>
       <r>   5.1626  1.0000</r>
       <r>   5.3661  1.0000</r>
       <r>   5.3661  1.0000</r>
       <r>   5.4747  1.0000</r>
       <r>   5.5129  1.0000</r>
       <r>   5.8213  1.0000</r>
       <r>   6.0793  1.0000</r>
       <r>   6.0793  1.0000</r>
       <r>   6.4235  1.0000</r>
       <r>   6.4235  1.0000</r>
       <r>   6.8218  1.0000</r>
       <r>   7.1310  1.0000</r>
       <r>   7.1330  1.0000</r>
       <r>   7.1338  1.0000</r>
       <r>   7.1748  1.0000</r>
       <r>   7.2096  1.0000</r>
       <r>   7.2714  1.0000</r>
       <r>   7.2714  1.0000</r>
       <r>   7.4825  1.0000</r>
       <r>   7.5572  1.0000</r>
       <r>   7.6213  1.0000</r>
       <r>   7.6214  1.0000</r>
       <r>   7.9051  1.0000</r>
       <r>   8.2530  0.0000</r>
       <r>   8.6833  0.0000</r>
       <r>   9.0341  0.0000</r>
       <r>   9.0498  0.0000</r>
       <r>   9.2977  0.0000</r>
       <r>   9.3124  0.0000</r>
       <r>   9.3125  0.0000</r>
       <r>   9.3703  0.0000</r>
       <r>   9.6825  0.0000</r>
       <r>   9.6825  0.0000</r>
       <r>   9.7500  0.0000</r>
       <r>   9.7798  0.0000</r>
       <r>  10.0701  0.0000</r>
       <r>  10.3433  0.0000</r>
       <r>  10.8666  0.0000</r>
       <r>  11.0403  0.0000</r>
       <r>  11.1120  0.0000</r>
      </set>
      <set comment="kpoint 14">
       <r>  -2.5433  1.0000</r>
       <r>  -2.5404  1.0000</r>
       <r>  -0.6714  1.0000</r>
       <r>  -0.6685  1.0000</r>
       <r>  -0.3007  1.0000</r>
       <r>  -0.2995  1.0000</r>
       <r>  -0.2978  1.0000</r>
       <r>  -0.2966  1.0000</r>
       <r>   0.0702  1.0000</r>
       <r>   0.0731  1.0000</r>
       <r>   1.5423  1.0000</r>
       <r>   1.5435  1.0000</r>
       <r>   1.5452  1.0000</r>
       <r>   1.5464  1.0000</r>
       <r>   1.9024  1.0000</r>
       <r>   1.9037  1.0000</r>
       <r>   2.2722  1.0000</r>
       <r>   2.2734  1.0000</r>
       <r>   2.2751  1.0000</r>
       <r>   2.2763  1.0000</r>
       <r>   3.7147  1.0000</r>
       <r>   3.7161  1.0000</r>
       <r>   4.0736  1.0000</r>
       <r>   4.0740  1.0000</r>
       <r>   4.0750  1.0000</r>
       <r>   4.0753  1.0000</r>
       <r>   4.4318  1.0000</r>
       <r>   4.4332  1.0000</r>
       <r>   5.3217  1.0000</r>
       <r>   5.3247  1.0000</r>
       <r>   5.6320  1.0000</r>
       <r>   5.6351  1.0000</r>
       <r>   5.8815  1.0000</r>
       <r>   5.8817  1.0000</r>
       <r>   5.8829  1.0000</r>
       <r>   5.8831  1.0000</r>
       <r>   6.5930  1.0000</r>
       <r>   6.5931  1.0000</r>
       <r>   6.5944  1.0000</r>
       <r>   6.5946  1.0000</r>
       <r>   6.9837  1.0000</r>
       <r>   6.9865  1.0000</r>
       <r>   7.2922  1.0000</r>
       <r>   7.2951  1.0000</r>
       <r>   7.3674  1.0000</r>
       <r>   7.3705  1.0000</r>
       <r>   7.4295  1.0000</r>
       <r>   7.4309  1.0000</r>
       <r>   7.4326  1.0000</r>
       <r>   7.4340  1.0000</r>
       <r>   8.0629  0.0001</r>
       <r>   8.0661  0.0000</r>
       <r>   8.8511  0.0000</r>
       <r>   8.8540  0.0000</r>
       <r>   9.4828  0.0000</r>
       <r>   9.4834  0.0000</r>
       <r>   9.4858  0.0000</r>
       <r>   9.4864  0.0000</r>
       <r>   9.5365  0.0000</r>
       <r>   9.5385  0.0000</r>
       <r>   9.5472  0.0000</r>
       <r>   9.5502  0.0000</r>
       <r>   9.8048  0.0000</r>
       <r>   9.8071  0.0000</r>
       <r>  10.6351  0.0000</r>
       <r>  10.6364  0.0000</r>
       <r>  11.3397  0.0000</r>
       <r>  11.3406  0.0000</r>
      </set>
      <set comment="kpoint 15">
       <r>  -3.0611  1.0000</r>
       <r>  -1.5560  1.0000</r>
       <r>  -0.8124  1.0000</r>
       <r>  -0.8096  1.0000</r>
       <r>  -0.8096  1.0000</r>
       <r>  -0.8067  1.0000</r>
       <r>  -0.0675  1.0000</r>
       <r>   0.6690  1.0000</r>
       <r>   0.6719  1.0000</r>
       <r>   0.6719  1.0000</r>
       <r>   0.6747  1.0000</r>
       <r>   1.4046  1.0000</r>
       <r>   1.4056  1.0000</r>
       <r>   1.4079  1.0000</r>
       <r>   1.4089  1.0000</r>
       <r>   2.1343  1.0000</r>
       <r>   2.1372  1.0000</r>
       <r>   2.1372  1.0000</r>
       <r>   2.1401  1.0000</r>
       <r>   2.8603  1.0000</r>
       <r>   2.8613  1.0000</r>
       <r>   2.8636  1.0000</r>
       <r>   2.8646  1.0000</r>
       <r>   4.2311  1.0000</r>
       <r>   4.3249  1.0000</r>
       <r>   4.3259  1.0000</r>
       <r>   4.3282  1.0000</r>
       <r>   4.3292  1.0000</r>
       <r>   5.1573  1.0000</r>
       <r>   5.1573  1.0000</r>
       <r>   6.3428  1.0000</r>
       <r>   6.3459  1.0000</r>
       <r>   6.3459  1.0000</r>
       <r>   6.3490  1.0000</r>
       <r>   6.4902  1.0000</r>
       <r>   6.4902  1.0000</r>
       <r>   6.5439  1.0000</r>
       <r>   6.5440  1.0000</r>
       <r>   7.2359  1.0000</r>
       <r>   7.2386  1.0000</r>
       <r>   7.2386  1.0000</r>
       <r>   7.2413  1.0000</r>
       <r>   7.4069  1.0000</r>
       <r>   7.8639  1.0000</r>
       <r>   7.8640  1.0000</r>
       <r>   7.9341  1.0000</r>
       <r>   7.9341  1.0000</r>
       <r>   8.4792  0.0000</r>
       <r>   8.4805  0.0000</r>
       <r>   8.4828  0.0000</r>
       <r>   8.4842  0.0000</r>
       <r>   8.5857  0.0000</r>
       <r>   8.5882  0.0000</r>
       <r>   8.5882  0.0000</r>
       <r>   8.5907  0.0000</r>
       <r>   8.6272  0.0000</r>
       <r>   8.6299  0.0000</r>
       <r>   8.6300  0.0000</r>
       <r>   8.6327  0.0000</r>
       <r>   9.5928  0.0000</r>
       <r>   9.5929  0.0000</r>
       <r>   9.7608  0.0000</r>
       <r>   9.7625  0.0000</r>
       <r>   9.7626  0.0000</r>
       <r>   9.7644  0.0000</r>
       <r>  10.0214  0.0000</r>
       <r>  10.0232  0.0000</r>
       <r>  10.0254  0.0000</r>
      </set>
      <set comment="kpoint 16">
       <r>  -3.0453  1.0000</r>
       <r>  -1.5404  1.0000</r>
       <r>  -1.1667  1.0000</r>
       <r>  -0.7941  1.0000</r>
       <r>  -0.7941  1.0000</r>
       <r>  -0.4225  1.0000</r>
       <r>  -0.0520  1.0000</r>
       <r>   0.3184  1.0000</r>
       <r>   0.6872  1.0000</r>
       <r>   0.6872  1.0000</r>
       <r>   1.0536  1.0000</r>
       <r>   1.0551  1.0000</r>
       <r>   1.0564  1.0000</r>
       <r>   1.7862  1.0000</r>
       <r>   1.7878  1.0000</r>
       <r>   1.7890  1.0000</r>
       <r>   2.1524  1.0000</r>
       <r>   2.1524  1.0000</r>
       <r>   2.5159  1.0000</r>
       <r>   2.5165  1.0000</r>
       <r>   2.5169  1.0000</r>
       <r>   3.2321  1.0000</r>
       <r>   3.2321  1.0000</r>
       <r>   3.9898  1.0000</r>
       <r>   3.9898  1.0000</r>
       <r>   4.2459  1.0000</r>
       <r>   4.6991  1.0000</r>
       <r>   4.6991  1.0000</r>
       <r>   4.8557  1.0000</r>
       <r>   5.1717  1.0000</r>
       <r>   6.0122  1.0000</r>
       <r>   6.2551  1.0000</r>
       <r>   6.3543  1.0000</r>
       <r>   6.3543  1.0000</r>
       <r>   6.5054  1.0000</r>
       <r>   6.5584  1.0000</r>
       <r>   6.7039  1.0000</r>
       <r>   6.8190  1.0000</r>
       <r>   6.9056  1.0000</r>
       <r>   6.9690  1.0000</r>
       <r>   6.9690  1.0000</r>
       <r>   7.4217  1.0000</r>
       <r>   7.5832  1.0000</r>
       <r>   7.6007  1.0000</r>
       <r>   7.9486  1.0000</r>
       <r>   7.9966  1.0000</r>
       <r>   8.1451  0.0000</r>
       <r>   8.1451  0.0000</r>
       <r>   8.1642  0.0000</r>
       <r>   8.2963  0.0000</r>
       <r>   8.3178  0.0000</r>
       <r>   8.3650  0.0000</r>
       <r>   8.3650  0.0000</r>
       <r>   8.7720  0.0000</r>
       <r>   8.8470  0.0000</r>
       <r>   8.8470  0.0000</r>
       <r>   8.8575  0.0000</r>
       <r>   8.8576  0.0000</r>
       <r>   8.9927  0.0000</r>
       <r>   9.6069  0.0000</r>
       <r>   9.6234  0.0000</r>
       <r>   9.6893  0.0000</r>
       <r>   9.7622  0.0000</r>
       <r>   9.7623  0.0000</r>
       <r>   9.8104  0.0000</r>
       <r>   9.8108  0.0000</r>
       <r>   9.8118  0.0000</r>
       <r>   9.8526  0.0000</r>
      </set>
      <set comment="kpoint 17">
       <r>  -2.9980  1.0000</r>
       <r>  -1.4948  1.0000</r>
       <r>  -1.4925  1.0000</r>
       <r>  -0.7476  1.0000</r>
       <r>  -0.7475  1.0000</r>
       <r>  -0.0074  1.0000</r>
       <r>  -0.0055  1.0000</r>
       <r>  -0.0037  1.0000</r>
       <r>   0.7316  1.0000</r>
       <r>   0.7326  1.0000</r>
       <r>   0.7340  1.0000</r>
       <r>   0.7349  1.0000</r>
       <r>   1.4668  1.0000</r>
       <r>   1.4678  1.0000</r>
       <r>   2.1957  1.0000</r>
       <r>   2.1969  1.0000</r>
       <r>   2.1982  1.0000</r>
       <r>   2.1983  1.0000</r>
       <r>   2.1996  1.0000</r>
       <r>   2.2007  1.0000</r>
       <r>   2.9242  1.0000</r>
       <r>   3.5425  1.0000</r>
       <r>   3.5425  1.0000</r>
       <r>   3.7700  1.0000</r>
       <r>   3.7700  1.0000</r>
       <r>   4.2899  1.0000</r>
       <r>   4.2909  1.0000</r>
       <r>   5.1015  1.0000</r>
       <r>   5.1015  1.0000</r>
       <r>   5.2150  1.0000</r>
       <r>   5.7043  1.0000</r>
       <r>   5.7066  1.0000</r>
       <r>   6.3023  1.0000</r>
       <r>   6.3024  1.0000</r>
       <r>   6.5283  1.0000</r>
       <r>   6.5283  1.0000</r>
       <r>   6.5508  1.0000</r>
       <r>   6.6005  1.0000</r>
       <r>   6.6031  1.0000</r>
       <r>   7.0751  1.0000</r>
       <r>   7.0770  1.0000</r>
       <r>   7.4655  1.0000</r>
       <r>   7.4664  1.0000</r>
       <r>   7.8357  1.0000</r>
       <r>   7.8367  1.0000</r>
       <r>   7.8381  1.0000</r>
       <r>   7.8391  1.0000</r>
       <r>   7.9897  1.0000</r>
       <r>   7.9920  1.0000</r>
       <r>   7.9943  1.0000</r>
       <r>   8.0532  0.0093</r>
       <r>   8.0547  0.0050</r>
       <r>   8.7262  0.0000</r>
       <r>   8.7286  0.0000</r>
       <r>   9.2397  0.0000</r>
       <r>   9.2407  0.0000</r>
       <r>   9.2410  0.0000</r>
       <r>   9.2420  0.0000</r>
       <r>   9.3089  0.0000</r>
       <r>   9.3090  0.0000</r>
       <r>   9.3836  0.0000</r>
       <r>   9.3855  0.0000</r>
       <r>   9.5012  0.0000</r>
       <r>   9.7352  0.0000</r>
       <r>   9.7358  0.0000</r>
       <r>  10.0207  0.0000</r>
       <r>  10.0207  0.0000</r>
       <r>  10.4267  0.0000</r>
      </set>
      <set comment="kpoint 18">
       <r>  -2.9193  1.0000</r>
       <r>  -1.7901  1.0000</r>
       <r>  -1.4157  1.0000</r>
       <r>  -0.6701  1.0000</r>
       <r>  -0.6700  1.0000</r>
       <r>  -0.2985  1.0000</r>
       <r>   0.0713  1.0000</r>
       <r>   0.4389  1.0000</r>
       <r>   0.4414  1.0000</r>
       <r>   0.4428  1.0000</r>
       <r>   0.8100  1.0000</r>
       <r>   0.8100  1.0000</r>
       <r>   1.1770  1.0000</r>
       <r>   1.9074  1.0000</r>
       <r>   1.9101  1.0000</r>
       <r>   1.9114  1.0000</r>
       <r>   2.2738  1.0000</r>
       <r>   2.2739  1.0000</r>
       <r>   2.6368  1.0000</r>
       <r>   2.6368  1.0000</r>
       <r>   3.3510  1.0000</r>
       <r>   3.3513  1.0000</r>
       <r>   3.3609  1.0000</r>
       <r>   3.6849  1.0000</r>
       <r>   4.1101  1.0000</r>
       <r>   4.1101  1.0000</r>
       <r>   4.3645  1.0000</r>
       <r>   5.1118  1.0000</r>
       <r>   5.2871  1.0000</r>
       <r>   5.4268  1.0000</r>
       <r>   5.5328  1.0000</r>
       <r>   5.5328  1.0000</r>
       <r>   5.8049  1.0000</r>
       <r>   5.8049  1.0000</r>
       <r>   6.3270  1.0000</r>
       <r>   6.5084  1.0000</r>
       <r>   6.5137  1.0000</r>
       <r>   6.5138  1.0000</r>
       <r>   6.6262  1.0000</r>
       <r>   6.6741  1.0000</r>
       <r>   7.2569  1.0000</r>
       <r>   7.2569  1.0000</r>
       <r>   7.3954  1.0000</r>
       <r>   7.5395  1.0000</r>
       <r>   7.5588  1.0000</r>
       <r>   7.5588  1.0000</r>
       <r>   7.7166  1.0000</r>
       <r>   7.8865  1.0000</r>
       <r>   8.0645  0.0000</r>
       <r>   8.1330  0.0000</r>
       <r>   8.2075  0.0000</r>
       <r>   8.4126  0.0000</r>
       <r>   8.5371  0.0000</r>
       <r>   8.6659  0.0000</r>
       <r>   8.6659  0.0000</r>
       <r>   9.1088  0.0000</r>
       <r>   9.2188  0.0000</r>
       <r>   9.2372  0.0000</r>
       <r>   9.5927  0.0000</r>
       <r>   9.5927  0.0000</r>
       <r>   9.6630  0.0000</r>
       <r>   9.6630  0.0000</r>
       <r>   9.8056  0.0000</r>
       <r>  10.0284  0.0000</r>
       <r>  10.0638  0.0000</r>
       <r>  10.5298  0.0000</r>
       <r>  10.5303  0.0000</r>
       <r>  10.6276  0.0000</r>
      </set>
      <set comment="kpoint 19">
       <r>  -2.8091  1.0000</r>
       <r>  -2.0559  1.0000</r>
       <r>  -1.3067  1.0000</r>
       <r>  -0.5629  1.0000</r>
       <r>  -0.5616  1.0000</r>
       <r>  -0.5602  1.0000</r>
       <r>   0.1781  1.0000</r>
       <r>   0.1798  1.0000</r>
       <r>   0.1809  1.0000</r>
       <r>   0.9139  1.0000</r>
       <r>   0.9168  1.0000</r>
       <r>   0.9174  1.0000</r>
       <r>   0.9185  1.0000</r>
       <r>   1.6512  1.0000</r>
       <r>   1.6512  1.0000</r>
       <r>   2.3781  1.0000</r>
       <r>   2.3800  1.0000</r>
       <r>   2.3802  1.0000</r>
       <r>   3.0854  1.0000</r>
       <r>   3.1016  1.0000</r>
       <r>   3.1021  1.0000</r>
       <r>   3.1044  1.0000</r>
       <r>   3.1050  1.0000</r>
       <r>   3.8248  1.0000</r>
       <r>   4.4680  1.0000</r>
       <r>   4.5221  1.0000</r>
[...]
       <r>   2.4548  1.0000</r>
       <r>   2.8082  1.0000</r>
       <r>   2.8101  1.0000</r>
       <r>   2.8119  1.0000</r>
       <r>   2.8122  1.0000</r>
       <r>   2.8123  1.0000</r>
       <r>   2.8126  1.0000</r>
       <r>   2.8143  1.0000</r>
       <r>   2.8162  1.0000</r>
       <r>   3.1699  1.0000</r>
       <r>   3.1718  1.0000</r>
       <r>   3.1736  1.0000</r>
       <r>   3.1739  1.0000</r>
       <r>   3.1740  1.0000</r>
       <r>   3.1743  1.0000</r>
       <r>   3.1760  1.0000</r>
       <r>   3.1779  1.0000</r>
       <r>   3.5269  1.0000</r>
       <r>   3.5293  1.0000</r>
       <r>   3.5298  1.0000</r>
       <r>   3.5322  1.0000</r>
       <r>   6.7587  1.0000</r>
       <r>   6.7607  1.0000</r>
       <r>   6.7626  1.0000</r>
       <r>   6.7628  1.0000</r>
       <r>   6.7629  1.0000</r>
       <r>   6.7632  1.0000</r>
       <r>   6.7651  1.0000</r>
       <r>   6.7670  1.0000</r>
       <r>   7.1085  1.0000</r>
       <r>   7.1097  1.0000</r>
       <r>   7.1099  1.0000</r>
       <r>   7.1111  1.0000</r>
       <r>   7.4649  1.0000</r>
       <r>   7.4661  1.0000</r>
       <r>   7.4664  1.0000</r>
       <r>   7.4676  1.0000</r>
       <r>   7.8043  1.0000</r>
       <r>   7.8064  1.0000</r>
       <r>   7.8083  1.0000</r>
       <r>   7.8086  1.0000</r>
       <r>   7.8087  1.0000</r>
       <r>   7.8089  1.0000</r>
       <r>   7.8108  1.0000</r>
       <r>   7.8130  1.0000</r>
       <r>  10.8464  0.0000</r>
       <r>  10.8486  0.0000</r>
       <r>  10.8494  0.0000</r>
       <r>  10.8515  0.0000</r>
       <r>  10.9722  0.0000</r>
       <r>  10.9734  0.0000</r>
       <r>  10.9739  0.0000</r>
       <r>  10.9751  0.0000</r>
       <r>  11.5340  0.0000</r>
       <r>  11.5353  0.0000</r>
       <r>  11.5359  0.0000</r>
       <r>  11.5367  0.0000</r>
      </set>
      <set comment="kpoint 190">
       <r>  -1.9934  1.0000</r>
       <r>  -1.9933  1.0000</r>
       <r>  -1.9933  1.0000</r>
       <r>  -1.9933  1.0000</r>
       <r>   0.2362  1.0000</r>
       <r>   0.2408  1.0000</r>
       <r>   0.2408  1.0000</r>
       <r>   0.2413  1.0000</r>
       <r>   0.2415  1.0000</r>
       <r>   0.2421  1.0000</r>
       <r>   0.2421  1.0000</r>
       <r>   0.2466  1.0000</r>
       <r>   2.4342  1.0000</r>
       <r>   2.4342  1.0000</r>
       <r>   2.4342  1.0000</r>
       <r>   2.4342  1.0000</r>
       <r>   2.4342  1.0000</r>
       <r>   2.4342  1.0000</r>
       <r>   2.4342  1.0000</r>
       <r>   2.4342  1.0000</r>
       <r>   4.4726  1.0000</r>
       <r>   4.4726  1.0000</r>
       <r>   4.4740  1.0000</r>
       <r>   4.4741  1.0000</r>
       <r>   4.4741  1.0000</r>
       <r>   4.4741  1.0000</r>
       <r>   4.4756  1.0000</r>
       <r>   4.4756  1.0000</r>
       <r>   4.7394  1.0000</r>
       <r>   4.7394  1.0000</r>
       <r>   4.7411  1.0000</r>
       <r>   4.7411  1.0000</r>
       <r>   4.7411  1.0000</r>
       <r>   4.7412  1.0000</r>
       <r>   4.7428  1.0000</r>
       <r>   4.7428  1.0000</r>
       <r>   6.1391  1.0000</r>
       <r>   6.1391  1.0000</r>
       <r>   6.1391  1.0000</r>
       <r>   6.1392  1.0000</r>
       <r>   6.6647  1.0000</r>
       <r>   6.6647  1.0000</r>
       <r>   6.6647  1.0000</r>
       <r>   6.6647  1.0000</r>
       <r>   7.6385  1.0000</r>
       <r>   7.6385  1.0000</r>
       <r>   7.6385  1.0000</r>
       <r>   7.6385  1.0000</r>
       <r>   8.8632  0.0000</r>
       <r>   8.8632  0.0000</r>
       <r>   8.8637  0.0000</r>
       <r>   8.8648  0.0000</r>
       <r>   8.8663  0.0000</r>
       <r>   8.8673  0.0000</r>
       <r>   8.8678  0.0000</r>
       <r>   8.8678  0.0000</r>
       <r>  10.3145  0.0000</r>
       <r>  10.3145  0.0000</r>
       <r>  10.3145  0.0000</r>
       <r>  10.3145  0.0000</r>
       <r>  10.3145  0.0000</r>
       <r>  10.3145  0.0000</r>
       <r>  10.3145  0.0000</r>
       <r>  10.3146  0.0000</r>
       <r>  11.0278  0.0000</r>
       <r>  11.0278  0.0000</r>
       <r>  11.0278  0.0000</r>
       <r>  11.0278  0.0000</r>
      </set>
      <set comment="kpoint 191">
       <r>  -1.9777  1.0000</r>
       <r>  -1.9777  1.0000</r>
       <r>  -1.9777  1.0000</r>
       <r>  -1.9777  1.0000</r>
       <r>  -0.1131  1.0000</r>
       <r>  -0.1131  1.0000</r>
       <r>  -0.1131  1.0000</r>
       <r>  -0.1131  1.0000</r>
       <r>   0.6257  1.0000</r>
       <r>   0.6257  1.0000</r>
       <r>   0.6257  1.0000</r>
       <r>   0.6257  1.0000</r>
       <r>   2.4493  1.0000</r>
       <r>   2.4493  1.0000</r>
       <r>   2.4493  1.0000</r>
       <r>   2.4493  1.0000</r>
       <r>   2.4493  1.0000</r>
       <r>   2.4493  1.0000</r>
       <r>   2.4493  1.0000</r>
       <r>   2.4493  1.0000</r>
       <r>   4.2385  1.0000</r>
       <r>   4.2385  1.0000</r>
       <r>   4.2390  1.0000</r>
       <r>   4.2390  1.0000</r>
       <r>   4.2390  1.0000</r>
       <r>   4.2390  1.0000</r>
       <r>   4.2394  1.0000</r>
       <r>   4.2394  1.0000</r>
       <r>   5.0046  1.0000</r>
       <r>   5.0046  1.0000</r>
       <r>   5.0053  1.0000</r>
       <r>   5.0053  1.0000</r>
       <r>   5.0053  1.0000</r>
       <r>   5.0053  1.0000</r>
       <r>   5.0059  1.0000</r>
       <r>   5.0059  1.0000</r>
       <r>   5.8418  1.0000</r>
       <r>   5.8418  1.0000</r>
       <r>   5.8418  1.0000</r>
       <r>   5.8418  1.0000</r>
       <r>   6.7180  1.0000</r>
       <r>   6.7180  1.0000</r>
       <r>   6.7180  1.0000</r>
       <r>   6.7180  1.0000</r>
       <r>   7.9245  1.0000</r>
       <r>   7.9245  1.0000</r>
       <r>   7.9245  1.0000</r>
       <r>   7.9245  1.0000</r>
       <r>   8.5280  0.0000</r>
       <r>   8.5280  0.0000</r>
       <r>   8.5280  0.0000</r>
       <r>   8.5280  0.0000</r>
       <r>   9.2316  0.0000</r>
       <r>   9.2316  0.0000</r>
       <r>   9.2316  0.0000</r>
       <r>   9.2316  0.0000</r>
       <r>  10.0362  0.0000</r>
       <r>  10.0362  0.0000</r>
       <r>  10.0367  0.0000</r>
       <r>  10.0367  0.0000</r>
       <r>  10.0367  0.0000</r>
       <r>  10.0368  0.0000</r>
       <r>  10.0373  0.0000</r>
       <r>  10.0373  0.0000</r>
       <r>  11.1070  0.0000</r>
       <r>  11.1075  0.0000</r>
       <r>  11.1080  0.0000</r>
       <r>  11.1081  0.0000</r>
      </set>
      <set comment="kpoint 192">
       <r>  -1.9308  1.0000</r>
       <r>  -1.9308  1.0000</r>
       <r>  -1.9308  1.0000</r>
       <r>  -1.9308  1.0000</r>
       <r>  -0.4376  1.0000</r>
       <r>  -0.4376  1.0000</r>
       <r>  -0.4376  1.0000</r>
       <r>  -0.4376  1.0000</r>
       <r>   1.0393  1.0000</r>
       <r>   1.0393  1.0000</r>
       <r>   1.0393  1.0000</r>
       <r>   1.0393  1.0000</r>
       <r>   2.4947  1.0000</r>
       <r>   2.4947  1.0000</r>
       <r>   2.4947  1.0000</r>
       <r>   2.4947  1.0000</r>
       <r>   2.4947  1.0000</r>
       <r>   2.4947  1.0000</r>
       <r>   2.4947  1.0000</r>
       <r>   2.4947  1.0000</r>
       <r>   3.9351  1.0000</r>
       <r>   3.9351  1.0000</r>
       <r>   3.9353  1.0000</r>
       <r>   3.9353  1.0000</r>
       <r>   3.9353  1.0000</r>
       <r>   3.9353  1.0000</r>
       <r>   3.9355  1.0000</r>
       <r>   3.9355  1.0000</r>
       <r>   5.2899  1.0000</r>
       <r>   5.2899  1.0000</r>
       <r>   5.2899  1.0000</r>
       <r>   5.2899  1.0000</r>
       <r>   5.3955  1.0000</r>
       <r>   5.3955  1.0000</r>
       <r>   5.3959  1.0000</r>
       <r>   5.3959  1.0000</r>
       <r>   5.3959  1.0000</r>
       <r>   5.3959  1.0000</r>
       <r>   5.3963  1.0000</r>
       <r>   5.3963  1.0000</r>
       <r>   6.7857  1.0000</r>
       <r>   6.7857  1.0000</r>
       <r>   6.7857  1.0000</r>
       <r>   6.7858  1.0000</r>
       <r>   8.2191  0.0000</r>
       <r>   8.2191  0.0000</r>
       <r>   8.2191  0.0000</r>
       <r>   8.2191  0.0000</r>
       <r>   8.5343  0.0000</r>
       <r>   8.5343  0.0000</r>
       <r>   8.5343  0.0000</r>
       <r>   8.5343  0.0000</r>
       <r>   9.5097  0.0000</r>
       <r>   9.5097  0.0000</r>
       <r>   9.5102  0.0000</r>
       <r>   9.5102  0.0000</r>
       <r>   9.5102  0.0000</r>
       <r>   9.5103  0.0000</r>
       <r>   9.5107  0.0000</r>
       <r>   9.5107  0.0000</r>
       <r>   9.6258  0.0000</r>
       <r>   9.6258  0.0000</r>
       <r>   9.6259  0.0000</r>
       <r>   9.6259  0.0000</r>
       <r>  11.2007  0.0000</r>
       <r>  11.2010  0.0000</r>
       <r>  11.2015  0.0000</r>
       <r>  11.2018  0.0000</r>
      </set>
      <set comment="kpoint 193">
       <r>  -1.8526  1.0000</r>
       <r>  -1.8526  1.0000</r>
       <r>  -1.8526  1.0000</r>
       <r>  -1.8526  1.0000</r>
       <r>  -0.7319  1.0000</r>
       <r>  -0.7319  1.0000</r>
       <r>  -0.7319  1.0000</r>
       <r>  -0.7319  1.0000</r>
       <r>   1.4820  1.0000</r>
       <r>   1.4820  1.0000</r>
       <r>   1.4820  1.0000</r>
       <r>   1.4820  1.0000</r>
       <r>   2.5704  1.0000</r>
       <r>   2.5704  1.0000</r>
       <r>   2.5704  1.0000</r>
       <r>   2.5704  1.0000</r>
       <r>   2.5704  1.0000</r>
       <r>   2.5704  1.0000</r>
       <r>   2.5704  1.0000</r>
       <r>   2.5704  1.0000</r>
       <r>   3.6533  1.0000</r>
       <r>   3.6533  1.0000</r>
       <r>   3.6534  1.0000</r>
       <r>   3.6534  1.0000</r>
       <r>   3.6534  1.0000</r>
       <r>   3.6534  1.0000</r>
       <r>   3.6535  1.0000</r>
       <r>   3.6535  1.0000</r>
       <r>   4.6950  1.0000</r>
       <r>   4.6950  1.0000</r>
       <r>   4.6950  1.0000</r>
       <r>   4.6951  1.0000</r>
       <r>   5.8221  1.0000</r>
       <r>   5.8221  1.0000</r>
       <r>   5.8224  1.0000</r>
       <r>   5.8224  1.0000</r>
       <r>   5.8224  1.0000</r>
       <r>   5.8224  1.0000</r>
       <r>   5.8227  1.0000</r>
       <r>   5.8227  1.0000</r>
       <r>   6.8678  1.0000</r>
       <r>   6.8678  1.0000</r>
       <r>   6.8678  1.0000</r>
       <r>   6.8678  1.0000</r>
       <r>   7.9391  1.0000</r>
       <r>   7.9391  1.0000</r>
       <r>   7.9391  1.0000</r>
       <r>   7.9391  1.0000</r>
       <r>   8.9370  0.0000</r>
       <r>   8.9370  0.0000</r>
       <r>   8.9373  0.0000</r>
       <r>   8.9374  0.0000</r>
       <r>   8.9374  0.0000</r>
       <r>   8.9374  0.0000</r>
       <r>   8.9378  0.0000</r>
       <r>   8.9378  0.0000</r>
       <r>   9.2565  0.0000</r>
       <r>   9.2565  0.0000</r>
       <r>   9.2565  0.0000</r>
       <r>   9.2566  0.0000</r>
       <r>  10.0479  0.0000</r>
       <r>  10.0479  0.0000</r>
       <r>  10.0479  0.0000</r>
       <r>  10.0479  0.0000</r>
       <r>  11.2920  0.0000</r>
       <r>  11.2923  0.0000</r>
       <r>  11.2926  0.0000</r>
       <r>  11.2928  0.0000</r>
      </set>
      <set comment="kpoint 194">
       <r>  -1.7433  1.0000</r>
       <r>  -1.7433  1.0000</r>
       <r>  -1.7433  1.0000</r>
       <r>  -1.7433  1.0000</r>
       <r>  -0.9957  1.0000</r>
       <r>  -0.9957  1.0000</r>
       <r>  -0.9957  1.0000</r>
       <r>  -0.9957  1.0000</r>
       <r>   1.9532  1.0000</r>
       <r>   1.9532  1.0000</r>
       <r>   1.9532  1.0000</r>
       <r>   1.9532  1.0000</r>
       <r>   2.6762  1.0000</r>
       <r>   2.6762  1.0000</r>
       <r>   2.6762  1.0000</r>
       <r>   2.6763  1.0000</r>
       <r>   2.6763  1.0000</r>
       <r>   2.6763  1.0000</r>
       <r>   2.6763  1.0000</r>
       <r>   2.6763  1.0000</r>
       <r>   3.3991  1.0000</r>
       <r>   3.3991  1.0000</r>
       <r>   3.3992  1.0000</r>
       <r>   3.3992  1.0000</r>
       <r>   3.3992  1.0000</r>
       <r>   3.3992  1.0000</r>
       <r>   3.3993  1.0000</r>
       <r>   3.3993  1.0000</r>
       <r>   4.1036  1.0000</r>
       <r>   4.1036  1.0000</r>
       <r>   4.1036  1.0000</r>
       <r>   4.1037  1.0000</r>
       <r>   6.2784  1.0000</r>
       <r>   6.2784  1.0000</r>
       <r>   6.2787  1.0000</r>
       <r>   6.2787  1.0000</r>
       <r>   6.2787  1.0000</r>
       <r>   6.2787  1.0000</r>
       <r>   6.2790  1.0000</r>
       <r>   6.2790  1.0000</r>
       <r>   6.9748  1.0000</r>
       <r>   6.9748  1.0000</r>
       <r>   6.9749  1.0000</r>
       <r>   6.9749  1.0000</r>
       <r>   7.6881  1.0000</r>
       <r>   7.6881  1.0000</r>
       <r>   7.6881  1.0000</r>
       <r>   7.6881  1.0000</r>
       <r>   8.3650  0.0000</r>
       <r>   8.3650  0.0000</r>
       <r>   8.3653  0.0000</r>
       <r>   8.3653  0.0000</r>
       <r>   8.3653  0.0000</r>
       <r>   8.3653  0.0000</r>
       <r>   8.3656  0.0000</r>
       <r>   8.3656  0.0000</r>
       <r>  10.0337  0.0000</r>
       <r>  10.0337  0.0000</r>
       <r>  10.0337  0.0000</r>
       <r>  10.0337  0.0000</r>
       <r>  10.4974  0.0000</r>
       <r>  10.4974  0.0000</r>
       <r>  10.4974  0.0000</r>
       <r>  10.4974  0.0000</r>
       <r>  11.4014  0.0000</r>
       <r>  11.4017  0.0000</r>
       <r>  11.4020  0.0000</r>
       <r>  11.4022  0.0000</r>
      </set>
      <set comment="kpoint 195">
       <r>  -1.6029  1.0000</r>
       <r>  -1.6028  1.0000</r>
       <r>  -1.6028  1.0000</r>
       <r>  -1.6028  1.0000</r>
       <r>  -1.2289  1.0000</r>
       <r>  -1.2289  1.0000</r>
       <r>  -1.2289  1.0000</r>
       <r>  -1.2289  1.0000</r>
       <r>   2.4521  1.0000</r>
       <r>   2.4522  1.0000</r>
       <r>   2.4522  1.0000</r>
       <r>   2.4522  1.0000</r>
       <r>   2.8122  1.0000</r>
       <r>   2.8122  1.0000</r>
       <r>   2.8122  1.0000</r>
       <r>   2.8122  1.0000</r>
       <r>   2.8122  1.0000</r>
       <r>   2.8122  1.0000</r>
       <r>   2.8122  1.0000</r>
       <r>   2.8122  1.0000</r>
       <r>   3.1739  1.0000</r>
       <r>   3.1739  1.0000</r>
       <r>   3.1739  1.0000</r>
       <r>   3.1739  1.0000</r>
       <r>   3.1739  1.0000</r>
       <r>   3.1739  1.0000</r>
       <r>   3.1740  1.0000</r>
       <r>   3.1740  1.0000</r>
       <r>   3.5295  1.0000</r>
       <r>   3.5295  1.0000</r>
       <r>   3.5295  1.0000</r>
       <r>   3.5296  1.0000</r>
       <r>   6.7626  1.0000</r>
       <r>   6.7626  1.0000</r>
       <r>   6.7629  1.0000</r>
       <r>   6.7629  1.0000</r>
       <r>   6.7629  1.0000</r>
       <r>   6.7629  1.0000</r>
       <r>   6.7632  1.0000</r>
       <r>   6.7632  1.0000</r>
       <r>   7.1098  1.0000</r>
       <r>   7.1098  1.0000</r>
       <r>   7.1098  1.0000</r>
       <r>   7.1098  1.0000</r>
       <r>   7.4662  1.0000</r>
       <r>   7.4662  1.0000</r>
       <r>   7.4662  1.0000</r>
       <r>   7.4662  1.0000</r>
       <r>   7.8083  1.0000</r>
       <r>   7.8083  1.0000</r>
       <r>   7.8086  1.0000</r>
       <r>   7.8086  1.0000</r>
       <r>   7.8086  1.0000</r>
       <r>   7.8087  1.0000</r>
       <r>   7.8090  1.0000</r>
       <r>   7.8090  1.0000</r>
       <r>  10.8489  0.0000</r>
       <r>  10.8490  0.0000</r>
       <r>  10.8490  0.0000</r>
       <r>  10.8490  0.0000</r>
       <r>  10.9736  0.0000</r>
       <r>  10.9736  0.0000</r>
       <r>  10.9736  0.0000</r>
       <r>  10.9737  0.0000</r>
       <r>  11.5351  0.0000</r>
       <r>  11.5353  0.0000</r>
       <r>  11.5355  0.0000</r>
       <r>  11.5358  0.0000</r>
      </set>
      <set comment="kpoint 196">
       <r>  -1.4361  1.0000</r>
       <r>  -1.4318  1.0000</r>
       <r>  -1.4318  1.0000</r>
       <r>  -1.4314  1.0000</r>
       <r>  -1.4312  1.0000</r>
       <r>  -1.4308  1.0000</r>
       <r>  -1.4308  1.0000</r>
       <r>  -1.4266  1.0000</r>
       <r>   2.9679  1.0000</r>
       <r>   2.9741  1.0000</r>
       <r>   2.9741  1.0000</r>
       <r>   2.9774  1.0000</r>
       <r>   2.9776  1.0000</r>
       <r>   2.9777  1.0000</r>
       <r>   2.9781  1.0000</r>
       <r>   2.9781  1.0000</r>
       <r>   2.9781  1.0000</r>
       <r>   2.9781  1.0000</r>
       <r>   2.9781  1.0000</r>
       <r>   2.9782  1.0000</r>
       <r>   2.9782  1.0000</r>
       <r>   2.9782  1.0000</r>
       <r>   2.9782  1.0000</r>
       <r>   2.9782  1.0000</r>
       <r>   2.9783  1.0000</r>
       <r>   2.9783  1.0000</r>
       <r>   2.9787  1.0000</r>
       <r>   2.9787  1.0000</r>
       <r>   2.9790  1.0000</r>
       <r>   2.9822  1.0000</r>
       <r>   2.9822  1.0000</r>
       <r>   2.9884  1.0000</r>
       <r>   7.2674  1.0000</r>
       <r>   7.2674  1.0000</r>
       <r>   7.2695  1.0000</r>
       <r>   7.2713  1.0000</r>
       <r>   7.2727  1.0000</r>
       <r>   7.2731  1.0000</r>
       <r>   7.2732  1.0000</r>
       <r>   7.2732  1.0000</r>
       <r>   7.2734  1.0000</r>
       <r>   7.2734  1.0000</r>
       <r>   7.2734  1.0000</r>
       <r>   7.2734  1.0000</r>
       <r>   7.2735  1.0000</r>
       <r>   7.2735  1.0000</r>
       <r>   7.2735  1.0000</r>
       <r>   7.2735  1.0000</r>
       <r>   7.2737  1.0000</r>
       <r>   7.2737  1.0000</r>
       <r>   7.2738  1.0000</r>
       <r>   7.2742  1.0000</r>
       <r>   7.2757  1.0000</r>
       <r>   7.2775  1.0000</r>
       <r>   7.2795  1.0000</r>
       <r>   7.2795  1.0000</r>
       <r>  11.4741  0.0000</r>
       <r>  11.4743  0.0000</r>
       <r>  11.4743  0.0000</r>
       <r>  11.4748  0.0000</r>
       <r>  11.4764  0.0000</r>
       <r>  11.4769  0.0000</r>
       <r>  11.4769  0.0000</r>
       <r>  11.4772  0.0000</r>
       <r>  11.6935  0.0000</r>
       <r>  11.6945  0.0000</r>
       <r>  11.6951  0.0000</r>
       <r>  11.6962  0.0000</r>
      </set>
     </set>
    </set>
   </array>
  </eigenvalues>
 </calculation>
 <structure name="finalpos" >
  <crystal>
   <varray name="basis" >
    <v>       8.07461274      0.00000000      0.00000000</v>
    <v>       0.00000000      8.07461274      0.00000000</v>
    <v>       0.00000000      0.00000000      8.07461274</v>
   </varray>
   <i name="volume">    526.45967079</i>
   <varray name="rec_basis" >
    <v>       0.12384495      0.00000000      0.00000000</v>
    <v>       0.00000000      0.12384495      0.00000000</v>
    <v>       0.00000000      0.00000000      0.12384495</v>
   </varray>
  </crystal>
  <varray name="positions" >
   <v>       0.25123845      0.25000000      0.00000000</v>
   <v>       0.75000000      0.25000000      0.00000000</v>
   <v>       0.25000000      0.75000000      0.00000000</v>
   <v>       0.75000000      0.75000000      0.00000000</v>
   <v>       0.25000000      0.25000000      0.50000000</v>
   <v>       0.75000000      0.25000000      0.50000000</v>
   <v>       0.25000000      0.75000000      0.50000000</v>
   <v>       0.75000000      0.75000000      0.50000000</v>
   <v>       0.25000000      0.00000000      0.25000000</v>
   <v>       0.75000000      0.00000000      0.25000000</v>
   <v>       0.25000000      0.50000000      0.25000000</v>
   <v>       0.75000000      0.50000000      0.25000000</v>
   <v>       0.25000000      0.00000000      0.75000000</v>
   <v>       0.75000000      0.00000000      0.75000000</v>
   <v>       0.25000000      0.50000000      0.75000000</v>
   <v>       0.75000000      0.50000000      0.75000000</v>
   <v>       0.00000000      0.25000000      0.25000000</v>
   <v>       0.50000000      0.25000000      0.25000000</v>
   <v>       0.00000000      0.75000000      0.25000000</v>
   <v>       0.50000000      0.75000000      0.25000000</v>
   <v>       0.00000000      0.25000000      0.75000000</v>
   <v>       0.50000000      0.25000000      0.75000000</v>
   <v>       0.00000000      0.75000000      0.75000000</v>
   <v>       0.50000000      0.75000000      0.75000000</v>
   <v>       0.00000000      0.00000000      0.00000000</v>
   <v>       0.50000000      0.00000000      0.00000000</v>
   <v>       0.00000000      0.50000000      0.00000000</v>
   <v>       0.50000000      0.50000000      0.00000000</v>
   <v>       0.00000000      0.00000000      0.50000000</v>
   <v>       0.50000000      0.00000000      0.50000000</v>
   <v>       0.00000000      0.50000000      0.50000000</v>
   <v>       0.50000000      0.50000000      0.50000000</v>
  </varray>
 </structure>
</modeling>
