natom:   32
displacements:
- atom:    1
  direction:
    [   1.0000000000000000,  0.0000000000000000,  0.0000000000000000 ]
  displacement:
    [   0.0100000000000000,  0.0000000000000000,  0.0000000000000000 ]
lattice:
- [     8.095332690490844,     0.000000000000000,     0.000000000000000 ] # a
- [     0.000000000000000,     8.095332690490844,     0.000000000000000 ] # b
- [     0.000000000000000,     0.000000000000000,     8.095332690490844 ] # c
points:
- symbol: Au # 1
  coordinates: [  0.000000000000000,  0.000000000000000,  0.000000000000000 ]
  mass: 196.966569
- symbol: Au # 2
  coordinates: [  0.500000000000000,  0.000000000000000,  0.000000000000000 ]
  mass: 196.966569
- symbol: Au # 3
  coordinates: [  0.000000000000000,  0.500000000000000,  0.000000000000000 ]
  mass: 196.966569
- symbol: Au # 4
  coordinates: [  0.500000000000000,  0.500000000000000,  0.000000000000000 ]
  mass: 196.966569
- symbol: Au # 5
  coordinates: [  0.000000000000000,  0.000000000000000,  0.500000000000000 ]
  mass: 196.966569
- symbol: Au # 6
  coordinates: [  0.500000000000000,  0.000000000000000,  0.500000000000000 ]
  mass: 196.966569
- symbol: Au # 7
  coordinates: [  0.000000000000000,  0.500000000000000,  0.500000000000000 ]
  mass: 196.966569
- symbol: Au # 8
  coordinates: [  0.500000000000000,  0.500000000000000,  0.500000000000000 ]
  mass: 196.966569
- symbol: Au # 9
  coordinates: [  0.250000000000000,  0.250000000000000,  0.000000000000000 ]
  mass: 196.966569
- symbol: Au # 10
  coordinates: [  0.750000000000000,  0.250000000000000,  0.000000000000000 ]
  mass: 196.966569
- symbol: Au # 11
  coordinates: [  0.250000000000000,  0.750000000000000,  0.000000000000000 ]
  mass: 196.966569
- symbol: Au # 12
  coordinates: [  0.750000000000000,  0.750000000000000,  0.000000000000000 ]
  mass: 196.966569
- symbol: Au # 13
  coordinates: [  0.250000000000000,  0.250000000000000,  0.500000000000000 ]
  mass: 196.966569
- symbol: Au # 14
  coordinates: [  0.750000000000000,  0.250000000000000,  0.500000000000000 ]
  mass: 196.966569
- symbol: Au # 15
  coordinates: [  0.250000000000000,  0.750000000000000,  0.500000000000000 ]
  mass: 196.966569
- symbol: Au # 16
  coordinates: [  0.750000000000000,  0.750000000000000,  0.500000000000000 ]
  mass: 196.966569
- symbol: Au # 17
  coordinates: [  0.250000000000000,  0.000000000000000,  0.250000000000000 ]
  mass: 196.966569
- symbol: Au # 18
  coordinates: [  0.750000000000000,  0.000000000000000,  0.250000000000000 ]
  mass: 196.966569
- symbol: Au # 19
  coordinates: [  0.250000000000000,  0.500000000000000,  0.250000000000000 ]
  mass: 196.966569
- symbol: Au # 20
  coordinates: [  0.750000000000000,  0.500000000000000,  0.250000000000000 ]
  mass: 196.966569
- symbol: Au # 21
  coordinates: [  0.250000000000000,  0.000000000000000,  0.750000000000000 ]
  mass: 196.966569
- symbol: Au # 22
  coordinates: [  0.750000000000000,  0.000000000000000,  0.750000000000000 ]
  mass: 196.966569
- symbol: Au # 23
  coordinates: [  0.250000000000000,  0.500000000000000,  0.750000000000000 ]
  mass: 196.966569
- symbol: Au # 24
  coordinates: [  0.750000000000000,  0.500000000000000,  0.750000000000000 ]
  mass: 196.966569
- symbol: Au # 25
  coordinates: [  0.000000000000000,  0.250000000000000,  0.250000000000000 ]
  mass: 196.966569
- symbol: Au # 26
  coordinates: [  0.500000000000000,  0.250000000000000,  0.250000000000000 ]
  mass: 196.966569
- symbol: Au # 27
  coordinates: [  0.000000000000000,  0.750000000000000,  0.250000000000000 ]
  mass: 196.966569
- symbol: Au # 28
  coordinates: [  0.500000000000000,  0.750000000000000,  0.250000000000000 ]
  mass: 196.966569
- symbol: Au # 29
  coordinates: [  0.000000000000000,  0.250000000000000,  0.750000000000000 ]
  mass: 196.966569
- symbol: Au # 30
  coordinates: [  0.500000000000000,  0.250000000000000,  0.750000000000000 ]
  mass: 196.966569
- symbol: Au # 31
  coordinates: [  0.000000000000000,  0.750000000000000,  0.750000000000000 ]
  mass: 196.966569
- symbol: Au # 32
  coordinates: [  0.500000000000000,  0.750000000000000,  0.750000000000000 ]
  mass: 196.966569