32   
1    

1    
  0.0100000000000000   0.0000000000000000   0.0000000000000000
  -0.0133710000   -0.0000000000   -0.0000000000
   0.0034596300   -0.0000000000    0.0000000000
  -0.0004884800   -0.0000000000    0.0000000000
  -0.0018218600    0.0000000000   -0.0000000000
  -0.0004884800   -0.0000000000    0.0000000000
  -0.0018218600    0.0000000000   -0.0000000000
   0.0002678700   -0.0000000000    0.0000000000
  -0.0001337600    0.0000000000   -0.0000000000
   0.0021853000    0.0030790500   -0.0000000000
   0.0020524600   -0.0029038400   -0.0000000000
   0.0021853000   -0.0030790500    0.0000000000
   0.0020524600    0.0029038400    0.0000000000
   0.0002420200    0.0000129000    0.0000000000
   0.0002414600   -0.0000116300    0.0000000000
   0.0002420200   -0.0000129000    0.0000000000
   0.0002414600    0.0000116300   -0.0000000000
   0.0021853000    0.0000000000    0.0030790500
   0.0020524600    0.0000000000   -0.0029038400
   0.0002420200    0.0000000000    0.0000129000
   0.0002414600   -0.0000000000   -0.0000116300
   0.0021853000   -0.0000000000   -0.0030790500
   0.0020524600    0.0000000000    0.0029038400
   0.0002420200   -0.0000000000   -0.0000129000
   0.0002414600    0.0000000000    0.0000116300
  -0.0017971700    0.0000035900    0.0000035900
   0.0006754200    0.0000025500    0.0000025500
  -0.0017971700   -0.0000035900    0.0000035900
   0.0006754200   -0.0000025500    0.0000025500
  -0.0017971700    0.0000035900   -0.0000035900
   0.0006754200    0.0000025500   -0.0000025500
  -0.0017971700   -0.0000035900   -0.0000035900
   0.0006754200   -0.0000025500   -0.0000025500
