mesh: [    48,    48,    48 ]
nqpoint: 2600   
reciprocal_lattice:
- [   0.22823263,   0.00000000,   0.00000000 ] # a*
- [   0.00000000,   0.22823263,   0.00000000 ] # b*
- [   0.00000000,   0.00000000,   0.22823263 ] # c*
natom:   4      
lattice:
- [     4.381494497430611,     0.000000000000000,     0.000000000000000 ] # a
- [     0.000000000000000,     4.381494497430611,     0.000000000000000 ] # b
- [     0.000000000000000,     0.000000000000000,     4.381494497430611 ] # c
points:
- symbol: Au # 1
  coordinates: [  0.000000000000000,  0.000000000000000,  0.000000000000000 ]
  mass: 196.966569
- symbol: Au # 2
  coordinates: [  0.500000000000000,  0.500000000000000,  0.000000000000000 ]
  mass: 196.966569
- symbol: Au # 3
  coordinates: [  0.500000000000000,  0.000000000000000,  0.500000000000000 ]
  mass: 196.966569
- symbol: Au # 4
  coordinates: [  0.000000000000000,  0.500000000000000,  0.500000000000000 ]
  mass: 196.966569
phonon:
- q-position: [    0.0104167,    0.0104167,    0.0104167 ]
  weight: 8    
  band:
  - # 1
    frequency:     0.0174843253
  - # 2
    frequency:     0.0174843253
  - # 3
    frequency:     0.0713695926
  - # 4
    frequency:     1.1076164208
  - # 5
    frequency:     1.1076164208
  - # 6
    frequency:     1.1076164208
  - # 7
    frequency:     1.1090557267
  - # 8
    frequency:     1.1090557267
  - # 9
    frequency:     1.1090557267
  - # 10
    frequency:     2.1638919406
  - # 11
    frequency:     2.1638919406
  - # 12
    frequency:     2.1638919406

- q-position: [    0.0312500,    0.0104167,    0.0104167 ]
  weight: 24   
  band:
  - # 1
    frequency:     0.0193920543
  - # 2
    frequency:     0.0274136095
  - # 3
    frequency:     0.1407165217
  - # 4
    frequency:     1.1043696921
  - # 5
    frequency:     1.1043696921
  - # 6
    frequency:     1.1052748022
  - # 7
    frequency:     1.1067117372
  - # 8
    frequency:     1.1097540870
  - # 9
    frequency:     1.1097540870
  - # 10
    frequency:     2.1606458348
  - # 11
    frequency:     2.1606458348
  - # 12
    frequency:     2.1627483826

- q-position: [    0.0520833,    0.0104167,    0.0104167 ]
  weight: 24   
  band:
  - # 1
    frequency:     0.0234357765
  - # 2
    frequency:     0.0315755377
  - # 3
    frequency:     0.2230812543
  - # 4
    frequency:     1.0985222716
  - # 5
    frequency:     1.0985222716
  - # 6
    frequency:     1.1006015935
  - # 7
    frequency:     1.1020338384
  - # 8
    frequency:     1.1105683890
  - # 9
    frequency:     1.1105683890
  - # 10
    frequency:     2.1541726979
  - # 11
    frequency:     2.1541726979
  - # 12
    frequency:     2.1604492904

- q-position: [    0.0729167,    0.0104167,    0.0104167 ]
  weight: 24   
  band:
  - # 1
    frequency:     0.0298248262
  - # 2
    frequency:     0.0369534314
  - # 3
    frequency:     0.3073589192
  - # 4
    frequency:     1.0899424642
  - # 5
    frequency:     1.0899424642
  - # 6
    frequency:     1.0936168090
  - # 7
    frequency:     1.0950421455
  - # 8
    frequency:     1.1117567791
  - # 9
    frequency:     1.1117567791
  - # 10
    frequency:     2.1445106252
  - # 11
    frequency:     2.1445106252
  - # 12
    frequency:     2.1569709189

- q-position: [    0.0937500,    0.0104167,    0.0104167 ]
  weight: 24   
  band:
  - # 1
    frequency:     0.0386208332
  - # 2
    frequency:     0.0445740332
  - # 3
    frequency:     0.3917868638
  - # 4
    frequency:     1.0786658528
  - # 5
    frequency:     1.0786658528
  - # 6
    frequency:     1.0843503628
  - # 7
    frequency:     1.0857667195
  - # 8
    frequency:     1.1134713776
  - # 9
    frequency:     1.1134713776
  - # 10
    frequency:     2.1317166246
  - # 11
    frequency:     2.1317166246
  - # 12
    frequency:     2.1522781626

- q-position: [    0.1145833,    0.0104167,    0.0104167 ]
  weight: 24   
  band:
  - # 1
    frequency:     0.0497834326
  - # 2
    frequency:     0.0546941028
  - # 3
    frequency:     0.4757503963
  - # 4
    frequency:     1.0647889361
  - # 5
    frequency:     1.0647889361
  - # 6
    frequency:     1.0728419409
  - # 7
    frequency:     1.0742474343
  - # 8
    frequency:     1.1158622491
  - # 9
    frequency:     1.1158622491
  - # 10
    frequency:     2.1158664528
  - # 11
    frequency:     2.1158664528
  - # 12
    frequency:     2.1463251570

- q-position: [    0.1354167,    0.0104167,    0.0104167 ]
  weight: 24   
  band:
  - # 1
    frequency:     0.0632349899
  - # 2
    frequency:     0.0673084145
  - # 3
    frequency:     0.5589067648
  - # 4
    frequency:     1.0484459319
  - # 5
    frequency:     1.0484459319
  - # 6
    frequency:     1.0591408316
  - # 7
    frequency:     1.0605338004
  - # 8
    frequency:     1.1190973867
  - # 9
    frequency:     1.1190973867
  - # 10
    frequency:     2.0970543963
  - # 11
    frequency:     2.0970543963
  - # 12
    frequency:     2.1390560575

- q-position: [    0.1562500,    0.0104167,    0.0104167 ]
  weight: 24   
  band:
  - # 1
    frequency:     0.0788890809
  - # 2
    frequency:     0.0823155157
  - # 3
    frequency:     0.6410075742
  - # 4
    frequency:     1.0298040800
  - # 5
    frequency:     1.0298040800
  - # 6
    frequency:     1.0433057142
  - # 7
    frequency:     1.0446847473
  - # 8
    frequency:     1.1233633949
  - # 9
    frequency:     1.1233633949
  - # 10
    frequency:     2.0753929943
  - # 11
    frequency:     2.0753929943
  - # 12
    frequency:     2.1304059786

- q-position: [    0.1770833,    0.0104167,    0.0104167 ]
  weight: 24   
  band:
  - # 1
    frequency:     0.0966571387
  - # 2
    frequency:     0.0995888142
  - # 3
    frequency:     0.7218470594
  - # 4
    frequency:     1.0090633385
  - # 5
    frequency:     1.0090633385
  - # 6
    frequency:     1.0254044080
  - # 7
    frequency:     1.0267683653
  - # 8
    frequency:     1.1288610271
  - # 9
    frequency:     1.1288610271
  - # 10
    frequency:     2.0510127008
  - # 11
    frequency:     2.0510127008
  - # 12
    frequency:     2.1203020718

- q-position: [    0.1979167,    0.0104167,    0.0104167 ]
  weight: 24   
  band:
  - # 1
    frequency:     0.1164481723
  - # 2
    frequency:     0.1190005680
  - # 3
    frequency:     0.8012435381
  - # 4
    frequency:     0.9864574780
  - # 5
    frequency:     0.9864574780
  - # 6
    frequency:     1.0055135820
  - # 7
    frequency:     1.0068616085
  - # 8
    frequency:     1.1357986894
  - # 9
    frequency:     1.1357986894
  - # 10
    frequency:     2.0240614835
  - # 11
    frequency:     2.0240614835
  - # 12
    frequency:     2.1086647199

- q-position: [    0.2187500,    0.0104167,    0.0104167 ]
  weight: 24   
  band:
  - # 1
    frequency:     0.1381673066
  - # 2
    frequency:     0.1404266444
  - # 3
    frequency:     0.8790318968
  - # 4
    frequency:     0.9622557927
  - # 5
    frequency:     0.9622557927
  - # 6
    frequency:     0.9837184271
  - # 7
    frequency:     0.9850499610
  - # 8
    frequency:     1.1443848567
  - # 9
    frequency:     1.1443848567
  - # 10
    frequency:     1.9947043526
  - # 11
    frequency:     1.9947043526
  - # 12
    frequency:     2.0954088229

- q-position: [    0.2395833,    0.0104167,    0.0104167 ]
  weight: 24   
  band:
  - # 1
    frequency:     0.1617146285
  - # 2
    frequency:     0.1637453520
  - # 3
    frequency:     0.9367651377
  - # 4
    frequency:     0.9367651377
  - # 5
    frequency:     0.9550603650
  - # 6
    frequency:     0.9601122912
  - # 7
    frequency:     0.9614270667
  - # 8
    frequency:     1.1548199174
  - # 9
    frequency:     1.1548199174
  - # 10
    frequency:     1.9631228127
  - # 11
    frequency:     1.9631228127
  - # 12
    frequency:     2.0804451509

- q-position: [    0.2604167,    0.0104167,    0.0104167 ]
  weight: 24   
  band:
  - # 1
    frequency:     0.1869845275
  - # 2
    frequency:     0.1888352327
  - # 3
    frequency:     0.9103320757
  - # 4
    frequency:     0.9103320757
  - # 5
    frequency:     0.9347962798
  - # 6
    frequency:     0.9360943266
  - # 7
    frequency:     1.0291891479
  - # 8
    frequency:     1.1672878937
  - # 9
    frequency:     1.1672878937
  - # 10
    frequency:     1.9295142288
  - # 11
    frequency:     1.9295142288
  - # 12
    frequency:     2.0636817394

- q-position: [    0.2812500,    0.0104167,    0.0104167 ]
  weight: 24   
  band:
  - # 1
    frequency:     0.2138654336
  - # 2
    frequency:     0.2155732240
  - # 3
    frequency:     0.8833448510
  - # 4
    frequency:     0.8833448510
  - # 5
    frequency:     0.9078788239
  - # 6
    frequency:     0.9091604633
  - # 7
    frequency:     1.1012899244
  - # 8
    frequency:     1.1819485021
  - # 9
    frequency:     1.1819485021
  - # 10
    frequency:     1.8940910918
  - # 11
    frequency:     1.8940910918
  - # 12
    frequency:     2.0450253029

- q-position: [    0.3020833,    0.0104167,    0.0104167 ]
  weight: 24   
  band:
  - # 1
    frequency:     0.2422398312
  - # 2
    frequency:     0.2438334308
  - # 3
    frequency:     0.8562347576
  - # 4
    frequency:     0.8562347576
  - # 5
    frequency:     0.8794752155
  - # 6
    frequency:     0.8807410558
  - # 7
    frequency:     1.1712457637
  - # 8
    frequency:     1.1989300229
  - # 9
    frequency:     1.1989300229
  - # 10
    frequency:     1.8570801676
  - # 11
    frequency:     1.8570801676
  - # 12
    frequency:     2.0243826461

- q-position: [    0.3229167,    0.0104167,    0.0104167 ]
  weight: 24   
  band:
  - # 1
    frequency:     0.2719844614
  - # 2
    frequency:     0.2734864250
  - # 3
    frequency:     0.8294762369
  - # 4
    frequency:     0.8294762369
  - # 5
    frequency:     0.8497071150
  - # 6
    frequency:     0.8509580465
  - # 7
    frequency:     1.2183234099
  - # 8
    frequency:     1.2183234099
  - # 9
    frequency:     1.2389512418
  - # 10
    frequency:     1.8187215068
  - # 11
    frequency:     1.8187215068
  - # 12
    frequency:     2.0016620511

- q-position: [    0.3437500,    0.0104167,    0.0104167 ]
  weight: 24   
  band:
  - # 1
    frequency:     0.3029706510
  - # 2
    frequency:     0.3043989393
  - # 3
    frequency:     0.8035847566
  - # 4
    frequency:     0.8035847566
  - # 5
    frequency:     0.8187020308
  - # 6
    frequency:     0.8199392221
  - # 7
    frequency:     1.2401779814
  - # 8
    frequency:     1.2401779814
  - # 9
    frequency:     1.3043126418
  - # 10
    frequency:     1.7792672900
  - # 11
    frequency:     1.7792672900
  - # 12
    frequency:     1.9767746228

- q-position: [    0.3645833,    0.0104167,    0.0104167 ]
  weight: 24   
  band:
  - # 1
    frequency:     0.3350647311
  - # 2
    frequency:     0.3364338418
  - # 3
    frequency:     0.7791112097
  - # 4
    frequency:     0.7791112097
  - # 5
    frequency:     0.7865927738
  - # 6
    frequency:     0.7878176717
  - # 7
    frequency:     1.2644989028
  - # 8
    frequency:     1.2644989028
  - # 9
    frequency:     1.3672481760
  - # 10
    frequency:     1.7389804743
  - # 11
    frequency:     1.7389804743
  - # 12
    frequency:     1.9496355779

- q-position: [    0.3854167,    0.0104167,    0.0104167 ]
  weight: 24   
  band:
  - # 1
    frequency:     0.3681285194
  - # 2
    frequency:     0.3694503084
  - # 3
    frequency:     0.7535168902
  - # 4
    frequency:     0.7547312224
  - # 5
    frequency:     0.7566313463
  - # 6
    frequency:     0.7566313463
  - # 7
    frequency:     1.2912465129
  - # 8
    frequency:     1.2912465129
  - # 9
    frequency:     1.4276881876
  - # 10
    frequency:     1.6981332049
  - # 11
    frequency:     1.6981332049
  - # 12
    frequency:     1.9201654630

- q-position: [    0.4062500,    0.0104167,    0.0104167 ]
  weight: 24   
  band:
  - # 1
    frequency:     0.4020198499
  - # 2
    frequency:     0.4033041328
  - # 3
    frequency:     0.7196160735
  - # 4
    frequency:     0.7208218575
  - # 5
    frequency:     0.7367287763
  - # 6
    frequency:     0.7367287763
  - # 7
    frequency:     1.3203373867
  - # 8
    frequency:     1.3203373867
  - # 9
    frequency:     1.4855753112
  - # 10
    frequency:     1.6570049528
  - # 11
    frequency:     1.6570049528
  - # 12
    frequency:     1.8882912911

- q-position: [    0.4270833,    0.0104167,    0.0104167 ]
  weight: 24   
  band:
  - # 1
    frequency:     0.4365931377
  - # 2
    frequency:     0.4378481362
  - # 3
    frequency:     0.6850355595
  - # 4
    frequency:     0.6862351181
  - # 5
    frequency:     0.7199706183
  - # 6
    frequency:     0.7199706183
  - # 7
    frequency:     1.3516468831
  - # 8
    frequency:     1.3516468831
  - # 9
    frequency:     1.5408645728
  - # 10
    frequency:     1.6158803470
  - # 11
    frequency:     1.6158803470
  - # 12
    frequency:     1.8539475889

- q-position: [    0.4479167,    0.0104167,    0.0104167 ]
  weight: 24   
  band:
  - # 1
    frequency:     0.4716999718
  - # 2
    frequency:     0.4729326471
  - # 3
    frequency:     0.6499235064
  - # 4
    frequency:     0.6511194914
  - # 5
    frequency:     0.7068761376
  - # 6
    frequency:     0.7068761376
  - # 7
    frequency:     1.3850127778
  - # 8
    frequency:     1.3850127778
  - # 9
    frequency:     1.5750467319
  - # 10
    frequency:     1.5750467319
  - # 11
    frequency:     1.5935234185
  - # 12
    frequency:     1.8170773468

- q-position: [    0.4687500,    0.0104167,    0.0104167 ]
  weight: 24   
  band:
  - # 1
    frequency:     0.5071897280
  - # 2
    frequency:     0.5084060326
  - # 3
    frequency:     0.6144303627
  - # 4
    frequency:     0.6156257899
  - # 5
    frequency:     0.6978807302
  - # 6
    frequency:     0.6978807302
  - # 7
    frequency:     1.4202391179
  - # 8
    frequency:     1.4202391179
  - # 9
    frequency:     1.5347919003
  - # 10
    frequency:     1.5347919003
  - # 11
    frequency:     1.6435316626
  - # 12
    frequency:     1.7776328683

- q-position: [    0.4895833,    0.0104167,    0.0104167 ]
  weight: 24   
  band:
  - # 1
    frequency:     0.5429101974
  - # 2
    frequency:     0.5441152664
  - # 3
    frequency:     0.5787082263
  - # 4
    frequency:     0.5799065229
  - # 5
    frequency:     0.6932999463
  - # 6
    frequency:     0.6932999463
  - # 7
    frequency:     1.4570914668
  - # 8
    frequency:     1.4570914668
  - # 9
    frequency:     1.4954104410
  - # 10
    frequency:     1.4954104410
  - # 11
    frequency:     1.6908813484
  - # 12
    frequency:     1.7355765152

- q-position: [    0.0312500,    0.0312500,    0.0104167 ]
  weight: 24   
  band:
  - # 1
    frequency:     0.0234105729
  - # 2
    frequency:     0.0524247946
  - # 3
    frequency:     0.1813169362
  - # 4
    frequency:     1.0993377835
  - # 5
    frequency:     1.1020456881
  - # 6
    frequency:     1.1020456881
  - # 7
    frequency:     1.1074078402
  - # 8
    frequency:     1.1074078402
  - # 9
    frequency:     1.1122840178
  - # 10
    frequency:     2.1574001681
  - # 11
    frequency:     2.1595291609
  - # 12
    frequency:     2.1595291609

- q-position: [    0.0520833,    0.0312500,    0.0104167 ]
  weight: 48   
  band:
  - # 1
    frequency:     0.0265491208
  - # 2
    frequency:     0.0643493776
  - # 3
    frequency:     0.2484910331
  - # 4
    frequency:     1.0920871003
  - # 5
    frequency:     1.0962391081
  - # 6
    frequency:     1.0974076672
  - # 7
    frequency:     1.1027255974
  - # 8
    frequency:     1.1082118207
  - # 9
    frequency:     1.1145935433
  - # 10
    frequency:     2.1509279085
  - # 11
    frequency:     2.1531096896
  - # 12
    frequency:     2.1572834999

- q-position: [    0.0729167,    0.0312500,    0.0104167 ]
  weight: 48   
  band:
  - # 1
    frequency:     0.0318455720
  - # 2
    frequency:     0.0711283764
  - # 3
    frequency:     0.3255574327
  - # 4
    frequency:     1.0826100569
  - # 5
    frequency:     1.0877219344
  - # 6
    frequency:     1.0904755471
  - # 7
    frequency:     1.0957278214
  - # 8
    frequency:     1.1093828612
  - # 9
    frequency:     1.1168150751
  - # 10
    frequency:     2.1412671495
  - # 11
    frequency:     2.1435278581
  - # 12
    frequency:     2.1538844430

- q-position: [    0.0937500,    0.0312500,    0.0104167 ]
  weight: 48   
  band:
  - # 1
    frequency:     0.0396787184
  - # 2
    frequency:     0.0774799732
  - # 3
    frequency:     0.4059568014
  - # 4
    frequency:     1.0708028892
  - # 5
    frequency:     1.0765282099
  - # 6
    frequency:     1.0812790628
  - # 7
    frequency:     1.0864451124
  - # 8
    frequency:     1.1110740134
  - # 9
    frequency:     1.1192376825
  - # 10
    frequency:     2.1284748968
  - # 11
    frequency:     2.1308403645
  - # 12
    frequency:     2.1492959171

- q-position: [    0.1145833,    0.0312500,    0.0104167 ]
  weight: 48   
  band:
  - # 1
    frequency:     0.0500995868
  - # 2
    frequency:     0.0851169487
  - # 3
    frequency:     0.4873709756
  - # 4
    frequency:     1.0566451631
  - # 5
    frequency:     1.0627529514
  - # 6
    frequency:     1.0698575974
  - # 7
    frequency:     1.0749180970
  - # 8
    frequency:     1.1134359829
  - # 9
    frequency:     1.1221252437
  - # 10
    frequency:     2.1126269054
  - # 11
    frequency:     2.1151225504
  - # 12
    frequency:     2.1434708161

- q-position: [    0.1354167,    0.0312500,    0.0104167 ]
  weight: 48   
  band:
  - # 1
    frequency:     0.0630128640
  - # 2
    frequency:     0.0947972881
  - # 3
    frequency:     0.5687714990
  - # 4
    frequency:     1.0401938785
  - # 5
    frequency:     1.0465286897
  - # 6
    frequency:     1.0562599555
  - # 7
    frequency:     1.0611972868
  - # 8
    frequency:     1.1166373508
  - # 9
    frequency:     1.1257192048
  - # 10
    frequency:     2.0938174611
  - # 11
    frequency:     2.0964681804
  - # 12
    frequency:     2.1363518180

- q-position: [    0.1562500,    0.0312500,    0.0104167 ]
  weight: 48   
  band:
  - # 1
    frequency:     0.0782854590
  - # 2
    frequency:     0.1068600273
  - # 3
    frequency:     0.6495878145
  - # 4
    frequency:     1.0215677638
  - # 5
    frequency:     1.0280206419
  - # 6
    frequency:     1.0405440797
  - # 7
    frequency:     1.0453429090
  - # 8
    frequency:     1.1208653452
  - # 9
    frequency:     1.1302503707
  - # 10
    frequency:     2.0721591046
  - # 11
    frequency:     2.0749891620
  - # 12
    frequency:     2.1278723669

- q-position: [    0.1770833,    0.0312500,    0.0104167 ]
  weight: 48   
  band:
  - # 1
    frequency:     0.0957859734
  - # 2
    frequency:     0.1214043165
  - # 3
    frequency:     0.7294437007
  - # 4
    frequency:     1.0009363366
  - # 5
    frequency:     1.0074263290
  - # 6
    frequency:     1.0227767097
  - # 7
    frequency:     1.0274247144
  - # 8
    frequency:     1.1263214053
  - # 9
    frequency:     1.1359452057
  - # 10
    frequency:     2.0477822958
  - # 11
    frequency:     2.0508152055
  - # 12
    frequency:     2.1179577970

- q-position: [    0.1979167,    0.0312500,    0.0104167 ]
  weight: 48   
  band:
  - # 1
    frequency:     0.1153913822
  - # 2
    frequency:     0.1383885287
  - # 3
    frequency:     0.8080588874
  - # 4
    frequency:     0.9785139099
  - # 5
    frequency:     0.9849766026
  - # 6
    frequency:     1.0030329835
  - # 7
    frequency:     1.0075217676
  - # 8
    frequency:     1.1332146827
  - # 9
    frequency:     1.1430265739
  - # 10
    frequency:     2.0208350136
  - # 11
    frequency:     2.0240934177
  - # 12
    frequency:     2.1065265737

- q-position: [    0.2187500,    0.0312500,    0.0104167 ]
  weight: 48   
  band:
  - # 1
    frequency:     0.1369843082
  - # 2
    frequency:     0.1576964215
  - # 3
    frequency:     0.8852072134
  - # 4
    frequency:     0.9545569699
  - # 5
    frequency:     0.9609372847
  - # 6
    frequency:     0.9813959840
  - # 7
    frequency:     0.9857222199
  - # 8
    frequency:     1.1417544440
  - # 9
    frequency:     1.1517106550
  - # 10
    frequency:     1.9914822876
  - # 11
    frequency:     1.9949878267
  - # 12
    frequency:     2.0934916245

- q-position: [    0.2395833,    0.0312500,    0.0104167 ]
  weight: 48   
  band:
  - # 1
    frequency:     0.1604492243
  - # 2
    frequency:     0.1791779833
  - # 3
    frequency:     0.9293636032
  - # 4
    frequency:     0.9356111284
  - # 5
    frequency:     0.9579562407
  - # 6
    frequency:     0.9606970210
  - # 7
    frequency:     0.9621230606
  - # 8
    frequency:     1.1521418912
  - # 9
    frequency:     1.1622015636
  - # 10
    frequency:     1.9599056533
  - # 11
    frequency:     1.9636788280
  - # 12
    frequency:     2.0787617354

- q-position: [    0.2604167,    0.0312500,    0.0104167 ]
  weight: 48   
  band:
  - # 1
    frequency:     0.1856695790
  - # 2
    frequency:     0.2026713223
  - # 3
    frequency:     0.9032740392
  - # 4
    frequency:     0.9093398842
  - # 5
    frequency:     0.9328112094
  - # 6
    frequency:     0.9368298272
  - # 7
    frequency:     1.0343613051
  - # 8
    frequency:     1.1645618521
  - # 9
    frequency:     1.1746848178
  - # 10
    frequency:     1.9263025214
  - # 11
    frequency:     1.9303625431
  - # 12
    frequency:     2.0622429853

- q-position: [    0.2812500,    0.0312500,    0.0104167 ]
  weight: 48   
  band:
  - # 1
    frequency:     0.2125259728
  - # 2
    frequency:     0.2280126755
  - # 3
    frequency:     0.8766715890
  - # 4
    frequency:     0.8825061989
  - # 5
    frequency:     0.9060647803
  - # 6
    frequency:     0.9099562291
  - # 7
    frequency:     1.1060525186
  - # 8
    frequency:     1.1791748062
  - # 9
    frequency:     1.1893205320
  - # 10
    frequency:     1.8908854491
  - # 11
    frequency:     1.8952500784
  - # 12
    frequency:     2.0438401955

- q-position: [    0.3020833,    0.0312500,    0.0104167 ]
  weight: 48   
  band:
  - # 1
    frequency:     0.2408951296
  - # 2
    frequency:     0.2550400524
  - # 3
    frequency:     0.8499832864
  - # 4
    frequency:     0.8555349259
  - # 5
    frequency:     0.8778268938
  - # 6
    frequency:     0.8816236093
  - # 7
    frequency:     1.1756397493
  - # 8
    frequency:     1.1961097190
  - # 9
    frequency:     1.2062370312
  - # 10
    frequency:     1.8538812962
  - # 11
    frequency:     1.8585666664
  - # 12
    frequency:     2.0234583709

- q-position: [    0.3229167,    0.0312500,    0.0104167 ]
  weight: 48   
  band:
  - # 1
    frequency:     0.2706494085
  - # 2
    frequency:     0.2835939225
  - # 3
    frequency:     0.8236794155
  - # 4
    frequency:     0.8288932099
  - # 5
    frequency:     0.8482133646
  - # 6
    frequency:     0.8519601470
  - # 7
    frequency:     1.2154581157
  - # 8
    frequency:     1.2255254427
  - # 9
    frequency:     1.2430071644
  - # 10
    frequency:     1.8155302462
  - # 11
    frequency:     1.8205506701
  - # 12
    frequency:     2.0010041142

- q-position: [    0.3437500,    0.0312500,    0.0104167 ]
  weight: 48   
  band:
  - # 1
    frequency:     0.3016566731
  - # 2
    frequency:     0.3135167578
  - # 3
    frequency:     0.7982708870
  - # 4
    frequency:     0.8030884322
  - # 5
    frequency:     0.8173459779
  - # 6
    frequency:     0.8210997444
  - # 7
    frequency:     1.2372697374
  - # 8
    frequency:     1.2472356758
  - # 9
    frequency:     1.3080531524
  - # 10
    frequency:     1.7760846689
  - # 11
    frequency:     1.7814524262
  - # 12
    frequency:     1.9763869941

- q-position: [    0.3645833,    0.0312500,    0.0104167 ]
  weight: 48   
  band:
  - # 1
    frequency:     0.3337803958
  - # 2
    frequency:     0.3446522906
  - # 3
    frequency:     0.7743031631
  - # 4
    frequency:     0.7786628035
  - # 5
    frequency:     0.7853527829
  - # 6
    frequency:     0.7891806734
  - # 7
    frequency:     1.2615499856
  - # 8
    frequency:     1.2713740343
  - # 9
    frequency:     1.3706898515
  - # 10
    frequency:     1.7358077986
  - # 11
    frequency:     1.7415329012
  - # 12
    frequency:     1.9495208535

- q-position: [    0.3854167,    0.0312500,    0.0104167 ]
  weight: 48   
  band:
  - # 1
    frequency:     0.3668799181
  - # 2
    frequency:     0.3768448490
  - # 3
    frequency:     0.7523452446
  - # 4
    frequency:     0.7523683208
  - # 5
    frequency:     0.7561831699
  - # 6
    frequency:     0.7563442531
  - # 7
    frequency:     1.2882591933
  - # 8
    frequency:     1.2979025299
  - # 9
    frequency:     1.4308428871
  - # 10
    frequency:     1.6949722105
  - # 11
    frequency:     1.7010621392
  - # 12
    frequency:     1.9203250438

- q-position: [    0.4062500,    0.0312500,    0.0104167 ]
  weight: 48   
  band:
  - # 1
    frequency:     0.4008108155
  - # 2
    frequency:     0.4099388950
  - # 3
    frequency:     0.7185334468
  - # 4
    frequency:     0.7227339053
  - # 5
    frequency:     0.7329723135
  - # 6
    frequency:     0.7362246149
  - # 7
    frequency:     1.3173135754
  - # 8
    frequency:     1.3267397643
  - # 9
    frequency:     1.4884512117
  - # 10
    frequency:     1.6538581054
  - # 11
    frequency:     1.6603175021
  - # 12
    frequency:     1.8887255773

- q-position: [    0.4270833,    0.0312500,    0.0104167 ]
  weight: 48   
  band:
  - # 1
    frequency:     0.4354253333
  - # 2
    frequency:     0.4437787859
  - # 3
    frequency:     0.6839945750
  - # 4
    frequency:     0.6884947605
  - # 5
    frequency:     0.7167412031
  - # 6
    frequency:     0.7193469343
  - # 7
    frequency:     1.3485874774
  - # 8
    frequency:     1.3577629802
  - # 9
    frequency:     1.5434669808
  - # 10
    frequency:     1.6127515487
  - # 11
    frequency:     1.6195818039
  - # 12
    frequency:     1.8546561876

- q-position: [    0.4479167,    0.0312500,    0.0104167 ]
  weight: 48   
  band:
  - # 1
    frequency:     0.4705728688
  - # 2
    frequency:     0.4782087377
  - # 3
    frequency:     0.6489024880
  - # 4
    frequency:     0.6537736869
  - # 5
    frequency:     0.7041591703
  - # 6
    frequency:     0.7060642580
  - # 7
    frequency:     1.3819160023
  - # 8
    frequency:     1.3908101447
  - # 9
    frequency:     1.5719434512
  - # 10
    frequency:     1.5791418864
  - # 11
    frequency:     1.5958554218
  - # 12
    frequency:     1.8180592942

- q-position: [    0.4687500,    0.0312500,    0.0104167 ]
  weight: 48   
  band:
  - # 1
    frequency:     0.5061004868
  - # 2
    frequency:     0.5130729593
  - # 3
    frequency:     0.6134110145
  - # 4
    frequency:     0.6187194418
  - # 5
    frequency:     0.6956484417
  - # 6
    frequency:     0.6968100073
  - # 7
    frequency:     1.4170940827
  - # 8
    frequency:     1.4256760805
  - # 9
    frequency:     1.5317348868
  - # 10
    frequency:     1.5392911593
  - # 11
    frequency:     1.6455946657
  - # 12
    frequency:     1.7788868671

- q-position: [    0.4895833,    0.0312500,    0.0104167 ]
  weight: 48   
  band:
  - # 1
    frequency:     0.5418534590
  - # 2
    frequency:     0.5482159189
  - # 3
    frequency:     0.5776758286
  - # 4
    frequency:     0.5834827057
  - # 5
    frequency:     0.6915112510
  - # 6
    frequency:     0.6919016299
  - # 7
    frequency:     1.4538214820
  - # 8
    frequency:     1.4619841497
  - # 9
    frequency:     1.4925668627
  - # 10
    frequency:     1.5003862296
  - # 11
    frequency:     1.6926755236
  - # 12
    frequency:     1.7371011903

- q-position: [    0.0520833,    0.0520833,    0.0104167 ]
  weight: 24   
  band:
  - # 1
    frequency:     0.0285439137
  - # 2
    frequency:     0.0885775537
  - # 3
    frequency:     0.2973690152
  - # 4
    frequency:     1.0830039632
  - # 5
    frequency:     1.0916828396
  - # 6
    frequency:     1.0916828396
  - # 7
    frequency:     1.1035091237
  - # 8
    frequency:     1.1035091237
  - # 9
    frequency:     1.1189178322
  - # 10
    frequency:     2.1444574013
  - # 11
    frequency:     2.1509706795
  - # 12
    frequency:     2.1509706795

- q-position: [    0.0729167,    0.0520833,    0.0104167 ]
  weight: 48   
  band:
  - # 1
    frequency:     0.0324616819
  - # 2
    frequency:     0.1031724465
  - # 3
    frequency:     0.3618887000
  - # 4
    frequency:     1.0718931946
  - # 5
    frequency:     1.0832911777
  - # 6
    frequency:     1.0848734953
  - # 7
    frequency:     1.0964811547
  - # 8
    frequency:     1.1046456163
  - # 9
    frequency:     1.1230425541
  - # 10
    frequency:     2.1347992663
  - # 11
    frequency:     2.1415482957
  - # 12
    frequency:     2.1477299216

- q-position: [    0.0937500,    0.0520833,    0.0104167 ]
  weight: 48   
  band:
  - # 1
    frequency:     0.0390150387
  - # 2
    frequency:     0.1133440810
  - # 3
    frequency:     0.4344405593
  - # 4
    frequency:     1.0587862550
  - # 5
    frequency:     1.0722636280
  - # 6
    frequency:     1.0758408982
  - # 7
    frequency:     1.0871591485
  - # 8
    frequency:     1.1062900135
  - # 9
    frequency:     1.1271168447
  - # 10
    frequency:     2.1220105044
  - # 11
    frequency:     2.1290724091
  - # 12
    frequency:     2.1433493921

- q-position: [    0.1145833,    0.0520833,    0.0104167 ]
  weight: 48   
  band:
  - # 1
    frequency:     0.0484369973
  - # 2
    frequency:     0.1223434325
  - # 3
    frequency:     0.5107274272
  - # 4
    frequency:     1.0436727161
  - # 5
    frequency:     1.0586922403
  - # 6
    frequency:     1.0646243919
  - # 7
    frequency:     1.0755846704
  - # 8
    frequency:     1.1085943211
  - # 9
    frequency:     1.1313884553
  - # 10
    frequency:     2.1061668665
  - # 11
    frequency:     2.1136175073
  - # 12
    frequency:     2.1377794846

- q-position: [    0.1354167,    0.0520833,    0.0104167 ]
  weight: 48   
  band:
  - # 1
    frequency:     0.0606430261