 running on    8 nodes
 distr:  one band on    1 nodes,    8 groups
 vasp.4.6.28 25Jul05 complex 
 POSCAR found :  1 types and    4 ions
 LDA part: xc-table for Pade appr. of Perdew
 generate k-points for:  13  13  13
 POSCAR, INCAR and KPOINTS ok, starting setup
 FFT: planning ...           1
 reading WAVECAR
 WARNING: random wavefunctions but no delay for mixing, default for NELMDL
 entering main loop
       N       E                     dE             d eps       ncg     rms          rms(c)
DAV:   1     0.671872607174E+01    0.67187E+01   -0.40569E+03  2688   0.561E+02
DAV:   2    -0.143510997537E+02   -0.21070E+02   -0.19771E+02  3568   0.867E+01
DAV:   3    -0.150126086408E+02   -0.66151E+00   -0.65851E+00  3416   0.118E+01
DAV:   4    -0.150166583455E+02   -0.40497E-02   -0.40496E-02  3344   0.120E+00
DAV:   5    -0.150167071457E+02   -0.48800E-04   -0.48799E-04  3560   0.132E-01    0.192E+00
DAV:   6    -0.149611126109E+02    0.55595E-01   -0.50047E-03  3096   0.354E-01    0.119E+00
DAV:   7    -0.149208311005E+02    0.40282E-01   -0.15746E-02  3024   0.584E-01    0.516E-02
DAV:   8    -0.149208637190E+02   -0.32619E-04   -0.13578E-04  3624   0.765E-02    0.118E-02
DAV:   9    -0.149208657097E+02   -0.19907E-05   -0.38562E-06  3472   0.910E-03    0.129E-03
DAV:  10    -0.149208647654E+02    0.94430E-06   -0.44188E-08  3624   0.166E-03    0.292E-04
DAV:  11    -0.149208646413E+02    0.12410E-06   -0.11841E-09  2432   0.175E-04    0.244E-05
DAV:  12    -0.149208646628E+02   -0.21473E-07   -0.12467E-10  2080   0.701E-05    0.766E-06
DAV:  13    -0.149208646644E+02   -0.16521E-08   -0.30744E-11  1816   0.258E-05
   1 F= -.14920865E+02 E0= -.14920812E+02  d E =-.104733E-03
