    4    4    1    1
  0.1548436E+02  0.3956560E-09  0.3956560E-09  0.3956560E-09  0.5000000E-15
  1.000000000000000E-004
  CAR 
 unknown system                          
   12   84   16
 
  0.0000000E+00  0.0000000E+00  0.0000000E+00  0.4551661E-03
   1       -2.9018
   2        5.6014
   3        5.6014
   4        5.6014
   5        7.0601
   6        7.0601
   7        7.0601
   8       13.9504
   9       13.9504
  10       13.9504
  11       14.5800
  12       14.5800
  13       14.5800
  14       14.5800
  15       14.5800
  16       14.5800
 
  0.7692308E-01  0.0000000E+00  0.0000000E+00  0.2730997E-02
   1       -2.8459
   2        4.8185
   3        5.6522
   4        5.6522
   5        7.1130
   6        7.1130
   7        7.9386
   8       12.9417
   9       12.9417
  10       14.0057
  11       14.2050
  12       14.2050
  13       14.6267
  14       14.6267
  15       15.6923
  16       15.6923
 
  0.1538462E+00  0.0000000E+00  0.0000000E+00  0.2730997E-02
   1       -2.6782
   2        3.6708
   3        5.8046
   4        5.8046
   5        7.2707
   6        7.2707
   7        9.3727
   8       11.7767
   9       11.7767
  10       13.3909
  11       13.3909
  12       14.1714
  13       14.7672
  14       14.7672
  15       17.1676
  16       17.1676
 
  0.2307692E+00  0.0000000E+00  0.0000000E+00  0.2730997E-02
   1       -2.3992
   2        2.5675
   3        6.0588
   4        6.0588
   5        7.5294
   6        7.5294
   7       10.7039
   8       10.7039
   9       10.9531
  10       12.4741
  11       12.4741
  12       14.4472
  13       15.0013
  14       15.0013
  15       18.7563
  16       18.7898
 
  0.3076923E+00  0.0000000E+00  0.0000000E+00  0.2730997E-02
   1       -2.0097
   2        1.5502
   3        6.4148
   4        6.4148
   5        7.8795
   6        7.8795
   7        9.7321
   8        9.7321
   9       11.5876
  10       11.5876
  11       12.6373
  12       14.8326
  13       15.3292
  14       15.3292
  15       18.3420
  16       18.3676
 
  0.3846154E+00  0.0000000E+00  0.0000000E+00  0.2730997E-02
   1       -1.5105
   2        0.6299
   3        6.8730
   4        6.8730
   5        8.2936
   6        8.2936
   7        8.8630
   8        8.8630
   9       10.8022
  10       10.8022
  11       14.4128
  12       15.3267
  13       15.7510
  14       15.7510
  15       17.4414
  16       17.5769
 
  0.4615385E+00  0.0000000E+00  0.0000000E+00  0.2730997E-02
   1       -0.9030
   2       -0.1889
   3        7.4336
   4        7.4336
   5        8.0968
   6        8.0968
   7        8.6656
   8        8.6656
   9       10.2416
  10       10.2416
  11       15.9282
  12       16.2667
  13       16.2667
  14       16.2722
  15       16.6345
  16       16.8757
 
  0.7692308E-01  0.7692308E-01  0.0000000E+00  0.5461994E-02
   1       -2.7900
   2        4.8705
   3        4.8705
   4        5.7030
   5        7.1654
   6        7.9899
   7        7.9899
   8       12.1871
   9       12.9937
  10       12.9937
  11       14.2533
  12       14.2533
  13       14.6745
  14       15.6648
  15       15.7423
  16       15.7423
 
  0.1538462E+00  0.7692308E-01  0.0000000E+00  0.1092399E-01
   1       -2.6224
   2        3.7238
   3        5.0266
   4        5.8554
   5        7.3210
   6        8.1426
   7        9.4219
   8       11.0919
   9       11.8282
  10       13.1497
  11       13.4422
  12       14.1188
  13       14.3982
  14       15.8922
  15       16.7623
  16       17.2179
 
  0.2307692E+00  0.7692308E-01  0.0000000E+00  0.1092399E-01
   1       -2.3435
   2        2.6210
   3        5.2863
   4        6.1096
   5        7.5730
   6        8.3925
   7       10.0500
   8       10.7553
   9       10.9988
  10       12.5298
  11       13.2166
  12       13.4094
  13       14.6404
  14       16.1421
  15       18.0422
  16       18.2775
 
  0.3076923E+00  0.7692308E-01  0.0000000E+00  0.1092399E-01
   1       -1.9541
   2        1.6043
   3        5.6489
   4        6.4657
   5        7.8911
   6        8.7268
   7        9.1265
   8        9.7834
   9       11.6534
  10       12.3239
  11       12.6749
  12       13.7723
  13       14.9825
  14       16.4920
  15       17.0945
  16       18.0061
 
  0.3846154E+00  0.7692308E-01  0.0000000E+00  0.1092399E-01
   1       -1.4552
   2        0.6843
   3        6.1129
   4        6.9239
   5        7.9494
   6        8.6440
   7        8.9142
   8        9.0995
   9       10.9043
  10       11.5114
  11       14.2376
  12       14.4198
  13       15.4423
  14       16.2356
  15       16.9417
  16       17.2111
 
  0.4615385E+00  0.7692308E-01  0.0000000E+00  0.1092399E-01
   1       -0.8479
   2       -0.1341
   3        6.6749
   4        7.3227
   5        7.4846
   6        8.1479
   7        8.9875
   8        9.2885
   9       10.5251
  10       10.8410
  11       14.8044
  12       15.4711
  13       15.8086
  14       16.4363
  15       16.4940
  16       17.4905
 
  0.1538462E+00  0.1538462E+00  0.0000000E+00  0.5461994E-02
   1       -2.4550
   2        3.8825
   3        3.8825
   4        6.0079
   5        7.4673
   6        9.5673
   7        9.5673
   8       10.0319
   9       11.9829
  10       11.9829
  11       13.5967
  12       13.5967
  13       14.9583
  14       16.3862
  15       17.3685
  16       17.3685
 
  0.2307692E+00  0.1538462E+00  0.0000000E+00  0.1092399E-01
   1       -2.1765
   2        2.7816
   3        4.1466
   4        6.2622
   5        7.6784
   6        9.0387
   7        9.7995
   8       10.9095
   9       11.1300
  10       12.2406
  11       12.7012
  12       13.8589
  13       14.4793
  14       16.8873
  15       17.4418
  16       17.6194
 
  0.3076923E+00  0.1538462E+00  0.0000000E+00  0.1092399E-01
   1       -1.7876
   2        1.7663
   3        4.5151
   4        6.6184
   5        7.6561
   6        8.4607
   7        9.9372
   8       10.0820
   9       11.8731
  10       12.6011
  11       12.7639
  12       13.6420
  13       14.2517
  14       15.9268
  15       17.2215
  16       17.9700
 
  0.3846154E+00  0.1538462E+00  0.0000000E+00  0.1092399E-01
   1       -1.2893
   2        0.8475
   3        4.9869
   4        6.9727
   5        7.0768
   6        8.7334
   7        9.0677
   8       10.2165
   9       11.3555
  10       12.8327
  11       13.0641
  12       14.2327
  13       14.9974
  14       15.0618
  15       16.4197
  16       18.4192
 
  0.4615385E+00  0.1538462E+00  0.0000000E+00  0.1092399E-01
   1       -0.6828
   2        0.0302
   3        5.5595
   4        6.2275
   5        7.6377
   6        8.3012
   7        9.2495
   8        9.8265
   9       11.5448
  10       12.1145
  11       13.6290
  12       14.2953
  13       15.0203
  14       15.6903
  15       16.6022
  16       18.4909
 
  0.2307692E+00  0.2307692E+00  0.0000000E+00  0.5461994E-02
   1       -1.8986
   2        3.0487
   3        3.0487
   4        6.5166
   5        7.5548
   6        8.3798
   7       11.1664
   8       11.1664
   9       11.3143
  10       11.3143
  11       13.0140
  12       13.0140
  13       15.4319
  14       15.8235
  15       17.0543
  16       17.2001
 
  0.3076923E+00  0.2307692E+00  0.0000000E+00  0.1092399E-01
   1       -1.5105
   2        2.0358
   3        3.4217
   4        6.7809
   5        6.8731
   6        8.5517
   7       10.1936
   8       11.3599
   9       11.5260
  10       12.4218
  11       12.7062
  12       13.6533
  13       14.8559
  14       15.0614
  15       16.3333
  16       18.1577
 
  0.3846154E+00  0.2307692E+00  0.0000000E+00  0.1092399E-01
   1       -1.0132
   2        1.1191
   3        3.8993
   4        5.9343
   5        7.3318
   6        8.9888
   7        9.3237
   8       10.8720
   9       11.9881
  10       12.5221
  11       13.5083
  12       13.9873
  13       14.3222
  14       15.0704
  15       15.5244
  16       19.8064
 
  0.4615385E+00  0.2307692E+00  0.0000000E+00  0.1092399E-01
   1       -0.4080
   2        0.3035
   3        4.4799
   4        5.1604
   5        7.8929
   6        8.5568
   7        9.5453
   8       10.1896
   9       12.5527
  10       12.9943
  11       13.2192
  12       13.6121
  13       14.1255
  14       14.7882
  15       16.8481
  16       18.7386
 
  0.3076923E+00  0.3076923E+00  0.0000000E+00  0.5461994E-02
   1       -1.1236
   2        2.4122
   3        2.4122
   4        5.8345
   5        7.2298
   6        8.8928
   7       10.5527
   8       10.5527
   9       12.1072
  10       12.1072
  11       13.7058
  12       13.7058
  13       13.8844
  14       15.4600
  15       16.0962
  16       17.8587
 
  0.3846154E+00  0.3076923E+00  0.0000000E+00  0.1092399E-01
   1       -0.6277
   2        1.4983
   3        2.8944
   4        4.9566
   5        7.6889
   6        9.3582
   7        9.6822
   8       11.0143
   9       11.3318
  10       12.6536
  11       13.0139
  12       14.0888
  13       14.6436
  14       15.3774
  15       15.8437
  16       19.0249
 
  0.4615385E+00  0.3076923E+00  0.0000000E+00  0.1092399E-01
   1       -0.0243
   2        0.6851
   3        3.4809
   4        4.1696
   5        8.2505
   6        8.9148
   7        9.9280
   8       10.5912
   9       11.5784
  10       12.2450
  11       13.2393
  12       13.9013
  13       14.6064
  14       15.2130
  15       17.1791
  16       19.0428
 
  0.3846154E+00  0.3846154E+00  0.0000000E+00  0.5461994E-02
   1       -0.1337
   2        1.9842
   3        1.9842
   4        4.0654
   5        8.1484
   6        9.8326
   7       10.1433
   8       10.1433
   9       11.8300
  10       11.8300
  11       12.1424
  12       13.8200
  13       15.7988
  14       15.7988
  15       16.9519
  16       18.8368
 
  0.4615385E+00  0.3846154E+00  0.0000000E+00  0.1092399E-01
   1        0.4675
   2        1.1742
   3        2.5755
   4        3.2701
   5        8.7105
   6        9.3754
   7       10.4072
   8       10.7070
   9       11.0758
  10       11.3734
  11       12.4077
  12       13.0719
  13       16.3016
  14       16.8204
  15       17.5806
  16       19.3414
 
  0.4615385E+00  0.4615385E+00  0.0000000E+00  0.5461994E-02
   1        1.0659
   2        1.7693
   3        1.7693
   4        2.4688
   5        9.2731
   6        9.9386
   7        9.9386
   8       10.6046
   9       10.9829
  10       11.6519
  11       11.6519
  12       12.3188
  13       17.9877
  14       17.9877
  15       17.9996
  16       19.2383
 
  0.7692308E-01  0.7692308E-01  0.7692308E-01  0.3641329E-02
   1       -2.7341
   2        4.9226
   3        4.9226
   4        4.9226
   5        8.0405
   6        8.0405
   7        8.0405
   8       12.2394
   9       12.2394
  10       12.2394
  11       14.7213
  12       14.7213
  13       14.7213
  14       15.7174
  15       15.7174
  16       15.7174
 
  0.1538462E+00  0.7692308E-01  0.7692308E-01  0.1092399E-01
   1       -2.5666
   2        3.7767
   3        5.0785
   4        5.0785
   5        8.1903
   6        8.1903
   7        9.4694
   8       11.1460
   9       11.1460
  10       12.3969
  11       14.1683
  12       14.1683
  13       14.8618
  14       15.8749
  15       16.8137
  16       16.8137
 
  0.2307692E+00  0.7692308E-01  0.7692308E-01  0.1092399E-01
   1       -2.2878
   2        2.6746
   3        5.3379
   4        5.3379
   5        8.4280
   6        8.4280
   7       10.1116
   8       10.1116
   9       11.0381
  10       12.6635
  11       13.2691
  12       13.2691
  13       15.0960
  14       16.1371
  15       17.2310
  16       18.3279
 
  0.3076923E+00  0.7692308E-01  0.7692308E-01  0.1092399E-01
   1       -1.8986
   2        1.6583
   3        5.6998
   4        5.6998
   5        8.6534
   6        8.6534
   7        9.2709
   8        9.2709
   9       12.3813
  10       12.3813
  11       12.6425
  12       13.0992
  13       15.4241
  14       16.2896
  15       16.5038
  16       18.4649
 
  0.3846154E+00  0.7692308E-01  0.7692308E-01  0.1092399E-01
   1       -1.3998
   2        0.7387
   3        6.1614
   4        6.1614
   5        8.1549
   6        8.1549
   7        9.3282
   8        9.3282
   9       11.5830
  10       11.5830
  11       13.4289
  12       14.5422
  13       15.4356
  14       15.8462
  15       16.9759
  16       17.6734
 
  0.4615385E+00  0.7692308E-01  0.7692308E-01  0.1092399E-01
   1       -0.7929
   2       -0.0793
   3        6.7064
   4        6.7064
   5        7.4379
   6        7.4379
   7        9.7076
   8        9.7076
   9       10.9828
  10       10.9828
  11       14.0083
  12       14.6747
  13       16.3597
  14       16.3622
  15       16.9716
  16       17.5641
 
  0.1538462E+00  0.1538462E+00  0.7692308E-01  0.1092399E-01
   1       -2.3992
   2        3.9353
   3        3.9353
   4        5.2340
   5        8.3242
   6        9.6054
   7        9.6054
   8       10.0959
   9       11.3129
  10       11.3129
  11       14.3171
  12       14.3171
  13       15.0051
  14       16.4401
  15       16.9676
  16       16.9676
 
  0.2307692E+00  0.1538462E+00  0.7692308E-01  0.2184797E-01
   1       -2.1209
   2        2.8350
   3        4.1992
   4        5.4923
   5        8.4445
   6        9.1892
   7        9.7515
   8       10.3599
   9       11.0899
  10       11.6577
  11       13.4280
  12       14.5289
  13       14.5662
  14       16.1418
  15       17.2235
  16       17.4933
 
  0.3076923E+00  0.1538462E+00  0.7692308E-01  0.2184797E-01
   1       -1.7321
   2        1.8202
   3        4.5673
   4        5.8508
   5        7.9097
   6        9.1200
   7        9.1857
   8       10.2859
   9       11.8438
  10       12.5609
  11       12.9308
  12       13.6943
  13       14.9203
  14       15.1931
  15       17.5807
  16       17.9681
 
  0.3846154E+00  0.1538462E+00  0.7692308E-01  0.2184797E-01
   1       -1.2340
   2        0.9019
   3        5.0381
   4        6.2924
   5        7.1078
   6        8.3482
   7        9.5244
   8       10.5902
   9       11.8464
  10       12.3336
  11       12.8895
  12       14.3347
  13       14.6110
  14       15.4194
  15       17.1659
  16       18.0378
 
  0.4615385E+00  0.1538462E+00  0.7692308E-01  0.2184797E-01
   1       -0.6278
   2        0.0849
   3        5.6074
   4        6.2498
   5        6.9525
   6        7.5894
   7       10.0405
   8       10.5423
   9       11.6909
  10       12.1848
  11       12.9045
  12       13.5712
  13       15.7623
  14       16.4398
  15       16.6412
  16       18.4845
 
  0.2307692E+00  0.2307692E+00  0.7692308E-01  0.1092399E-01
   1       -1.8431
   2        3.1020
   3        3.1020
   4        5.7471
   5        7.8182
   6        9.0332
   7       10.4182
   8       10.4182
   9       11.5024
  10       11.5024
  11       13.7009
  12       13.7009
  13       15.1040
  14       15.4789
  15       17.1078
  16       17.9699
 
  0.3076923E+00  0.2307692E+00  0.7692308E-01  0.2184797E-01
   1       -1.4552
   2        2.0896
   3        3.4747
   4        6.0852
   5        6.9209
   6        9.3467
   7        9.4797
   8       10.8119
   9       11.7172
  10       12.9169
  11       13.0606
  12       14.1370
  13       14.1489
  14       15.1108
  15       17.1023
  16       18.2086
 
  0.3846154E+00  0.2307692E+00  0.7692308E-01  0.2184797E-01
   1       -0.9581
   2        1.1733
   3        3.9519
   4        5.9543
   5        6.6490
   6        8.6159
   7        9.7973
   8       11.2839
   9       11.5817
  10       12.6633
  11       13.2863
  12       14.2343
  13       14.3740
  14       15.1690
  15       16.2929
  16       19.5217
 
  0.4615385E+00  0.2307692E+00  0.7692308E-01  0.2184797E-01
   1       -0.3531
   2        0.3581
   3        4.5314
   4        5.2083
   5        7.1835
   6        7.8480
   7       10.3487
   8       10.9761
   9       11.8525
  10       12.5201
  11       13.0624
  12       13.6678
  13       14.8942
  14       15.5577
  15       16.8948
  16       18.7762
 
  0.3076923E+00  0.3076923E+00  0.7692308E-01  0.1092399E-01
   1       -1.0684
   2        2.4658
   3        2.4658
   4        5.8541
   5        6.5468
   6        9.7036
   7        9.8505
   8        9.8505
   9       12.8185
  10       12.8185
  11       13.1893
  12       13.8331
  13       13.8331
  14       16.1433
  15       16.2301
  16       17.9108
 
  0.3846154E+00  0.3076923E+00  0.7692308E-01  0.2184797E-01
   1       -0.5727
   2        1.5524
   3        2.9478
   4        5.0047
   5        6.9783
   6        8.9813
   7       10.1677
   8       10.3185
   9       12.1095
  10       12.3235
  11       13.4251
  12       14.1532
  13       15.4143
  14       15.4356
  15       15.8927
  16       19.0741
 
  0.4615385E+00  0.3076923E+00  0.7692308E-01  0.2184797E-01
   1        0.0305
   2        0.7396
   3        3.5338
   4        4.2213
   5        7.5415
   6        8.2106
   7       10.7310
   8       10.8867
   9       11.3847
  10       11.5553
  11       14.0141
  12       14.6607
  13       14.6739
  14       15.2640
  15       17.2269
  16       19.0870
 
  0.3846154E+00  0.3846154E+00  0.7692308E-01  0.1092399E-01
   1       -0.0789
   2        2.0381
   3        2.0381
   4        4.1172
   5        7.4388
   6        9.4479
   7        9.4479
   8       10.6377
   9       11.4554
  10       12.6126
  11       12.6126
  12       14.5926
  13       15.8506
  14       15.8506
  15       16.9991
  16       18.8863
 
  0.4615385E+00  0.3846154E+00  0.7692308E-01  0.2184797E-01
   1        0.5220
   2        1.2284
   3        2.6290
   4        3.3231
   5        8.0060
   6        8.6763
   7       10.0161
   8       10.6856
   9       11.2055
  10       11.8665
  11       13.1874
  12       13.8476
  13       16.3514
  14       16.8688
  15       17.6284
  16       19.3877
 
  0.4615385E+00  0.4615385E+00  0.7692308E-01  0.1092399E-01
   1        1.1202
   2        1.8233
   3        1.8233
   4        2.5224
   5        8.5741
   6        9.2446
   7        9.2446
   8        9.9147
   9       11.7750
  10       12.4375
  11       12.4375
  12       13.0991
  13       18.0353
  14       18.0353
  15       18.0469
  16       19.2857
 
  0.1538462E+00  0.1538462E+00  0.1538462E+00  0.3641329E-02
   1       -2.2322
   2        4.0936
   3        4.0936
   4        4.0936
   5        9.6474
   6        9.6474
   7        9.6474
   8       10.3536
   9       10.3536
  10       10.3536
  11       15.1458
  12       15.1458
  13       15.1458
  14       16.0966
  15       16.6016
  16       16.6016
 
  0.2307692E+00  0.1538462E+00  0.1538462E+00  0.1092399E-01
   1       -1.9541
   2        2.9953
   3        4.3567
   4        4.3567
   5        9.0431
   6        9.0431
   7       10.1656
   8       10.1656
   9       10.3682
  10       11.4639
  11       14.6779
  12       14.6779
  13       15.0662
  14       15.3804
  15       16.8698
  16       17.6477
 
  0.3076923E+00  0.1538462E+00  0.1538462E+00  0.1092399E-01
   1       -1.5659
   2        1.9819
   3        4.7233
   4        4.7233
   5        8.1222
   6        8.1222
   7       10.4694
   8       10.4694
   9       10.7750
  10       13.0930
  11       13.8525
  12       13.8525
  13       14.1153
  14       15.7090
  15       17.2431
  16       18.7567
 
  0.3846154E+00  0.1538462E+00  0.1538462E+00  0.1092399E-01
   1       -1.0684
   2        1.0648
   3        5.1894
   4        5.1894
   5        7.2637
   6        7.2637
   7       10.8882
   8       10.8882
   9       11.2507
  10       13.0669
  11       13.0669
  12       13.2546
  13       14.8408
  14       16.1318
  15       17.7204
  16       17.9629
 
  0.4615385E+00  0.1538462E+00  0.1538462E+00  0.1092399E-01
   1       -0.4629
   2        0.2489
   3        5.7295
   4        5.7295
   5        6.5246
   6        6.5246
   7       11.3185
   8       11.3185
   9       11.8210
  10       12.4492
  11       12.4492
  12       12.4891
  13       16.6487
  14       16.6597
  15       17.2594
  16       18.3067
 
  0.2307692E+00  0.2307692E+00  0.1538462E+00  0.1092399E-01
   1       -1.6767
   2        3.2618
   3        3.2618
   4        4.6181
   5        8.0348
   6        9.3550
   7        9.3550
   8       10.3868
   9       11.6785
  10       11.6785
  11       14.0310
  12       14.9271
  13       14.9271
  14       15.6198
  15       17.2678
  16       17.9039
 
  0.3076923E+00  0.2307692E+00  0.1538462E+00  0.2184797E-01
   1       -1.2893
   2        2.2510
   3        3.6336
   4        4.9798
   5        7.0782
   6        8.3960
   7        9.7315
   8       10.7351
   9       11.9992
  10       13.0755
  11       13.3253
  12       14.1241
  13       15.2590
  14       15.2812
  15       18.2597
  16       18.3218
 
  0.3846154E+00  0.2307692E+00  0.1538462E+00  0.2184797E-01
   1       -0.7928
   2        1.3359
   3        4.1091
   4        5.4169
   5        6.2351
   6        7.5250
   7       10.2026
   8       11.1839
   9       12.2112
  10       12.3388
  11       13.4229
  12       14.5305
  13       15.0178
  14       15.7813
  15       17.5287
  16       18.7114
 
  0.4615385E+00  0.2307692E+00  0.1538462E+00  0.2184797E-01
   1       -0.1886
   2        0.5217
   3        4.6836
   4        5.3293
   5        6.1150
   6        6.7546
   7       10.7730
   8       11.4429
   9       11.7147
  10       12.2512
  11       13.3183
  12       13.8415
  13       16.1351
  14       16.8061
  15       17.0281
  16       18.8596
 
  0.3076923E+00  0.3076923E+00  0.1538462E+00  0.1092399E-01
   1       -0.9029
   2        2.6266
   3        2.6266
   4        5.3126
   5        6.1358
   6        8.7651
   7        8.7651
   8       11.0979
   9       12.1161
  10       13.5750
  11       13.5750
  12       14.5609
  13       14.5609
  14       16.2846
  15       17.5137
  16       18.0661
 
  0.3846154E+00  0.3076923E+00  0.1538462E+00  0.2184797E-01
   1       -0.4079
   2        1.7145
   3        3.1076
   4        5.1260
   5        5.9072
   6        7.8905
   7        9.2347
   8       11.2484
   9       11.5579
  10       13.3821
  11       14.3910
  12       14.6960
  13       15.6392
  14       16.0398
  15       16.7193
  16       19.2208
 
  0.4615385E+00  0.3076923E+00  0.1538462E+00  0.2184797E-01
   1        0.1945
   2        0.9028
   3        3.6918
   4        4.3743
   5        6.4442
   6        7.1148
   7        9.8057
   8       10.4774
   9       12.1104
  10       12.7413
  11       14.8286
  12       15.3333
  13       15.4178
  14       15.9904
  15       17.3689
  16       19.2151
 
  0.3846154E+00  0.3846154E+00  0.1538462E+00  0.1092399E-01
   1        0.0853
   2        2.1995
   3        2.1995
   4        4.2704
   5        6.3401
   6        8.3596
   7        8.3596
   8       10.3779
   9       12.0244
  10       13.9554
  11       13.9554
  12       15.9207
  13       16.0093
  14       16.0093
  15       17.1408
  16       19.0333
 
  0.4615385E+00  0.3846154E+00  0.1538462E+00  0.2184797E-01
   1        0.6855
   2        1.3910
   3        2.7894
   4        3.4815
   5        6.9079
   6        7.5828
   7        8.9313
   8        9.6046
   9       12.5841
  10       13.2323
  11       14.5346
  12       15.1881
  13       16.5011
  14       17.0141
  15       17.7713
  16       19.5254
 
  0.4615385E+00  0.4615385E+00  0.1538462E+00  0.1092399E-01
   1        1.2829
   2        1.9850
   3        1.9850
   4        2.6829
   5        7.4797
   6        8.1550
   7        8.1550
   8        8.8296
   9       13.1473
  10       13.7998
  11       13.7998
  12       14.4529
  13       18.1779
  14       18.1779
  15       18.1887
  16       19.4275
 
  0.2307692E+00  0.2307692E+00  0.2307692E+00  0.3641329E-02
   1       -1.3998
   2        3.5273
   3        3.5273
   4        3.5273
   5        8.3099
   6        8.3099
   7        8.3099
   8       11.9363
   9       11.9363
  10       11.9363
  11       12.9928
  12       15.8549
  13       15.8549
  14       15.8549
  15       17.5327
  16       17.5327
 
  0.3076923E+00  0.2307692E+00  0.2307692E+00  0.1092399E-01
   1       -1.0132
   2        2.5194
   3        3.8973
   4        3.8973
   5        7.3404
   6        7.3404
   7        8.6799
   8       12.0337
   9       12.2860
  10       12.2860
  11       13.5970
  12       15.5070
  13       15.5070
  14       16.1843
  15       17.8995
  16       18.6116
 
  0.3846154E+00  0.2307692E+00  0.2307692E+00  0.1092399E-01
   1       -0.5178
   2        1.6065
   3        4.3676
   4        4.3676
   5        6.4660
   6        6.4660
   7        9.1504
   8       11.1659
   9       12.7175
  10       12.7175
  11       14.7984
  12       14.7984
  13       15.3442
  14       16.6081
  15       18.3639
  16       18.4450
 
  0.4615385E+00  0.2307692E+00  0.2307692E+00  0.1092399E-01
   1        0.0852
   2        0.7940
   3        4.9117
   4        4.9117
   5        5.7188
   6        5.7188
   7        9.7221
   8       10.3944
   9       13.1641
  10       13.1641
  11       14.1883
  12       14.1883
  13       17.1264
  14       17.1539
  15       17.7389
  16       18.9248
 
  0.3076923E+00  0.3076923E+00  0.2307692E+00  0.1092399E-01
   1       -0.6277
   2        2.8939
   3        2.8939
   4        4.2620
   5        6.3672
   6        7.7070
   7        7.7070
   8       11.0708
   9       12.6509
  10       13.9357
  11       13.9357
  12       15.8586
  13       15.8586
  14       16.5202
  15       18.3220
  16       18.8374
 
  0.3846154E+00  0.3076923E+00  0.2307692E+00  0.2184797E-01
   1       -0.1337
   2        1.9842
   3        3.3728
   4        4.7026
   5        5.5149
   6        6.8275
   7        8.1773
   8       10.1995
   9       13.1036
  10       14.2917
  11       15.2263
  12       15.6241
  13       16.2855
  14       16.3523
  15       18.0916
  16       19.3925
 
  0.4615385E+00  0.3076923E+00  0.2307692E+00  0.2184797E-01
   1        0.4676
   2        1.1743
   3        3.9518
   4        4.6040
   5        5.4039
   6        6.0503
   7        8.7504
   8        9.4251
   9       13.6356
  10       14.1870
  11       15.1570
  12       15.6798
  13       16.7217
  14       17.3822
  15       17.5968
  16       19.3973
 
  0.3846154E+00  0.3846154E+00  0.2307692E+00  0.1092399E-01
   1        0.3585
   2        2.4679
   3        2.4679
   4        4.5009
   5        5.2982
   6        7.2972
   7        7.2972
   8        9.3251
   9       13.5674
  10       15.3921
  11       15.3921
  12       16.3041
  13       16.3041
  14       17.3658
  15       17.3769
  16       19.2730
 
  0.4615385E+00  0.3846154E+00  0.2307692E+00  0.2184797E-01
   1        0.9575
   2        1.6614
   3        3.0555
   4        3.7423
   5        5.8409
   6        6.5163
   7        7.8713
   8        8.5480
   9       14.1164
  10       14.7416
  11       16.0129
  12       16.6581
  13       16.7535
  14       17.2563
  15       18.0067
  16       19.7488
 
  0.4615385E+00  0.4615385E+00  0.2307692E+00  0.1092399E-01
   1        1.5536
   2        2.2539
   3        2.2539
   4        2.9494
   5        6.4121
   6        7.0906
   7        7.0906
   8        7.7688
   9       14.6731
  10       15.3101
  11       15.3101
  12       15.9505
  13       18.4141
  14       18.4141
  15       18.4251
  16       19.6635
 
  0.3076923E+00  0.3076923E+00  0.3076923E+00  0.3641329E-02
   1       -0.2433
   2        3.2662
   3        3.2662
   4        3.2662
   5        6.7291
   6        6.7291
   7        6.7291
   8       10.1040
   9       14.3061
  10       14.3061
  11       14.3061
  12       16.8504
  13       16.8504
  14       16.8504
  15       18.6729
  16       18.6729
 
  0.3846154E+00  0.3076923E+00  0.3076923E+00  0.1092399E-01
   1        0.2493
   2        2.3605
   3        3.7400
   4        3.7400
   5        5.8479
   6        5.8479
   7        7.1993
   8        9.2290
   9       14.7437
  10       14.7437
  11       16.0411
  12       16.6328
  13       16.6328
  14       17.2754
  15       19.1087
  16       19.1190
 
  0.4615385E+00  0.3076923E+00  0.3076923E+00  0.1092399E-01
   1        0.8488
   2        1.5533
   3        4.2901
   4        4.2901
   5        5.0932
   6        5.0932
   7        7.7740
   8        8.4513
   9       15.2037
  10       15.2037
  11       16.0903
  12       16.0903
  13       17.7953
  14       17.8296
  15       18.4100
  16       19.5654
 
  0.3846154E+00  0.3846154E+00  0.3076923E+00  0.1092399E-01
   1        0.7401
   2        2.8419
   3        2.8419
   4        4.1853
   5        4.9887
   6        6.3151
   7        6.3151
   8        8.3506
   9       15.2078
  10       16.4212
  11       16.4212
  12       17.1132
  13       17.1132
  14       17.7078
  15       18.8018
  16       19.5946
 
  0.4615385E+00  0.3846154E+00  0.3076923E+00  0.2184797E-01
   1        1.3372
   2        2.0388
   3        3.4242
   4        4.0826
   5        4.8807
   6        5.5333
   7        6.8906
   8        7.5700
   9       15.7373
  10       16.2941
  11       17.1329
  12       17.5034
  13       17.5964
  14       18.1436
  15       18.3261
  16       20.0312
 
  0.4615385E+00  0.4615385E+00  0.3076923E+00  0.1092399E-01
   1        1.9314
   2        2.6288
   3        2.6288
   4        3.3186
   5        5.4281
   6        6.1066
   7        6.1066
   8        6.7872
   9       16.2865
  10       16.8927
  11       16.8927
  12       17.5109
  13       18.7409
  14       18.7409
  15       18.7561
  16       19.9917
 
  0.3846154E+00  0.3846154E+00  0.3846154E+00  0.3641329E-02
   1        1.2290
   2        3.3180
   3        3.3180
   4        3.3180
   5        5.4299
   6        5.4299
   7        5.4299
   8        7.4686
   9       16.9179
  10       16.9179
  11       16.9179
  12       18.1337
  13       18.1337
  14       18.1337
  15       19.9742
  16       19.9758
 
  0.4615385E+00  0.3846154E+00  0.3846154E+00  0.1092399E-01
   1        1.8236