   4   4   0   0
  0.1455556E+02  0.3875814E-09  0.3875814E-09  0.3875814E-09  0.5000000E-15
  1.000000000000000E-004
  CAR 
 unknown system                          
     22.67039631     -3.86328136  301      9.34972814      1.00000000
     -3.863  0.0000E+00  0.0000E+00
     -3.775  0.0000E+00  0.0000E+00
     -3.686  0.0000E+00  0.0000E+00
     -3.598  0.0000E+00  0.0000E+00
     -3.509  0.0000E+00  0.0000E+00
     -3.421  0.0000E+00  0.0000E+00
     -3.333  0.0000E+00  0.0000E+00
     -3.244  0.0000E+00  0.0000E+00
     -3.156  0.0000E+00  0.0000E+00
     -3.067  0.0000E+00  0.0000E+00
     -2.979  0.0000E+00  0.0000E+00
     -2.890  0.0000E+00  0.0000E+00
     -2.802  0.0000E+00  0.0000E+00
     -2.713  0.9142E-17  0.8085E-18
     -2.625  0.1030E-01  0.9109E-03
     -2.537  0.1507E+00  0.1424E-01
     -2.448  0.8236E-01  0.2458E-01
     -2.360  0.2644E+00  0.4797E-01
     -2.271  0.2470E+00  0.7374E-01
     -2.183  0.1112E+00  0.8357E-01
     -2.094  0.3099E+00  0.1121E+00
     -2.006  0.4816E+00  0.1547E+00
     -1.917  0.8581E-01  0.1633E+00
     -1.829  0.7293E+00  0.2278E+00
     -1.741  0.2537E-02  0.2287E+00
     -1.652  0.5509E+00  0.2774E+00
     -1.564  0.3971E+00  0.3128E+00
     -1.475  0.4673E+00  0.3541E+00
     -1.387  0.5529E+00  0.4030E+00
     -1.298  0.8025E-06  0.4197E+00
     -1.210  0.3830E+00  0.4535E+00
     -1.121  0.7411E+00  0.5344E+00
     -1.033  0.3293E+00  0.5635E+00
     -0.945  0.7413E+00  0.6291E+00
     -0.856  0.4938E+00  0.6727E+00
     -0.768  0.1255E+00  0.6838E+00
     -0.679  0.9662E+00  0.7693E+00
     -0.591  0.5018E+00  0.8154E+00
     -0.502  0.5463E+00  0.8637E+00
     -0.414  0.7411E+00  0.9294E+00
     -0.325  0.2468E+00  0.9513E+00
     -0.237  0.1144E+01  0.1052E+01
     -0.149  0.2470E+00  0.1104E+01
     -0.060  0.7089E+00  0.1167E+01
      0.028  0.4940E+00  0.1235E+01
      0.117  0.7167E-01  0.1242E+01
      0.205  0.5619E+00  0.1292E+01
      0.294  0.1342E+01  0.1411E+01
      0.382  0.2910E+00  0.1438E+01
      0.471  0.1683E+01  0.1587E+01
      0.559  0.1261E+00  0.1598E+01
      0.647  0.4940E+00  0.1674E+01
      0.736  0.7084E+00  0.1737E+01
      0.824  0.4644E-03  0.1762E+01
      0.913  0.1632E+01  0.1906E+01
      1.001  0.1151E-02  0.1915E+01
      1.090  0.1039E+01  0.2006E+01
      1.178  0.1020E+01  0.2097E+01
      1.267  0.4939E+00  0.2160E+01
      1.355  0.1217E+01  0.2268E+01
      1.443  0.1154E-03  0.2291E+01
      1.532  0.7964E+00  0.2362E+01
      1.620  0.1240E+01  0.2477E+01
      1.709  0.8145E+00  0.2550E+01
      1.797  0.1047E+01  0.2642E+01
      1.886  0.1086E-05  0.2681E+01
      1.974  0.8163E+00  0.2753E+01
      2.063  0.4947E+00  0.2839E+01
      2.151  0.1194E+01  0.2945E+01
      2.239  0.5341E+00  0.2996E+01
      2.328  0.1195E+01  0.3102E+01
      2.416  0.6557E+00  0.3159E+01
      2.505  0.1235E+01  0.3364E+01
      2.593  0.4940E+00  0.3407E+01
      2.682  0.5031E+00  0.3452E+01
      2.770  0.9790E+00  0.3538E+01
      2.859  0.3443E+00  0.3569E+01
      2.947  0.1111E+01  0.3702E+01
      3.035  0.9487E+00  0.3786E+01
      3.124  0.1738E+01  0.3949E+01
      3.212  0.4852E+00  0.3992E+01
      3.301  0.1022E+01  0.4082E+01
      3.389  0.7410E+00  0.4210E+01
      3.478  0.1041E+01  0.4302E+01
      3.566  0.8015E+00  0.4376E+01
      3.655  0.1422E+01  0.4502E+01
      3.743  0.3116E+00  0.4529E+01
      3.831  0.1212E+01  0.4676E+01
      3.920  0.1207E+01  0.4783E+01
      4.008  0.1259E+01  0.4897E+01
      4.097  0.7174E+00  0.4960E+01
      4.185  0.1008E+01  0.5050E+01
      4.274  0.1556E+01  0.5213E+01
      4.362  0.4888E+00  0.5271E+01
      4.451  0.1760E+01  0.5427E+01
      4.539  0.2493E-03  0.5490E+01
      4.627  0.1445E+01  0.5618E+01
      4.716  0.1048E+01  0.5725E+01
      4.804  0.1480E+01  0.5873E+01
      4.893  0.1347E+01  0.5992E+01
      4.981  0.8150E-02  0.6004E+01
      5.070  0.1465E+01  0.6134E+01
      5.158  0.1467E+01  0.6264E+01
      5.247  0.1120E+01  0.6365E+01
      5.335  0.4484E+00  0.6441E+01
      5.424  0.6563E+00  0.6499E+01
      5.512  0.1197E+01  0.6617E+01
      5.600  0.1720E+01  0.6795E+01
      5.689  0.1125E+01  0.6895E+01
      5.777  0.1325E+01  0.7052E+01
      5.866  0.1472E+01  0.7195E+01
      5.954  0.1203E+01  0.7303E+01
      6.043  0.1173E+01  0.7409E+01
      6.131  0.9339E+00  0.7519E+01
      6.220  0.8850E+00  0.7624E+01
      6.308  0.1279E+01  0.7738E+01
      6.396  0.8864E+00  0.7824E+01
      6.485  0.1746E+01  0.7989E+01
      6.573  0.1552E+01  0.8126E+01
      6.662  0.1212E+01  0.8235E+01
      6.750  0.1860E+01  0.8415E+01
      6.839  0.1221E+01  0.8531E+01
      6.927  0.1162E+01  0.8635E+01
      7.016  0.6247E+00  0.8718E+01
      7.104  0.1591E+01  0.8859E+01
      7.192  0.1309E+01  0.8975E+01
      7.281  0.7870E+00  0.9060E+01
      7.369  0.7531E+00  0.9166E+01
      7.458  0.1141E+01  0.9268E+01
      7.546  0.1539E+01  0.9443E+01
      7.635  0.9881E+00  0.9569E+01
      7.723  0.8477E+00  0.9644E+01
      7.812  0.1331E+01  0.9801E+01
      7.900  0.7437E+00  0.9889E+01
      7.988  0.1685E+01  0.1006E+02
      8.077  0.7060E+00  0.1014E+02
      8.165  0.9286E+00  0.1023E+02
      8.254  0.2762E+01  0.1051E+02
      8.342  0.4946E+00  0.1056E+02
      8.431  0.8017E+00  0.1063E+02
      8.519  0.8736E+00  0.1075E+02
      8.608  0.1349E+01  0.1092E+02
      8.696  0.9748E+00  0.1101E+02
      8.784  0.1470E+01  0.1115E+02
      8.873  0.2039E+01  0.1135E+02
      8.961  0.6009E+00  0.1142E+02
      9.050  0.1800E+01  0.1158E+02
      9.138  0.1342E+01  0.1174E+02
      9.227  0.3990E+00  0.1178E+02
      9.315  0.2071E+01  0.1197E+02
      9.404  0.1586E+01  0.1211E+02
      9.492  0.9888E+00  0.1221E+02
      9.580  0.1082E+01  0.1230E+02
      9.669  0.9143E+00  0.1239E+02
      9.757  0.1110E+01  0.1251E+02
      9.846  0.9073E+00  0.1259E+02
      9.934  0.1439E+01  0.1275E+02
     10.023  0.1220E+01  0.1294E+02
     10.111  0.2045E+01  0.1312E+02
     10.200  0.2702E+01  0.1336E+02
     10.288  0.5245E+00  0.1341E+02
     10.376  0.2167E+01  0.1362E+02
     10.465  0.1453E+01  0.1375E+02
     10.553  0.1274E+01  0.1388E+02
     10.642  0.1197E+01  0.1402E+02
     10.730  0.1810E+00  0.1404E+02
     10.819  0.1350E+01  0.1420E+02
     10.907  0.1561E+01  0.1434E+02
     10.996  0.2221E+01  0.1454E+02
     11.084  0.1214E+01  0.1464E+02
     11.172  0.2068E+01  0.1483E+02
     11.261  0.1949E+01  0.1501E+02
     11.349  0.7410E+00  0.1510E+02
     11.438  0.9917E+00  0.1519E+02
     11.526  0.8173E+00  0.1527E+02
     11.615  0.1696E+01  0.1546E+02
     11.703  0.1477E+01  0.1559E+02
     11.792  0.1106E+01  0.1569E+02
     11.880  0.1525E+01  0.1584E+02
     11.968  0.1727E+01  0.1602E+02
     12.057  0.3430E+01  0.1632E+02
     12.145  0.7414E+00  0.1641E+02
     12.234  0.1276E+01  0.1652E+02
     12.322  0.1453E+01  0.1667E+02
     12.411  0.1017E+01  0.1679E+02
     12.499  0.1384E+01  0.1692E+02
     12.588  0.1917E+01  0.1712E+02
     12.676  0.1722E+01  0.1728E+02
     12.764  0.1771E+01  0.1744E+02
     12.853  0.6894E+00  0.1752E+02
     12.941  0.2011E+01  0.1770E+02
     13.030  0.1990E+01  0.1789E+02
     13.118  0.8214E+00  0.1799E+02
     13.207  0.2086E+01  0.1818E+02
     13.295  0.2947E+00  0.1820E+02
     13.384  0.2403E+01  0.1842E+02
     13.472  0.1182E+01  0.1853E+02
     13.561  0.2847E+01  0.1885E+02
     13.649  0.9880E+00  0.1897E+02
     13.737  0.1324E+01  0.1909E+02
     13.826  0.1221E+01  0.1920E+02
     13.914  0.1376E+01  0.1932E+02
     14.003  0.2952E+01  0.1958E+02
     14.091  0.2318E+01  0.1981E+02
     14.180  0.1581E+01  0.1998E+02
     14.268  0.1709E+01  0.2017E+02
     14.357  0.5583E+00  0.2022E+02
     14.445  0.1948E+01  0.2043E+02
     14.533  0.1723E+01  0.2059E+02
     14.622  0.7095E+00  0.2066E+02
     14.710  0.1161E+01  0.2078E+02
     14.799  0.1542E+01  0.2097E+02
     14.887  0.2773E+01  0.2122E+02
     14.976  0.1464E+01  0.2135E+02
     15.064  0.1919E+01  0.2152E+02
     15.153  0.2377E+01  0.2176E+02
     15.241  0.2421E+01  0.2198E+02
     15.329  0.1769E+01  0.2214E+02
     15.418  0.8233E+00  0.2223E+02
     15.506  0.1973E+01  0.2242E+02
     15.595  0.2533E+01  0.2265E+02
     15.683  0.3847E+01  0.2299E+02
     15.772  0.7595E+00  0.2311E+02
     15.860  0.1488E+01  0.2324E+02
     15.949  0.1199E+01  0.2338E+02
     16.037  0.1896E+01  0.2358E+02
     16.125  0.1960E+01  0.2375E+02
     16.214  0.9882E+00  0.2389E+02
     16.302  0.3667E+01  0.2422E+02
     16.391  0.1593E+01  0.2438E+02
     16.479  0.1987E+01  0.2456E+02
     16.568  0.2819E+01  0.2484E+02
     16.656  0.3410E+00  0.2487E+02
     16.745  0.2880E+01  0.2514E+02
     16.833  0.6097E+00  0.2522E+02
     16.921  0.2636E+01  0.2548E+02
     17.010  0.1944E+01  0.2567E+02
     17.098  0.1617E+01  0.2582E+02
     17.187  0.5899E+00  0.2595E+02
     17.275  0.2125E+01  0.2615E+02
     17.364  0.1825E+01  0.2634E+02
     17.452  0.1921E+01  0.2654E+02
     17.541  0.1573E+01  0.2672E+02
     17.629  0.1121E+01  0.2683E+02
     17.717  0.2360E+01  0.2704E+02
     17.806  0.7592E+00  0.2714E+02
     17.894  0.1879E+01  0.2731E+02
     17.983  0.3219E+01  0.2760E+02
     18.071  0.6617E+00  0.2769E+02
     18.160  0.1728E+01  0.2786E+02
     18.248  0.2377E+01  0.2811E+02
     18.337  0.2369E+01  0.2833E+02
     18.425  0.1259E+01  0.2851E+02
     18.513  0.1240E+01  0.2866E+02
     18.602  0.1917E+01  0.2883E+02
     18.690  0.1940E+01  0.2901E+02
     18.779  0.1437E+01  0.2914E+02
     18.867  0.1125E+01  0.2924E+02
     18.956  0.2856E+00  0.2929E+02
     19.044  0.1558E+01  0.2944E+02
     19.133  0.2528E+01  0.2966E+02
     19.221  0.2309E+01  0.2987E+02
     19.309  0.1337E+01  0.3000E+02
     19.398  0.1202E+01  0.3015E+02
     19.486  0.1539E+01  0.3028E+02
     19.575  0.2790E+01  0.3053E+02
     19.663  0.1643E-04  0.3055E+02
     19.752  0.4876E+00  0.3059E+02
     19.840  0.9002E+00  0.3067E+02
     19.929  0.2710E+01  0.3092E+02
     20.017  0.3706E+00  0.3096E+02
     20.105  0.2454E+00  0.3098E+02
     20.194  0.9072E+00  0.3106E+02
     20.282  0.1586E+01  0.3120E+02
     20.371  0.1053E+01  0.3131E+02
     20.459  0.9458E+00  0.3143E+02
     20.548  0.9229E+00  0.3155E+02
     20.636  0.1327E+01  0.3167E+02
     20.725  0.4940E+00  0.3173E+02
     20.813  0.5139E+00  0.3178E+02
     20.901  0.4765E+00  0.3184E+02
     20.990  0.1015E-01  0.3184E+02
     21.078  0.2369E+00  0.3186E+02
     21.167  0.9057E+00  0.3194E+02
     21.255  0.2470E+00  0.3196E+02
     21.344  0.2433E-01  0.3197E+02
     21.432  0.6676E-06  0.3198E+02
     21.521  0.2470E+00  0.3200E+02
     21.609  0.0000E+00  0.3200E+02
     21.697  0.0000E+00  0.3200E+02
     21.786  0.0000E+00  0.3200E+02
     21.874  0.0000E+00  0.3200E+02
     21.963  0.0000E+00  0.3200E+02
     22.051  0.0000E+00  0.3200E+02
     22.140  0.0000E+00  0.3200E+02
     22.228  0.0000E+00  0.3200E+02
     22.317  0.0000E+00  0.3200E+02
     22.405  0.0000E+00  0.3200E+02
     22.494  0.0000E+00  0.3200E+02
     22.582  0.0000E+00  0.3200E+02
     22.670  0.0000E+00  0.3200E+02
