 vasp.4.6.28 25Jul05 complex 
 executed on             LinuxIFC date 2016.10.19  17:44:28
 running on    8 nodes
 distr:  one band on    1 nodes,    8 groups


--------------------------------------------------------------------------------------------------------


 INCAR:
 POTCAR:   PAW_PBE Al 04Jan2001                   
 POTCAR:   PAW_PBE Al 04Jan2001                   
   VRHFIN =Al: s2p1                                                             
   LEXCH  = PE                                                                  
   EATOM  =    53.5387 eV,    3.9350 Ry                                         
                                                                                
   TITEL  = PAW_PBE Al 04Jan2001                                                
   LULTRA =        F    use ultrasoft PP ?                                      
   IUNSCR =        1    unscreen: 0-lin 1-nonlin 2-no                           
   RPACOR =    1.500    partial core radius                                     
   POMASS =   26.982; ZVAL   =    3.000    mass and valenz                      
   RCORE  =    1.900    outmost cutoff radius                                   
   RWIGS  =    2.650; RWIGS  =    1.402    wigner-seitz radius (au A)           
   ENMAX  =  240.300; ENMIN  =  180.225 eV                                      
   ICORE  =        2    local potential                                         
   LCOR   =        T    correct aug charges                                     
   LPAW   =        T    paw PP                                                  
   EAUG   =  291.052                                                            
   DEXC   =    -.041                                                            
   RMAX   =    2.974    core radius for proj-oper                               
   RAUG   =    1.300    factor for augmentation sphere                          
   RDEP   =    1.966    radius for radial grids                                 
   QCUT   =   -4.203; QGAM   =    8.405    optimization parameters              
                                                                                
   Description                                                                  
     l     E      TYP  RCUT    TYP  RCUT                                        
     0   .000     23  1.900                                                     
     0   .000     23  1.900                                                     
     1   .000     23  1.900                                                     
     1  1.000     23  1.900                                                     
     2   .000      7  1.900                                                     
  local pseudopotential read in
  partial core-charges read in
  atomic valenz-charges read in
  non local Contribution for L=           0  read in
    real space projection operators read in
  non local Contribution for L=           0  read in
    real space projection operators read in
  non local Contribution for L=           1  read in
    real space projection operators read in
  non local Contribution for L=           1  read in
    real space projection operators read in
    PAW grid and wavefunctions read in
 
   number of l-projection  operators is LMAX  =           4
   number of lm-projection operators is LMMAX =           8
 
 PAW_PBE Al 04Jan2001                   :
 energy of atom  1       EATOM=  -53.5387
 kinetic energy error for atom=    0.0003 (will be added to EATOM!!)
 
 EXHCAR: internal setup
 exchange correlation table for  LEXCH =        8
   RHO(1)=    0.500       N(1)  =     2000
   RHO(2)=  100.500       N(2)  =     4000
 
 POSCAR: Al                                      
  positions in direct lattice
  No initial velocities read in
 


--------------------------------------------------------------------------------------------------------


 ion  position               nearest neighbor table
   1  0.500  0.500  0.000-   2 2.74   3 2.74   4 2.74   2 2.74   3 2.74   2 2.74   4 2.74   2 2.74
                             3 2.74   4 2.74   3 2.74   4 2.74
   2  0.500  0.000  0.500-   1 2.74   3 2.74   4 2.74   1 2.74   4 2.74   1 2.74   3 2.74   1 2.74
                             3 2.74   4 2.74   4 2.74   3 2.74
   3  0.000  0.500  0.500-   1 2.74   2 2.74   4 2.74   1 2.74   4 2.74   2 2.74   4 2.74   4 2.74
                             1 2.74   2 2.74   1 2.74   2 2.74
   4  0.000  0.000  0.000-   1 2.74   2 2.74   3 2.74   2 2.74   3 2.74   1 2.74   3 2.74   3 2.74
                             1 2.74   2 2.74   2 2.74   1 2.74
 
  LATTYP: Found a simple cubic cell.
 ALAT       =     3.8758141149
  
  Lattice vectors:
  
 A1 = (   3.8758141149,   0.0000000000,   0.0000000000)
 A2 = (   0.0000000000,   3.8758141149,   0.0000000000)
 A3 = (   0.0000000000,   0.0000000000,   3.8758141149)
 Subroutine PRICEL returns following result:
 
  LATTYP: Found a face centered cubic cell.
 ALAT       =     3.8758141149
  
  Lattice vectors:
  
 A1 = (   1.9379070574,   1.9379070574,  -0.0000000000)
 A2 = (   1.9379070574,   0.0000000000,  -1.9379070574)
 A3 = (   0.0000000000,   1.9379070574,  -1.9379070574)
 
   4 primitive cells build up your supercell.
 

Analysis of symmetry for initial positions (statically):

 Routine SETGRP: Setting up the symmetry group for a 
 simple cubic supercell.


 Subroutine GETGRP returns: Found 48 space group operations
 (whereof 48 operations were pure point group operations)
 out of a pool of 48 trial point group operations.


The static configuration has the point symmetry O_h .

Analysis of symmetry for dynamics (positions and initial velocities):

 Subroutine DYNSYM returns: Found 48 space group operations
 (whereof 48 operations were pure point group operations)
 out of a pool of 48 trial space group operations
 (whereof 48 operations were pure point group operations)
 and found also     4 'primitive' translations


The dynamic configuration has the point symmetry O_h .
 
 
 KPOINTS: Automatic mesh                          

Automatic generation of k-mesh.
 generate k-points for:  13  13  13
 
 Subroutine IBZKPT returns following result:
 ===========================================
 
 Found     84 irreducible k-points:
 
 Following reciprocal coordinates:
            Coordinates               Weight
  0.000000  0.000000  0.000000      1.000000
  0.076923  0.000000  0.000000      6.000000
  0.153846  0.000000  0.000000      6.000000
  0.230769  0.000000  0.000000      6.000000
  0.307692  0.000000  0.000000      6.000000
  0.384615  0.000000  0.000000      6.000000
  0.461538  0.000000  0.000000      6.000000
  0.076923  0.076923  0.000000     12.000000
  0.153846  0.076923  0.000000     24.000000
  0.230769  0.076923  0.000000     24.000000
  0.307692  0.076923  0.000000     24.000000
  0.384615  0.076923  0.000000     24.000000
  0.461538  0.076923  0.000000     24.000000
  0.153846  0.153846  0.000000     12.000000
  0.230769  0.153846  0.000000     24.000000
  0.307692  0.153846  0.000000     24.000000
  0.384615  0.153846  0.000000     24.000000
  0.461538  0.153846  0.000000     24.000000
  0.230769  0.230769  0.000000     12.000000
  0.307692  0.230769  0.000000     24.000000
  0.384615  0.230769  0.000000     24.000000
  0.461538  0.230769  0.000000     24.000000
  0.307692  0.307692  0.000000     12.000000
  0.384615  0.307692  0.000000     24.000000
  0.461538  0.307692  0.000000     24.000000
  0.384615  0.384615  0.000000     12.000000
  0.461538  0.384615  0.000000     24.000000
  0.461538  0.461538  0.000000     12.000000
  0.076923  0.076923  0.076923      8.000000
  0.153846  0.076923  0.076923     24.000000
  0.230769  0.076923  0.076923     24.000000
  0.307692  0.076923  0.076923     24.000000
  0.384615  0.076923  0.076923     24.000000
  0.461538  0.076923  0.076923     24.000000
  0.153846  0.153846  0.076923     24.000000
  0.230769  0.153846  0.076923     48.000000
  0.307692  0.153846  0.076923     48.000000
  0.384615  0.153846  0.076923     48.000000
  0.461538  0.153846  0.076923     48.000000
  0.230769  0.230769  0.076923     24.000000
  0.307692  0.230769  0.076923     48.000000
  0.384615  0.230769  0.076923     48.000000
  0.461538  0.230769  0.076923     48.000000
  0.307692  0.307692  0.076923     24.000000
  0.384615  0.307692  0.076923     48.000000
  0.461538  0.307692  0.076923     48.000000
  0.384615  0.384615  0.076923     24.000000
  0.461538  0.384615  0.076923     48.000000
  0.461538  0.461538  0.076923     24.000000
  0.153846  0.153846  0.153846      8.000000
  0.230769  0.153846  0.153846     24.000000
  0.307692  0.153846  0.153846     24.000000
  0.384615  0.153846  0.153846     24.000000
  0.461538  0.153846  0.153846     24.000000
  0.230769  0.230769  0.153846     24.000000
  0.307692  0.230769  0.153846     48.000000
  0.384615  0.230769  0.153846     48.000000
  0.461538  0.230769  0.153846     48.000000
  0.307692  0.307692  0.153846     24.000000
  0.384615  0.307692  0.153846     48.000000
  0.461538  0.307692  0.153846     48.000000
  0.384615  0.384615  0.153846     24.000000
  0.461538  0.384615  0.153846     48.000000
  0.461538  0.461538  0.153846     24.000000
  0.230769  0.230769  0.230769      8.000000
  0.307692  0.230769  0.230769     24.000000
  0.384615  0.230769  0.230769     24.000000
  0.461538  0.230769  0.230769     24.000000
  0.307692  0.307692  0.230769     24.000000
  0.384615  0.307692  0.230769     48.000000
  0.461538  0.307692  0.230769     48.000000
  0.384615  0.384615  0.230769     24.000000
  0.461538  0.384615  0.230769     48.000000
  0.461538  0.461538  0.230769     24.000000
  0.307692  0.307692  0.307692      8.000000
  0.384615  0.307692  0.307692     24.000000
  0.461538  0.307692  0.307692     24.000000
  0.384615  0.384615  0.307692     24.000000
  0.461538  0.384615  0.307692     48.000000
  0.461538  0.461538  0.307692     24.000000
  0.384615  0.384615  0.384615      8.000000
  0.461538  0.384615  0.384615     24.000000
  0.461538  0.461538  0.384615     24.000000
  0.461538  0.461538  0.461538      8.000000
 
 Following cartesian coordinates:
            Coordinates               Weight
  0.000000  0.000000  0.000000      1.000000
  0.019053  0.000000  0.000000      6.000000
  0.038106  0.000000  0.000000      6.000000
  0.057159  0.000000  0.000000      6.000000
  0.076212  0.000000  0.000000      6.000000
  0.095265  0.000000  0.000000      6.000000
  0.114318  0.000000  0.000000      6.000000
  0.019053  0.019053  0.000000     12.000000
  0.038106  0.019053  0.000000     24.000000
  0.057159  0.019053  0.000000     24.000000
  0.076212  0.019053  0.000000     24.000000
  0.095265  0.019053  0.000000     24.000000
  0.114318  0.019053  0.000000     24.000000
  0.038106  0.038106  0.000000     12.000000
  0.057159  0.038106  0.000000     24.000000
  0.076212  0.038106  0.000000     24.000000
  0.095265  0.038106  0.000000     24.000000
  0.114318  0.038106  0.000000     24.000000
  0.057159  0.057159  0.000000     12.000000
  0.076212  0.057159  0.000000     24.000000
  0.095265  0.057159  0.000000     24.000000
  0.114318  0.057159  0.000000     24.000000
  0.076212  0.076212  0.000000     12.000000
  0.095265  0.076212  0.000000     24.000000
  0.114318  0.076212  0.000000     24.000000
  0.095265  0.095265  0.000000     12.000000
  0.114318  0.095265  0.000000     24.000000
  0.114318  0.114318  0.000000     12.000000
  0.019053  0.019053  0.019053      8.000000
  0.038106  0.019053  0.019053     24.000000
  0.057159  0.019053  0.019053     24.000000
  0.076212  0.019053  0.019053     24.000000
  0.095265  0.019053  0.019053     24.000000
  0.114318  0.019053  0.019053     24.000000
  0.038106  0.038106  0.019053     24.000000
  0.057159  0.038106  0.019053     48.000000
  0.076212  0.038106  0.019053     48.000000
  0.095265  0.038106  0.019053     48.000000
  0.114318  0.038106  0.019053     48.000000
  0.057159  0.057159  0.019053     24.000000
  0.076212  0.057159  0.019053     48.000000
  0.095265  0.057159  0.019053     48.000000
  0.114318  0.057159  0.019053     48.000000
  0.076212  0.076212  0.019053     24.000000
  0.095265  0.076212  0.019053     48.000000
  0.114318  0.076212  0.019053     48.000000
  0.095265  0.095265  0.019053     24.000000
  0.114318  0.095265  0.019053     48.000000
  0.114318  0.114318  0.019053     24.000000
  0.038106  0.038106  0.038106      8.000000
  0.057159  0.038106  0.038106     24.000000
  0.076212  0.038106  0.038106     24.000000
  0.095265  0.038106  0.038106     24.000000
  0.114318  0.038106  0.038106     24.000000
  0.057159  0.057159  0.038106     24.000000
  0.076212  0.057159  0.038106     48.000000
  0.095265  0.057159  0.038106     48.000000
  0.114318  0.057159  0.038106     48.000000
  0.076212  0.076212  0.038106     24.000000
  0.095265  0.076212  0.038106     48.000000
  0.114318  0.076212  0.038106     48.000000
  0.095265  0.095265  0.038106     24.000000
  0.114318  0.095265  0.038106     48.000000
  0.114318  0.114318  0.038106     24.000000
  0.057159  0.057159  0.057159      8.000000
  0.076212  0.057159  0.057159     24.000000
  0.095265  0.057159  0.057159     24.000000
  0.114318  0.057159  0.057159     24.000000
  0.076212  0.076212  0.057159     24.000000
  0.095265  0.076212  0.057159     48.000000
  0.114318  0.076212  0.057159     48.000000
  0.095265  0.095265  0.057159     24.000000
  0.114318  0.095265  0.057159     48.000000
  0.114318  0.114318  0.057159     24.000000
  0.076212  0.076212  0.076212      8.000000
  0.095265  0.076212  0.076212     24.000000
  0.114318  0.076212  0.076212     24.000000
  0.095265  0.095265  0.076212     24.000000
  0.114318  0.095265  0.076212     48.000000
  0.114318  0.114318  0.076212     24.000000
  0.095265  0.095265  0.095265      8.000000
  0.114318  0.095265  0.095265     24.000000
  0.114318  0.114318  0.095265     24.000000
  0.114318  0.114318  0.114318      8.000000
 


--------------------------------------------------------------------------------------------------------




 Dimension of arrays:
   k-Points           NKPTS =     84   number of bands    NBANDS=     16
   number of dos      NEDOS =    301   number of ions     NIONS =      4
   non local maximal  LDIM  =      4   non local SUM 2l+1 LMDIM =      8
   total plane-waves  NPLWV =  21952
   max r-space proj   IRMAX =      1   max aug-charges    IRDMAX=  14872
   dimension x,y,z NGX =    28 NGY =   28 NGZ =   28
   dimension x,y,z NGXF=    56 NGYF=   56 NGZF=   56
   support grid    NGXF=    56 NGYF=   56 NGZF=   56
   ions per type =               4
 NGX,Y,Z   is equivalent  to a cutoff of  12.01, 12.01, 12.01 a.u.
 NGXF,Y,Z  is equivalent  to a cutoff of  24.02, 24.02, 24.02 a.u.


 I would recommend the setting:
   dimension x,y,z NGX =    28 NGY =   28 NGZ =   28
 SYSTEM =  unknown system                          
 POSCAR =  Al                                      

 Startparameter for this run:
   NWRITE =      2    write-flag & timer
   PREC   = accura    medium, high low
   ISTART =      0    job   : 0-new  1-cont  2-samecut
   ICHARG =      2    charge: 1-file 2-atom 10-const
   ISPIN  =      1    spin polarized calculation?
   LNONCOLLINEAR =      F non collinear calculations
   LSORBIT =      F    spin-orbit coupling
   INIWAV =      1    electr: 0-lowe 1-rand  2-diag
   LASPH  =      F    aspherical Exc in radial PAW
   METAGGA=      F    non-selfconsistent MetaGGA calc.

 Electronic Relaxation 1
   ENCUT  =  500.0 eV  36.75 Ry    6.06 a.u.   7.07  7.07  7.07*2*pi/ulx,y,z
   ENINI  =  500.0     initial cutoff
   ENAUG  =  291.1 eV  augmentation charge cutoff
   NELM   =     60;   NELMIN=  2; NELMDL= -5     # of ELM steps 
   EDIFF  = 0.1E-07   stopping-criterion for ELM
   LREAL  =      F    real-space projection
   LCOMPAT=      F    compatible to vasp.4.4
   LREAL_COMPAT= F    compatible to vasp.4.5.1-3
   GGA_COMPAT  = T    GGA compatible to vasp.4.4-vasp.4.6
   LMAXPAW     = -100 max onsite density
   LMAXMIX     =    2 max onsite mixed and CHGCAR
   VOSKOWN=      0    Vosko Wilk Nusair interpolation
   ROPT   =    0.00000
 Ionic relaxation
   EDIFFG = 0.1E-06   stopping-criterion for IOM
   NSW    =      0    number of steps for IOM
   NBLOCK =      1;   KBLOCK =      1    inner block; outer block 
   IBRION =     -1    ionic relax: 0-MD 1-quasi-New 2-CG
   NFREE  =      0    steps in history (QN), initial steepest desc. (CG)
   ISIF   =      2    stress and relaxation
   IWAVPR =     10    prediction:  0-non 1-charg 2-wave 3-comb
   ISYM   =      2    0-nonsym 1-usesym 2-fastsym
   LCORR  =      T    Harris-Foulkes like correction to forces

   POTIM  =   0.50    time-step for ionic-motion
   TEIN   =    0.0    initial temperature
   TEBEG  =    0.0;   TEEND  =   0.0 temperature during run
   SMASS  =  -3.00    Nose mass-parameter (am)
   estimated Nose-frequenzy (Omega)   =  0.10E-29 period in steps =****** mass=  -0.343E-27a.u.
   NPACO  =    256;   APACO  = 16.0  distance and # of slots for P.C.
   PSTRESS=    0.0 pullay stress

  Mass of Ions in am
   POMASS =  26.98
  Ionic Valenz
   ZVAL   =   3.00
  Atomic Wigner-Seitz radii
   RWIGS  =  -1.00
   NELECT =      12.0000    total number of electrons
   NUPDOWN=      -1.0000    fix difference up-down

 DOS related values:
   EMIN   =  10.00;   EMAX   =-10.00  energy-range for DOS
   ISMEAR =     0;   SIGMA  =   0.01  broadening in eV -4-tet -1-fermi 0-gaus

 Electronic relaxation 2 (details)
   IALGO  =     38    algorithm
   LDIAG  =      T    sub-space diagonalisation
   IMIX   =      4    mixing-type and parameters
     AMIX     =   0.40;   BMIX     =  1.00
     AMIX_MAG =   1.60;   BMIX_MAG =  1.00
     AMIN     =   0.10
     WC   =   100.;   INIMIX=   1;  MIXPRE=   1

 Intra band minimization:
   WEIMIN = 0.0000     energy-eigenvalue tresh-hold
   EBREAK =  0.25E-09  absolut break condition
   DEPER  =   0.30     relativ break condition  

   TIME   =   0.10     timestep for ELM

  volume/ion in A,a.u.               =      14.56        98.23
  Fermi-wavevector in a.u.,eV,Ry     =   0.967028 12.723391  0.935143

 Second variation
   LSECVAR=     F    do a second variation
 
 Write flags
   LWAVE  =      F    write WAVECAR
   LCHARG =      F    write CHGCAR
   LVTOT  =      F    write LOCPOT, local potential
   LELF   =      F    write electronic localiz. function (ELF)
   LORBIT =      0    0 simple, 1 ext, 2 COOP (PROOUT)


 Dipole corrections
   IDIPOL =      0    1-x, 2-y, 3-z
   LDIPOL =      F    correct potential



--------------------------------------------------------------------------------------------------------


 Static calculation
 charge density will be updated during run
 non-spin polarized calculation
 Variant of blocked Davidson
 Davidson routine will perform the subspace rotation
 performe sub-space diagonalisation
    after iterative eigenvector-optimisation
 modified Broyden-mixing scheme, WC =      100.0
 initial mixing is a Kerker type mixing with AMIX =  0.4000 and BMIX =      1.0000
 Hartree-type preconditioning will be used
 using additional bands           10
 reciprocal scheme for non local part
 use partial core corrections
 calculate Harris-corrections to forces 
   (improved forces if not selfconsistent)
 use gradient corrections 
 use of overlap-Matrix (Vanderbilt PP)
 Gauss-broadening in eV      SIGMA  =   0.01


--------------------------------------------------------------------------------------------------------


  energy-cutoff  :      500.00
  volume of cell :       58.22
      direct lattice vectors                 reciprocal lattice vectors
     3.875814115  0.000000000  0.000000000     0.258010310  0.000000000  0.000000000
     0.000000000  3.875814115  0.000000000     0.000000000  0.258010310  0.000000000
     0.000000000  0.000000000  3.875814115     0.000000000  0.000000000  0.258010310

  length of vectors
     3.875814115  3.875814115  3.875814115     0.258010310  0.258010310  0.258010310


 
 k-points in units of 2pi/SCALE and weight: Automatic mesh                          
   0.00000000  0.00000000  0.00000000       0.000
   0.01905307  0.00000000  0.00000000       0.003
   0.03810614  0.00000000  0.00000000       0.003
   0.05715921  0.00000000  0.00000000       0.003
   0.07621228  0.00000000  0.00000000       0.003
   0.09526535  0.00000000  0.00000000       0.003
   0.11431841  0.00000000  0.00000000       0.003
   0.01905307  0.01905307  0.00000000       0.005
   0.03810614  0.01905307  0.00000000       0.011
   0.05715921  0.01905307  0.00000000       0.011
   0.07621228  0.01905307  0.00000000       0.011
   0.09526535  0.01905307  0.00000000       0.011
   0.11431841  0.01905307  0.00000000       0.011
   0.03810614  0.03810614  0.00000000       0.005
   0.05715921  0.03810614  0.00000000       0.011
   0.07621228  0.03810614  0.00000000       0.011
   0.09526535  0.03810614  0.00000000       0.011
   0.11431841  0.03810614  0.00000000       0.011
   0.05715921  0.05715921  0.00000000       0.005
   0.07621228  0.05715921  0.00000000       0.011
   0.09526535  0.05715921  0.00000000       0.011
   0.11431841  0.05715921  0.00000000       0.011
   0.07621228  0.07621228  0.00000000       0.005
   0.09526535  0.07621228  0.00000000       0.011
   0.11431841  0.07621228  0.00000000       0.011
   0.09526535  0.09526535  0.00000000       0.005
   0.11431841  0.09526535  0.00000000       0.011
   0.11431841  0.11431841  0.00000000       0.005
   0.01905307  0.01905307  0.01905307       0.004
   0.03810614  0.01905307  0.01905307       0.011
   0.05715921  0.01905307  0.01905307       0.011
   0.07621228  0.01905307  0.01905307       0.011
   0.09526535  0.01905307  0.01905307       0.011
   0.11431841  0.01905307  0.01905307       0.011
   0.03810614  0.03810614  0.01905307       0.011
   0.05715921  0.03810614  0.01905307       0.022
   0.07621228  0.03810614  0.01905307       0.022
   0.09526535  0.03810614  0.01905307       0.022
   0.11431841  0.03810614  0.01905307       0.022
   0.05715921  0.05715921  0.01905307       0.011
   0.07621228  0.05715921  0.01905307       0.022
   0.09526535  0.05715921  0.01905307       0.022
   0.11431841  0.05715921  0.01905307       0.022
   0.07621228  0.07621228  0.01905307       0.011
   0.09526535  0.07621228  0.01905307       0.022
   0.11431841  0.07621228  0.01905307       0.022
   0.09526535  0.09526535  0.01905307       0.011
   0.11431841  0.09526535  0.01905307       0.022
   0.11431841  0.11431841  0.01905307       0.011
   0.03810614  0.03810614  0.03810614       0.004
   0.05715921  0.03810614  0.03810614       0.011
   0.07621228  0.03810614  0.03810614       0.011
   0.09526535  0.03810614  0.03810614       0.011
   0.11431841  0.03810614  0.03810614       0.011
   0.05715921  0.05715921  0.03810614       0.011
   0.07621228  0.05715921  0.03810614       0.022
   0.09526535  0.05715921  0.03810614       0.022
   0.11431841  0.05715921  0.03810614       0.022
   0.07621228  0.07621228  0.03810614       0.011
   0.09526535  0.07621228  0.03810614       0.022
   0.11431841  0.07621228  0.03810614       0.022
   0.09526535  0.09526535  0.03810614       0.011
   0.11431841  0.09526535  0.03810614       0.022
   0.11431841  0.11431841  0.03810614       0.011
   0.05715921  0.05715921  0.05715921       0.004
   0.07621228  0.05715921  0.05715921       0.011
   0.09526535  0.05715921  0.05715921       0.011
   0.11431841  0.05715921  0.05715921       0.011
   0.07621228  0.07621228  0.05715921       0.011
   0.09526535  0.07621228  0.05715921       0.022
   0.11431841  0.07621228  0.05715921       0.022
   0.09526535  0.09526535  0.05715921       0.011
   0.11431841  0.09526535  0.05715921       0.022
   0.11431841  0.11431841  0.05715921       0.011
   0.07621228  0.07621228  0.07621228       0.004
   0.09526535  0.07621228  0.07621228       0.011
   0.11431841  0.07621228  0.07621228       0.011
   0.09526535  0.09526535  0.07621228       0.011
   0.11431841  0.09526535  0.07621228       0.022
   0.11431841  0.11431841  0.07621228       0.011
   0.09526535  0.09526535  0.09526535       0.004
   0.11431841  0.09526535  0.09526535       0.011
   0.11431841  0.11431841  0.09526535       0.011
   0.11431841  0.11431841  0.11431841       0.004
 
 k-points in reciprocal lattice and weights: Automatic mesh                          
   0.00000000  0.00000000  0.00000000       0.000
   0.07692308  0.00000000  0.00000000       0.003
   0.15384615  0.00000000  0.00000000       0.003
   0.23076923  0.00000000  0.00000000       0.003
   0.30769231  0.00000000  0.00000000       0.003
   0.38461538  0.00000000  0.00000000       0.003
   0.46153846  0.00000000  0.00000000       0.003
   0.07692308  0.07692308  0.00000000       0.005
   0.15384615  0.07692308  0.00000000       0.011
   0.23076923  0.07692308  0.00000000       0.011
   0.30769231  0.07692308  0.00000000       0.011
   0.38461538  0.07692308  0.00000000       0.011
   0.46153846  0.07692308  0.00000000       0.011
   0.15384615  0.15384615  0.00000000       0.005
   0.23076923  0.15384615  0.00000000       0.011
   0.30769231  0.15384615  0.00000000       0.011
   0.38461538  0.15384615  0.00000000       0.011
   0.46153846  0.15384615  0.00000000       0.011
   0.23076923  0.23076923  0.00000000       0.005
   0.30769231  0.23076923  0.00000000       0.011
   0.38461538  0.23076923  0.00000000       0.011
   0.46153846  0.23076923  0.00000000       0.011
   0.30769231  0.30769231  0.00000000       0.005
   0.38461538  0.30769231  0.00000000       0.011
   0.46153846  0.30769231  0.00000000       0.011
   0.38461538  0.38461538  0.00000000       0.005
   0.46153846  0.38461538  0.00000000       0.011
   0.46153846  0.46153846  0.00000000       0.005
   0.07692308  0.07692308  0.07692308       0.004
   0.15384615  0.07692308  0.07692308       0.011
   0.23076923  0.07692308  0.07692308       0.011
   0.30769231  0.07692308  0.07692308       0.011
   0.38461538  0.07692308  0.07692308       0.011
   0.46153846  0.07692308  0.07692308       0.011
   0.15384615  0.15384615  0.07692308       0.011
   0.23076923  0.15384615  0.07692308       0.022
   0.30769231  0.15384615  0.07692308       0.022
   0.38461538  0.15384615  0.07692308       0.022
   0.46153846  0.15384615  0.07692308       0.022
   0.23076923  0.23076923  0.07692308       0.011
   0.30769231  0.23076923  0.07692308       0.022
   0.38461538  0.23076923  0.07692308       0.022
   0.46153846  0.23076923  0.07692308       0.022
   0.30769231  0.30769231  0.07692308       0.011
   0.38461538  0.30769231  0.07692308       0.022
   0.46153846  0.30769231  0.07692308       0.022
   0.38461538  0.38461538  0.07692308       0.011
   0.46153846  0.38461538  0.07692308       0.022
   0.46153846  0.46153846  0.07692308       0.011
   0.15384615  0.15384615  0.15384615       0.004
   0.23076923  0.15384615  0.15384615       0.011
   0.30769231  0.15384615  0.15384615       0.011
   0.38461538  0.15384615  0.15384615       0.011
   0.46153846  0.15384615  0.15384615       0.011
   0.23076923  0.23076923  0.15384615       0.011
   0.30769231  0.23076923  0.15384615       0.022
   0.38461538  0.23076923  0.15384615       0.022
   0.46153846  0.23076923  0.15384615       0.022
   0.30769231  0.30769231  0.15384615       0.011
   0.38461538  0.30769231  0.15384615       0.022
   0.46153846  0.30769231  0.15384615       0.022
   0.38461538  0.38461538  0.15384615       0.011
   0.46153846  0.38461538  0.15384615       0.022
   0.46153846  0.46153846  0.15384615       0.011
   0.23076923  0.23076923  0.23076923       0.004
   0.30769231  0.23076923  0.23076923       0.011
   0.38461538  0.23076923  0.23076923       0.011
   0.46153846  0.23076923  0.23076923       0.011
   0.30769231  0.30769231  0.23076923       0.011
   0.38461538  0.30769231  0.23076923       0.022
   0.46153846  0.30769231  0.23076923       0.022
   0.38461538  0.38461538  0.23076923       0.011
   0.46153846  0.38461538  0.23076923       0.022
   0.46153846  0.46153846  0.23076923       0.011
   0.30769231  0.30769231  0.30769231       0.004
   0.38461538  0.30769231  0.30769231       0.011
   0.46153846  0.30769231  0.30769231       0.011
   0.38461538  0.38461538  0.30769231       0.011
   0.46153846  0.38461538  0.30769231       0.022
   0.46153846  0.46153846  0.30769231       0.011
   0.38461538  0.38461538  0.38461538       0.004
   0.46153846  0.38461538  0.38461538       0.011
   0.46153846  0.46153846  0.38461538       0.011
   0.46153846  0.46153846  0.46153846       0.004
 
 position of ions in fractional coordinates (direct lattice) 
   0.50000000  0.50000000  0.00000000
   0.50000000  0.00000000  0.50000000
   0.00000000  0.50000000  0.50000000
   0.00000000  0.00000000  0.00000000
 
 position of ions in cartesian coordinates  (Angst):
   1.93790706  1.93790706  0.00000000
   1.93790706  0.00000000  1.93790706
   0.00000000  1.93790706  1.93790706
   0.00000000  0.00000000  0.00000000
 


--------------------------------------------------------------------------------------------------------


 k-point  1 :  0.00000.00000.0000  plane waves:   1419
 k-point  2 :  0.07690.00000.0000  plane waves:   1458
 k-point  3 :  0.15380.00000.0000  plane waves:   1450
 k-point  4 :  0.23080.00000.0000  plane waves:   1450
 k-point  5 :  0.30770.00000.0000  plane waves:   1466
 k-point  6 :  0.38460.00000.0000  plane waves:   1462
 k-point  7 :  0.46150.00000.0000  plane waves:   1474
 k-point  8 :  0.07690.07690.0000  plane waves:   1456
 k-point  9 :  0.15380.07690.0000  plane waves:   1457
 k-point 10 :  0.23080.07690.0000  plane waves:   1465
 k-point 11 :  0.30770.07690.0000  plane waves:   1468
 k-point 12 :  0.38460.07690.0000  plane waves:   1473
 k-point 13 :  0.46150.07690.0000  plane waves:   1470
 k-point 14 :  0.15380.15380.0000  plane waves:   1456
 k-point 15 :  0.23080.15380.0000  plane waves:   1466
 k-point 16 :  0.30770.15380.0000  plane waves:   1481
 k-point 17 :  0.38460.15380.0000  plane waves:   1482
 k-point 18 :  0.46150.15380.0000  plane waves:   1474
 k-point 19 :  0.23080.23080.0000  plane waves:   1472
 k-point 20 :  0.30770.23080.0000  plane waves:   1477
 k-point 21 :  0.38460.23080.0000  plane waves:   1485
 k-point 22 :  0.46150.23080.0000  plane waves:   1487
 k-point 23 :  0.30770.30770.0000  plane waves:   1482
 k-point 24 :  0.38460.30770.0000  plane waves:   1484
 k-point 25 :  0.46150.30770.0000  plane waves:   1489
 k-point 26 :  0.38460.38460.0000  plane waves:   1488
 k-point 27 :  0.46150.38460.0000  plane waves:   1487
 k-point 28 :  0.46150.46150.0000  plane waves:   1486
 k-point 29 :  0.07690.07690.0769  plane waves:   1452
 k-point 30 :  0.15380.07690.0769  plane waves:   1456
 k-point 31 :  0.23080.07690.0769  plane waves:   1467
 k-point 32 :  0.30770.07690.0769  plane waves:   1474
 k-point 33 :  0.38460.07690.0769  plane waves:   1475
 k-point 34 :  0.46150.07690.0769  plane waves:   1467
 k-point 35 :  0.15380.15380.0769  plane waves:   1461
 k-point 36 :  0.23080.15380.0769  plane waves:   1471
 k-point 37 :  0.30770.15380.0769  plane waves:   1480
 k-point 38 :  0.38460.15380.0769  plane waves:   1475
 k-point 39 :  0.46150.15380.0769  plane waves:   1479
 k-point 40 :  0.23080.23080.0769  plane waves:   1468
 k-point 41 :  0.30770.23080.0769  plane waves:   1480
 k-point 42 :  0.38460.23080.0769  plane waves:   1483
 k-point 43 :  0.46150.23080.0769  plane waves:   1484
 k-point 44 :  0.30770.30770.0769  plane waves:   1477
 k-point 45 :  0.38460.30770.0769  plane waves:   1482
 k-point 46 :  0.46150.30770.0769  plane waves:   1485
 k-point 47 :  0.38460.38460.0769  plane waves:   1473
 k-point 48 :  0.46150.38460.0769  plane waves:   1485
 k-point 49 :  0.46150.46150.0769  plane waves:   1484
 k-point 50 :  0.15380.15380.1538  plane waves:   1466
 k-point 51 :  0.23080.15380.1538  plane waves:   1469
 k-point 52 :  0.30770.15380.1538  plane waves:   1482
 k-point 53 :  0.38460.15380.1538  plane waves:   1483
 k-point 54 :  0.46150.15380.1538  plane waves:   1476
 k-point 55 :  0.23080.23080.1538  plane waves:   1481
 k-point 56 :  0.30770.23080.1538  plane waves:   1475
 k-point 57 :  0.38460.23080.1538  plane waves:   1479
 k-point 58 :  0.46150.23080.1538  plane waves:   1487
 k-point 59 :  0.30770.30770.1538  plane waves:   1477
 k-point 60 :  0.38460.30770.1538  plane waves:   1482
 k-point 61 :  0.46150.30770.1538  plane waves:   1481
 k-point 62 :  0.38460.38460.1538  plane waves:   1486
 k-point 63 :  0.46150.38460.1538  plane waves:   1485
 k-point 64 :  0.46150.46150.1538  plane waves:   1483
 k-point 65 :  0.23080.23080.2308  plane waves:   1475
 k-point 66 :  0.30770.23080.2308  plane waves:   1476
 k-point 67 :  0.38460.23080.2308  plane waves:   1482
 k-point 68 :  0.46150.23080.2308  plane waves:   1488
 k-point 69 :  0.30770.30770.2308  plane waves:   1478
 k-point 70 :  0.38460.30770.2308  plane waves:   1482
 k-point 71 :  0.46150.30770.2308  plane waves:   1485
 k-point 72 :  0.38460.38460.2308  plane waves:   1481
 k-point 73 :  0.46150.38460.2308  plane waves:   1482
 k-point 74 :  0.46150.46150.2308  plane waves:   1478
 k-point 75 :  0.30770.30770.3077  plane waves:   1475
 k-point 76 :  0.38460.30770.3077  plane waves:   1478
 k-point 77 :  0.46150.30770.3077  plane waves:   1484
 k-point 78 :  0.38460.38460.3077  plane waves:   1484
 k-point 79 :  0.46150.38460.3077  plane waves:   1481
 k-point 80 :  0.46150.46150.3077  plane waves:   1480
 k-point 81 :  0.38460.38460.3846  plane waves:   1481
 k-point 82 :  0.46150.38460.3846  plane waves:   1478
 k-point 83 :  0.46150.46150.3846  plane waves:   1482
 k-point 84 :  0.46150.46150.4615  plane waves:   1472

 maximum and minimum number of plane-waves per node :   1489  1419

 maximum number of plane-waves:   1489
 maximal index in each direction: 
   IXMAX=  7   IYMAX=  7   IZMAX=  7
   IXMIN= -7   IYMIN= -7   IZMIN= -7

 WARNING: wrap around error must be expected set NGX to  30
 WARNING: wrap around error must be expected set NGY to  30
 WARNING: wrap around error must be expected set NGZ to  30

 parallel 3dFFT wavefunction:
    minimum data exchange during FFTs selected (reduces bandwidth)
 parallel 3dFFT charge:
    minimum data exchange during FFTs selected (reduces bandwidth)

 For storing wavefunctions   31.72 MBYTES are necessary
 For predicting wavefunctions    1.06 MBYTES are necessary
Broyden mixing: mesh for mixing (old mesh)
   NGX = 15   NGY = 15   NGZ = 15
  (NGX  = 56   NGY  = 56   NGZ  = 56)
 gives a total of   3375 points
 initial charge density was supplied:
 charge density of overlapping atoms calculated
 number of electron   12.0000000 magnetization 
 keeping initial charge density in first step


--------------------------------------------------------------------------------------------------------


 Maximum index for augmentation-charges         1852 (set IRDMAX)


--------------------------------------------------------------------------------------------------------


 First call to EWALD:  gamma=   0.457
 Maximum number of real-space cells 3x 3x 3
 Maximum number of reciprocal cells 3x 3x 3

    FEWALD:  VPU time    0.00: CPU time    0.00


----------------------------------------- Iteration    1(   1)  ---------------------------------------


    POTLOK:  VPU time    0.01: CPU time    0.01
    SETDIJ:  VPU time    0.00: CPU time    0.00
    EDDAV :  VPU time    0.69: CPU time    0.70
    DOS   :  VPU time    0.00: CPU time   -0.00
    ------------------------------------------
      LOOP:  VPU time    0.71: CPU time    0.71

 eigenvalue-minimisations  :  2688
 total energy-change (2. order) : 0.6771293E+01  (-0.4041661E+03)
 number of electron   12.0000000 magnetization 
 augmentation part    12.0000000 magnetization 

 Free energy of the ion-electron system (eV)
  ---------------------------------------------------
  alpha Z        PSCENC =        -0.92303222
  Ewald energy   TEWEN  =      -306.61395578
  -1/2 Hartree   DENC   =        -0.27822408
  -V(xc)+E(xc)   XCENC  =      -104.03603114
  PAW double counting   =       142.21701965      -14.39593217
  entropy T*S    EENTRO =        -0.00013233
  eigenvalues    EBANDS =        76.64793948
  atomic energy  EATOM  =       214.15364153
  ---------------------------------------------------
  free energy    TOTEN  =         6.77129295 eV

  energy without entropy =        6.77142528  energy(sigma->0) =        6.77135911


--------------------------------------------------------------------------------------------------------




----------------------------------------- Iteration    1(   2)  ---------------------------------------


    EDDAV :  VPU time    0.85: CPU time    0.86
    DOS   :  VPU time    0.00: CPU time   -0.00
    ------------------------------------------
      LOOP:  VPU time    0.86: CPU time    0.86

 eigenvalue-minimisations  :  3568
 total energy-change (2. order) :-0.2095671E+02  (-0.1967708E+02)
 number of electron   12.0000000 magnetization 
 augmentation part    12.0000000 magnetization 

 Free energy of the ion-electron system (eV)
  ---------------------------------------------------
  alpha Z        PSCENC =        -0.92303222
  Ewald energy   TEWEN  =      -306.61395578
  -1/2 Hartree   DENC   =        -0.27822408
  -V(xc)+E(xc)   XCENC  =      -104.03603114
  PAW double counting   =       142.21701965      -14.39593217
  entropy T*S    EENTRO =        -0.00013935
  eigenvalues    EBANDS =        55.69123518
  atomic energy  EATOM  =       214.15364153
  ---------------------------------------------------
  free energy    TOTEN  =       -14.18541837 eV

  energy without entropy =      -14.18527902  energy(sigma->0) =      -14.18534870


--------------------------------------------------------------------------------------------------------




----------------------------------------- Iteration    1(   3)  ---------------------------------------


    EDDAV :  VPU time    0.83: CPU time    0.83
    DOS   :  VPU time    0.00: CPU time   -0.00
    ------------------------------------------
      LOOP:  VPU time    0.83: CPU time    0.83

 eigenvalue-minimisations  :  3456
 total energy-change (2. order) :-0.6249195E+00  (-0.6209927E+00)
 number of electron   12.0000000 magnetization 
 augmentation part    12.0000000 magnetization 

 Free energy of the ion-electron system (eV)
  ---------------------------------------------------
  alpha Z        PSCENC =        -0.92303222
  Ewald energy   TEWEN  =      -306.61395578
  -1/2 Hartree   DENC   =        -0.27822408
  -V(xc)+E(xc)   XCENC  =      -104.03603114
  PAW double counting   =       142.21701965      -14.39593217
  entropy T*S    EENTRO =        -0.00022464
  eigenvalues    EBANDS =        55.06640092
  atomic energy  EATOM  =       214.15364153
  ---------------------------------------------------
  free energy    TOTEN  =       -14.81033792 eV

  energy without entropy =      -14.81011329  energy(sigma->0) =      -14.81022560


--------------------------------------------------------------------------------------------------------




----------------------------------------- Iteration    1(   4)  ---------------------------------------


    EDDAV :  VPU time    0.82: CPU time    0.82
    DOS   :  VPU time    0.00: CPU time   -0.00
    ------------------------------------------
      LOOP:  VPU time    0.82: CPU time    0.82

 eigenvalue-minimisations  :  3392
 total energy-change (2. order) :-0.3751488E-02  (-0.3751294E-02)
 number of electron   12.0000000 magnetization 
 augmentation part    12.0000000 magnetization 

 Free energy of the ion-electron system (eV)
  ---------------------------------------------------
  alpha Z        PSCENC =        -0.92303222
  Ewald energy   TEWEN  =      -306.61395578
  -1/2 Hartree   DENC   =        -0.27822408
  -V(xc)+E(xc)   XCENC  =      -104.03603114
  PAW double counting   =       142.21701965      -14.39593217
  entropy T*S    EENTRO =        -0.00022589
  eigenvalues    EBANDS =        55.06265069
  atomic energy  EATOM  =       214.15364153
  ---------------------------------------------------
  free energy    TOTEN  =       -14.81408941 eV

  energy without entropy =      -14.81386352  energy(sigma->0) =      -14.81397646


--------------------------------------------------------------------------------------------------------




----------------------------------------- Iteration    1(   5)  ---------------------------------------


    EDDAV :  VPU time    0.84: CPU time    0.84
    DOS   :  VPU time    0.00: CPU time   -0.00
    CHARGE:  VPU time    0.02: CPU time    0.03
    MIXING:  VPU time    0.00: CPU time    0.00
    ------------------------------------------
      LOOP:  VPU time    0.86: CPU time    0.87

 eigenvalue-minimisations  :  3496
 total energy-change (2. order) :-0.4571166E-04  (-0.4571206E-04)
 number of electron   12.0000000 magnetization 
 augmentation part    -0.1396807 magnetization 

 Broyden mixing:
  rms(total) = 0.19766E+00    rms(broyden)= 0.19766E+00
  rms(prec ) = 0.45191E+00
  weight for this iteration     100.00

 Free energy of the ion-electron system (eV)
  ---------------------------------------------------
  alpha Z        PSCENC =        -0.92303222
  Ewald energy   TEWEN  =      -306.61395578
  -1/2 Hartree   DENC   =        -0.27822408
  -V(xc)+E(xc)   XCENC  =      -104.03603114
  PAW double counting   =       142.21701965      -14.39593217
  entropy T*S    EENTRO =        -0.00022591
  eigenvalues    EBANDS =        55.06260499
  atomic energy  EATOM  =       214.15364153
  ---------------------------------------------------
  free energy    TOTEN  =       -14.81413512 eV

  energy without entropy =      -14.81390921  energy(sigma->0) =      -14.81402217


--------------------------------------------------------------------------------------------------------




----------------------------------------- Iteration    1(   6)  ---------------------------------------


    POTLOK:  VPU time    0.01: CPU time    0.01
    SETDIJ:  VPU time    0.00: CPU time    0.00
    EDDAV :  VPU time    0.77: CPU time    0.77
    DOS   :  VPU time    0.00: CPU time   -0.00
    CHARGE:  VPU time    0.03: CPU time    0.03
    MIXING:  VPU time    0.00: CPU time    0.00
    ------------------------------------------
      LOOP:  VPU time    0.82: CPU time    0.82

 eigenvalue-minimisations  :  3136
 total energy-change (2. order) : 0.5971774E-01  (-0.4007206E-03)
 number of electron   12.0000000 magnetization 
 augmentation part    -0.1414717 magnetization 

 Broyden mixing:
  rms(total) = 0.12290E+00    rms(broyden)= 0.12290E+00
  rms(prec ) = 0.28292E+00
  weight for this iteration     100.00

 eigenvalues of (default mixing * dielectric matrix)
  average eigenvalue GAMMA=   2.6355
  2.6355

 Free energy of the ion-electron system (eV)
  ---------------------------------------------------
  alpha Z        PSCENC =        -0.92303222
  Ewald energy   TEWEN  =      -306.61395578
  -1/2 Hartree   DENC   =        -0.30322135
  -V(xc)+E(xc)   XCENC  =      -103.85400851
  PAW double counting   =       143.14317340      -15.37347696
  entropy T*S    EENTRO =        -0.00022693
  eigenvalues    EBANDS =        55.01668945
  atomic energy  EATOM  =       214.15364153
  ---------------------------------------------------
  free energy    TOTEN  =       -14.75441738 eV

  energy without entropy =      -14.75419045  energy(sigma->0) =      -14.75430391


--------------------------------------------------------------------------------------------------------




----------------------------------------- Iteration    1(   7)  ---------------------------------------


    POTLOK:  VPU time    0.01: CPU time    0.01
    SETDIJ:  VPU time    0.00: CPU time    0.00
    EDDAV :  VPU time    0.74: CPU time    0.74
    DOS   :  VPU time    0.00: CPU time   -0.00
    CHARGE:  VPU time    0.02: CPU time    0.03
    MIXING:  VPU time    0.00: CPU time    0.00
    ------------------------------------------
      LOOP:  VPU time    0.78: CPU time    0.78

 eigenvalue-minimisations  :  2944
 total energy-change (2. order) : 0.4313403E-01  (-0.1310292E-02)
 number of electron   12.0000000 magnetization 
 augmentation part    -0.1453648 magnetization 

 Broyden mixing:
  rms(total) = 0.49357E-02    rms(broyden)= 0.49356E-02
  rms(prec ) = 0.71759E-02
  weight for this iteration     100.00

 eigenvalues of (default mixing * dielectric matrix)
  average eigenvalue GAMMA=   2.4746
  2.4746  2.4746

 Free energy of the ion-electron system (eV)
  ---------------------------------------------------
  alpha Z        PSCENC =        -0.92303222
  Ewald energy   TEWEN  =      -306.61395578
  -1/2 Hartree   DENC   =        -0.52479227
  -V(xc)+E(xc)   XCENC  =      -103.49610870
  PAW double counting   =       144.55319198      -16.87786601
  entropy T*S    EENTRO =        -0.00020888
  eigenvalues    EBANDS =        55.01784699
  atomic energy  EATOM  =       214.15364153
  ---------------------------------------------------
  free energy    TOTEN  =       -14.71128335 eV

  energy without entropy =      -14.71107447  energy(sigma->0) =      -14.71117891


--------------------------------------------------------------------------------------------------------




----------------------------------------- Iteration    1(   8)  ---------------------------------------


    POTLOK:  VPU time    0.01: CPU time    0.01
    SETDIJ:  VPU time    0.00: CPU time    0.00
    EDDAV :  VPU time    0.89: CPU time    0.89
    DOS   :  VPU time    0.00: CPU time   -0.00
    CHARGE:  VPU time    0.02: CPU time    0.03
    MIXING:  VPU time    0.00: CPU time    0.00
    ------------------------------------------
      LOOP:  VPU time    0.93: CPU time    0.93

 eigenvalue-minimisations  :  3680
 total energy-change (2. order) :-0.4053499E-04  (-0.1192756E-04)
 number of electron   12.0000000 magnetization 
 augmentation part    -0.1455918 magnetization 

 Broyden mixing:
  rms(total) = 0.13829E-02    rms(broyden)= 0.13829E-02
  rms(prec ) = 0.25347E-02
  weight for this iteration     100.00

 eigenvalues of (default mixing * dielectric matrix)
  average eigenvalue GAMMA=   2.0883
  1.0325  2.6806  2.5517

 Free energy of the ion-electron system (eV)
  ---------------------------------------------------
  alpha Z        PSCENC =        -0.92303222
  Ewald energy   TEWEN  =      -306.61395578
  -1/2 Hartree   DENC   =        -0.52696778
  -V(xc)+E(xc)   XCENC  =      -103.49270913
  PAW double counting   =       144.55100718      -16.87686412
  entropy T*S    EENTRO =        -0.00020710
  eigenvalues    EBANDS =        55.01776354
  atomic energy  EATOM  =       214.15364153
  ---------------------------------------------------
  free energy    TOTEN  =       -14.71132388 eV

  energy without entropy =      -14.71111678  energy(sigma->0) =      -14.71122033


--------------------------------------------------------------------------------------------------------




----------------------------------------- Iteration    1(   9)  ---------------------------------------


    POTLOK:  VPU time    0.01: CPU time    0.01
    SETDIJ:  VPU time    0.00: CPU time    0.00
    EDDAV :  VPU time    0.84: CPU time    0.84
    DOS   :  VPU time    0.00: CPU time   -0.00
    CHARGE:  VPU time    0.02: CPU time    0.03
    MIXING:  VPU time    0.00: CPU time    0.00
    ------------------------------------------
      LOOP:  VPU time    0.89: CPU time    0.89

 eigenvalue-minimisations  :  3456
 total energy-change (2. order) :-0.3561018E-05  (-0.4654228E-06)
 number of electron   12.0000000 magnetization 
 augmentation part    -0.1457011 magnetization 

 Broyden mixing:
  rms(total) = 0.11641E-03    rms(broyden)= 0.11641E-03
  rms(prec ) = 0.17060E-03
  weight for this iteration     100.00

 eigenvalues of (default mixing * dielectric matrix)
  average eigenvalue GAMMA=   2.0496
  0.9947  2.6140  2.6140  1.9758

 Free energy of the ion-electron system (eV)
  ---------------------------------------------------
  alpha Z        PSCENC =        -0.92303222
  Ewald energy   TEWEN  =      -306.61395578
  -1/2 Hartree   DENC   =        -0.53086172
  -V(xc)+E(xc)   XCENC  =      -103.48769719
  PAW double counting   =       144.55414560      -16.88127146
  entropy T*S    EENTRO =        -0.00020587
  eigenvalues    EBANDS =        55.01790966
  atomic energy  EATOM  =       214.15364153
  ---------------------------------------------------
  free energy    TOTEN  =       -14.71132744 eV

  energy without entropy =      -14.71112157  energy(sigma->0) =      -14.71122451


--------------------------------------------------------------------------------------------------------




----------------------------------------- Iteration    1(  10)  ---------------------------------------


    POTLOK:  VPU time    0.01: CPU time    0.01
    SETDIJ:  VPU time    0.00: CPU time    0.00
    EDDAV :  VPU time    0.89: CPU time    0.89
    DOS   :  VPU time    0.00: CPU time   -0.00
    CHARGE:  VPU time    0.02: CPU time    0.03
    MIXING:  VPU time    0.00: CPU time    0.00
    ------------------------------------------
      LOOP:  VPU time    0.93: CPU time    0.94

 eigenvalue-minimisations  :  3712
 total energy-change (2. order) : 0.3390856E-06  (-0.5775982E-08)
 number of electron   12.0000000 magnetization 
 augmentation part    -0.1457018 magnetization 

 Broyden mixing:
  rms(total) = 0.44496E-04    rms(broyden)= 0.44495E-04
  rms(prec ) = 0.76784E-04
  weight for this iteration     100.00

 eigenvalues of (default mixing * dielectric matrix)
  average eigenvalue GAMMA=   1.9611
  2.6679  2.6679  2.4947  1.0212  0.9537

 Free energy of the ion-electron system (eV)
  ---------------------------------------------------
  alpha Z        PSCENC =        -0.92303222
  Ewald energy   TEWEN  =      -306.61395578
  -1/2 Hartree   DENC   =        -0.53077344
  -V(xc)+E(xc)   XCENC  =      -103.48777248
  PAW double counting   =       144.54867951      -16.87573711
  entropy T*S    EENTRO =        -0.00020586
  eigenvalues    EBANDS =        55.01782874
  atomic energy  EATOM  =       214.15364153
  ---------------------------------------------------
  free energy    TOTEN  =       -14.71132710 eV

  energy without entropy =      -14.71112124  energy(sigma->0) =      -14.71122417


--------------------------------------------------------------------------------------------------------




----------------------------------------- Iteration    1(  11)  ---------------------------------------


    POTLOK:  VPU time    0.01: CPU time    0.01
    SETDIJ:  VPU time    0.00: CPU time    0.00
    EDDAV :  VPU time    0.67: CPU time    0.67
    DOS   :  VPU time    0.00: CPU time   -0.00
    CHARGE:  VPU time    0.02: CPU time    0.03
    MIXING:  VPU time    0.00: CPU time    0.00
    ------------------------------------------
      LOOP:  VPU time    0.71: CPU time    0.71

 eigenvalue-minimisations  :  2488
 total energy-change (2. order) : 0.9850211E-07  (-0.1368915E-09)
 number of electron   12.0000000 magnetization 
 augmentation part    -0.1457030 magnetization 

 Broyden mixing:
  rms(total) = 0.26363E-05    rms(broyden)= 0.26360E-05
  rms(prec ) = 0.39766E-05
  weight for this iteration     100.00

 eigenvalues of (default mixing * dielectric matrix)
  average eigenvalue GAMMA=   1.9851
  0.9952  0.9952  2.6609  2.6609  2.5235  2.0746

 Free energy of the ion-electron system (eV)
  ---------------------------------------------------
  alpha Z        PSCENC =        -0.92303222
  Ewald energy   TEWEN  =      -306.61395578
  -1/2 Hartree   DENC   =        -0.53086982
  -V(xc)+E(xc)   XCENC  =      -103.48764839
  PAW double counting   =       144.54727600      -16.87434572
  entropy T*S    EENTRO =        -0.00020584
  eigenvalues    EBANDS =        55.01781324
  atomic energy  EATOM  =       214.15364153
  ---------------------------------------------------
  free energy    TOTEN  =       -14.71132700 eV

  energy without entropy =      -14.71112116  energy(sigma->0) =      -14.71122408


--------------------------------------------------------------------------------------------------------




----------------------------------------- Iteration    1(  12)  ---------------------------------------


    POTLOK:  VPU time    0.01: CPU time    0.01
    SETDIJ:  VPU time    0.00: CPU time    0.00
    EDDAV :  VPU time    0.61: CPU time    0.61
    DOS   :  VPU time    0.00: CPU time   -0.00
    ------------------------------------------
      LOOP:  VPU time    0.63: CPU time    0.63

 eigenvalue-minimisations  :  2168
 total energy-change (2. order) : 0.1727813E-08  (-0.1527521E-10)
 number of electron   12.0000000 magnetization 
 augmentation part    -0.1457030 magnetization 

 Free energy of the ion-electron system (eV)
  ---------------------------------------------------
  alpha Z        PSCENC =        -0.92303222
  Ewald energy   TEWEN  =      -306.61395578
  -1/2 Hartree   DENC   =        -0.53087146
  -V(xc)+E(xc)   XCENC  =      -103.48764781
  PAW double counting   =       144.54734900      -16.87441726
  entropy T*S    EENTRO =        -0.00020584
  eigenvalues    EBANDS =        55.01781284
  atomic energy  EATOM  =       214.15364153
  ---------------------------------------------------
  free energy    TOTEN  =       -14.71132700 eV

  energy without entropy =      -14.71112116  energy(sigma->0) =      -14.71122408


--------------------------------------------------------------------------------------------------------




 average (electrostatic) potential at core
  the test charge radii are     1.0406
  (the norm of the test charge is              1.0000)
       1 -71.0748       2 -71.0748       3 -71.0748       4 -71.0748
 
 
 
 E-fermi :   9.3497     XC(G=0): -10.6592     alpha+bet :-16.8637
   add alpha+bet to get absolut eigen values

 k-point   1 :       0.0000    0.0000    0.0000
  band No.  band energies     occupation 
      1      -2.6572      2.00000
      2       6.1455      2.00000
      3       6.1455      2.00000
      4       6.1455      2.00000
      5       7.7203      2.00000
      6       7.7203      2.00000
      7       7.7203      2.00000
      8      14.6541      0.00000
      9      14.6541      0.00000
     10      14.6541      0.00000
     11      15.5905      0.00000
     12      15.5905      0.00000
     13      15.5905      0.00000
     14      15.5905      0.00000
     15      15.5905      0.00000
     16      15.5905      0.00000

 k-point   2 :       0.0769    0.0000    0.0000
  band No.  band energies     occupation 
      1      -2.5990      2.00000
      2       5.3510      2.00000
      3       6.1980      2.00000
      4       6.1980      2.00000
      5       7.7739      2.00000
      6       7.7739      2.00000
      7       8.6127      2.00000
      8      13.7106      0.00000
      9      13.7106      0.00000
     10      14.7117      0.00000
     11      15.2213      0.00000
     12      15.2213      0.00000
     13      15.6384      0.00000
     14      15.6384      0.00000
     15      16.6420      0.00000
     16      16.6420      0.00000

 k-point   3 :       0.1538    0.0000    0.0000
  band No.  band energies     occupation 
      1      -2.4243      2.00000
      2       4.1680      2.00000
      3       6.3554      2.00000
      4       6.3554      2.00000
      5       7.9332      2.00000
      6       7.9332      2.00000
      7      10.0893      0.00000
      8      12.5217      0.00000
      9      12.5217      0.00000
     10      14.4058      0.00000
     11      14.4058      0.00000
     12      14.8845      0.00000
     13      15.7824      0.00000
     14      15.7824      0.00000
     15      18.1547      0.00000
     16      18.1547      0.00000

 k-point   4 :       0.2308    0.0000    0.0000
  band No.  band energies     occupation 
      1      -2.1338      2.00000
      2       3.0260      2.00000
      3       6.6179      2.00000
      4       6.6179      2.00000
      5       8.1925      2.00000
      6       8.1925      2.00000
      7      11.4166      0.00000
      8      11.4166      0.00000
      9      11.7202      0.00000
     10      13.4789      0.00000
     11      13.4789      0.00000
     12      15.1722      0.00000
     13      16.0224      0.00000
     14      16.0224      0.00000
     15      19.7980      0.00000
     16      19.7980      0.00000

 k-point   5 :       0.3077    0.0000    0.0000
  band No.  band energies     occupation 
      1      -1.7283      2.00000
      2       1.9713      2.00000
      3       6.9856      2.00000
      4       6.9856      2.00000
      5       8.5377      2.00000
      6       8.5377      2.00000
      7      10.4133      0.00000
      8      10.4133      0.00000
      9      12.5858      0.00000
     10      12.5858      0.00000
     11      13.4581      0.00000
     12      15.5742      0.00000
     13      16.3586      0.00000
     14      16.3586      0.00000
     15      19.2351      0.00000
     16      19.4708      0.00000

 k-point   6 :       0.3846    0.0000    0.0000
  band No.  band energies     occupation 
      1      -1.2088      2.00000
      2       1.0160      2.00000
      3       7.4590      2.00000
      4       7.4590      2.00000
      5       8.9309      2.00000
      6       8.9309      2.00000
      7       9.5153      0.00000
      8       9.5153      0.00000
      9      11.8121      0.00000
     10      11.8121      0.00000
     11      15.2891      0.00000
     12      16.0896      0.00000
     13      16.7911      0.00000
     14      16.7911      0.00000
     15      18.2961      0.00000
     16      18.6623      0.00000

 k-point   7 :       0.4615    0.0000    0.0000
  band No.  band energies     occupation 
      1      -0.5770      2.00000
      2       0.1654      2.00000
      3       8.0382      2.00000
      4       8.0382      2.00000
      5       8.7236      2.00000
      6       8.7236      2.00000
      7       9.2544      2.00000
      8       9.2544      2.00000
      9      11.2948      0.00000
     10      11.2948      0.00000
     11      16.7170      0.00000
     12      17.2041      0.00000
     13      17.3198      0.00000
     14      17.3198      0.00000
     15      17.4540      0.00000
     16      17.9440      0.00000

 k-point   8 :       0.0769    0.0769    0.0000
  band No.  band energies     occupation 
      1      -2.5407      2.00000
      2       5.4048      2.00000
      3       5.4048      2.00000
      4       6.2505      2.00000
      5       7.8267      2.00000
      6       8.6645      2.00000
      7       8.6645      2.00000
      8      12.9754      0.00000
      9      13.7650      0.00000
     10      13.7650      0.00000
     11      15.2712      0.00000
     12      15.2712      0.00000
     13      15.6876      0.00000
     14      16.6159      0.00000
     15      16.6932      0.00000
     16      16.6932      0.00000

 k-point   9 :       0.1538    0.0769    0.0000
  band No.  band energies     occupation 
      1      -2.3662      2.00000
      2       4.2228      2.00000
      3       5.5658      2.00000
      4       6.4079      2.00000
      5       7.9825      2.00000
      6       8.8182      2.00000
      7      10.1381      0.00000
      8      11.8615      0.00000
      9      12.5753      0.00000
     10      13.9279      0.00000
     11      14.4598      0.00000
     12      15.1173      0.00000
     13      15.4211      0.00000
     14      16.8467      0.00000
     15      17.7653      0.00000
     16      18.2064      0.00000

 k-point  10 :       0.2308    0.0769    0.0000
  band No.  band energies     occupation 
      1      -2.0758      2.00000
      2       3.0814      2.00000
      3       5.8335      2.00000
      4       6.6704      2.00000
      5       8.2305      2.00000
      6       9.0673      2.00000
      7      10.7964      0.00000
      8      11.4699      0.00000
      9      11.7638      0.00000
     10      13.5395      0.00000
     11      14.1990      0.00000
     12      14.1992      0.00000
     13      15.6721      0.00000
     14      17.1027      0.00000
     15      19.0277      0.00000
     16      19.3384      0.00000

 k-point  11 :       0.3077    0.0769    0.0000
  band No.  band energies     occupation 
      1      -1.6705      2.00000
      2       2.0273      2.00000
      3       6.2071      2.00000
      4       7.0382      2.00000
      5       8.5253      2.00000
      6       9.3933      0.00000
      7       9.8672      0.00000
      8      10.4664      0.00000
      9      12.6609      0.00000
     10      13.2921      0.00000
     11      13.4898      0.00000
     12      14.5782      0.00000
     13      16.0282      0.00000
     14      17.4613      0.00000
     15      18.0426      0.00000
     16      19.1056      0.00000

 k-point  12 :       0.3846    0.0769    0.0000
  band No.  band energies     occupation 
      1      -1.1513      2.00000
      2       1.0725      2.00000
      3       6.6843      2.00000
      4       7.5117      2.00000
      5       8.5289      2.00000
      6       9.4036      0.00000
      7       9.5683      0.00000
      8       9.7379      0.00000
      9      11.9327      0.00000
     10      12.4771      0.00000
     11      15.0641      0.00000
     12      15.2780      0.00000
     13      16.5133      0.00000
     14      17.1481      0.00000
     15      17.9224      0.00000
     16      18.2869      0.00000

 k-point  13 :       0.4615    0.0769    0.0000
  band No.  band energies     occupation 
      1      -0.5197      2.00000
      2       0.2224      2.00000
      3       7.2602      2.00000
      4       7.9170      2.00000
      5       8.0910      2.00000
      6       8.7765      2.00000
      7       9.6734      0.00000
      8       9.9027      0.00000
      9      11.5776      0.00000
     10      11.8352      0.00000
     11      15.6557      0.00000
     12      16.3512      0.00000
     13      16.7738      0.00000
     14      17.4728      0.00000
     15      17.5399      0.00000
     16      18.4852      0.00000

 k-point  14 :       0.1538    0.1538    0.0000
  band No.  band energies     occupation 
      1      -2.1919      2.00000
      2       4.3868      2.00000
      3       4.3868      2.00000
      4       6.5654      2.00000
      5       8.1226      2.00000
      6      10.2815      0.00000
      7      10.2815      0.00000
      8      10.7978      0.00000
      9      12.7361      0.00000
     10      12.7361      0.00000
     11      14.6231      0.00000
     12      14.6231      0.00000
     13      15.9791      0.00000
     14      17.3958      0.00000
     15      18.3615      0.00000
     16      18.3615      0.00000

 k-point  15 :       0.2308    0.1538    0.0000
  band No.  band energies     occupation 
      1      -1.9020      2.00000
      2       3.2477      2.00000
      3       4.6596      2.00000
      4       6.8280      2.00000
      5       8.3058      2.00000
      6       9.8115      0.00000
      7      10.5059      0.00000
      8      11.6299      0.00000
      9      11.8864      0.00000
     10      13.0041      0.00000
     11      13.7272      0.00000
     12      14.9027      0.00000
     13      15.4820      0.00000
     14      17.8314      0.00000
     15      18.5030      0.00000
     16      18.6197      0.00000

 k-point  16 :       0.3077    0.1538    0.0000
  band No.  band energies     occupation 
      1      -1.4972      2.00000
      2       2.1953      2.00000
      3       5.0401      2.00000
      4       7.1961      2.00000
      5       8.2188      2.00000
      6       9.2764      2.00000
      7      10.6259      0.00000
      8      10.7637      0.00000
      9      12.9132      0.00000
     10      13.3788      0.00000
     11      13.5539      0.00000
     12      14.6228      0.00000
     13      15.3287      0.00000
     14      16.8344      0.00000
     15      18.3052      0.00000
     16      18.9806      0.00000

 k-point  17 :       0.3846    0.1538    0.0000
  band No.  band energies     occupation 
      1      -0.9787      2.00000
      2       1.2419      2.00000
      3       5.5264      2.00000
      4       7.5507      2.00000
      5       7.6697      2.00000
      6       9.5116      0.00000
      7       9.7273      0.00000
      8      10.8704      0.00000
      9      12.4156      0.00000
     10      13.7975      0.00000
     11      13.8601      0.00000
     12      15.0687      0.00000
     13      15.9361      0.00000
     14      16.1014      0.00000
     15      17.4747      0.00000
     16      19.4430      0.00000

 k-point  18 :       0.4615    0.1538    0.0000
  band No.  band energies     occupation 
      1      -0.3480      2.00000
      2       0.3930      2.00000
      3       6.1152      2.00000
      4       6.7986      2.00000
      5       8.2493      2.00000
      6       8.9351      2.00000
      7      10.0056      0.00000
      8      10.5435      0.00000
      9      12.5397      0.00000
     10      13.0773      0.00000
     11      14.4473      0.00000
     12      15.1397      0.00000
     13      15.9855      0.00000
     14      16.7108      0.00000
     15      17.6557      0.00000
     16      19.5730      0.00000

 k-point  19 :       0.2308    0.2308    0.0000
  band No.  band energies     occupation 
      1      -1.6127      2.00000
      2       3.5242      2.00000
      3       3.5242      2.00000
      4       7.0909      2.00000
      5       8.1127      2.00000
      6       9.2051      2.00000
      7      11.8964      0.00000
      8      11.8964      0.00000
      9      12.0458      0.00000
     10      12.0458      0.00000
     11      14.0755      0.00000
     12      14.0755      0.00000
     13      16.4659      0.00000
     14      16.7284      0.00000
     15      18.1112      0.00000
     16      18.2868      0.00000

 k-point  20 :       0.3077    0.2308    0.0000
  band No.  band energies     occupation 
      1      -1.2089      2.00000
      2       2.4747      2.00000
      3       3.9100      2.00000
      4       7.3509      2.00000
      5       7.4593      2.00000
      6       9.3471      1.29376
      7      10.8916      0.00000
      8      12.0616      0.00000
      9      12.2696      0.00000
     10      13.4663      0.00000
     11      13.5030      0.00000
     12      14.7551      0.00000
     13      15.7247      0.00000
     14      16.0805      0.00000
     15      17.3923      0.00000
     16      19.2631      0.00000

 k-point  21 :       0.3846    0.2308    0.0000
  band No.  band energies     occupation 
      1      -0.6916      2.00000
      2       1.5237      2.00000
      3       4.4036      2.00000
      4       6.4954      2.00000
      5       7.9333      2.00000
      6       9.7768      0.00000
      7       9.9924      0.00000
      8      11.6324      0.00000
      9      12.7492      0.00000
     10      13.5362      0.00000
     11      14.3920      0.00000
     12      14.8235      0.00000
     13      15.3201      0.00000
     14      16.1247      0.00000
     15      16.5533      0.00000
     16      21.0022      0.00000

 k-point  22 :       0.4615    0.2308    0.0000
  band No.  band energies     occupation 
      1      -0.0624      2.00000
      2       0.6769      2.00000
      3       5.0027      2.00000
      4       5.7031      2.00000
      5       8.5133      2.00000
      6       9.1996      2.00000
      7      10.3359      0.00000
      8      10.9783      0.00000
      9      13.3350      0.00000
     10      13.9762      0.00000
     11      14.0266      0.00000
     12      14.5950      0.00000
     13      15.0797      0.00000
     14      15.7838      0.00000
     15      17.9145      0.00000
     16      19.8530      0.00000

 k-point  23 :       0.3077    0.3077    0.0000
  band No.  band energies     occupation 
      1      -0.8064      2.00000
      2       2.8647      2.00000
      3       2.8647      2.00000
      4       6.3922      2.00000
      5       7.8280      2.00000
      6       9.6853      0.00000
      7      11.2637      0.00000
      8      11.2637      0.00000
      9      12.9226      0.00000
     10      12.9226      0.00000
     11      14.7176      0.00000
     12      14.7431      0.00000
     13      14.7431      0.00000
     14      16.4905      0.00000
     15      17.1490      0.00000
     16      18.9591      0.00000

 k-point  24 :       0.3846    0.3077    0.0000
  band No.  band energies     occupation 
      1      -0.2908      2.00000
      2       1.9171      2.00000
      3       3.3639      2.00000
      4       5.4924      2.00000
      5       8.3025      2.00000
      6      10.1597      0.00000
      7      10.3637      0.00000
      8      11.7422      0.00000
      9      12.1666      0.00000
     10      13.5442      0.00000
     11      13.8151      0.00000
     12      15.0984      0.00000
     13      15.6439      0.00000
     14      16.4171      0.00000
     15      16.8867      0.00000
     16      20.1723      0.00000

 k-point  25 :       0.4615    0.3077    0.0000
  band No.  band energies     occupation 
      1       0.3363      2.00000
      2       1.0732      2.00000
      3       3.9706      2.00000
      4       4.6817      2.00000
      5       8.8832      2.00000
      6       9.5701      0.00000
      7      10.7432      0.00000
      8      11.4198      0.00000
      9      12.3270      0.00000
     10      13.0180      0.00000
     11      14.1738      0.00000
     12      14.8702      0.00000
     13      15.6175      0.00000
     14      16.2375      0.00000
     15      18.2592      0.00000
     16      20.1794      0.00000

 k-point  26 :       0.3846    0.3846    0.0000
  band No.  band energies     occupation 
      1       0.2226      2.00000
      2       2.4209      2.00000
      3       2.4209      2.00000
      4       4.5740      2.00000
      5       8.7777      2.00000
      6      10.6512      0.00000
      7      10.8412      0.00000
      8      10.8412      0.00000
      9      12.7077      0.00000
     10      12.7077      0.00000
     11      12.9122      0.00000
     12      14.7908      0.00000
     13      16.8432      0.00000
     14      16.8432      0.00000
     15      18.0298      0.00000
     16      19.9821      0.00000

 k-point  27 :       0.4615    0.3846    0.0000
  band No.  band energies     occupation 
      1       0.8471      2.00000
      2       1.5807      2.00000
      3       3.0334      2.00000
      4       3.7523      2.00000
      5       9.3590      0.18745
      6      10.0468      0.00000
      7      11.2451      0.00000
      8      11.4251      0.00000
      9      11.9343      0.00000
     10      12.1155      0.00000
     11      13.3185      0.00000
     12      14.0130      0.00000
     13      17.3592      0.00000
     14      17.8937      0.00000
     15      18.6759      0.00000
     16      20.4939      0.00000

 k-point  28 :       0.4615    0.4615    0.0000
  band No.  band energies     occupation 
      1       1.4683      2.00000
      2       2.1980      2.00000
      3       2.1980      2.00000
      4       2.9229      2.00000
      5       9.9412      0.00000
      6      10.6299      0.00000
      7      10.6299      0.00000
      8      11.3194      0.00000
      9      11.8444      0.00000
     10      12.5378      0.00000
     11      12.5378      0.00000
     12      13.2322      0.00000
     13      19.0974      0.00000
     14      19.0974      0.00000
     15      19.1094      0.00000
     16      20.3878      0.00000

 k-point  29 :       0.0769    0.0769    0.0769
  band No.  band energies     occupation 
      1      -2.4825      2.00000
      2       5.4584      2.00000
      3       5.4584      2.00000
      4       5.4584      2.00000
      5       8.7152      2.00000
      6       8.7152      2.00000
      7       8.7152      2.00000
      8      13.0303      0.00000
      9      13.0303      0.00000
     10      13.0303      0.00000
     11      15.7355      0.00000
     12      15.7355      0.00000
     13      15.7355      0.00000
     14      16.6704      0.00000
     15      16.6704      0.00000
     16      16.6704      0.00000

 k-point  30 :       0.1538    0.0769    0.0769
  band No.  band energies     occupation 
      1      -2.3081      2.00000
      2       4.2775      2.00000
      3       5.6192      2.00000
      4       5.6192      2.00000
      5       8.8639      2.00000
      6       8.8639      2.00000
      7      10.1843      0.00000
      8      11.9191      0.00000
      9      11.9191      0.00000
     10      13.1958      0.00000
     11      15.1689      0.00000
     12      15.1689      0.00000
     13      15.8795      0.00000
     14      16.8339      0.00000
     15      17.8186      0.00000
     16      17.8186      0.00000

 k-point  31 :       0.2308    0.0769    0.0769
  band No.  band energies     occupation 
      1      -2.0178      2.00000
      2       3.1369      2.00000
      3       5.8866      2.00000
      4       5.8866      2.00000
      5       9.0933      2.00000
      6       9.0933      2.00000
      7      10.8654      0.00000
      8      10.8654      0.00000
      9      11.7972      0.00000
     10      13.4783      0.00000
     11      14.2550      0.00000
     12      14.2550      0.00000
     13      16.1197      0.00000
     14      17.1065      0.00000
     15      18.2132      0.00000
     16      19.3906      0.00000

 k-point  32 :       0.3077    0.0769    0.0769
  band No.  band energies     occupation 
      1      -1.6127      2.00000
      2       2.0833      2.00000
      3       6.2590      2.00000
      4       6.2590      2.00000
      5       9.2733      2.00000
      6       9.2733      2.00000
      7      10.0398      0.00000
      8      10.0398      0.00000
      9      13.3558      0.00000
     10      13.3558      0.00000
     11      13.4216      0.00000
     12      13.9607      0.00000
     13      16.4561      0.00000
     14      17.2352      0.00000
     15      17.4886      0.00000
     16      19.5711      0.00000

 k-point  33 :       0.3846    0.0769    0.0769
  band No.  band energies     occupation 
      1      -1.0937      2.00000
      2       1.1290      2.00000
      3       6.7323      2.00000
      4       6.7323      2.00000
      5       8.7816      2.00000
      6       8.7816      2.00000
      7      10.0511      0.00000
      8      10.0511      0.00000
      9      12.5619      0.00000
     10      12.5619      0.00000
     11      14.2476      0.00000
     12      15.4337      0.00000
     13      16.3470      0.00000
     14      16.8889      0.00000
     15      17.9838      0.00000
     16      18.7616      0.00000

 k-point  34 :       0.4615    0.0769    0.0769
  band No.  band energies     occupation 
      1      -0.4624      2.00000
      2       0.2793      2.00000
      3       7.2814      2.00000
      4       7.2814      2.00000
      5       8.0700      2.00000
      6       8.0700      2.00000
      7      10.3672      0.00000
      8      10.3672      0.00000
      9      12.0037      0.00000
     10      12.0037      0.00000
     11      14.8585      0.00000
     12      15.5544      0.00000
     13      17.2799      0.00000
     14      17.4179      0.00000
     15      18.0427      0.00000
     16      18.6136      0.00000

 k-point  35 :       0.1538    0.1538    0.0769
  band No.  band energies     occupation 
      1      -2.1339      2.00000
      2       4.4414      2.00000
      3       4.4414      2.00000
      4       5.7794      2.00000
      5       8.9867      2.00000
      6      10.3125      0.00000
      7      10.3125      0.00000
      8      10.8709      0.00000
      9      12.0989      0.00000
     10      12.0989      0.00000
     11      15.3242      0.00000
     12      15.3242      0.00000
     13      16.0272      0.00000
     14      17.4526      0.00000
     15      17.9781      0.00000
     16      17.9782      0.00000

 k-point  36 :       0.2308    0.1538    0.0769
  band No.  band energies     occupation 
      1      -1.8441      2.00000
      2       3.3030      2.00000
      3       4.7139      2.00000
      4       6.0449      2.00000
      5       9.0564      2.00000
      6       9.9947      0.00000
      7      10.4180      0.00000
      8      11.1543      0.00000
      9      11.8087      0.00000
     10      12.4885      0.00000
     11      14.4253      0.00000
     12      15.5338      0.00000
     13      15.5851      0.00000
     14      17.0888      0.00000
     15      18.2438      0.00000
     16      18.5569      0.00000

 k-point  37 :       0.3077    0.1538    0.0769
  band No.  band energies     occupation 
      1      -1.4395      2.00000
      2       2.2512      2.00000
      3       5.0937      2.00000
      4       6.4118      2.00000
      5       8.5244      2.00000
      6       9.8494      0.00000
      7       9.9036      0.00000
      8      11.0416      0.00000
      9      12.6053      0.00000
     10      13.5576      0.00000
     11      13.7777      0.00000
     12      14.6786      0.00000
     13      15.9594      0.00000
     14      16.1041      0.00000
     15      18.6150      0.00000
     16      19.0526      0.00000

 k-point  38 :       0.3846    0.1538    0.0769
  band No.  band energies     occupation 
      1      -0.9212      2.00000
      2       1.2983      2.00000
      3       5.5784      2.00000
      4       6.8531      2.00000
      5       7.7359      2.00000
      6       9.0018      2.00000
      7      10.2853      0.00000
      8      11.2894      0.00000
      9      12.8736      0.00000
     10      13.1274      0.00000
     11      13.8604      0.00000
     12      15.2124      0.00000
     13      15.4712      0.00000
     14      16.5003      0.00000
     15      18.2239      0.00000
     16      19.0915      0.00000

 k-point  39 :       0.4615    0.1538    0.0769
  band No.  band energies     occupation 
      1      -0.2908      2.00000
      2       0.4498      2.00000
      3       6.1616      2.00000
      4       6.8049      2.00000
      5       7.5873      2.00000
      6       8.2263      2.00000
      7      10.7830      0.00000
      8      11.2352      0.00000
      9      12.7154      0.00000
     10      13.1611      0.00000
     11      13.7244      0.00000
     12      14.4186      0.00000
     13      16.7209      0.00000
     14      17.4651      0.00000
     15      17.6896      0.00000
     16      19.5134      0.00000

 k-point  40 :       0.2308    0.2308    0.0769
  band No.  band energies     occupation 
      1      -1.5549      2.00000
      2       3.5793      2.00000
      3       3.5793      2.00000
      4       6.3047      2.00000
      5       8.4288      2.00000
      6       9.8268      0.00000
      7      11.1269      0.00000
      8      11.1269      0.00000
      9      12.3005      0.00000
     10      12.3005      0.00000
     11      14.7221      0.00000
     12      14.7221      0.00000
     13      16.0133      0.00000
     14      16.5140      0.00000
     15      18.1679      0.00000
     16      19.0545      0.00000

 k-point  41 :       0.3077    0.2308    0.0769
  band No.  band energies     occupation 
      1      -1.1513      2.00000
      2       2.5305      2.00000
      3       3.9647      2.00000
      4       6.6388      2.00000
      5       7.5444      2.00000
      6      10.1252      0.00000
      7      10.1720      0.00000
      8      11.5514      0.00000
      9      12.4616      0.00000
     10      13.8583      0.00000
     11      13.9661      0.00000
     12      15.0226      0.00000
     13      15.2092      0.00000
     14      16.1319      0.00000
     15      18.1597      0.00000
     16      19.3164      0.00000

[...]
     16      20.6756      0.00000

 k-point  64 :       0.4615    0.4615    0.1538
  band No.  band energies     occupation 
      1       1.6934      2.00000
      2       2.4214      2.00000
      3       2.4214      2.00000
      4       3.1439      2.00000
      5       8.1279      2.00000
      6       8.8262      2.00000
      7       8.8262      2.00000
      8       9.5247      0.00000
      9      14.0413      0.00000
     10      14.7176      0.00000
     11      14.7176      0.00000
     12      15.3986      0.00000
     13      19.2918      0.00000
     14      19.2918      0.00000
     15      19.3014      0.00000
     16      20.5772      0.00000

 k-point  65 :       0.2308    0.2308    0.2308
  band No.  band energies     occupation 
      1      -1.0937      2.00000
      2       4.0185      2.00000
      3       4.0185      2.00000
      4       4.0185      2.00000
      5       8.9793      2.00000
      6       8.9793      2.00000
      7       8.9793      2.00000
      8      12.7709      0.00000
      9      12.7709      0.00000
     10      12.7709      0.00000
     11      13.8404      0.00000
     12      16.8993      0.00000
     13      16.8993      0.00000
     14      16.8993      0.00000
     15      18.6186      0.00000
     16      18.6186      0.00000

 k-point  66 :       0.3077    0.2308    0.2308
  band No.  band energies     occupation 
      1      -0.6916      2.00000
      2       2.9754      2.00000
      3       4.3995      2.00000
      4       4.3995      2.00000
      5       7.9833      2.00000
      6       7.9833      2.00000
      7       9.3667      0.01661
      8      12.8473      0.00000
      9      13.1274      0.00000
     10      13.1274      0.00000
     11      14.4771      0.00000
     12      16.5461      0.00000
     13      16.5461      0.00000
     14      17.2369      0.00000
     15      19.0094      0.00000
     16      19.7396      0.00000

 k-point  67 :       0.3846    0.2308    0.2308
  band No.  band energies     occupation 
      1      -0.1765      2.00000
      2       2.0291      2.00000
      3       4.8807      2.00000
      4       4.8807      2.00000
      5       7.0866      2.00000
      6       7.0866      2.00000
      7       9.8563      0.00000
      8      11.9479      0.00000
      9      13.5565      0.00000
     10      13.5565      0.00000
     11      15.8334      0.00000
     12      15.8334      0.00000
     13      16.2697      0.00000
     14      17.6713      0.00000
     15      19.5083      0.00000
     16      19.5545      0.00000

 k-point  68 :       0.4615    0.2308    0.2308
  band No.  band energies     occupation 
      1       0.4501      2.00000
      2       1.1862      2.00000
      3       5.4197      2.00000
      4       5.4197      2.00000
      5       6.3386      2.00000
      6       6.3386      2.00000
      7      10.4502      0.00000
      8      11.1479      0.00000
      9      13.9686      0.00000
     10      13.9686      0.00000
     11      15.2536      0.00000
     12      15.2536      0.00000
     13      18.1125      0.00000
     14      18.2027      0.00000
     15      18.8308      0.00000
     16      19.8686      0.00000

 k-point  69 :       0.3077    0.3077    0.2308
  band No.  band energies     occupation 
      1      -0.2907      2.00000
      2       3.3626      2.00000
      3       3.3626      2.00000
      4       4.7715      2.00000
      5       6.9852      2.00000
      6       8.3639      2.00000
      7       8.3639      2.00000
      8      11.8508      0.00000
      9      13.5110      0.00000
     10      14.8184      0.00000
     11      14.8184      0.00000
     12      16.9178      0.00000
     13      16.9178      0.00000
     14      17.5831      0.00000
     15      19.4509      0.00000
     16      19.9462      0.00000

 k-point  70 :       0.3846    0.3077    0.2308
  band No.  band energies     occupation 
      1       0.2227      2.00000
      2       2.4205      2.00000
      3       3.8567      2.00000
      4       5.2036      2.00000
      5       6.1288      2.00000
      6       7.4571      2.00000
      7       8.8517      2.00000
      8      10.9482      0.00000
      9      13.9769      0.00000
     10      15.1417      0.00000
     11      16.3159      0.00000
     12      16.5285      0.00000
     13      17.3469      0.00000
     14      17.4565      0.00000
     15      19.1736      0.00000
     16      20.5633      0.00000

 k-point  71 :       0.4615    0.3077    0.2308
  band No.  band energies     occupation 
      1       0.8472      2.00000
      2       1.5807      2.00000
      3       4.4507      2.00000
      4       5.1011      2.00000
      5       6.0149      2.00000
      6       6.6590      2.00000
      7       9.4461      0.00000
      8      10.1456      0.00000
      9      14.5130      0.00000
     10      15.0367      0.00000
     11      16.2437      0.00000
     12      16.7377      0.00000
     13      17.7150      0.00000
     14      18.4334      0.00000
     15      18.6784      0.00000
     16      20.4658      0.00000

 k-point  72 :       0.3846    0.3846    0.2308
  band No.  band energies     occupation 
      1       0.7339      2.00000
      2       2.9212      2.00000
      3       2.9212      2.00000
      4       4.9944      2.00000
      5       5.9060      2.00000
      6       7.9424      2.00000
      7       7.9424      2.00000
      8      10.0428      0.00000
      9      14.4638      0.00000
     10      16.3009      0.00000
     11      16.3009      0.00000
     12      17.4072      0.00000
     13      17.4072      0.00000
     14      18.4174      0.00000
     15      18.4637      0.00000
     16      20.4448      0.00000

 k-point  73 :       0.4615    0.3846    0.2308
  band No.  band energies     occupation 
      1       1.3557      2.00000
      2       2.0858      2.00000
      3       3.5282      2.00000
      4       4.2340      2.00000
      5       6.4431      2.00000
      6       7.1365      2.00000
      7       8.5369      2.00000
      8       9.2379      2.00000
      9      15.0310      0.00000
     10      15.6670      0.00000
     11      16.9961      0.00000
     12      17.6793      0.00000
     13      17.8373      0.00000
     14      18.3450      0.00000
     15      19.1115      0.00000
     16      20.8887      0.00000

 k-point  74 :       0.4615    0.4615    0.2308
  band No.  band energies     occupation 
      1       1.9739      2.00000
      2       2.6995      2.00000
      3       2.6995      2.00000
      4       3.4183      2.00000
      5       7.0290      2.00000
      6       7.7296      2.00000
      7       7.7296      2.00000
      8       8.4312      2.00000
      9      15.6145      0.00000
     10      16.2744      0.00000
     11      16.2744      0.00000
     12      16.9444      0.00000
     13      19.5328      0.00000
     14      19.5328      0.00000
     15      19.5411      0.00000
     16      20.8110      0.00000

 k-point  75 :       0.3077    0.3077    0.3077
  band No.  band energies     occupation 
      1       0.1088      2.00000
      2       3.7464      2.00000
      3       3.7464      2.00000
      4       3.7464      2.00000
      5       7.3561      2.00000
      6       7.3561      2.00000
      7       7.3561      2.00000
      8      10.8507      0.00000
      9      15.2151      0.00000
     10      15.2151      0.00000
     11      15.2151      0.00000
     12      17.9212      0.00000
     13      17.9212      0.00000
     14      17.9212      0.00000
     15      19.8251      0.00000
     16      19.8251      0.00000

 k-point  76 :       0.3846    0.3077    0.3077
  band No.  band energies     occupation 
      1       0.6205      2.00000
      2       2.8100      2.00000
      3       4.2316      2.00000
      4       4.2316      2.00000
      5       6.4507      2.00000
      6       6.4507      2.00000
      7       7.8420      2.00000
      8       9.9446      0.00000
      9      15.6610      0.00000
     10      15.6610      0.00000
     11      16.9980      0.00000
     12      17.7126      0.00000
     13      17.7126      0.00000
     14      18.3563      0.00000
     15      20.2437      0.00000
     16      20.2940      0.00000

 k-point  77 :       0.4615    0.3077    0.3077
  band No.  band energies     occupation 
      1       1.2429      2.00000
      2       1.9737      2.00000
      3       4.7768      2.00000
      4       4.7768      2.00000
      5       5.6944      2.00000
      6       5.6944      2.00000
      7       8.4372      2.00000
      8       9.1389      2.00000
      9      16.0948      0.00000
     10      16.0948      0.00000
     11      17.1994      0.00000
     12      17.1994      0.00000
     13      18.8215      0.00000
     14      18.8887      0.00000
     15      19.5181      0.00000
     16      20.5332      0.00000

 k-point  78 :       0.3846    0.3846    0.3077
  band No.  band energies     occupation 
      1       1.1300      2.00000
      2       3.3070      2.00000
      3       3.3070      2.00000
      4       4.6686      2.00000
      5       5.5863      2.00000
      6       6.9294      2.00000
      7       6.9294      2.00000
      8       9.0353      2.00000
      9      16.1548      0.00000
     10      17.3621      0.00000
     11      17.3621      0.00000
     12      18.2359      0.00000
     13      18.2359      0.00000
     14      18.8015      0.00000
     15      19.9037      0.00000
     16      20.7875      0.00000

 k-point  79 :       0.4615    0.3846    0.3077
  band No.  band energies     occupation 
      1       1.7495      2.00000
      2       2.4766      2.00000
      3       3.9050      2.00000
      4       4.5623      2.00000
      5       5.4747      2.00000
      6       6.1258      2.00000
      7       7.5239      2.00000
      8       8.2271      2.00000
      9      16.6983      0.00000
     10      17.2395      0.00000
     11      18.2574      0.00000
     12      18.5255      0.00000
     13      18.6999      0.00000
     14      19.2175      0.00000
     15      19.4325      0.00000
     16      21.1194      0.00000

 k-point  80 :       0.4615    0.4615    0.3077
  band No.  band energies     occupation 
      1       2.3651      2.00000
      2       3.0863      2.00000
      3       3.0863      2.00000
      4       3.7957      2.00000
      5       6.0170      2.00000
      6       6.7141      2.00000
      7       6.7141      2.00000
      8       7.4172      2.00000
      9      17.2799      0.00000
     10      17.9063      0.00000
     11      17.9063      0.00000
     12      18.5574      0.00000
     13      19.8651      0.00000
     14      19.8651      0.00000
     15      19.8758      0.00000
     16      21.1273      0.00000

 k-point  81 :       0.3846    0.3846    0.3846
  band No.  band energies     occupation 
      1       1.6372      2.00000
      2       3.7951      2.00000
      3       3.7951      2.00000
      4       3.7951      2.00000
      5       6.0189      2.00000
      6       6.0189      2.00000
      7       6.0189      2.00000
      8       8.1226      2.00000
      9      17.9146      0.00000
     10      17.9146      0.00000
     11      17.9146      0.00000
     12      19.2359      0.00000
     13      19.2359      0.00000
     14      19.2359      0.00000
     15      21.1063      0.00000
     16      21.1067      0.00000

 k-point  82 :       0.4615    0.3846    0.3846
  band No.  band energies     occupation 
      1       2.2534      2.00000
      2       2.9754      2.00000
      3       4.3459      2.00000
      4       4.3459      2.00000
      5       5.2559      2.00000
      6       5.2559      2.00000
      7       6.6081      2.00000
      8       7.3119      2.00000
      9      18.3783      0.00000
     10      18.3783      0.00000
     11      19.1918      0.00000
     12      19.1918      0.00000
     13      19.6903      0.00000
     14      19.7666      0.00000
     15      20.3919      0.00000
     16      21.2112      0.00000

 k-point  83 :       0.4615    0.4615    0.3846
  band No.  band energies     occupation 
      1       2.8646      2.00000
      2       3.5759      2.00000
      3       3.5759      2.00000
      4       4.2381      2.00000
      5       5.1452      2.00000
      6       5.8012      2.00000
      7       5.8012      2.00000
      8       6.5003      2.00000
      9      18.9888      0.00000
     10      19.5196      0.00000
     11      19.5196      0.00000
     12      20.1387      0.00000
     13      20.2790      0.00000
     14      20.2790      0.00000
     15      20.3030      0.00000
     16      21.4643      0.00000

 k-point  84 :       0.4615    0.4615    0.4615
  band No.  band energies     occupation 
      1       3.4659      2.00000
      2       4.1299      2.00000
      3       4.1299      2.00000
      4       4.1299      2.00000
      5       5.0346      2.00000
      6       5.0346      2.00000
      7       5.0346      2.00000
      8       5.6924      2.00000
      9      20.6322      0.00000
     10      20.6322      0.00000
     11      20.6322      0.00000
     12      20.8136      0.00000
     13      20.8136      0.00000
     14      20.8136      0.00000
     15      21.3511      0.00000
     16      21.3511      0.00000


--------------------------------------------------------------------------------------------------------


 soft charge-density along one line, spin component           1
         0         1         2         3         4         5         6         7         8         9
 total charge-density along one line
 
 pseudopotential strength for first ion, spin component:           1
  8.402  -0.008  -0.000  -0.000  -0.000  -0.000  -0.000  -0.000
 -0.008   0.000  -0.000  -0.000  -0.000   0.000   0.000   0.000
 -0.000  -0.000   1.995  -0.000  -0.000  -0.031   0.000   0.000
 -0.000  -0.000  -0.000   1.995  -0.000   0.000  -0.031   0.000
 -0.000  -0.000  -0.000  -0.000   1.995   0.000   0.000  -0.031
 -0.000   0.000  -0.031   0.000   0.000  -0.011   0.000   0.000
 -0.000   0.000   0.000  -0.031   0.000   0.000  -0.011   0.000
 -0.000   0.000   0.000   0.000  -0.031   0.000   0.000  -0.011
 total augmentation occupancy for first ion, spin component:           1
  1.299  -0.624   0.000  -0.000   0.000  -0.000   0.000   0.000
 -0.624   0.635   0.000  -0.000  -0.000  -0.000   0.000   0.000
  0.000   0.000   0.823  -0.056   0.038  -0.188   0.015   0.004
 -0.000  -0.000  -0.056   0.929   0.007   0.015  -0.155   0.007
  0.000  -0.000   0.038   0.007   0.756   0.004   0.007  -0.198
 -0.000  -0.000  -0.188   0.015   0.004   0.048  -0.003  -0.002
  0.000   0.000   0.015  -0.155   0.007  -0.003   0.029  -0.002
  0.000   0.000   0.004   0.007  -0.198  -0.002  -0.002   0.059


------------------------ aborting loop because EDIFF is reached ----------------------------------------




--------------------------------------------------------------------------------------------------------


    CHARGE:  VPU time    0.02: CPU time    0.03
    FORLOC:  VPU time    0.00: CPU time    0.00
    FORNL :  VPU time    0.06: CPU time    0.06
    STRESS:  VPU time    0.41: CPU time    0.41
    FORCOR:  VPU time    0.01: CPU time    0.01
    FORHAR:  VPU time    0.00: CPU time    0.00
    MIXING:  VPU time    0.00: CPU time    0.00


--------------------------------------------------------------------------------------------------------



  FREE ENERGIE OF THE ION-ELECTRON SYSTEM (eV)
  ---------------------------------------------------
  free  energy   TOTEN  =       -14.711327 eV

  energy  without entropy=      -14.711121  energy(sigma->0) =      -14.711224
 

  FORCE on cell =-STRESS in cart. coord.  units (eV/reduce length):
  Direction    X        Y        Z        XY       YZ       ZX
  --------------------------------------------------------------------------------------
  Alpha Z     -0.92     -0.92     -0.92
  Ewald     -102.20   -102.20   -102.20     -0.00      0.00      0.00
  Hartree      0.18      0.18      0.18     -0.00     -0.00     -0.00
  E(xc)      -35.71    -35.71    -35.71      0.00     -0.00     -0.00
  Local        3.40      3.40      3.40      0.00     -0.00      0.00
  n-local     77.06     78.01     80.69      0.59      1.56      0.63
  augment     -3.87     -3.87     -3.87      0.00      0.00      0.00
  Kinetic     62.20     64.71     68.77      2.07     -8.80     -1.08
  -------------------------------------------------------------------------------------
  Total        4.67      4.67      4.67      0.00      0.00      0.00
  in kB      128.49    128.49    128.49      0.00      0.00      0.00
  external pressure =      128.49 kB  Pullay stress =        0.00 kB


 VOLUME and BASIS-vectors are now :
 -----------------------------------------------------------------------------
  energy-cutoff  :      500.00
  volume of cell :       58.22
      direct lattice vectors                 reciprocal lattice vectors
     3.875814115  0.000000000  0.000000000     0.258010310  0.000000000  0.000000000
     0.000000000  3.875814115  0.000000000     0.000000000  0.258010310  0.000000000
     0.000000000  0.000000000  3.875814115     0.000000000  0.000000000  0.258010310

  length of vectors
     3.875814115  3.875814115  3.875814115     0.258010310  0.258010310  0.258010310


 FORCES acting on ions
    electron-ion (+dipol)            ewald-force                    non-local-force                 convergence-correction
 -----------------------------------------------------------------------------------------------
   -.490E-14 -.183E-13 0.129E-13   -.508E-15 0.511E-15 0.699E-16   0.000E+00 0.000E+00 0.000E+00   0.329E-15 -.668E-16 -.713E-16
   -.479E-14 0.784E-15 -.651E-13   -.604E-15 -.395E-15 0.411E-15   -.162E-26 0.000E+00 0.000E+00   0.330E-15 0.675E-16 0.579E-16
   0.252E-15 -.453E-14 -.445E-14   0.653E-15 0.280E-15 0.419E-15   0.162E-26 0.646E-26 0.323E-26   -.343E-15 -.575E-16 0.602E-16
   0.655E-16 0.383E-15 -.400E-16   0.557E-15 -.627E-15 -.697E-15   0.646E-26 -.969E-26 -.323E-26   -.347E-15 0.526E-16 -.747E-16
 -----------------------------------------------------------------------------------------------
   -.938E-14 -.217E-13 -.566E-13   0.980E-16 -.232E-15 0.203E-15   0.646E-26 -.323E-26 0.000E+00   -.315E-16 -.411E-17 -.279E-16
 
 
 POSITION                                       TOTAL-FORCE (eV/Angst)
 -----------------------------------------------------------------------------------
      1.93791      1.93791      0.00000         0.000000      0.000000      0.000000
      1.93791      0.00000      1.93791         0.000000      0.000000      0.000000
      0.00000      1.93791      1.93791         0.000000      0.000000     -0.000000
      0.00000      0.00000      0.00000         0.000000      0.000000     -0.000000
 -----------------------------------------------------------------------------------
    total drift:                               -0.000000     -0.000000     -0.000000


--------------------------------------------------------------------------------------------------------



 mean value of Nose-termostat <S>:     1.000 mean value of <T> :     0.000
 mean temperature <T/S>/<1/S>  :     0.000

     LOOP+:  VPU time   10.29: CPU time   10.31
  
  
 General timing and accounting informations for this job:
 ========================================================
  
                  Total CPU time used (sec):       10.858
                            User time (sec):        7.329
                          System time (sec):        3.529
                         Elapsed time (sec):       10.872
  
                   Maximum memory used (kb):      153344.
                   Average memory used (kb):           0.
  
                          Minor page faults:        35583
                          Major page faults:            0
                 Voluntary context switches:          831
