  32  32   0   0
  0.1131459E+02  0.7127375E-09  0.7127375E-09  0.7127375E-09  0.5000000E-15
  1.000000000000000E-004
  CAR 
 unknown system                          
     14.57320968     -6.46770928  301      4.18721146      1.00000000
     -6.468  0.0000E+00  0.0000E+00
     -6.398  0.0000E+00  0.0000E+00
     -6.327  0.0000E+00  0.0000E+00
     -6.257  0.0000E+00  0.0000E+00
     -6.187  0.0000E+00  0.0000E+00
     -6.117  0.0000E+00  0.0000E+00
     -6.047  0.0000E+00  0.0000E+00
     -5.977  0.0000E+00  0.0000E+00
     -5.907  0.0000E+00  0.0000E+00
     -5.836  0.0000E+00  0.0000E+00
     -5.766  0.0000E+00  0.0000E+00
     -5.696  0.0000E+00  0.0000E+00
     -5.626  0.0000E+00  0.0000E+00
     -5.556  0.2273E-11  0.1595E-12
     -5.486  0.8684E-01  0.6090E-02
     -5.416  0.4584E+00  0.3824E-01
     -5.346  0.8161E+00  0.9548E-01
     -5.275  0.1198E+01  0.1795E+00
     -5.205  0.1300E+01  0.2708E+00
     -5.135  0.1094E+01  0.3475E+00
     -5.065  0.1576E+01  0.4581E+00
     -4.995  0.1246E+01  0.5461E+00
     -4.925  0.2307E+01  0.7080E+00
     -4.855  0.2064E+01  0.8527E+00
     -4.784  0.1303E+01  0.9467E+00
     -4.714  0.2063E+01  0.1092E+01
     -4.644  0.1848E+01  0.1221E+01
     -4.574  0.2761E+01  0.1416E+01
     -4.504  0.2207E+01  0.1571E+01
     -4.434  0.2548E+01  0.1750E+01
     -4.364  0.3286E+01  0.1982E+01
     -4.293  0.2102E+01  0.2129E+01
     -4.223  0.2295E+01  0.2292E+01
     -4.153  0.2248E+01  0.2450E+01
     -4.083  0.3883E+01  0.2722E+01
     -4.013  0.2760E+01  0.2916E+01
     -3.943  0.3841E+01  0.3185E+01
     -3.873  0.3151E+01  0.3406E+01
     -3.803  0.2585E+01  0.3590E+01
     -3.732  0.3597E+01  0.3842E+01
     -3.662  0.4040E+01  0.4128E+01
     -3.592  0.3319E+01  0.4363E+01
     -3.522  0.2713E+01  0.4553E+01
     -3.452  0.4154E+01  0.4845E+01
     -3.382  0.4069E+01  0.5130E+01
     -3.312  0.4555E+01  0.5450E+01
     -3.241  0.3861E+01  0.5723E+01
     -3.171  0.4504E+01  0.6039E+01
     -3.101  0.3958E+01  0.6320E+01
     -3.031  0.4660E+01  0.6647E+01
     -2.961  0.4752E+01  0.6980E+01
     -2.891  0.4241E+01  0.7280E+01
     -2.821  0.5831E+01  0.7689E+01
     -2.750  0.4517E+01  0.8007E+01
     -2.680  0.3786E+01  0.8276E+01
     -2.610  0.6070E+01  0.8703E+01
     -2.540  0.6477E+01  0.9161E+01
     -2.470  0.4937E+01  0.9511E+01
     -2.400  0.5348E+01  0.9886E+01
     -2.330  0.5788E+01  0.1029E+02
     -2.260  0.5684E+01  0.1069E+02
     -2.189  0.8575E+01  0.1130E+02
     -2.119  0.5623E+01  0.1169E+02
     -2.049  0.5190E+01  0.1206E+02
     -1.979  0.8128E+01  0.1263E+02
     -1.909  0.7291E+01  0.1314E+02
     -1.839  0.8823E+01  0.1376E+02
     -1.769  0.7913E+01  0.1432E+02
     -1.698  0.8779E+01  0.1493E+02
     -1.628  0.1020E+02  0.1565E+02
     -1.558  0.9016E+01  0.1628E+02
     -1.488  0.9667E+01  0.1696E+02
     -1.418  0.1254E+02  0.1785E+02
     -1.348  0.1359E+02  0.1880E+02
     -1.278  0.1211E+02  0.1965E+02
     -1.207  0.1803E+02  0.2092E+02
     -1.137  0.1954E+02  0.2230E+02
     -1.067  0.2274E+02  0.2390E+02
     -0.997  0.2670E+02  0.2577E+02
     -0.927  0.3492E+02  0.2823E+02
     -0.857  0.3614E+02  0.3077E+02
     -0.787  0.3589E+02  0.3330E+02
     -0.717  0.3873E+02  0.3602E+02
     -0.646  0.3446E+02  0.3845E+02
     -0.576  0.4217E+02  0.4142E+02
     -0.506  0.3991E+02  0.4422E+02
     -0.436  0.4795E+02  0.4760E+02
     -0.366  0.5626E+02  0.5156E+02
     -0.296  0.6074E+02  0.5585E+02
     -0.226  0.6847E+02  0.6066E+02
     -0.155  0.7797E+02  0.6614E+02
     -0.085  0.6925E+02  0.7103E+02
     -0.015  0.6946E+02  0.7591E+02
      0.055  0.6323E+02  0.8036E+02
      0.125  0.5902E+02  0.8452E+02
      0.195  0.6857E+02  0.8934E+02
      0.265  0.6295E+02  0.9377E+02
      0.336  0.5770E+02  0.9785E+02
      0.406  0.5922E+02  0.1020E+03
      0.476  0.7674E+02  0.1074E+03
      0.546  0.8115E+02  0.1131E+03
      0.616  0.9288E+02  0.1196E+03
      0.686  0.8569E+02  0.1257E+03
      0.756  0.9882E+02  0.1327E+03
      0.826  0.9068E+02  0.1391E+03
      0.897  0.1033E+03  0.1463E+03
      0.967  0.1219E+03  0.1549E+03
      1.037  0.1164E+03  0.1631E+03
      1.107  0.1173E+03  0.1714E+03
      1.177  0.1594E+03  0.1826E+03
      1.247  0.1114E+03  0.1904E+03
      1.317  0.9167E+02  0.1969E+03
      1.388  0.8575E+02  0.2029E+03
      1.458  0.7493E+02  0.2082E+03
      1.528  0.7567E+02  0.2135E+03
      1.598  0.8246E+02  0.2193E+03
      1.668  0.9634E+02  0.2261E+03
      1.738  0.1081E+03  0.2337E+03
      1.808  0.1136E+03  0.2417E+03
      1.879  0.1140E+03  0.2497E+03
      1.949  0.1022E+03  0.2569E+03
      2.019  0.9794E+02  0.2638E+03
      2.089  0.9265E+02  0.2704E+03
      2.159  0.9511E+02  0.2771E+03
      2.229  0.9900E+02  0.2840E+03
      2.299  0.1042E+03  0.2914E+03
      2.369  0.1301E+03  0.3005E+03
      2.440  0.1823E+03  0.3133E+03
      2.510  0.1693E+03  0.3253E+03
      2.580  0.1013E+03  0.3324E+03
      2.650  0.4154E+02  0.3353E+03
      2.720  0.8781E+01  0.3359E+03
      2.790  0.2038E+02  0.3374E+03
      2.860  0.7607E+01  0.3379E+03
      2.931  0.1470E+02  0.3389E+03
      3.001  0.1181E+02  0.3398E+03
      3.071  0.9169E+01  0.3404E+03
      3.141  0.1494E+02  0.3415E+03
      3.211  0.8755E+01  0.3421E+03
      3.281  0.1157E+02  0.3429E+03
      3.351  0.1160E+02  0.3437E+03
      3.422  0.1150E+02  0.3445E+03
      3.492  0.7972E+01  0.3451E+03
      3.562  0.1159E+02  0.3459E+03
      3.632  0.9104E+01  0.3466E+03
      3.702  0.1031E+02  0.3473E+03
      3.772  0.9321E+01  0.3479E+03
      3.842  0.1072E+02  0.3487E+03
      3.912  0.1247E+02  0.3496E+03
      3.983  0.7862E+01  0.3501E+03
      4.053  0.7917E+01  0.3507E+03
      4.123  0.9506E+01  0.3513E+03
      4.193  0.1040E+02  0.3521E+03
      4.263  0.1059E+02  0.3528E+03
      4.333  0.8544E+01  0.3534E+03
      4.403  0.9142E+01  0.3541E+03
      4.474  0.6656E+01  0.3545E+03
      4.544  0.8290E+01  0.3551E+03
      4.614  0.1140E+02  0.3559E+03
      4.684  0.1071E+02  0.3567E+03
      4.754  0.6040E+01  0.3571E+03
      4.824  0.8674E+01  0.3577E+03
      4.894  0.6577E+01  0.3582E+03
      4.965  0.1199E+02  0.3590E+03
      5.035  0.9458E+01  0.3597E+03
      5.105  0.5220E+01  0.3601E+03
      5.175  0.8877E+01  0.3607E+03
      5.245  0.8874E+01  0.3613E+03
      5.315  0.6105E+01  0.3617E+03
      5.385  0.8530E+01  0.3623E+03
      5.455  0.1022E+02  0.3631E+03
      5.526  0.8924E+01  0.3637E+03
      5.596  0.8242E+01  0.3643E+03
      5.666  0.4967E+01  0.3646E+03
      5.736  0.7772E+01  0.3652E+03
      5.806  0.7973E+01  0.3657E+03
      5.876  0.8488E+01  0.3663E+03
      5.946  0.8792E+01  0.3669E+03
      6.017  0.9564E+01  0.3676E+03
      6.087  0.7448E+01  0.3681E+03
      6.157  0.8479E+01  0.3687E+03
      6.227  0.3884E+01  0.3690E+03
      6.297  0.4640E+01  0.3693E+03
      6.367  0.1161E+02  0.3701E+03
      6.437  0.7484E+01  0.3707E+03
      6.508  0.7238E+01  0.3712E+03
      6.578  0.7451E+01  0.3717E+03
      6.648  0.3687E+01  0.3720E+03
      6.718  0.8449E+01  0.3726E+03
      6.788  0.6920E+01  0.3730E+03
      6.858  0.3504E+01  0.3733E+03
      6.928  0.6173E+01  0.3737E+03
      6.998  0.8057E+01  0.3743E+03
      7.069  0.8989E+01  0.3749E+03
      7.139  0.2480E+01  0.3751E+03
      7.209  0.1009E+02  0.3758E+03
      7.279  0.2730E+01  0.3760E+03
      7.349  0.3369E+01  0.3762E+03
      7.419  0.7503E+01  0.3768E+03
      7.489  0.3933E+01  0.3770E+03
      7.560  0.5969E+01  0.3775E+03
      7.630  0.4930E+01  0.3778E+03
      7.700  0.7660E+01  0.3783E+03
      7.770  0.5207E+01  0.3787E+03
      7.840  0.2151E+01  0.3789E+03
      7.910  0.4989E+01  0.3792E+03
      7.980  0.3222E+01  0.3794E+03
      8.051  0.3117E+01  0.3797E+03
      8.121  0.7045E+01  0.3802E+03
      8.191  0.4806E+01  0.3805E+03
      8.261  0.8223E+01  0.3811E+03
      8.331  0.6661E+01  0.3815E+03
      8.401  0.9801E+01  0.3822E+03
      8.471  0.8712E+01  0.3828E+03
      8.541  0.6655E+01  0.3833E+03
      8.612  0.8236E+01  0.3839E+03
      8.682  0.1095E+02  0.3847E+03
      8.752  0.1035E+02  0.3854E+03
      8.822  0.6502E+01  0.3858E+03
      8.892  0.1217E+02  0.3867E+03
      8.962  0.5986E+01  0.3871E+03
      9.032  0.1020E+02  0.3878E+03
      9.103  0.9444E+01  0.3885E+03
      9.173  0.1023E+02  0.3892E+03
      9.243  0.7149E+01  0.3897E+03
      9.313  0.6341E+01  0.3902E+03
      9.383  0.1333E+02  0.3911E+03
      9.453  0.8168E+01  0.3917E+03
      9.523  0.8749E+01  0.3923E+03
      9.594  0.1008E+02  0.3930E+03
      9.664  0.6508E+01  0.3935E+03
      9.734  0.1087E+02  0.3943E+03
      9.804  0.9056E+01  0.3949E+03
      9.874  0.5767E+01  0.3953E+03
      9.944  0.1002E+02  0.3960E+03
     10.014  0.9390E+01  0.3967E+03
     10.084  0.5500E+01  0.3970E+03
     10.155  0.9315E+01  0.3977E+03
     10.225  0.8425E+01  0.3983E+03
     10.295  0.6303E+01  0.3987E+03
     10.365  0.9414E+01  0.3994E+03
     10.435  0.7660E+01  0.3999E+03
     10.505  0.8781E+01  0.4006E+03
     10.575  0.7305E+01  0.4011E+03
     10.646  0.6740E+01  0.4015E+03
     10.716  0.7037E+01  0.4020E+03
     10.786  0.6143E+01  0.4025E+03
     10.856  0.9037E+01  0.4031E+03
     10.926  0.8520E+01  0.4037E+03
     10.996  0.7554E+01  0.4042E+03
     11.066  0.6548E+01  0.4047E+03
     11.137  0.5825E+01  0.4051E+03
     11.207  0.8142E+01  0.4057E+03
     11.277  0.6776E+01  0.4062E+03
     11.347  0.5785E+01  0.4066E+03
     11.417  0.7838E+01  0.4071E+03
     11.487  0.6408E+01  0.4076E+03
     11.557  0.9970E+01  0.4083E+03
     11.627  0.6262E+01  0.4087E+03
     11.698  0.6098E+01  0.4091E+03
     11.768  0.8855E+01  0.4098E+03
     11.838  0.1220E+02  0.4106E+03
     11.908  0.8290E+01  0.4112E+03
     11.978  0.1188E+02  0.4121E+03
     12.048  0.1056E+02  0.4128E+03
     12.118  0.7405E+01  0.4133E+03
     12.189  0.8339E+01  0.4139E+03
     12.259  0.6223E+01  0.4143E+03
     12.329  0.1100E+02  0.4151E+03
     12.399  0.8048E+01  0.4157E+03
     12.469  0.9164E+01  0.4163E+03
     12.539  0.1394E+02  0.4173E+03
     12.609  0.1240E+02  0.4182E+03
     12.680  0.9929E+01  0.4189E+03
     12.750  0.1204E+02  0.4197E+03
     12.820  0.7616E+01  0.4203E+03
     12.890  0.6378E+01  0.4207E+03
     12.960  0.9091E+01  0.4214E+03
     13.030  0.7476E+01  0.4219E+03
     13.100  0.4772E+01  0.4222E+03
     13.170  0.8908E+01  0.4229E+03
     13.241  0.6692E+01  0.4233E+03
     13.311  0.4551E+01  0.4237E+03
     13.381  0.1278E+01  0.4237E+03
     13.451  0.9243E+00  0.4238E+03
     13.521  0.6556E+00  0.4239E+03
     13.591  0.1614E+01  0.4240E+03
     13.661  0.3952E+00  0.4240E+03
     13.732  0.0000E+00  0.4240E+03
     13.802  0.0000E+00  0.4240E+03
     13.872  0.0000E+00  0.4240E+03
     13.942  0.0000E+00  0.4240E+03
     14.012  0.0000E+00  0.4240E+03
     14.082  0.0000E+00  0.4240E+03
     14.152  0.0000E+00  0.4240E+03
     14.223  0.0000E+00  0.4240E+03
     14.293  0.0000E+00  0.4240E+03
     14.363  0.0000E+00  0.4240E+03
     14.433  0.0000E+00  0.4240E+03
     14.503  0.0000E+00  0.4240E+03
     14.573  0.0000E+00  0.4240E+03
