   32   32    1    1
  0.1131459E+02  0.7127375E-09  0.7127375E-09  0.7127375E-09  0.5000000E-15
  1.000000000000000E-004
  CAR 
 unknown system                          
  352  196  212
 
  0.0000000E+00  0.0000000E+00  0.0000000E+00  0.5787037E-03
   1       -5.5113
   2       -2.6798
   3       -2.6765
   4       -2.6765
   5       -2.6765
   6       -2.6765
   7       -2.6732
   8       -1.1720
   9       -1.1720
  10       -1.1720
  11       -1.1720
  12       -0.9873
  13       -0.9873
  14       -0.9873
  15       -0.7527
  16       -0.7505
  17       -0.7505
  18       -0.7493
  19       -0.7490
  20       -0.7490
  21       -0.7490
  22       -0.7490
  23       -0.7488
  24       -0.7476
  25       -0.7476
  26       -0.7454
  27       -0.5067
  28       -0.5067
  29       -0.5067
  30       -0.2107
  31       -0.2086
  32       -0.2086
  33       -0.2086
  34       -0.2086
  35       -0.2065
  36        0.2134
  37        0.2153
  38        0.2153
  39        0.2154
  40        0.2154
  41        0.2172
  42        0.4368
  43        0.4371
  44        0.4371
  45        0.4394
  46        0.4394
  47        0.4395
  48        0.4395
  49        0.4395
  50        0.4396
  51        0.4396
  52        0.4409
  53        0.4409
  54        0.4419
  55        0.4431
  56        0.4431
  57        0.4436
  58        0.4436
  59        0.4437
  60        0.4437
  61        0.4437
  62        0.4437
  63        0.4451
  64        0.4451
  65        0.4481
  66        0.6603
  67        0.6630
  68        0.6630
  69        0.6633
  70        0.6636
  71        0.6636
  72        0.6636
  73        0.6636
  74        0.6639
  75        0.6642
  76        0.6642
  77        0.6669
  78        0.9474
  79        0.9474
  80        0.9474
  81        0.9474
  82        0.9474
  83        0.9474
  84        0.9475
  85        0.9475
  86        0.9805
  87        0.9805
  88        0.9805
  89        1.3776
  90        1.3794
  91        1.3795
  92        1.3795
  93        1.3795
  94        1.3813
  95        1.5146
  96        1.5151
  97        1.5160
  98        1.5160
  99        1.5166
 100        1.5166
 101        1.5166
 102        1.5166
 103        1.5171
 104        1.5171
 105        1.5181
 106        1.5185
 107        1.6835
 108        1.6835
 109        1.6855
 110        1.6855
 111        1.6857
 112        1.6857
 113        1.6857
 114        1.6857
 115        1.6859
 116        1.6859
 117        1.6878
 118        1.6878
 119        1.8200
 120        1.8212
 121        1.8212
 122        1.8213
 123        1.8213
 124        1.8224
 125        1.8555
 126        1.8555
 127        1.8571
 128        1.8575
 129        1.8576
 130        1.8577
 131        1.8577
 132        1.8577
 133        1.8577
 134        1.8582
 135        1.8599
 136        1.8599
 137        1.8655
 138        1.8657
 139        2.1548
 140        2.1557
 141        2.1557
 142        2.1557
 143        2.1557
 144        2.1567
 145        2.4526
 146        2.4526
 147        2.4526
 148        2.4677
 149        2.4677
 150        2.4677
 151        2.4677
 152        2.4677
 153        2.4677
 154        2.4677
 155        2.4677
 156        2.6169
 157        2.6174
 158        2.6175
 159        2.6175
 160        2.6175
 161        2.6175
 162        2.6182
 163        2.6183
 164        2.6183
 165        2.6183
 166        2.6183
 167        2.6188
 168        3.0458
 169        3.0459
 170        3.0459
 171        3.0459
 172        3.8614
 173        3.8616
 174        3.8616
 175        3.8626
 176        3.8629
 177        3.8629
 178        3.8629
 179        3.8630
 180        3.8633
 181        3.8643
 182        3.8643
 183        3.8644
 184        5.6505
 185        5.6505
 186        5.6506
 187        8.1406
 188        8.1406
 189        8.1406
 190        8.1406
 191       10.5473
 192       10.5473
 193       10.5510
 194       10.5510
 195       10.5514
 196       10.5514
 197       10.5514
 198       10.5515
 199       10.5519
 200       10.5519
 201       10.5555
 202       10.5555
 203       11.5938
 204       11.5938
 205       11.5939
 206       12.6995
 207       12.7023
 208       12.7023
 209       12.7023
 210       12.7023
 211       12.7051
 212       13.4237
 
  0.8333333E-01  0.0000000E+00  0.0000000E+00  0.1157407E-02
   1       -5.4895
   2       -3.0710
   3       -2.6588
   4       -2.6588
   5       -2.6588
   6       -2.6588
   7       -2.2882
   8       -1.1668
   9       -1.1668
  10       -1.1668
  11       -1.1668
  12       -0.9870
  13       -0.9769
  14       -0.9769
  15       -0.9635
  16       -0.9635
  17       -0.9635
  18       -0.9634
  19       -0.7602
  20       -0.7602
  21       -0.7602
  22       -0.7602
  23       -0.5541
  24       -0.5541
  25       -0.5541
  26       -0.5541
  27       -0.5007
  28       -0.5004
  29       -0.5004
  30       -0.2267
  31       -0.2265
  32       -0.2004
  33       -0.2004
  34       -0.2003
  35       -0.2002
  36        0.1187
  37        0.2179
  38        0.2179
  39        0.2179
  40        0.2180
  41        0.2851
  42        0.2851
  43        0.3127
  44        0.4253
  45        0.4258
  46        0.4258
  47        0.4259
  48        0.4308
  49        0.4309
  50        0.4309
  51        0.4309
  52        0.4403
  53        0.4404
  54        0.4404
  55        0.4404
  56        0.4568
  57        0.4568
  58        0.4568
  59        0.4571
  60        0.4680
  61        0.4680
  62        0.4680
  63        0.4684
  64        0.5858
  65        0.5858
  66        0.5858
  67        0.5858
  68        0.6079
  69        0.6079
  70        0.6693
  71        0.6693
  72        0.6693
  73        0.6693
  74        0.7278
  75        0.7278
  76        0.7278
  77        0.7279
  78        0.9430
  79        0.9430
  80        0.9431
  81        0.9431
  82        0.9532
  83        0.9532
  84        0.9532
  85        0.9533
  86        0.9738
  87        0.9858
  88        0.9858
  89        1.3472
  90        1.3472
  91        1.3473
  92        1.3473
  93        1.3873
  94        1.4155
  95        1.4913
  96        1.4914
  97        1.4914
  98        1.4915
  99        1.5147
 100        1.5147
 101        1.5147
 102        1.5147
 103        1.5429
 104        1.5429
 105        1.5429
 106        1.5430
 107        1.5832
 108        1.5832
 109        1.6856
 110        1.6856
 111        1.6856
 112        1.6856
 113        1.7132
 114        1.7132
 115        1.7132
 116        1.7132
 117        1.7917
 118        1.7917
 119        1.8089
 120        1.8089
 121        1.8089
 122        1.8089
 123        1.8212
 124        1.8213
 125        1.8214
 126        1.8214
 127        1.8368
 128        1.8368
 129        1.8593
 130        1.8678
 131        1.8834
 132        1.8835
 133        1.8835
 134        1.8836
 135        1.9165
 136        1.9165
 137        1.9165
 138        1.9165
 139        2.1175
 140        2.1624
 141        2.1624
 142        2.1624
 143        2.1624
 144        2.1941
 145        2.3693
 146        2.3693
 147        2.3693
 148        2.3693
 149        2.4447
 150        2.4447
 151        2.4500
 152        2.4611
 153        2.4612
 154        2.4612
 155        2.4612
 156        2.5747
 157        2.5747
 158        2.6081
 159        2.6081
 160        2.6081
 161        2.6081
 162        2.6082
 163        2.6082
 164        2.6169
 165        2.6175
 166        2.6183
 167        2.6188
 168        3.1222
 169        3.1223
 170        3.1223
 171        3.1223
 172        3.5812
 173        3.5812
 174        3.5812
 175        3.5812
 176        3.8597
 177        3.8597
 178        3.8597
 179        3.8597
 180        4.1909
 181        4.1909
 182        4.1910
 183        4.1910
 184        5.5091
 185        5.7125
 186        5.7125
 187        8.2002
 188        8.2002
 189        8.2002
 190        8.2002
 191        9.9550
 192        9.9550
 193       10.2380
 194       10.2380
 195       10.2380
 196       10.2381
 197       10.5811
 198       10.5811
 199       10.5811
 200       10.5811
 201       11.1679
 202       11.1679
 203       11.6014
 204       11.6014
 205       11.7776
 206       12.6194
 207       12.6194
 208       12.8848
 209       12.8848
 210       12.8848
 211       12.8848
 212       13.5491
 
  0.1666667E+00  0.0000000E+00  0.0000000E+00  0.1157407E-02
   1       -5.4241
   2       -3.4566
   3       -2.6061
   4       -2.6061
   5       -2.6061
   6       -2.6061
   7       -1.9265
   8       -1.1913
   9       -1.1912
  10       -1.1912
  11       -1.1912
  12       -1.1512
  13       -1.1512
  14       -1.1512
  15       -1.1512
  16       -0.9868
  17       -0.9457
  18       -0.9457
  19       -0.7913
  20       -0.7913
  21       -0.7913
  22       -0.7913
  23       -0.4828
  24       -0.4813
  25       -0.4813
  26       -0.3824
  27       -0.3824
  28       -0.3824
  29       -0.3824
  30       -0.2775
  31       -0.2775
  32       -0.1761
  33       -0.1761
  34       -0.1761
  35       -0.1761
  36        0.0245
  37        0.1448
  38        0.1448
  39        0.2256
  40        0.2257
  41        0.2257
  42        0.2257
  43        0.4040
  44        0.4041
  45        0.4041
  46        0.4042
  47        0.4056
  48        0.4056
  49        0.4056
  50        0.4056
  51        0.4091
  52        0.4429
  53        0.4430
  54        0.4430
  55        0.4430
  56        0.4653
  57        0.4654
  58        0.4654
  59        0.4657
  60        0.4974
  61        0.4974
  62        0.4974
  63        0.4974
  64        0.5385
  65        0.5385
  66        0.5385
  67        0.5386
  68        0.6861
  69        0.6861
  70        0.6862
  71        0.6862
  72        0.7798
  73        0.7798
  74        0.7798
  75        0.7798
  76        0.7897
  77        0.7897
  78        0.9300
  79        0.9300
  80        0.9300
  81        0.9300
  82        0.9537
  83        0.9706
  84        0.9707
  85        0.9707
  86        0.9707
  87        1.0019
  88        1.0019
  89        1.2760
  90        1.2760
  91        1.2760
  92        1.2760
  93        1.4233
  94        1.4319
  95        1.4320
  96        1.4320
  97        1.4320
  98        1.4859
  99        1.4859
 100        1.5155
 101        1.5379
 102        1.5380
 103        1.5380
 104        1.5382
 105        1.5870
 106        1.5870
 107        1.5870
 108        1.5870
 109        1.6855
 110        1.6855
 111        1.6855
 112        1.6856
 113        1.7652
 114        1.7652
 115        1.7654
 116        1.7654
 117        1.7701
 118        1.7701
 119        1.7702
 120        1.7702
 121        1.8209
 122        1.8209
 123        1.8209
 124        1.8209
 125        1.8411
 126        1.8751
 127        1.8805
 128        1.8806
 129        1.9001
 130        1.9001
 131        1.9449
 132        1.9449
 133        1.9449
 134        1.9450
 135        1.9847
 136        1.9847
 137        1.9847
 138        1.9847
 139        2.0800
 140        2.1584
 141        2.1584
 142        2.1584
 143        2.1584
 144        2.1876
 145        2.1876
 146        2.1876
 147        2.1876
 148        2.2319
 149        2.4211
 150        2.4211
 151        2.4417
 152        2.4417
 153        2.4417
 154        2.4417
 155        2.4424
 156        2.4561
 157        2.4561
 158        2.5784
 159        2.5784
 160        2.5784
 161        2.5784
 162        2.5803
 163        2.5803
 164        2.6170
 165        2.6175
 166        2.6182
 167        2.6188
 168        3.2691
 169        3.2691
 170        3.2691
 171        3.2692
 172        3.3369
 173        3.3369
 174        3.3369
 175        3.3369
 176        3.8495
 177        3.8495
 178        3.8495
 179        3.8495
 180        4.5730
 181        4.5730
 182        4.5730
 183        4.5730
 184        5.1310
 185        5.8888
 186        5.8888
 187        8.3771
 188        8.3771
 189        8.3771
 190        8.3771
 191        9.3799
 192        9.3799
 193        9.5787
 194        9.5787
 195        9.5787
 196        9.5787
 197       10.6696
 198       10.6696
 199       10.6696
 200       10.6696
 201       11.6241
 202       11.6241
 203       11.8033
 204       11.8033
 205       12.2835
 206       12.4543
 207       12.4543
 208       12.9553
 209       12.9553
 210       12.9554
 211       12.9602
 212       13.0789
 
  0.2500000E+00  0.0000000E+00  0.0000000E+00  0.1157407E-02
   1       -5.3157
   2       -3.8225
   3       -2.5193
   4       -2.5192
   5       -2.5192
   6       -2.5192
   7       -1.6145
   8       -1.4241
   9       -1.4241
  10       -1.4241
  11       -1.4241
  12       -1.1257
  13       -1.1257
  14       -1.1257
  15       -1.1257
  16       -0.9900
  17       -0.8951
  18       -0.8951
  19       -0.8366
  20       -0.8365
  21       -0.8365
  22       -0.8365
  23       -0.4532
  24       -0.4495
  25       -0.4495
  26       -0.3542
  27       -0.3542
  28       -0.2350
  29       -0.2350
  30       -0.2350
  31       -0.2350
  32       -0.1370
  33       -0.1369
  34       -0.1369
  35       -0.1369
  36       -0.0659
  37        0.0188
  38        0.0188
  39        0.2382
  40        0.2382
  41        0.2382
  42        0.2383
  43        0.3653
  44        0.3653
  45        0.3653
  46        0.3653
  47        0.3794
  48        0.3795
  49        0.3795
  50        0.3795
  51        0.4038
  52        0.4038
  53        0.4038
  54        0.4038
  55        0.4469
  56        0.4471
  57        0.4471
  58        0.4471
  59        0.4695
  60        0.4696
  61        0.4696
  62        0.4697
  63        0.5030
  64        0.6468
  65        0.6468
  66        0.6468
  67        0.6469
  68        0.7159
  69        0.7159
  70        0.7159
  71        0.7159
  72        0.8248
  73        0.8248
  74        0.8248
  75        0.8248
  76        0.9090
  77        0.9090
  78        0.9090
  79        0.9090
  80        0.9207
  81        0.9845
  82        0.9845
  83        0.9993
  84        0.9994
  85        0.9994
  86        0.9994
  87        1.0284
  88        1.0284
  89        1.1943
  90        1.1943
  91        1.1944
  92        1.1944
  93        1.3594
  94        1.3595
  95        1.3595
  96        1.3595
  97        1.3950
  98        1.3950
  99        1.4761
 100        1.5808
 101        1.5808
 102        1.5809
 103        1.5809
 104        1.6394
 105        1.6394
 106        1.6394
 107        1.6394
 108        1.6858
 109        1.6858
 110        1.6858
 111        1.6858
 112        1.7031
 113        1.7405
 114        1.7405
 115        1.7406
 116        1.7406
 117        1.8024
 118        1.8025
 119        1.8025
 120        1.8025
 121        1.8113
 122        1.8182
 123        1.8182
 124        1.8182
 125        1.8182
 126        1.8873
 127        1.9133
 128        1.9133
 129        1.9133
 130        1.9133
 131        1.9458
 132        1.9458
 133        2.0084
 134        2.0084
 135        2.0207
 136        2.0207
 137        2.0207
 138        2.0207
 139        2.0439
 140        2.0610
 141        2.0610
 142        2.0610
 143        2.0610
 144        2.2431
 145        2.2431
 146        2.2431
 147        2.2431
 148        2.2685
 149        2.2832
 150        2.2832
 151        2.3824
 152        2.3824
 153        2.4098
 154        2.4098
 155        2.4098
 156        2.4098
 157        2.4298
 158        2.5309
 159        2.5309
 160        2.5309
 161        2.5309
 162        2.5352
 163        2.5352
 164        2.6170
 165        2.6176
 166        2.6182
 167        2.6187
 168        3.1219
 169        3.1219
 170        3.1219
 171        3.1219
 172        3.4139
 173        3.4139
 174        3.4139
 175        3.4139
 176        3.8314
 177        3.8314
 178        3.8314
 179        3.8314
 180        4.6096
 181        5.0146
 182        5.0146
 183        5.0146
 184        5.0146
 185        6.1579
 186        6.1579
 187        8.6653
 188        8.6653
 189        8.6653
 190        8.6654
 191        8.8275
 192        8.8275
 193        8.8352
 194        8.8352
 195        8.8352
 196        8.8352
 197       10.8152
 198       10.8152
 199       10.8152
 200       10.8152
 201       11.6625
 202       11.6625
 203       12.1762
 204       12.1762
 205       12.1762
 206       12.1762
 207       12.2835
 208       12.2835
 209       12.4561
 210       12.4561
 211       12.7125
 212       12.7125
 
  0.3333333E+00  0.0000000E+00  0.0000000E+00  0.1157407E-02
   1       -5.1647
   2       -4.1614
   3       -2.3997
   4       -2.3997
   5       -2.3997
   6       -2.3997
   7       -1.6536
   8       -1.6536
   9       -1.6536
  10       -1.6536
  11       -1.3704
  12       -1.0911
  13       -1.0911
  14       -1.0910
  15       -1.0910
  16       -1.0021
  17       -0.8896
  18       -0.8896
  19       -0.8895
  20       -0.8895
  21       -0.8269
  22       -0.8268
  23       -0.4475
  24       -0.4475
  25       -0.4124
  26       -0.4048
  27       -0.4048
  28       -0.1508
  29       -0.1123
  30       -0.1123
  31       -0.1123
  32       -0.1123
  33       -0.0933
  34       -0.0933
  35       -0.0857
  36       -0.0857
  37       -0.0857
  38       -0.0857
  39        0.2552
  40        0.2553
  41        0.2553
  42        0.2553
  43        0.3118
  44        0.3124
  45        0.3124
  46        0.3124
  47        0.3133
  48        0.3133
  49        0.3133
  50        0.3139
  51        0.3530
  52        0.3531
  53        0.3531
  54        0.3531
  55        0.4519
  56        0.4522
  57        0.4522
  58        0.4522
  59        0.4700
  60        0.4700
  61        0.4700
  62        0.4704
  63        0.5924
  64        0.7320
  65        0.7320
  66        0.7320
  67        0.7320
  68        0.8115
  69        0.8115
  70        0.8115
  71        0.8115
  72        0.8692
  73        0.8692
  74        0.8692
  75        0.8692
  76        0.8754
  77        0.8811
  78        0.8811
  79        0.8812
  80        0.8812
  81        1.0387
  82        1.0388
  83        1.0388
  84        1.0388
  85        1.0654
  86        1.0654
  87        1.1142
  88        1.1142
  89        1.1142
  90        1.1142
  91        1.1910
  92        1.1910
  93        1.2847
  94        1.2847
  95        1.2847
  96        1.2847
  97        1.3115
  98        1.3115
  99        1.5375
 100        1.6349
 101        1.6350
 102        1.6350
 103        1.6350
 104        1.6623
 105        1.6624
 106        1.6624
 107        1.6624
 108        1.6869
 109        1.6869
 110        1.6869
 111        1.6870
 112        1.6913
 113        1.6913
 114        1.6913
 115        1.6913
 116        1.7192
 117        1.7192
 118        1.7192
 119        1.7192
 120        1.7709
 121        1.8078
 122        1.8080
 123        1.8081
 124        1.8081
 125        1.8108
 126        1.8108
 127        1.8109
 128        1.8110
 129        1.9039
 130        1.9942
 131        2.0097
 132        2.0240
 133        2.0241
 134        2.0779
 135        2.0779
 136        2.0997
 137        2.0997
 138        2.0997
 139        2.0998
 140        2.1149
 141        2.1149
 142        2.1431
 143        2.1431
 144        2.1431
 145        2.1431
 146        2.3033
 147        2.3295
 148        2.3296
 149        2.3344
 150        2.3344
 151        2.3344
 152        2.3345
 153        2.3661
 154        2.3661
 155        2.3661
 156        2.3661
 157        2.4124
 158        2.4685
 159        2.4685
 160        2.4685
 161        2.4685
 162        2.4742
 163        2.4742
 164        2.6170
 165        2.6177
 166        2.6181
 167        2.6187
 168        2.9295
 169        2.9295
 170        2.9295
 171        2.9295
 172        3.5366
 173        3.5366
 174        3.5366
 175        3.5366
 176        3.8037
 177        3.8037
 178        3.8037
 179        3.8037
 180        4.0261
 181        5.5180
 182        5.5180
 183        5.5180
 184        5.5180
 185        6.4976
 186        6.4976
 187        8.0911
 188        8.0911
 189        8.0911
 190        8.0911
 191        8.2995
 192        8.2995
 193        9.0562
 194        9.0562
 195        9.0562
 196        9.0562
 197       11.0150
 198       11.0150
 199       11.0150
 200       11.0150
 201       11.4315
 202       11.4315
 203       11.4315
 204       11.4315
 205       11.7175
 206       11.7175
 207       12.1285
 208       12.1285
 209       12.2909
 210       12.2909
 211       12.2909
 212       12.2909
 
  0.4166667E+00  0.0000000E+00  0.0000000E+00  0.1157407E-02
   1       -4.9721
   2       -4.4682
   3       -2.2497
   4       -2.2497
   5       -2.2497
   6       -2.2497
   7       -1.8719
   8       -1.8719
   9       -1.8719
  10       -1.8719
  11       -1.1995
  12       -1.0483
  13       -1.0483
  14       -1.0483
  15       -1.0483
  16       -1.0319
  17       -0.9450
  18       -0.9450
  19       -0.9450
  20       -0.9450
  21       -0.7437
  22       -0.7436
  23       -0.5484
  24       -0.5484
  25       -0.3609
  26       -0.3471
  27       -0.3471
  28       -0.2291
  29       -0.1915
  30       -0.1915
  31       -0.0292
  32       -0.0291
  33       -0.0291
  34       -0.0291
  35       -0.0211
  36       -0.0211
  37       -0.0211
  38       -0.0211
  39        0.2376
  40        0.2376
  41        0.2376
  42        0.2376
  43        0.2554
  44        0.2554
  45        0.2554
  46        0.2555
  47        0.2761
  48        0.2762
  49        0.2762
  50        0.2762
  51        0.3262
  52        0.3262
  53        0.3262
  54        0.3262
  55        0.4573
  56        0.4578
  57        0.4578
  58        0.4578
  59        0.4676
  60        0.4677
  61        0.4677
  62        0.4682
  63        0.6758
  64        0.7725
  65        0.7725
  66        0.7725
  67        0.7725
  68        0.8187
  69        0.8478
  70        0.8478
  71        0.8479
  72        0.8479
  73        0.9183
  74        0.9183
  75        0.9183
  76        0.9183
  77        0.9867
  78        0.9868
  79        0.9868
  80        0.9868
  81        1.0404
  82        1.0404
  83        1.0404
  84        1.0404
  85        1.0882
  86        1.0883
  87        1.0883
  88        1.0883
  89        1.1126
  90        1.1126
  91        1.2128
  92        1.2128
  93        1.2128
  94        1.2128
  95        1.2361
  96        1.2361
  97        1.4075
  98        1.4075
  99        1.4192
 100        1.4192
 101        1.4192
 102        1.4192
 103        1.6015
 104        1.6897
 105        1.6897
 106        1.6897
 107        1.6897
 108        1.6919
 109        1.6919
 110        1.6919
 111        1.6919
 112        1.7045
 113        1.7045
 114        1.7045
 115        1.7045
 116        1.7211
 117        1.7364
 118        1.7364
 119        1.7364
 120        1.7364
 121        1.7858
 122        1.7858
 123        1.7858
 124        1.7858
 125        1.7959
 126        1.7959
 127        1.7959
 128        1.7960
 129        1.8568
 130        1.8568
 131        1.9249
 132        1.9782
 133        2.1073
 134        2.1073
 135        2.1765
 136        2.1765
 137        2.1765
 138        2.1765
 139        2.2171
 140        2.2171
 141        2.2283
 142        2.2283
 143        2.2283
 144        2.2283
 145        2.2643
 146        2.2643
 147        2.3117
 148        2.3117
 149        2.3117
 150        2.3117
 151        2.3357
 152        2.3907
 153        2.3918
 154        2.3947
 155        2.3947
 156        2.3948
 157        2.3948
 158        2.3993
 159        2.3993
 160        2.4552
 161        2.4552
 162        2.4552
 163        2.4552
 164        2.6170
 165        2.6178
 166        2.6180
 167        2.6187
 168        2.7553
 169        2.7553
 170        2.7553
 171        2.7553
 172        3.4365
 173        3.6341
 174        3.6341
 175        3.6341
 176        3.6342
 177        3.7639
 178        3.7639
 179        3.7639
 180        3.7639
 181        6.0821
 182        6.0821
 183        6.0821
 184        6.0821
 185        6.8912
 186        6.8912
 187        7.3759
 188        7.3759
 189        7.3759
 190        7.3759
 191        7.7983
 192        7.7983
 193        9.5390
 194        9.5390
 195        9.5390
 196        9.5390
 197       10.7368
 198       10.7368
 199       10.7369
 200       10.7369
 201       11.2660
 202       11.2660
 203       11.2660
 204       11.2660
 205       11.7903
 206       11.7903
 207       11.9073
 208       11.9073
 209       11.9073
 210       11.9073
 211       11.9946
 212       11.9946
 
  0.5000000E+00  0.0000000E+00  0.0000000E+00  0.5787037E-03
   1       -4.7410
   2       -4.7377
   3       -2.0760
   4       -2.0733
   5       -2.0733
   6       -2.0731
   7       -2.0717
   8       -2.0715
   9       -2.0715
  10       -2.0688
  11       -1.0930
  12       -1.0916
  13       -1.0005
  14       -1.0005
  15       -0.9995
  16       -0.9991
  17       -0.9986
  18       -0.9983
  19       -0.9972
  20       -0.9972
  21       -0.6510
  22       -0.6499
  23       -0.6484
  24       -0.6474
  25       -0.3007
  26       -0.2982
  27       -0.2772
  28       -0.2772
  29       -0.2749
  30       -0.2749
  31        0.0083
  32        0.0086
  33        0.0086
  34        0.0089
  35        0.0097
  36        0.0099
  37        0.0099
  38        0.0102
  39        0.2135
  40        0.2141
  41        0.2142
  42        0.2142
  43        0.2145
  44        0.2145
  45        0.2146
  46        0.2153
  47        0.2984
  48        0.2992
  49        0.2992
  50        0.2998
  51        0.3005
  52        0.3011
  53        0.3011
  54        0.3018
  55        0.4608
  56        0.4626
  57        0.4626
  58        0.4630
  59        0.4636
  60        0.4639
  61        0.4639
  62        0.4657
  63        0.7515
  64        0.7520
  65        0.8101
  66        0.8104
  67        0.8104
  68        0.8110
  69        0.8110
  70        0.8116
  71        0.8116
  72        0.8119
  73        0.9740
  74        0.9740
  75        0.9741
  76        0.9747
  77        0.9753
  78        0.9758
  79        0.9759
  80        0.9759
  81        1.1449
  82        1.1453
  83        1.1453
  84        1.1464
  85        1.1470
  86        1.1481
  87        1.1481
  88        1.1485
  89        1.1687
  90        1.1687
  91        1.1707
  92        1.1707
  93        1.1908
  94        1.1916
  95        1.1916
  96        1.1916
  97        1.1921
  98        1.1922
  99        1.1922
 100        1.1930
 101        1.6303
 102        1.6303
 103        1.6314
 104        1.6314
 105        1.6633
 106        1.6643
 107        1.6947
 108        1.6947
 109        1.6948
 110        1.6951
 111        1.6952
 112        1.6955
 113        1.6956
 114        1.6956
 115        1.7432
 116        1.7440
 117        1.7440
 118        1.7440
 119        1.7449
 120        1.7450
 121        1.7450
 122        1.7457
 123        1.7705
 124        1.7708
 125        1.7711
 126        1.7712
 127        1.7718
 128        1.7718
 129        1.7722
 130        1.7726
 131        1.9489
 132        1.9507
 133        2.1889
 134        2.1889
 135        2.1891
 136        2.1891
 137        2.2472
 138        2.2474
 139        2.2475
 140        2.2475
 141        2.2483
 142        2.2483
 143        2.2484
 144        2.2487
 145        2.3119
 146        2.3119
 147        2.3127
 148        2.3127
 149        2.3131
 150        2.3131
 151        2.3131
 152        2.3131
 153        2.3137
 154        2.3137
 155        2.3146
 156        2.3146
 157        2.3649
 158        2.3650
 159        2.5960
 160        2.5967
 161        2.5967
 162        2.5968
 163        2.5970
 164        2.5972
 165        2.5972
 166        2.5979
 167        2.6170
 168        2.6179
 169        2.6179
 170        2.6187
 171        2.8799
 172        2.8823
 173        3.7072
 174        3.7076
 175        3.7081
 176        3.7081
 177        3.7091
 178        3.7091
 179        3.7097
 180        3.7101
 181        6.7002
 182        6.7012
 183        6.7012
 184        6.7030
 185        6.7038
 186        6.7056
 187        6.7056
 188        6.7066
 189        7.3255
 190        7.3255
 191        7.3289
 192        7.3289
 193       10.1001
 194       10.1007
 195       10.1007
 196       10.1023
 197       10.1031
 198       10.1047
 199       10.1047
 200       10.1053
 201       11.5623
 202       11.5623
 203       11.5642
 204       11.5644
 205       11.5648
 206       11.5650
 207       11.5669
 208       11.5669
 209       11.8820
 210       11.8822
 211       11.8823
 212       11.8825
 
  0.0000000E+00  0.8333333E-01  0.0000000E+00  0.2314815E-02
   1       -5.4895
   2       -3.0710
   3       -2.6613
   4       -2.6588
   5       -2.6588
   6       -2.6564
   7       -2.2882
   8       -1.1669
   9       -1.1668
  10       -1.1668
  11       -1.1668
  12       -0.9870
  13       -0.9769
  14       -0.9768
  15       -0.9655
  16       -0.9635
  17       -0.9635
  18       -0.9616
  19       -0.7615
  20       -0.7604
  21       -0.7600
  22       -0.7589
  23       -0.5558
  24       -0.5541
  25       -0.5541
  26       -0.5524
  27       -0.5007
  28       -0.5004
  29       -0.5004
  30       -0.2266
  31       -0.2265
  32       -0.2018
  33       -0.2004
  34       -0.2003
  35       -0.1988
  36        0.1187
  37        0.2164
  38        0.2179
  39        0.2180
  40        0.2195
  41        0.2851
  42        0.2851
  43        0.3127
  44        0.4242
  45        0.4257
  46        0.4259
  47        0.4271
  48        0.4297
  49        0.4309
  50        0.4310
  51        0.4322
  52        0.4386
  53        0.4404
  54        0.4404
  55        0.4422
  56        0.4553
  57        0.4568
  58        0.4568