       N       E                     dE             d eps       ncg     rms          rms(c)
DAV:   1     0.406779270123E+04    0.40678E+04   -0.18700E+05 83136   0.335E+03
DAV:   2     0.489912215231E+03   -0.35779E+04   -0.34447E+04 83104   0.730E+02
DAV:   3    -0.104993575511E+03   -0.59491E+03   -0.54915E+03 83104   0.275E+02
DAV:   4    -0.146147331568E+03   -0.41154E+02   -0.39771E+02 86380   0.839E+01
DAV:   5    -0.146644749202E+03   -0.49742E+00   -0.49573E+00 88308   0.959E+00    0.398E+01
DAV:   6    -0.127154615556E+03    0.19490E+02   -0.26231E+02 89308   0.940E+01    0.159E+01
DAV:   7    -0.118726484320E+03    0.84281E+01   -0.42821E+01 92368   0.385E+01    0.326E+00
DAV:   8    -0.118411073137E+03    0.31541E+00   -0.54894E-01 85712   0.259E+00    0.197E+00
DAV:   9    -0.118340833277E+03    0.70240E-01   -0.76960E-02 94776   0.228E+00    0.730E-01
DAV:  10    -0.118332974738E+03    0.78585E-02   -0.56732E-02 96000   0.159E+00    0.106E-01
DAV:  11    -0.118333559227E+03   -0.58449E-03   -0.56708E-03 85876   0.445E-01    0.828E-02
DAV:  12    -0.118333442440E+03    0.11679E-03   -0.44771E-04 90372   0.247E-01    0.435E-02
DAV:  13    -0.118333420403E+03    0.22037E-04   -0.90999E-05 92144   0.875E-02    0.243E-02
DAV:  14    -0.118333416653E+03    0.37501E-05   -0.51708E-05 91744   0.413E-02    0.115E-02
DAV:  15    -0.118333414935E+03    0.17181E-05   -0.83939E-06 86272   0.247E-02    0.921E-03
DAV:  16    -0.118333409172E+03    0.57630E-05   -0.59483E-06 93944   0.148E-02    0.251E-03
DAV:  17    -0.118333415015E+03   -0.58435E-05   -0.12528E-06 91788   0.123E-02    0.185E-03
DAV:  18    -0.118333415918E+03   -0.90239E-06   -0.27691E-07 89328   0.685E-03    0.128E-03
DAV:  19    -0.118333416015E+03   -0.97476E-07   -0.39775E-07 87040   0.438E-03    0.706E-04
DAV:  20    -0.118333416007E+03    0.77926E-08   -0.57545E-08 77392   0.223E-03
   1 F= -.11833342E+03 E0= -.11833311E+03  d E =-.610091E-03
