 vasp.4.6.28 25Jul05 complex 
 executed on             LinuxIFC date 2017.01.11  01:13:22
 running on    4 nodes
 distr:  one band on    1 nodes,    4 groups


--------------------------------------------------------------------------------------------------------


 INCAR:
 POTCAR:   PAW_PBE Cu 05Jan2001                   
 POTCAR:   PAW_PBE Cu 05Jan2001                   
   VRHFIN =Cu: d10 p1                                                           
   LEXCH  = PE                                                                  
   EATOM  =  1390.9800 eV,  102.2341 Ry                                         
                                                                                
   TITEL  = PAW_PBE Cu 05Jan2001                                                
   LULTRA =        F    use ultrasoft PP ?                                      
   IUNSCR =        1    unscreen: 0-lin 1-nonlin 2-no                           
   RPACOR =    2.000    partial core radius                                     
   POMASS =   63.546; ZVAL   =   11.000    mass and valenz                      
   RCORE  =    2.300    outmost cutoff radius                                   
   RWIGS  =    2.480; RWIGS  =    1.312    wigner-seitz radius (au A)           
   ENMAX  =  273.214; ENMIN  =  204.910 eV                                      
   RCLOC  =    1.712    cutoff for local pot                                    
   LCOR   =        T    correct aug charges                                     
   LPAW   =        T    paw PP                                                  
   EAUG   =  516.456                                                            
   DEXC   =    -.008                                                            
   RMAX   =    2.789    core radius for proj-oper                               
   RAUG   =    1.300    factor for augmentation sphere                          
   RDEP   =    2.302    radius for radial grids                                 
   QCUT   =   -4.481; QGAM   =    8.962    optimization parameters              
                                                                                
   Description                                                                  
     l     E      TYP  RCUT    TYP  RCUT                                        
     2   .000     23  2.300                                                     
     2   .000     23  2.300                                                     
     0   .000     23  2.300                                                     
     0   .000     23  2.300                                                     
     1  -.200     23  2.300                                                     
     1   .000     23  2.300                                                     
     3   .000      7   .000                                                     
  local pseudopotential read in
  partial core-charges read in
  atomic valenz-charges read in
  non local Contribution for L=           2  read in
    real space projection operators read in
  non local Contribution for L=           2  read in
    real space projection operators read in
  non local Contribution for L=           0  read in
    real space projection operators read in
  non local Contribution for L=           0  read in
    real space projection operators read in
  non local Contribution for L=           1  read in
    real space projection operators read in
  non local Contribution for L=           1  read in
    real space projection operators read in
    PAW grid and wavefunctions read in
 
   number of l-projection  operators is LMAX  =           6
   number of lm-projection operators is LMMAX =          18
 

 ----------------------------------------------------------------------------- 
|                                                                             |
|  ADVICE TO THIS USER RUNNING 'VASP/VAMP'   (HEAR YOUR MASTER'S VOICE ...):  |
|                                                                             |
|      You have a (more or less) 'large supercell' and for larger cells       |
|      it might be more efficient to use real space projection operators      |
|      So try LREAL= Auto  in the INCAR   file.                               |
|      Mind: If you want to do an extremely accurate calculations keep the    |
|      reciprocal projection scheme          (i.e. LREAL=.FALSE.)             |
|                                                                             |
 ----------------------------------------------------------------------------- 

 PAW_PBE Cu 05Jan2001                   :
 energy of atom  1       EATOM=-1390.9800
 kinetic energy error for atom=    0.0006 (will be added to EATOM!!)
 
 EXHCAR: internal setup
 exchange correlation table for  LEXCH =        8
   RHO(1)=    0.500       N(1)  =     2000
   RHO(2)=  100.500       N(2)  =     4000
 
 POSCAR: Cu                                      
  positions in direct lattice
  No initial velocities read in
 


--------------------------------------------------------------------------------------------------------


 ion  position               nearest neighbor table
   1  0.001  0.000  0.000-   9 2.51  11 2.51  17 2.51  21 2.51  25 2.52  27 2.52  29 2.52  31 2.52
                            10 2.53  18 2.53  12 2.53  22 2.53
   2  0.500  0.000  0.000-   9 2.52  10 2.52  11 2.52  12 2.52  17 2.52  18 2.52  21 2.52  22 2.52
                            26 2.52  28 2.52  30 2.52  32 2.52
   3  0.000  0.500  0.000-   9 2.52  10 2.52  11 2.52  12 2.52  19 2.52  20 2.52  23 2.52  24 2.52
                            25 2.52  27 2.52  29 2.52  31 2.52
   4  0.500  0.500  0.000-   9 2.52  10 2.52  11 2.52  12 2.52  19 2.52  20 2.52  23 2.52  24 2.52
                            26 2.52  28 2.52  30 2.52  32 2.52
   5  0.000  0.000  0.500-  13 2.52  14 2.52  15 2.52  16 2.52  17 2.52  18 2.52  21 2.52  22 2.52
                            25 2.52  27 2.52  29 2.52  31 2.52
   6  0.500  0.000  0.500-  13 2.52  14 2.52  15 2.52  16 2.52  17 2.52  18 2.52  21 2.52  22 2.52
                            26 2.52  28 2.52  30 2.52  32 2.52
   7  0.000  0.500  0.500-  13 2.52  14 2.52  15 2.52  16 2.52  19 2.52  20 2.52  23 2.52  24 2.52
                            25 2.52  27 2.52  29 2.52  31 2.52
   8  0.500  0.500  0.500-  13 2.52  14 2.52  15 2.52  16 2.52  19 2.52  20 2.52  23 2.52  24 2.52
                            26 2.52  28 2.52  30 2.52  32 2.52
   9  0.250  0.250  0.000-   1 2.51   2 2.52   3 2.52   4 2.52  17 2.52  19 2.52  21 2.52  23 2.52
                            25 2.52  26 2.52  29 2.52  30 2.52
  10  0.750  0.250  0.000-   2 2.52   3 2.52   4 2.52  18 2.52  20 2.52  22 2.52  24 2.52  25 2.52
                            26 2.52  29 2.52  30 2.52   1 2.53
  11  0.250  0.750  0.000-   1 2.51   2 2.52   3 2.52   4 2.52  17 2.52  19 2.52  21 2.52  23 2.52
                            27 2.52  28 2.52  31 2.52  32 2.52
  12  0.750  0.750  0.000-   2 2.52   3 2.52   4 2.52  18 2.52  20 2.52  22 2.52  24 2.52  27 2.52
                            28 2.52  31 2.52  32 2.52   1 2.53
  13  0.250  0.250  0.500-   5 2.52   6 2.52   7 2.52   8 2.52  17 2.52  19 2.52  21 2.52  23 2.52
                            25 2.52  26 2.52  29 2.52  30 2.52
  14  0.750  0.250  0.500-   5 2.52   6 2.52   7 2.52   8 2.52  18 2.52  20 2.52  22 2.52  24 2.52
                            25 2.52  26 2.52  29 2.52  30 2.52
  15  0.250  0.750  0.500-   5 2.52   6 2.52   7 2.52   8 2.52  17 2.52  19 2.52  21 2.52  23 2.52
                            27 2.52  28 2.52  31 2.52  32 2.52
  16  0.750  0.750  0.500-   5 2.52   6 2.52   7 2.52   8 2.52  18 2.52  20 2.52  22 2.52  24 2.52
                            27 2.52  28 2.52  31 2.52  32 2.52
  17  0.250  0.000  0.250-   1 2.51   2 2.52   5 2.52   6 2.52   9 2.52  11 2.52  13 2.52  15 2.52
                            25 2.52  26 2.52  27 2.52  28 2.52
  18  0.750  0.000  0.250-   2 2.52   5 2.52   6 2.52  10 2.52  12 2.52  14 2.52  16 2.52  25 2.52
                            26 2.52  27 2.52  28 2.52   1 2.53
  19  0.250  0.500  0.250-   3 2.52   4 2.52   7 2.52   8 2.52   9 2.52  11 2.52  13 2.52  15 2.52
                            25 2.52  26 2.52  27 2.52  28 2.52
  20  0.750  0.500  0.250-   3 2.52   4 2.52   7 2.52   8 2.52  10 2.52  12 2.52  14 2.52  16 2.52
                            25 2.52  26 2.52  27 2.52  28 2.52
  21  0.250  0.000  0.750-   1 2.51   2 2.52   5 2.52   6 2.52   9 2.52  11 2.52  13 2.52  15 2.52
                            29 2.52  30 2.52  31 2.52  32 2.52
  22  0.750  0.000  0.750-   2 2.52   5 2.52   6 2.52  10 2.52  12 2.52  14 2.52  16 2.52  29 2.52
                            30 2.52  31 2.52  32 2.52   1 2.53
  23  0.250  0.500  0.750-   3 2.52   4 2.52   7 2.52   8 2.52   9 2.52  11 2.52  13 2.52  15 2.52
                            29 2.52  30 2.52  31 2.52  32 2.52
  24  0.750  0.500  0.750-   3 2.52   4 2.52   7 2.52   8 2.52  10 2.52  12 2.52  14 2.52  16 2.52
                            29 2.52  30 2.52  31 2.52  32 2.52
  25  0.000  0.250  0.250-   3 2.52   5 2.52   7 2.52   9 2.52  10 2.52  13 2.52  14 2.52  17 2.52
                            18 2.52  19 2.52  20 2.52   1 2.52
  26  0.500  0.250  0.250-   2 2.52   4 2.52   6 2.52   8 2.52   9 2.52  10 2.52  13 2.52  14 2.52
                            17 2.52  18 2.52  19 2.52  20 2.52
  27  0.000  0.750  0.250-   3 2.52   5 2.52   7 2.52  11 2.52  12 2.52  15 2.52  16 2.52  17 2.52
                            18 2.52  19 2.52  20 2.52   1 2.52
  28  0.500  0.750  0.250-   2 2.52   4 2.52   6 2.52   8 2.52  11 2.52  12 2.52  15 2.52  16 2.52
                            17 2.52  18 2.52  19 2.52  20 2.52
  29  0.000  0.250  0.750-   3 2.52   5 2.52   7 2.52   9 2.52  10 2.52  13 2.52  14 2.52  21 2.52
                            22 2.52  23 2.52  24 2.52   1 2.52
  30  0.500  0.250  0.750-   2 2.52   4 2.52   6 2.52   8 2.52   9 2.52  10 2.52  13 2.52  14 2.52
                            21 2.52  22 2.52  23 2.52  24 2.52
  31  0.000  0.750  0.750-   3 2.52   5 2.52   7 2.52  11 2.52  12 2.52  15 2.52  16 2.52  21 2.52
                            22 2.52  23 2.52  24 2.52   1 2.52
  32  0.500  0.750  0.750-   2 2.52   4 2.52   6 2.52   8 2.52  11 2.52  12 2.52  15 2.52  16 2.52
                            21 2.52  22 2.52  23 2.52  24 2.52
 
  LATTYP: Found a simple cubic cell.
 ALAT       =     7.1273749910
  
  Lattice vectors:
  
 A1 = (   7.1273749910,   0.0000000000,   0.0000000000)
 A2 = (   0.0000000000,   7.1273749910,   0.0000000000)
 A3 = (   0.0000000000,   0.0000000000,   7.1273749910)
 Subroutine PRICEL returns:
 Original cell was already a primitive cell.
 

Analysis of symmetry for initial positions (statically):

 Routine SETGRP: Setting up the symmetry group for a 
 simple cubic supercell.


 Subroutine GETGRP returns: Found  8 space group operations
 (whereof  8 operations were pure point group operations)
 out of a pool of 48 trial point group operations.


The static configuration has the point symmetry C_4v.

Analysis of symmetry for dynamics (positions and initial velocities):

 Subroutine DYNSYM returns: Found  8 space group operations
 (whereof  8 operations were pure point group operations)
 out of a pool of  8 trial space group operations
 (whereof  8 operations were pure point group operations)
 and found also     1 'primitive' translations


The dynamic configuration has the point symmetry C_4v.
 
 
 KPOINTS: Automatic mesh                          

Automatic generation of k-mesh.
 
 Subroutine IBZKPT returns following result:
 ===========================================
 
 Found    196 irreducible k-points:
 
 Following reciprocal coordinates:
            Coordinates               Weight
  0.000000  0.000000  0.000000      1.000000
  0.083333  0.000000  0.000000      2.000000
  0.166667  0.000000  0.000000      2.000000
  0.250000  0.000000  0.000000      2.000000
  0.333333  0.000000  0.000000      2.000000
  0.416667  0.000000  0.000000      2.000000
  0.500000  0.000000  0.000000      1.000000
  0.000000  0.083333  0.000000      4.000000
  0.083333  0.083333  0.000000      8.000000
  0.166667  0.083333  0.000000      8.000000
  0.250000  0.083333  0.000000      8.000000
  0.333333  0.083333  0.000000      8.000000
  0.416667  0.083333  0.000000      8.000000
  0.500000  0.083333  0.000000      4.000000
  0.000000  0.166667  0.000000      4.000000
  0.083333  0.166667  0.000000      8.000000
  0.166667  0.166667  0.000000      8.000000
  0.250000  0.166667  0.000000      8.000000
  0.333333  0.166667  0.000000      8.000000
  0.416667  0.166667  0.000000      8.000000
  0.500000  0.166667  0.000000      4.000000
  0.000000  0.250000  0.000000      4.000000
  0.083333  0.250000  0.000000      8.000000
  0.166667  0.250000  0.000000      8.000000
  0.250000  0.250000  0.000000      8.000000
  0.333333  0.250000  0.000000      8.000000
  0.416667  0.250000  0.000000      8.000000
  0.500000  0.250000  0.000000      4.000000
  0.000000  0.333333  0.000000      4.000000
  0.083333  0.333333  0.000000      8.000000
  0.166667  0.333333  0.000000      8.000000
  0.250000  0.333333  0.000000      8.000000
  0.333333  0.333333  0.000000      8.000000
  0.416667  0.333333  0.000000      8.000000
  0.500000  0.333333  0.000000      4.000000
  0.000000  0.416667  0.000000      4.000000
  0.083333  0.416667  0.000000      8.000000
  0.166667  0.416667  0.000000      8.000000
  0.250000  0.416667  0.000000      8.000000
  0.333333  0.416667  0.000000      8.000000
  0.416667  0.416667  0.000000      8.000000
  0.500000  0.416667  0.000000      4.000000
  0.000000  0.500000  0.000000      2.000000
  0.083333  0.500000  0.000000      4.000000
  0.166667  0.500000  0.000000      4.000000
  0.250000  0.500000  0.000000      4.000000
  0.333333  0.500000  0.000000      4.000000
  0.416667  0.500000  0.000000      4.000000
  0.500000  0.500000  0.000000      2.000000
  0.000000  0.083333  0.083333      4.000000
  0.083333  0.083333  0.083333      8.000000
  0.166667  0.083333  0.083333      8.000000
  0.250000  0.083333  0.083333      8.000000
  0.333333  0.083333  0.083333      8.000000
  0.416667  0.083333  0.083333      8.000000
  0.500000  0.083333  0.083333      4.000000
  0.000000  0.166667  0.083333      8.000000
  0.083333  0.166667  0.083333     16.000000
  0.166667  0.166667  0.083333     16.000000
  0.250000  0.166667  0.083333     16.000000
  0.333333  0.166667  0.083333     16.000000
  0.416667  0.166667  0.083333     16.000000
  0.500000  0.166667  0.083333      8.000000
  0.000000  0.250000  0.083333      8.000000
  0.083333  0.250000  0.083333     16.000000
  0.166667  0.250000  0.083333     16.000000
  0.250000  0.250000  0.083333     16.000000
  0.333333  0.250000  0.083333     16.000000
  0.416667  0.250000  0.083333     16.000000
  0.500000  0.250000  0.083333      8.000000
  0.000000  0.333333  0.083333      8.000000
  0.083333  0.333333  0.083333     16.000000
  0.166667  0.333333  0.083333     16.000000
  0.250000  0.333333  0.083333     16.000000
  0.333333  0.333333  0.083333     16.000000
  0.416667  0.333333  0.083333     16.000000
  0.500000  0.333333  0.083333      8.000000
  0.000000  0.416667  0.083333      8.000000
  0.083333  0.416667  0.083333     16.000000
  0.166667  0.416667  0.083333     16.000000
  0.250000  0.416667  0.083333     16.000000
  0.333333  0.416667  0.083333     16.000000
  0.416667  0.416667  0.083333     16.000000
  0.500000  0.416667  0.083333      8.000000
  0.000000  0.500000  0.083333      4.000000
  0.083333  0.500000  0.083333      8.000000
  0.166667  0.500000  0.083333      8.000000
  0.250000  0.500000  0.083333      8.000000
  0.333333  0.500000  0.083333      8.000000
  0.416667  0.500000  0.083333      8.000000
  0.500000  0.500000  0.083333      4.000000
  0.000000  0.166667  0.166667      4.000000
  0.083333  0.166667  0.166667      8.000000
  0.166667  0.166667  0.166667      8.000000
  0.250000  0.166667  0.166667      8.000000
  0.333333  0.166667  0.166667      8.000000
  0.416667  0.166667  0.166667      8.000000
  0.500000  0.166667  0.166667      4.000000
  0.000000  0.250000  0.166667      8.000000
  0.083333  0.250000  0.166667     16.000000
  0.166667  0.250000  0.166667     16.000000
  0.250000  0.250000  0.166667     16.000000
  0.333333  0.250000  0.166667     16.000000
  0.416667  0.250000  0.166667     16.000000
  0.500000  0.250000  0.166667      8.000000
  0.000000  0.333333  0.166667      8.000000
  0.083333  0.333333  0.166667     16.000000
  0.166667  0.333333  0.166667     16.000000
  0.250000  0.333333  0.166667     16.000000
  0.333333  0.333333  0.166667     16.000000
  0.416667  0.333333  0.166667     16.000000
  0.500000  0.333333  0.166667      8.000000
  0.000000  0.416667  0.166667      8.000000
  0.083333  0.416667  0.166667     16.000000
  0.166667  0.416667  0.166667     16.000000
  0.250000  0.416667  0.166667     16.000000
  0.333333  0.416667  0.166667     16.000000
  0.416667  0.416667  0.166667     16.000000
  0.500000  0.416667  0.166667      8.000000
  0.000000  0.500000  0.166667      4.000000
  0.083333  0.500000  0.166667      8.000000
  0.166667  0.500000  0.166667      8.000000
  0.250000  0.500000  0.166667      8.000000
  0.333333  0.500000  0.166667      8.000000
  0.416667  0.500000  0.166667      8.000000
  0.500000  0.500000  0.166667      4.000000
  0.000000  0.250000  0.250000      4.000000
  0.083333  0.250000  0.250000      8.000000
  0.166667  0.250000  0.250000      8.000000
  0.250000  0.250000  0.250000      8.000000
  0.333333  0.250000  0.250000      8.000000
  0.416667  0.250000  0.250000      8.000000
  0.500000  0.250000  0.250000      4.000000
  0.000000  0.333333  0.250000      8.000000
  0.083333  0.333333  0.250000     16.000000
  0.166667  0.333333  0.250000     16.000000
  0.250000  0.333333  0.250000     16.000000
  0.333333  0.333333  0.250000     16.000000
  0.416667  0.333333  0.250000     16.000000
  0.500000  0.333333  0.250000      8.000000
  0.000000  0.416667  0.250000      8.000000
  0.083333  0.416667  0.250000     16.000000
  0.166667  0.416667  0.250000     16.000000
  0.250000  0.416667  0.250000     16.000000
  0.333333  0.416667  0.250000     16.000000
  0.416667  0.416667  0.250000     16.000000
  0.500000  0.416667  0.250000      8.000000
  0.000000  0.500000  0.250000      4.000000
  0.083333  0.500000  0.250000      8.000000
  0.166667  0.500000  0.250000      8.000000
  0.250000  0.500000  0.250000      8.000000
  0.333333  0.500000  0.250000      8.000000
  0.416667  0.500000  0.250000      8.000000
  0.500000  0.500000  0.250000      4.000000
  0.000000  0.333333  0.333333      4.000000
  0.083333  0.333333  0.333333      8.000000
  0.166667  0.333333  0.333333      8.000000
  0.250000  0.333333  0.333333      8.000000
  0.333333  0.333333  0.333333      8.000000
  0.416667  0.333333  0.333333      8.000000
  0.500000  0.333333  0.333333      4.000000
  0.000000  0.416667  0.333333      8.000000
  0.083333  0.416667  0.333333     16.000000
  0.166667  0.416667  0.333333     16.000000
  0.250000  0.416667  0.333333     16.000000
  0.333333  0.416667  0.333333     16.000000
  0.416667  0.416667  0.333333     16.000000
  0.500000  0.416667  0.333333      8.000000
  0.000000  0.500000  0.333333      4.000000
  0.083333  0.500000  0.333333      8.000000
  0.166667  0.500000  0.333333      8.000000
  0.250000  0.500000  0.333333      8.000000
  0.333333  0.500000  0.333333      8.000000
  0.416667  0.500000  0.333333      8.000000
  0.500000  0.500000  0.333333      4.000000
  0.000000  0.416667  0.416667      4.000000
  0.083333  0.416667  0.416667      8.000000
  0.166667  0.416667  0.416667      8.000000
  0.250000  0.416667  0.416667      8.000000
  0.333333  0.416667  0.416667      8.000000
  0.416667  0.416667  0.416667      8.000000
  0.500000  0.416667  0.416667      4.000000
  0.000000  0.500000  0.416667      4.000000
  0.083333  0.500000  0.416667      8.000000
  0.166667  0.500000  0.416667      8.000000
  0.250000  0.500000  0.416667      8.000000
  0.333333  0.500000  0.416667      8.000000
  0.416667  0.500000  0.416667      8.000000
  0.500000  0.500000  0.416667      4.000000
  0.000000  0.500000  0.500000      1.000000
  0.083333  0.500000  0.500000      2.000000
  0.166667  0.500000  0.500000      2.000000
  0.250000  0.500000  0.500000      2.000000
  0.333333  0.500000  0.500000      2.000000
  0.416667  0.500000  0.500000      2.000000
  0.500000  0.500000  0.500000      1.000000
 
 Following cartesian coordinates:
            Coordinates               Weight
  0.000000  0.000000  0.000000      1.000000
  0.011692  0.000000  0.000000      2.000000
  0.023384  0.000000  0.000000      2.000000
  0.035076  0.000000  0.000000      2.000000
  0.046768  0.000000  0.000000      2.000000
  0.058460  0.000000  0.000000      2.000000
  0.070152  0.000000  0.000000      1.000000
  0.000000  0.011692  0.000000      4.000000
  0.011692  0.011692  0.000000      8.000000
  0.023384  0.011692  0.000000      8.000000
  0.035076  0.011692  0.000000      8.000000
  0.046768  0.011692  0.000000      8.000000
  0.058460  0.011692  0.000000      8.000000
  0.070152  0.011692  0.000000      4.000000
  0.000000  0.023384  0.000000      4.000000
  0.011692  0.023384  0.000000      8.000000
  0.023384  0.023384  0.000000      8.000000
  0.035076  0.023384  0.000000      8.000000
  0.046768  0.023384  0.000000      8.000000
  0.058460  0.023384  0.000000      8.000000
  0.070152  0.023384  0.000000      4.000000
  0.000000  0.035076  0.000000      4.000000
  0.011692  0.035076  0.000000      8.000000
  0.023384  0.035076  0.000000      8.000000
  0.035076  0.035076  0.000000      8.000000
  0.046768  0.035076  0.000000      8.000000
  0.058460  0.035076  0.000000      8.000000
  0.070152  0.035076  0.000000      4.000000
  0.000000  0.046768  0.000000      4.000000
  0.011692  0.046768  0.000000      8.000000
  0.023384  0.046768  0.000000      8.000000
  0.035076  0.046768  0.000000      8.000000
  0.046768  0.046768  0.000000      8.000000
  0.058460  0.046768  0.000000      8.000000
  0.070152  0.046768  0.000000      4.000000
  0.000000  0.058460  0.000000      4.000000
  0.011692  0.058460  0.000000      8.000000
  0.023384  0.058460  0.000000      8.000000
  0.035076  0.058460  0.000000      8.000000
  0.046768  0.058460  0.000000      8.000000
  0.058460  0.058460  0.000000      8.000000
  0.070152  0.058460  0.000000      4.000000
  0.000000  0.070152  0.000000      2.000000
  0.011692  0.070152  0.000000      4.000000
  0.023384  0.070152  0.000000      4.000000
  0.035076  0.070152  0.000000      4.000000
  0.046768  0.070152  0.000000      4.000000
  0.058460  0.070152  0.000000      4.000000
  0.070152  0.070152  0.000000      2.000000
  0.000000  0.011692  0.011692      4.000000
  0.011692  0.011692  0.011692      8.000000
  0.023384  0.011692  0.011692      8.000000
  0.035076  0.011692  0.011692      8.000000
  0.046768  0.011692  0.011692      8.000000
  0.058460  0.011692  0.011692      8.000000
  0.070152  0.011692  0.011692      4.000000
  0.000000  0.023384  0.011692      8.000000
  0.011692  0.023384  0.011692     16.000000
  0.023384  0.023384  0.011692     16.000000
  0.035076  0.023384  0.011692     16.000000
  0.046768  0.023384  0.011692     16.000000
  0.058460  0.023384  0.011692     16.000000
  0.070152  0.023384  0.011692      8.000000
  0.000000  0.035076  0.011692      8.000000
  0.011692  0.035076  0.011692     16.000000
  0.023384  0.035076  0.011692     16.000000
  0.035076  0.035076  0.011692     16.000000
  0.046768  0.035076  0.011692     16.000000
  0.058460  0.035076  0.011692     16.000000
  0.070152  0.035076  0.011692      8.000000
  0.000000  0.046768  0.011692      8.000000
  0.011692  0.046768  0.011692     16.000000
  0.023384  0.046768  0.011692     16.000000
  0.035076  0.046768  0.011692     16.000000
  0.046768  0.046768  0.011692     16.000000
  0.058460  0.046768  0.011692     16.000000
  0.070152  0.046768  0.011692      8.000000
  0.000000  0.058460  0.011692      8.000000
  0.011692  0.058460  0.011692     16.000000
  0.023384  0.058460  0.011692     16.000000
  0.035076  0.058460  0.011692     16.000000
  0.046768  0.058460  0.011692     16.000000
  0.058460  0.058460  0.011692     16.000000
  0.070152  0.058460  0.011692      8.000000
  0.000000  0.070152  0.011692      4.000000
  0.011692  0.070152  0.011692      8.000000
  0.023384  0.070152  0.011692      8.000000
  0.035076  0.070152  0.011692      8.000000
  0.046768  0.070152  0.011692      8.000000
  0.058460  0.070152  0.011692      8.000000
  0.070152  0.070152  0.011692      4.000000
  0.000000  0.023384  0.023384      4.000000
  0.011692  0.023384  0.023384      8.000000
  0.023384  0.023384  0.023384      8.000000
  0.035076  0.023384  0.023384      8.000000
  0.046768  0.023384  0.023384      8.000000
  0.058460  0.023384  0.023384      8.000000
  0.070152  0.023384  0.023384      4.000000
  0.000000  0.035076  0.023384      8.000000
  0.011692  0.035076  0.023384     16.000000
  0.023384  0.035076  0.023384     16.000000
  0.035076  0.035076  0.023384     16.000000
  0.046768  0.035076  0.023384     16.000000
  0.058460  0.035076  0.023384     16.000000
  0.070152  0.035076  0.023384      8.000000
  0.000000  0.046768  0.023384      8.000000
  0.011692  0.046768  0.023384     16.000000
  0.023384  0.046768  0.023384     16.000000
  0.035076  0.046768  0.023384     16.000000
  0.046768  0.046768  0.023384     16.000000
  0.058460  0.046768  0.023384     16.000000
  0.070152  0.046768  0.023384      8.000000
  0.000000  0.058460  0.023384      8.000000
  0.011692  0.058460  0.023384     16.000000
  0.023384  0.058460  0.023384     16.000000
  0.035076  0.058460  0.023384     16.000000
  0.046768  0.058460  0.023384     16.000000
  0.058460  0.058460  0.023384     16.000000
  0.070152  0.058460  0.023384      8.000000
  0.000000  0.070152  0.023384      4.000000
  0.011692  0.070152  0.023384      8.000000
  0.023384  0.070152  0.023384      8.000000
  0.035076  0.070152  0.023384      8.000000
  0.046768  0.070152  0.023384      8.000000
  0.058460  0.070152  0.023384      8.000000
  0.070152  0.070152  0.023384      4.000000
  0.000000  0.035076  0.035076      4.000000
  0.011692  0.035076  0.035076      8.000000
  0.023384  0.035076  0.035076      8.000000
  0.035076  0.035076  0.035076      8.000000
  0.046768  0.035076  0.035076      8.000000
  0.058460  0.035076  0.035076      8.000000
  0.070152  0.035076  0.035076      4.000000
  0.000000  0.046768  0.035076      8.000000
  0.011692  0.046768  0.035076     16.000000
  0.023384  0.046768  0.035076     16.000000
  0.035076  0.046768  0.035076     16.000000
  0.046768  0.046768  0.035076     16.000000
  0.058460  0.046768  0.035076     16.000000
  0.070152  0.046768  0.035076      8.000000
  0.000000  0.058460  0.035076      8.000000
  0.011692  0.058460  0.035076     16.000000
  0.023384  0.058460  0.035076     16.000000
  0.035076  0.058460  0.035076     16.000000
  0.046768  0.058460  0.035076     16.000000
  0.058460  0.058460  0.035076     16.000000
  0.070152  0.058460  0.035076      8.000000
  0.000000  0.070152  0.035076      4.000000
  0.011692  0.070152  0.035076      8.000000
  0.023384  0.070152  0.035076      8.000000
  0.035076  0.070152  0.035076      8.000000
  0.046768  0.070152  0.035076      8.000000
  0.058460  0.070152  0.035076      8.000000
  0.070152  0.070152  0.035076      4.000000
  0.000000  0.046768  0.046768      4.000000
  0.011692  0.046768  0.046768      8.000000
  0.023384  0.046768  0.046768      8.000000
  0.035076  0.046768  0.046768      8.000000
  0.046768  0.046768  0.046768      8.000000
  0.058460  0.046768  0.046768      8.000000
  0.070152  0.046768  0.046768      4.000000
  0.000000  0.058460  0.046768      8.000000
  0.011692  0.058460  0.046768     16.000000
  0.023384  0.058460  0.046768     16.000000
  0.035076  0.058460  0.046768     16.000000
  0.046768  0.058460  0.046768     16.000000
  0.058460  0.058460  0.046768     16.000000
  0.070152  0.058460  0.046768      8.000000
  0.000000  0.070152  0.046768      4.000000
  0.011692  0.070152  0.046768      8.000000
  0.023384  0.070152  0.046768      8.000000
  0.035076  0.070152  0.046768      8.000000
  0.046768  0.070152  0.046768      8.000000
  0.058460  0.070152  0.046768      8.000000
  0.070152  0.070152  0.046768      4.000000
  0.000000  0.058460  0.058460      4.000000
  0.011692  0.058460  0.058460      8.000000
  0.023384  0.058460  0.058460      8.000000
  0.035076  0.058460  0.058460      8.000000
  0.046768  0.058460  0.058460      8.000000
  0.058460  0.058460  0.058460      8.000000
  0.070152  0.058460  0.058460      4.000000
  0.000000  0.070152  0.058460      4.000000
  0.011692  0.070152  0.058460      8.000000
  0.023384  0.070152  0.058460      8.000000
  0.035076  0.070152  0.058460      8.000000
  0.046768  0.070152  0.058460      8.000000
  0.058460  0.070152  0.058460      8.000000
  0.070152  0.070152  0.058460      4.000000
  0.000000  0.070152  0.070152      1.000000
  0.011692  0.070152  0.070152      2.000000
  0.023384  0.070152  0.070152      2.000000
  0.035076  0.070152  0.070152      2.000000
  0.046768  0.070152  0.070152      2.000000
  0.058460  0.070152  0.070152      2.000000
  0.070152  0.070152  0.070152      1.000000
 


--------------------------------------------------------------------------------------------------------




 Dimension of arrays:
   k-Points           NKPTS =    196   number of bands    NBANDS=    212
   number of dos      NEDOS =    301   number of ions     NIONS =     32
   non local maximal  LDIM  =      6   non local SUM 2l+1 LMDIM =     18
   total plane-waves  NPLWV = 262144
   max r-space proj   IRMAX =      1   max aug-charges    IRDMAX= 203463
   dimension x,y,z NGX =    64 NGY =   64 NGZ =   64
   dimension x,y,z NGXF=   128 NGYF=  128 NGZF=  128
   support grid    NGXF=   256 NGYF=  256 NGZF=  256
   ions per type =              32
 NGX,Y,Z   is equivalent  to a cutoff of  14.93, 14.93, 14.93 a.u.
 NGXF,Y,Z  is equivalent  to a cutoff of  29.86, 29.86, 29.86 a.u.


 I would recommend the setting:
   dimension x,y,z NGX =    64 NGY =   64 NGZ =   64
 SYSTEM =  unknown system                          
 POSCAR =  Cu                                      

 Startparameter for this run:
   NWRITE =      2    write-flag & timer
   PREC   = accura    medium, high low
   ISTART =      0    job   : 0-new  1-cont  2-samecut
   ICHARG =      2    charge: 1-file 2-atom 10-const
   ISPIN  =      1    spin polarized calculation?
   LNONCOLLINEAR =      F non collinear calculations
   LSORBIT =      F    spin-orbit coupling
   INIWAV =      1    electr: 0-lowe 1-rand  2-diag
   LASPH  =      F    aspherical Exc in radial PAW
   METAGGA=      F    non-selfconsistent MetaGGA calc.

 Electronic Relaxation 1
   ENCUT  =  750.0 eV  55.12 Ry    7.42 a.u.  15.92 15.92 15.92*2*pi/ulx,y,z
   ENINI  =  750.0     initial cutoff
   ENAUG  =  516.5 eV  augmentation charge cutoff
   NELM   =     60;   NELMIN=  2; NELMDL=  0     # of ELM steps 
   EDIFF  = 0.1E-07   stopping-criterion for ELM
   LREAL  =      F    real-space projection
   LCOMPAT=      F    compatible to vasp.4.4
   LREAL_COMPAT= F    compatible to vasp.4.5.1-3
   GGA_COMPAT  = T    GGA compatible to vasp.4.4-vasp.4.6
   LMAXPAW     = -100 max onsite density
   LMAXMIX     =    2 max onsite mixed and CHGCAR
   VOSKOWN=      0    Vosko Wilk Nusair interpolation
   ROPT   =    0.00000
 Ionic relaxation
   EDIFFG = 0.1E-06   stopping-criterion for IOM
   NSW    =      0    number of steps for IOM
   NBLOCK =      1;   KBLOCK =      1    inner block; outer block 
   IBRION =     -1    ionic relax: 0-MD 1-quasi-New 2-CG
   NFREE  =      0    steps in history (QN), initial steepest desc. (CG)
   ISIF   =      2    stress and relaxation
   IWAVPR =     10    prediction:  0-non 1-charg 2-wave 3-comb
   ISYM   =      2    0-nonsym 1-usesym 2-fastsym
   LCORR  =      T    Harris-Foulkes like correction to forces

   POTIM  =   0.50    time-step for ionic-motion
   TEIN   =    0.0    initial temperature
   TEBEG  =    0.0;   TEEND  =   0.0 temperature during run
   SMASS  =  -3.00    Nose mass-parameter (am)
   estimated Nose-frequenzy (Omega)   =  0.10E-29 period in steps =****** mass=  -0.116E-26a.u.
   NPACO  =    256;   APACO  = 16.0  distance and # of slots for P.C.
   PSTRESS=    0.0 pullay stress

  Mass of Ions in am
   POMASS =  63.55
  Ionic Valenz
   ZVAL   =  11.00
  Atomic Wigner-Seitz radii
   RWIGS  =  -1.00
   NELECT =     352.0000    total number of electrons
   NUPDOWN=      -1.0000    fix difference up-down

 DOS related values:
   EMIN   =  10.00;   EMAX   =-10.00  energy-range for DOS
   ISMEAR =     0;   SIGMA  =   0.01  broadening in eV -4-tet -1-fermi 0-gaus

 Electronic relaxation 2 (details)
   IALGO  =     38    algorithm
   LDIAG  =      T    sub-space diagonalisation
   IMIX   =      4    mixing-type and parameters
     AMIX     =   0.40;   BMIX     =  1.00
     AMIX_MAG =   1.60;   BMIX_MAG =  1.00
     AMIN     =   0.10
     WC   =   100.;   INIMIX=   1;  MIXPRE=   1

 Intra band minimization:
   WEIMIN = 0.0000     energy-eigenvalue tresh-hold
   EBREAK =  0.12E-10  absolut break condition
   DEPER  =   0.30     relativ break condition  

   TIME   =   0.10     timestep for ELM

  volume/ion in A,a.u.               =      11.31        76.35
  Fermi-wavevector in a.u.,eV,Ry     =   1.621783 35.785778  2.630180

 Second variation
   LSECVAR=     F    do a second variation
 
 Write flags
   LWAVE  =      F    write WAVECAR
   LCHARG =      F    write CHGCAR
   LVTOT  =      F    write LOCPOT, local potential
   LELF   =      F    write electronic localiz. function (ELF)
   LORBIT =      0    0 simple, 1 ext, 2 COOP (PROOUT)


 Dipole corrections
   IDIPOL =      0    1-x, 2-y, 3-z
   LDIPOL =      F    correct potential



--------------------------------------------------------------------------------------------------------


 Static calculation
 charge density will be updated during run
 non-spin polarized calculation
 Variant of blocked Davidson
 Davidson routine will perform the subspace rotation
 performe sub-space diagonalisation
    after iterative eigenvector-optimisation
 modified Broyden-mixing scheme, WC =      100.0
 initial mixing is a Kerker type mixing with AMIX =  0.4000 and BMIX =      1.0000
 Hartree-type preconditioning will be used
 using additional bands           36
 reciprocal scheme for non local part
 use partial core corrections
 calculate Harris-corrections to forces 
   (improved forces if not selfconsistent)
 use gradient corrections 
 use of overlap-Matrix (Vanderbilt PP)
 Gauss-broadening in eV      SIGMA  =   0.01


--------------------------------------------------------------------------------------------------------


  energy-cutoff  :      750.00
  volume of cell :      362.07
      direct lattice vectors                 reciprocal lattice vectors
     7.127374991  0.000000000  0.000000000     0.140304109  0.000000000  0.000000000
     0.000000000  7.127374991  0.000000000     0.000000000  0.140304109  0.000000000
     0.000000000  0.000000000  7.127374991     0.000000000  0.000000000  0.140304109

  length of vectors
     7.127374991  7.127374991  7.127374991     0.140304109  0.140304109  0.140304109


 
 k-points in units of 2pi/SCALE and weight: Automatic mesh                          
   0.00000000  0.00000000  0.00000000       0.001
   0.01169201  0.00000000  0.00000000       0.001
   0.02338402  0.00000000  0.00000000       0.001
   0.03507603  0.00000000  0.00000000       0.001
   0.04676804  0.00000000  0.00000000       0.001
   0.05846005  0.00000000  0.00000000       0.001
   0.07015205  0.00000000  0.00000000       0.001
   0.00000000  0.01169201  0.00000000       0.002
   0.01169201  0.01169201  0.00000000       0.005
   0.02338402  0.01169201  0.00000000       0.005
   0.03507603  0.01169201  0.00000000       0.005
   0.04676804  0.01169201  0.00000000       0.005
   0.05846005  0.01169201  0.00000000       0.005
   0.07015205  0.01169201  0.00000000       0.002
   0.00000000  0.02338402  0.00000000       0.002
   0.01169201  0.02338402  0.00000000       0.005
   0.02338402  0.02338402  0.00000000       0.005
   0.03507603  0.02338402  0.00000000       0.005
   0.04676804  0.02338402  0.00000000       0.005
   0.05846005  0.02338402  0.00000000       0.005
   0.07015205  0.02338402  0.00000000       0.002
   0.00000000  0.03507603  0.00000000       0.002
   0.01169201  0.03507603  0.00000000       0.005
   0.02338402  0.03507603  0.00000000       0.005
   0.03507603  0.03507603  0.00000000       0.005
   0.04676804  0.03507603  0.00000000       0.005
   0.05846005  0.03507603  0.00000000       0.005
   0.07015205  0.03507603  0.00000000       0.002
   0.00000000  0.04676804  0.00000000       0.002
   0.01169201  0.04676804  0.00000000       0.005
   0.02338402  0.04676804  0.00000000       0.005
   0.03507603  0.04676804  0.00000000       0.005
   0.04676804  0.04676804  0.00000000       0.005
   0.05846005  0.04676804  0.00000000       0.005
   0.07015205  0.04676804  0.00000000       0.002
   0.00000000  0.05846005  0.00000000       0.002
   0.01169201  0.05846005  0.00000000       0.005
   0.02338402  0.05846005  0.00000000       0.005
   0.03507603  0.05846005  0.00000000       0.005
   0.04676804  0.05846005  0.00000000       0.005
   0.05846005  0.05846005  0.00000000       0.005
   0.07015205  0.05846005  0.00000000       0.002
   0.00000000  0.07015205  0.00000000       0.001
   0.01169201  0.07015205  0.00000000       0.002
   0.02338402  0.07015205  0.00000000       0.002
   0.03507603  0.07015205  0.00000000       0.002
   0.04676804  0.07015205  0.00000000       0.002
   0.05846005  0.07015205  0.00000000       0.002
   0.07015205  0.07015205  0.00000000       0.001
   0.00000000  0.01169201  0.01169201       0.002
   0.01169201  0.01169201  0.01169201       0.005
   0.02338402  0.01169201  0.01169201       0.005
   0.03507603  0.01169201  0.01169201       0.005
   0.04676804  0.01169201  0.01169201       0.005
   0.05846005  0.01169201  0.01169201       0.005
   0.07015205  0.01169201  0.01169201       0.002
   0.00000000  0.02338402  0.01169201       0.005
   0.01169201  0.02338402  0.01169201       0.009
   0.02338402  0.02338402  0.01169201       0.009
   0.03507603  0.02338402  0.01169201       0.009
   0.04676804  0.02338402  0.01169201       0.009
   0.05846005  0.02338402  0.01169201       0.009
   0.07015205  0.02338402  0.01169201       0.005
   0.00000000  0.03507603  0.01169201       0.005
   0.01169201  0.03507603  0.01169201       0.009
   0.02338402  0.03507603  0.01169201       0.009
   0.03507603  0.03507603  0.01169201       0.009
   0.04676804  0.03507603  0.01169201       0.009
   0.05846005  0.03507603  0.01169201       0.009
   0.07015205  0.03507603  0.01169201       0.005
   0.00000000  0.04676804  0.01169201       0.005
   0.01169201  0.04676804  0.01169201       0.009
   0.02338402  0.04676804  0.01169201       0.009
   0.03507603  0.04676804  0.01169201       0.009
   0.04676804  0.04676804  0.01169201       0.009
   0.05846005  0.04676804  0.01169201       0.009
   0.07015205  0.04676804  0.01169201       0.005
   0.00000000  0.05846005  0.01169201       0.005
   0.01169201  0.05846005  0.01169201       0.009
   0.02338402  0.05846005  0.01169201       0.009
   0.03507603  0.05846005  0.01169201       0.009
   0.04676804  0.05846005  0.01169201       0.009
   0.05846005  0.05846005  0.01169201       0.009
   0.07015205  0.05846005  0.01169201       0.005
   0.00000000  0.07015205  0.01169201       0.002
   0.01169201  0.07015205  0.01169201       0.005
   0.02338402  0.07015205  0.01169201       0.005
   0.03507603  0.07015205  0.01169201       0.005
   0.04676804  0.07015205  0.01169201       0.005
   0.05846005  0.07015205  0.01169201       0.005
   0.07015205  0.07015205  0.01169201       0.002
   0.00000000  0.02338402  0.02338402       0.002
   0.01169201  0.02338402  0.02338402       0.005
   0.02338402  0.02338402  0.02338402       0.005
   0.03507603  0.02338402  0.02338402       0.005
   0.04676804  0.02338402  0.02338402       0.005
   0.05846005  0.02338402  0.02338402       0.005
   0.07015205  0.02338402  0.02338402       0.002
   0.00000000  0.03507603  0.02338402       0.005
   0.01169201  0.03507603  0.02338402       0.009
   0.02338402  0.03507603  0.02338402       0.009
   0.03507603  0.03507603  0.02338402       0.009
   0.04676804  0.03507603  0.02338402       0.009
   0.05846005  0.03507603  0.02338402       0.009
   0.07015205  0.03507603  0.02338402       0.005
   0.00000000  0.04676804  0.02338402       0.005
   0.01169201  0.04676804  0.02338402       0.009
   0.02338402  0.04676804  0.02338402       0.009
   0.03507603  0.04676804  0.02338402       0.009
   0.04676804  0.04676804  0.02338402       0.009
   0.05846005  0.04676804  0.02338402       0.009
   0.07015205  0.04676804  0.02338402       0.005
   0.00000000  0.05846005  0.02338402       0.005
   0.01169201  0.05846005  0.02338402       0.009
   0.02338402  0.05846005  0.02338402       0.009
   0.03507603  0.05846005  0.02338402       0.009
   0.04676804  0.05846005  0.02338402       0.009
   0.05846005  0.05846005  0.02338402       0.009
   0.07015205  0.05846005  0.02338402       0.005
   0.00000000  0.07015205  0.02338402       0.002
   0.01169201  0.07015205  0.02338402       0.005
   0.02338402  0.07015205  0.02338402       0.005
   0.03507603  0.07015205  0.02338402       0.005
   0.04676804  0.07015205  0.02338402       0.005
   0.05846005  0.07015205  0.02338402       0.005
   0.07015205  0.07015205  0.02338402       0.002
   0.00000000  0.03507603  0.03507603       0.002
   0.01169201  0.03507603  0.03507603       0.005
   0.02338402  0.03507603  0.03507603       0.005
   0.03507603  0.03507603  0.03507603       0.005
   0.04676804  0.03507603  0.03507603       0.005
   0.05846005  0.03507603  0.03507603       0.005
   0.07015205  0.03507603  0.03507603       0.002
   0.00000000  0.04676804  0.03507603       0.005
   0.01169201  0.04676804  0.03507603       0.009
   0.02338402  0.04676804  0.03507603       0.009
   0.03507603  0.04676804  0.03507603       0.009
   0.04676804  0.04676804  0.03507603       0.009
   0.05846005  0.04676804  0.03507603       0.009
   0.07015205  0.04676804  0.03507603       0.005
   0.00000000  0.05846005  0.03507603       0.005
   0.01169201  0.05846005  0.03507603       0.009
   0.02338402  0.05846005  0.03507603       0.009
   0.03507603  0.05846005  0.03507603       0.009
   0.04676804  0.05846005  0.03507603       0.009
   0.05846005  0.05846005  0.03507603       0.009
   0.07015205  0.05846005  0.03507603       0.005
   0.00000000  0.07015205  0.03507603       0.002
   0.01169201  0.07015205  0.03507603       0.005
   0.02338402  0.07015205  0.03507603       0.005
   0.03507603  0.07015205  0.03507603       0.005
   0.04676804  0.07015205  0.03507603       0.005
   0.05846005  0.07015205  0.03507603       0.005
   0.07015205  0.07015205  0.03507603       0.002
   0.00000000  0.04676804  0.04676804       0.002
   0.01169201  0.04676804  0.04676804       0.005
   0.02338402  0.04676804  0.04676804       0.005
   0.03507603  0.04676804  0.04676804       0.005
   0.04676804  0.04676804  0.04676804       0.005
   0.05846005  0.04676804  0.04676804       0.005
   0.07015205  0.04676804  0.04676804       0.002
   0.00000000  0.05846005  0.04676804       0.005
   0.01169201  0.05846005  0.04676804       0.009
   0.02338402  0.05846005  0.04676804       0.009
   0.03507603  0.05846005  0.04676804       0.009
   0.04676804  0.05846005  0.04676804       0.009
   0.05846005  0.05846005  0.04676804       0.009
   0.07015205  0.05846005  0.04676804       0.005
   0.00000000  0.07015205  0.04676804       0.002
   0.01169201  0.07015205  0.04676804       0.005
   0.02338402  0.07015205  0.04676804       0.005
   0.03507603  0.07015205  0.04676804       0.005
   0.04676804  0.07015205  0.04676804       0.005
   0.05846005  0.07015205  0.04676804       0.005
   0.07015205  0.07015205  0.04676804       0.002
   0.00000000  0.05846005  0.05846005       0.002
   0.01169201  0.05846005  0.05846005       0.005
   0.02338402  0.05846005  0.05846005       0.005
   0.03507603  0.05846005  0.05846005       0.005
   0.04676804  0.05846005  0.05846005       0.005
   0.05846005  0.05846005  0.05846005       0.005
   0.07015205  0.05846005  0.05846005       0.002
   0.00000000  0.07015205  0.05846005       0.002
   0.01169201  0.07015205  0.05846005       0.005
   0.02338402  0.07015205  0.05846005       0.005
   0.03507603  0.07015205  0.05846005       0.005
   0.04676804  0.07015205  0.05846005       0.005
   0.05846005  0.07015205  0.05846005       0.005
   0.07015205  0.07015205  0.05846005       0.002
   0.00000000  0.07015205  0.07015205       0.001
   0.01169201  0.07015205  0.07015205       0.001
   0.02338402  0.07015205  0.07015205       0.001
   0.03507603  0.07015205  0.07015205       0.001
   0.04676804  0.07015205  0.07015205       0.001
   0.05846005  0.07015205  0.07015205       0.001
   0.07015205  0.07015205  0.07015205       0.001
 
 k-points in reciprocal lattice and weights: Automatic mesh                          
   0.00000000  0.00000000  0.00000000       0.001
   0.08333333  0.00000000  0.00000000       0.001
   0.16666667  0.00000000  0.00000000       0.001
   0.25000000  0.00000000  0.00000000       0.001
   0.33333333  0.00000000  0.00000000       0.001
   0.41666667  0.00000000  0.00000000       0.001
   0.50000000  0.00000000  0.00000000       0.001
   0.00000000  0.08333333  0.00000000       0.002
   0.08333333  0.08333333  0.00000000       0.005
   0.16666667  0.08333333  0.00000000       0.005
   0.25000000  0.08333333  0.00000000       0.005
   0.33333333  0.08333333  0.00000000       0.005
   0.41666667  0.08333333  0.00000000       0.005
   0.50000000  0.08333333  0.00000000       0.002
   0.00000000  0.16666667  0.00000000       0.002
   0.08333333  0.16666667  0.00000000       0.005
   0.16666667  0.16666667  0.00000000       0.005
   0.25000000  0.16666667  0.00000000       0.005
   0.33333333  0.16666667  0.00000000       0.005
   0.41666667  0.16666667  0.00000000       0.005
   0.50000000  0.16666667  0.00000000       0.002
   0.00000000  0.25000000  0.00000000       0.002
   0.08333333  0.25000000  0.00000000       0.005
   0.16666667  0.25000000  0.00000000       0.005
   0.25000000  0.25000000  0.00000000       0.005
   0.33333333  0.25000000  0.00000000       0.005
   0.41666667  0.25000000  0.00000000       0.005
   0.50000000  0.25000000  0.00000000       0.002
   0.00000000  0.33333333  0.00000000       0.002
   0.08333333  0.33333333  0.00000000       0.005
   0.16666667  0.33333333  0.00000000       0.005
   0.25000000  0.33333333  0.00000000       0.005
   0.33333333  0.33333333  0.00000000       0.005
   0.41666667  0.33333333  0.00000000       0.005
   0.50000000  0.33333333  0.00000000       0.002
   0.00000000  0.41666667  0.00000000       0.002
   0.08333333  0.41666667  0.00000000       0.005
   0.16666667  0.41666667  0.00000000       0.005
   0.25000000  0.41666667  0.00000000       0.005
   0.33333333  0.41666667  0.00000000       0.005
   0.41666667  0.41666667  0.00000000       0.005
   0.50000000  0.41666667  0.00000000       0.002
   0.00000000  0.50000000  0.00000000       0.001
   0.08333333  0.50000000  0.00000000       0.002
   0.16666667  0.50000000  0.00000000       0.002
   0.25000000  0.50000000  0.00000000       0.002
   0.33333333  0.50000000  0.00000000       0.002
   0.41666667  0.50000000  0.00000000       0.002
   0.50000000  0.50000000  0.00000000       0.001
   0.00000000  0.08333333  0.08333333       0.002
   0.08333333  0.08333333  0.08333333       0.005
   0.16666667  0.08333333  0.08333333       0.005
   0.25000000  0.08333333  0.08333333       0.005
   0.33333333  0.08333333  0.08333333       0.005
   0.41666667  0.08333333  0.08333333       0.005
   0.50000000  0.08333333  0.08333333       0.002
   0.00000000  0.16666667  0.08333333       0.005
   0.08333333  0.16666667  0.08333333       0.009
   0.16666667  0.16666667  0.08333333       0.009
   0.25000000  0.16666667  0.08333333       0.009
   0.33333333  0.16666667  0.08333333       0.009
   0.41666667  0.16666667  0.08333333       0.009
   0.50000000  0.16666667  0.08333333       0.005
   0.00000000  0.25000000  0.08333333       0.005
   0.08333333  0.25000000  0.08333333       0.009
   0.16666667  0.25000000  0.08333333       0.009
   0.25000000  0.25000000  0.08333333       0.009
   0.33333333  0.25000000  0.08333333       0.009
   0.41666667  0.25000000  0.08333333       0.009
   0.50000000  0.25000000  0.08333333       0.005
   0.00000000  0.33333333  0.08333333       0.005
   0.08333333  0.33333333  0.08333333       0.009
   0.16666667  0.33333333  0.08333333       0.009
   0.25000000  0.33333333  0.08333333       0.009
   0.33333333  0.33333333  0.08333333       0.009
   0.41666667  0.33333333  0.08333333       0.009
   0.50000000  0.33333333  0.08333333       0.005
   0.00000000  0.41666667  0.08333333       0.005
   0.08333333  0.41666667  0.08333333       0.009
   0.16666667  0.41666667  0.08333333       0.009
   0.25000000  0.41666667  0.08333333       0.009
   0.33333333  0.41666667  0.08333333       0.009
   0.41666667  0.41666667  0.08333333       0.009
   0.50000000  0.41666667  0.08333333       0.005
   0.00000000  0.50000000  0.08333333       0.002
   0.08333333  0.50000000  0.08333333       0.005
   0.16666667  0.50000000  0.08333333       0.005
   0.25000000  0.50000000  0.08333333       0.005
   0.33333333  0.50000000  0.08333333       0.005
   0.41666667  0.50000000  0.08333333       0.005
   0.50000000  0.50000000  0.08333333       0.002
   0.00000000  0.16666667  0.16666667       0.002
   0.08333333  0.16666667  0.16666667       0.005
   0.16666667  0.16666667  0.16666667       0.005
   0.25000000  0.16666667  0.16666667       0.005
   0.33333333  0.16666667  0.16666667       0.005
   0.41666667  0.16666667  0.16666667       0.005
   0.50000000  0.16666667  0.16666667       0.002
   0.00000000  0.25000000  0.16666667       0.005
   0.08333333  0.25000000  0.16666667       0.009
   0.16666667  0.25000000  0.16666667       0.009
   0.25000000  0.25000000  0.16666667       0.009
   0.33333333  0.25000000  0.16666667       0.009
   0.41666667  0.25000000  0.16666667       0.009
   0.50000000  0.25000000  0.16666667       0.005
   0.00000000  0.33333333  0.16666667       0.005
   0.08333333  0.33333333  0.16666667       0.009
   0.16666667  0.33333333  0.16666667       0.009
   0.25000000  0.33333333  0.16666667       0.009
   0.33333333  0.33333333  0.16666667       0.009
   0.41666667  0.33333333  0.16666667       0.009
   0.50000000  0.33333333  0.16666667       0.005
   0.00000000  0.41666667  0.16666667       0.005
   0.08333333  0.41666667  0.16666667       0.009
   0.16666667  0.41666667  0.16666667       0.009
   0.25000000  0.41666667  0.16666667       0.009
   0.33333333  0.41666667  0.16666667       0.009
   0.41666667  0.41666667  0.16666667       0.009
   0.50000000  0.41666667  0.16666667       0.005
   0.00000000  0.50000000  0.16666667       0.002
   0.08333333  0.50000000  0.16666667       0.005
   0.16666667  0.50000000  0.16666667       0.005
   0.25000000  0.50000000  0.16666667       0.005
   0.33333333  0.50000000  0.16666667       0.005
   0.41666667  0.50000000  0.16666667       0.005
   0.50000000  0.50000000  0.16666667       0.002
   0.00000000  0.25000000  0.25000000       0.002
   0.08333333  0.25000000  0.25000000       0.005
   0.16666667  0.25000000  0.25000000       0.005
   0.25000000  0.25000000  0.25000000       0.005
   0.33333333  0.25000000  0.25000000       0.005
   0.41666667  0.25000000  0.25000000       0.005
   0.50000000  0.25000000  0.25000000       0.002
   0.00000000  0.33333333  0.25000000       0.005
   0.08333333  0.33333333  0.25000000       0.009
   0.16666667  0.33333333  0.25000000       0.009
   0.25000000  0.33333333  0.25000000       0.009
   0.33333333  0.33333333  0.25000000       0.009
   0.41666667  0.33333333  0.25000000       0.009
   0.50000000  0.33333333  0.25000000       0.005
   0.00000000  0.41666667  0.25000000       0.005
   0.08333333  0.41666667  0.25000000       0.009
   0.16666667  0.41666667  0.25000000       0.009
   0.25000000  0.41666667  0.25000000       0.009
   0.33333333  0.41666667  0.25000000       0.009
   0.41666667  0.41666667  0.25000000       0.009
   0.50000000  0.41666667  0.25000000       0.005
   0.00000000  0.50000000  0.25000000       0.002
   0.08333333  0.50000000  0.25000000       0.005
   0.16666667  0.50000000  0.25000000       0.005
   0.25000000  0.50000000  0.25000000       0.005
   0.33333333  0.50000000  0.25000000       0.005
   0.41666667  0.50000000  0.25000000       0.005
   0.50000000  0.50000000  0.25000000       0.002
   0.00000000  0.33333333  0.33333333       0.002
   0.08333333  0.33333333  0.33333333       0.005
   0.16666667  0.33333333  0.33333333       0.005
   0.25000000  0.33333333  0.33333333       0.005
   0.33333333  0.33333333  0.33333333       0.005
   0.41666667  0.33333333  0.33333333       0.005
   0.50000000  0.33333333  0.33333333       0.002
   0.00000000  0.41666667  0.33333333       0.005
   0.08333333  0.41666667  0.33333333       0.009
   0.16666667  0.41666667  0.33333333       0.009
   0.25000000  0.41666667  0.33333333       0.009
   0.33333333  0.41666667  0.33333333       0.009
   0.41666667  0.41666667  0.33333333       0.009
   0.50000000  0.41666667  0.33333333       0.005
   0.00000000  0.50000000  0.33333333       0.002
   0.08333333  0.50000000  0.33333333       0.005
   0.16666667  0.50000000  0.33333333       0.005
   0.25000000  0.50000000  0.33333333       0.005
   0.33333333  0.50000000  0.33333333       0.005
   0.41666667  0.50000000  0.33333333       0.005
   0.50000000  0.50000000  0.33333333       0.002
   0.00000000  0.41666667  0.41666667       0.002
   0.08333333  0.41666667  0.41666667       0.005
   0.16666667  0.41666667  0.41666667       0.005
   0.25000000  0.41666667  0.41666667       0.005
   0.33333333  0.41666667  0.41666667       0.005
   0.41666667  0.41666667  0.41666667       0.005
   0.50000000  0.41666667  0.41666667       0.002
   0.00000000  0.50000000  0.41666667       0.002
   0.08333333  0.50000000  0.41666667       0.005
   0.16666667  0.50000000  0.41666667       0.005
   0.25000000  0.50000000  0.41666667       0.005
   0.33333333  0.50000000  0.41666667       0.005
   0.41666667  0.50000000  0.41666667       0.005
   0.50000000  0.50000000  0.41666667       0.002
   0.00000000  0.50000000  0.50000000       0.001
   0.08333333  0.50000000  0.50000000       0.001
   0.16666667  0.50000000  0.50000000       0.001
   0.25000000  0.50000000  0.50000000       0.001
   0.33333333  0.50000000  0.50000000       0.001
   0.41666667  0.50000000  0.50000000       0.001
   0.50000000  0.50000000  0.50000000       0.001
 
 position of ions in fractional coordinates (direct lattice) 
   0.00140304  0.00000000  0.00000000
   0.50000000  0.00000000  0.00000000
   0.00000000  0.50000000  0.00000000
   0.50000000  0.50000000  0.00000000
   0.00000000  0.00000000  0.50000000
   0.50000000  0.00000000  0.50000000
   0.00000000  0.50000000  0.50000000
   0.50000000  0.50000000  0.50000000
   0.25000000  0.25000000  0.00000000
   0.75000000  0.25000000  0.00000000
   0.25000000  0.75000000  0.00000000
   0.75000000  0.75000000  0.00000000
   0.25000000  0.25000000  0.50000000
   0.75000000  0.25000000  0.50000000
   0.25000000  0.75000000  0.50000000
   0.75000000  0.75000000  0.50000000
   0.25000000  0.00000000  0.25000000
   0.75000000  0.00000000  0.25000000
   0.25000000  0.50000000  0.25000000
   0.75000000  0.50000000  0.25000000
   0.25000000  0.00000000  0.75000000
   0.75000000  0.00000000  0.75000000
   0.25000000  0.50000000  0.75000000
   0.75000000  0.50000000  0.75000000
   0.00000000  0.25000000  0.25000000
   0.50000000  0.25000000  0.25000000
   0.00000000  0.75000000  0.25000000
   0.50000000  0.75000000  0.25000000
   0.00000000  0.25000000  0.75000000
   0.50000000  0.25000000  0.75000000
   0.00000000  0.75000000  0.75000000
   0.50000000  0.75000000  0.75000000
 
 position of ions in cartesian coordinates  (Angst):
   0.01000000  0.00000000  0.00000000
   3.56368750  0.00000000  0.00000000
   0.00000000  3.56368750  0.00000000
   3.56368750  3.56368750  0.00000000
   0.00000000  0.00000000  3.56368750
   3.56368750  0.00000000  3.56368750
   0.00000000  3.56368750  3.56368750
   3.56368750  3.56368750  3.56368750
   1.78184375  1.78184375  0.00000000
   5.34553124  1.78184375  0.00000000
   1.78184375  5.34553124  0.00000000
   5.34553124  5.34553124  0.00000000
   1.78184375  1.78184375  3.56368750
   5.34553124  1.78184375  3.56368750
   1.78184375  5.34553124  3.56368750
   5.34553124  5.34553124  3.56368750
   1.78184375  0.00000000  1.78184375
   5.34553124  0.00000000  1.78184375
   1.78184375  3.56368750  1.78184375
   5.34553124  3.56368750  1.78184375
   1.78184375  0.00000000  5.34553124
   5.34553124  0.00000000  5.34553124
   1.78184375  3.56368750  5.34553124
   5.34553124  3.56368750  5.34553124
   0.00000000  1.78184375  1.78184375
   3.56368750  1.78184375  1.78184375
   0.00000000  5.34553124  1.78184375
   3.56368750  5.34553124  1.78184375
   0.00000000  1.78184375  5.34553124
   3.56368750  1.78184375  5.34553124
   0.00000000  5.34553124  5.34553124
   3.56368750  5.34553124  5.34553124
 


--------------------------------------------------------------------------------------------------------


 k-point  1 :  0.00000.00000.0000  plane waves:  16879
 k-point  2 :  0.08330.00000.0000  plane waves:  16919
 k-point  3 :  0.16670.00000.0000  plane waves:  16868
 k-point  4 :  0.25000.00000.0000  plane waves:  16908
 k-point  5 :  0.33330.00000.0000  plane waves:  16904
 k-point  6 :  0.41670.00000.0000  plane waves:  16872
 k-point  7 :  0.50000.00000.0000  plane waves:  16896
 k-point  8 :  0.00000.08330.0000  plane waves:  16919
 k-point  9 :  0.08330.08330.0000  plane waves:  16889
 k-point 10 :  0.16670.08330.0000  plane waves:  16887
 k-point 11 :  0.25000.08330.0000  plane waves:  16898
 k-point 12 :  0.33330.08330.0000  plane waves:  16892
 k-point 13 :  0.41670.08330.0000  plane waves:  16858
 k-point 14 :  0.50000.08330.0000  plane waves:  16856
 k-point 15 :  0.00000.16670.0000  plane waves:  16868
 k-point 16 :  0.08330.16670.0000  plane waves:  16887
 k-point 17 :  0.16670.16670.0000  plane waves:  16891
 k-point 18 :  0.25000.16670.0000  plane waves:  16899
 k-point 19 :  0.33330.16670.0000  plane waves:  16864
 k-point 20 :  0.41670.16670.0000  plane waves:  16868
 k-point 21 :  0.50000.16670.0000  plane waves:  16878
 k-point 22 :  0.00000.25000.0000  plane waves:  16908
 k-point 23 :  0.08330.25000.0000  plane waves:  16898
 k-point 24 :  0.16670.25000.0000  plane waves:  16899
 k-point 25 :  0.25000.25000.0000  plane waves:  16891
 k-point 26 :  0.33330.25000.0000  plane waves:  16865
 k-point 27 :  0.41670.25000.0000  plane waves:  16869
 k-point 28 :  0.50000.25000.0000  plane waves:  16848
 k-point 29 :  0.00000.33330.0000  plane waves:  16904
 k-point 30 :  0.08330.33330.0000  plane waves:  16892
 k-point 31 :  0.16670.33330.0000  plane waves:  16864
 k-point 32 :  0.25000.33330.0000  plane waves:  16865
 k-point 33 :  0.33330.33330.0000  plane waves:  16862
 k-point 34 :  0.41670.33330.0000  plane waves:  16898
 k-point 35 :  0.50000.33330.0000  plane waves:  16884
 k-point 36 :  0.00000.41670.0000  plane waves:  16872
 k-point 37 :  0.08330.41670.0000  plane waves:  16858
 k-point 38 :  0.16670.41670.0000  plane waves:  16868
 k-point 39 :  0.25000.41670.0000  plane waves:  16869
 k-point 40 :  0.33330.41670.0000  plane waves:  16898
 k-point 41 :  0.41670.41670.0000  plane waves:  16874
 k-point 42 :  0.50000.41670.0000  plane waves:  16886
 k-point 43 :  0.00000.50000.0000  plane waves:  16896
 k-point 44 :  0.08330.50000.0000  plane waves:  16856
 k-point 45 :  0.16670.50000.0000  plane waves:  16878
 k-point 46 :  0.25000.50000.0000  plane waves:  16848
 k-point 47 :  0.33330.50000.0000  plane waves:  16884
 k-point 48 :  0.41670.50000.0000  plane waves:  16886
 k-point 49 :  0.50000.50000.0000  plane waves:  16844
 k-point 50 :  0.00000.08330.0833  plane waves:  16889
 k-point 51 :  0.08330.08330.0833  plane waves:  16894
 k-point 52 :  0.16670.08330.0833  plane waves:  16874
 k-point 53 :  0.25000.08330.0833  plane waves:  16871
 k-point 54 :  0.33330.08330.0833  plane waves:  16882
 k-point 55 :  0.41670.08330.0833  plane waves:  16851
 k-point 56 :  0.50000.08330.0833  plane waves:  16854
 k-point 57 :  0.00000.16670.0833  plane waves:  16887
 k-point 58 :  0.08330.16670.0833  plane waves:  16874
 k-point 59 :  0.16670.16670.0833  plane waves:  16884
 k-point 60 :  0.25000.16670.0833  plane waves:  16876
 k-point 61 :  0.33330.16670.0833  plane waves:  16864
 k-point 62 :  0.41670.16670.0833  plane waves:  16871
 k-point 63 :  0.50000.16670.0833  plane waves:  16884
 k-point 64 :  0.00000.25000.0833  plane waves:  16898
 k-point 65 :  0.08330.25000.0833  plane waves:  16871
 k-point 66 :  0.16670.25000.0833  plane waves:  16876
 k-point 67 :  0.25000.25000.0833  plane waves:  16902
 k-point 68 :  0.33330.25000.0833  plane waves:  16861
 k-point 69 :  0.41670.25000.0833  plane waves:  16864
 k-point 70 :  0.50000.25000.0833  plane waves:  16884
 k-point 71 :  0.00000.33330.0833  plane waves:  16892
 k-point 72 :  0.08330.33330.0833  plane waves:  16882
 k-point 73 :  0.16670.33330.0833  plane waves:  16864
 k-point 74 :  0.25000.33330.0833  plane waves:  16861
 k-point 75 :  0.33330.33330.0833  plane waves:  16872
 k-point 76 :  0.41670.33330.0833  plane waves:  16897
 k-point 77 :  0.50000.33330.0833  plane waves:  16894
 k-point 78 :  0.00000.41670.0833  plane waves:  16858
 k-point 79 :  0.08330.41670.0833  plane waves:  16851
 k-point 80 :  0.16670.41670.0833  plane waves:  16871
 k-point 81 :  0.25000.41670.0833  plane waves:  16864
 k-point 82 :  0.33330.41670.0833  plane waves:  16897
 k-point 83 :  0.41670.41670.0833  plane waves:  16874
 k-point 84 :  0.50000.41670.0833  plane waves:  16892
 k-point 85 :  0.00000.50000.0833  plane waves:  16856
 k-point 86 :  0.08330.50000.0833  plane waves:  16854
 k-point 87 :  0.16670.50000.0833  plane waves:  16884
 k-point 88 :  0.25000.50000.0833  plane waves:  16884
 k-point 89 :  0.33330.50000.0833  plane waves:  16894
 k-point 90 :  0.41670.50000.0833  plane waves:  16892
 k-point 91 :  0.50000.50000.0833  plane waves:  16856
 k-point 92 :  0.00000.16670.1667  plane waves:  16891
 k-point 93 :  0.08330.16670.1667  plane waves:  16884
 k-point 94 :  0.16670.16670.1667  plane waves:  16888
 k-point 95 :  0.25000.16670.1667  plane waves:  16892
 k-point 96 :  0.33330.16670.1667  plane waves:  16872
 k-point 97 :  0.41670.16670.1667  plane waves:  16873
 k-point 98 :  0.50000.16670.1667  plane waves:  16864
 k-point 99 :  0.00000.25000.1667  plane waves:  16899
 k-point ** :  0.08330.25000.1667  plane waves:  16876
 k-point ** :  0.16670.25000.1667  plane waves:  16892
 k-point ** :  0.25000.25000.1667  plane waves:  16886
 k-point ** :  0.33330.25000.1667  plane waves:  16884
 k-point ** :  0.41670.25000.1667  plane waves:  16875
 k-point ** :  0.50000.25000.1667  plane waves:  16876
 k-point ** :  0.00000.33330.1667  plane waves:  16864
 k-point ** :  0.08330.33330.1667  plane waves:  16864
 k-point ** :  0.16670.33330.1667  plane waves:  16872
 k-point ** :  0.25000.33330.1667  plane waves:  16884
 k-point ** :  0.33330.33330.1667  plane waves:  16894
 k-point ** :  0.41670.33330.1667  plane waves:  16893
 k-point ** :  0.50000.33330.1667  plane waves:  16908
 k-point ** :  0.00000.41670.1667  plane waves:  16868
 k-point ** :  0.08330.41670.1667  plane waves:  16871
 k-point ** :  0.16670.41670.1667  plane waves:  16873
 k-point ** :  0.25000.41670.1667  plane waves:  16875
 k-point ** :  0.33330.41670.1667  plane waves:  16893
 k-point ** :  0.41670.41670.1667  plane waves:  16913
 k-point ** :  0.50000.41670.1667  plane waves:  16930
 k-point ** :  0.00000.50000.1667  plane waves:  16878
 k-point ** :  0.08330.50000.1667  plane waves:  16884
 k-point ** :  0.16670.50000.1667  plane waves:  16864
 k-point ** :  0.25000.50000.1667  plane waves:  16876
 k-point ** :  0.33330.50000.1667  plane waves:  16908
 k-point ** :  0.41670.50000.1667  plane waves:  16930
 k-point ** :  0.50000.50000.1667  plane waves:  16936
 k-point ** :  0.00000.25000.2500  plane waves:  16891
 k-point ** :  0.08330.25000.2500  plane waves:  16902
 k-point ** :  0.16670.25000.2500  plane waves:  16886
 k-point ** :  0.25000.25000.2500  plane waves:  16869
 k-point ** :  0.33330.25000.2500  plane waves:  16892
 k-point ** :  0.41670.25000.2500  plane waves:  16917
 k-point ** :  0.50000.25000.2500  plane waves:  16900
 k-point ** :  0.00000.33330.2500  plane waves:  16865
 k-point ** :  0.08330.33330.2500  plane waves:  16861
 k-point ** :  0.16670.33330.2500  plane waves:  16884
 k-point ** :  0.25000.33330.2500  plane waves:  16892
 k-point ** :  0.33330.33330.2500  plane waves:  16916
 k-point ** :  0.41670.33330.2500  plane waves:  16911
 k-point ** :  0.50000.33330.2500  plane waves:  16922
 k-point ** :  0.00000.41670.2500  plane waves:  16869
 k-point ** :  0.08330.41670.2500  plane waves:  16864
 k-point ** :  0.16670.41670.2500  plane waves:  16875
 k-point ** :  0.25000.41670.2500  plane waves:  16917
 k-point ** :  0.33330.41670.2500  plane waves:  16911
 k-point ** :  0.41670.41670.2500  plane waves:  16919
 k-point ** :  0.50000.41670.2500  plane waves:  16916
 k-point ** :  0.00000.50000.2500  plane waves:  16848
 k-point ** :  0.08330.50000.2500  plane waves:  16884
 k-point ** :  0.16670.50000.2500  plane waves:  16876
 k-point ** :  0.25000.50000.2500  plane waves:  16900
 k-point ** :  0.33330.50000.2500  plane waves:  16922
 k-point ** :  0.41670.50000.2500  plane waves:  16916
 k-point ** :  0.50000.50000.2500  plane waves:  16940
 k-point ** :  0.00000.33330.3333  plane waves:  16862
 k-point ** :  0.08330.33330.3333  plane waves:  16872
 k-point ** :  0.16670.33330.3333  plane waves:  16894
 k-point ** :  0.25000.33330.3333  plane waves:  16916
 k-point ** :  0.33330.33330.3333  plane waves:  16902
 k-point ** :  0.41670.33330.3333  plane waves:  16917
 k-point ** :  0.50000.33330.3333  plane waves:  16922
 k-point ** :  0.00000.41670.3333  plane waves:  16898
 k-point ** :  0.08330.41670.3333  plane waves:  16897
 k-point ** :  0.16670.41670.3333  plane waves:  16893
 k-point ** :  0.25000.41670.3333  plane waves:  16911
 k-point ** :  0.33330.41670.3333  plane waves:  16917
 k-point ** :  0.41670.41670.3333  plane waves:  16913
 k-point ** :  0.50000.41670.3333  plane waves:  16908
 k-point ** :  0.00000.50000.3333  plane waves:  16884
 k-point ** :  0.08330.50000.3333  plane waves:  16894
 k-point ** :  0.16670.50000.3333  plane waves:  16908
 k-point ** :  0.25000.50000.3333  plane waves:  16922
 k-point ** :  0.33330.50000.3333  plane waves:  16922
 k-point ** :  0.41670.50000.3333  plane waves:  16908
 k-point ** :  0.50000.50000.3333  plane waves:  16920
 k-point ** :  0.00000.41670.4167  plane waves:  16874
 k-point ** :  0.08330.41670.4167  plane waves:  16874
 k-point ** :  0.16670.41670.4167  plane waves:  16913
 k-point ** :  0.25000.41670.4167  plane waves:  16919
 k-point ** :  0.33330.41670.4167  plane waves:  16913
 k-point ** :  0.41670.41670.4167  plane waves:  16908
 k-point ** :  0.50000.41670.4167  plane waves:  16896
 k-point ** :  0.00000.50000.4167  plane waves:  16886
 k-point ** :  0.08330.50000.4167  plane waves:  16892
 k-point ** :  0.16670.50000.4167  plane waves:  16930
 k-point ** :  0.25000.50000.4167  plane waves:  16916
 k-point ** :  0.33330.50000.4167  plane waves:  16908
 k-point ** :  0.41670.50000.4167  plane waves:  16896
 k-point ** :  0.50000.50000.4167  plane waves:  16892
 k-point ** :  0.00000.50000.5000  plane waves:  16844
 k-point ** :  0.08330.50000.5000  plane waves:  16856
 k-point ** :  0.16670.50000.5000  plane waves:  16936
 k-point ** :  0.25000.50000.5000  plane waves:  16940
 k-point ** :  0.33330.50000.5000  plane waves:  16920
 k-point ** :  0.41670.50000.5000  plane waves:  16892
 k-point ** :  0.50000.50000.5000  plane waves:  16944

 maximum and minimum number of plane-waves per node :  16944 16844

 maximum number of plane-waves:  16944
 maximal index in each direction: 
   IXMAX= 15   IYMAX= 15   IZMAX= 15
   IXMIN=-16   IYMIN=-16   IZMIN=-16

 NGX is ok and might be reduce to  64
 NGY is ok and might be reduce to  64
 NGZ is ok and might be reduce to  64

 parallel 3dFFT wavefunction:
    minimum data exchange during FFTs selected (reduces bandwidth)
 parallel 3dFFT charge:
    minimum data exchange during FFTs selected (reduces bandwidth)

 For storing wavefunctions ******* MBYTES are necessary
 For predicting wavefunctions  124.25 MBYTES are necessary
Broyden mixing: mesh for mixing (old mesh)
   NGX = 31   NGY = 31   NGZ = 31
  (NGX  =128   NGY  =128   NGZ  =128)
 gives a total of  29791 points
 initial charge density was supplied:
 charge density of overlapping atoms calculated
 number of electron  352.0000000 magnetization 
 keeping initial charge density in first step


--------------------------------------------------------------------------------------------------------


 Maximum index for augmentation-charges        49162 (set IRDMAX)


--------------------------------------------------------------------------------------------------------


 First call to EWALD:  gamma=   0.249
 Maximum number of real-space cells 3x 3x 3
 Maximum number of reciprocal cells 3x 3x 3

    FEWALD:  VPU time    0.01: CPU time    0.01


----------------------------------------- Iteration    1(   1)  ---------------------------------------


    POTLOK:  VPU time    0.76: CPU time    0.76
    SETDIJ:  VPU time    1.86: CPU time    1.86
    EDDAV :  VPU time 5205.80: CPU time 5208.47
    DOS   :  VPU time    0.00: CPU time   -0.00
    ------------------------------------------
      LOOP:  VPU time 5208.77: CPU time 5211.45

 eigenvalue-minimisations  : 83136
 total energy-change (2. order) : 0.4067793E+04  (-0.1869984E+05)
 number of electron  352.0000000 magnetization 
 augmentation part   352.0000000 magnetization 

 Free energy of the ion-electron system (eV)
  ---------------------------------------------------
  alpha Z        PSCENC =      3613.38753142
  Ewald energy   TEWEN  =    -35866.39782013
  -1/2 Hartree   DENC   =    -10173.27527195
  -V(xc)+E(xc)   XCENC  =      1408.84078235
  PAW double counting   =     34625.67335558   -39234.46421604
  entropy T*S    EENTRO =        -0.00025018
  eigenvalues    EBANDS =      5182.68818525
  atomic energy  EATOM  =     44511.34040493
  ---------------------------------------------------
  free energy    TOTEN  =      4067.79270123 eV

  energy without entropy =     4067.79295141  energy(sigma->0) =     4067.79282632


--------------------------------------------------------------------------------------------------------




----------------------------------------- Iteration    1(   2)  ---------------------------------------


    EDDAV :  VPU time 5443.08: CPU time 5445.57
    DOS   :  VPU time    0.00: CPU time   -0.00
    ------------------------------------------
      LOOP:  VPU time 5443.44: CPU time 5445.94

 eigenvalue-minimisations  : 83104
 total energy-change (2. order) :-0.3577880E+04  (-0.3444746E+04)
 number of electron  352.0000000 magnetization 
 augmentation part   352.0000000 magnetization 

 Free energy of the ion-electron system (eV)
  ---------------------------------------------------
  alpha Z        PSCENC =      3613.38753142
  Ewald energy   TEWEN  =    -35866.39782013
  -1/2 Hartree   DENC   =    -10173.27527195
  -V(xc)+E(xc)   XCENC  =      1408.84078235
  PAW double counting   =     34625.67335558   -39234.46421604
  entropy T*S    EENTRO =        -0.00046769
  eigenvalues    EBANDS =      1604.80791677
  atomic energy  EATOM  =     44511.34040493
  ---------------------------------------------------
  free energy    TOTEN  =       489.91221523 eV

  energy without entropy =      489.91268292  energy(sigma->0) =      489.91244908


--------------------------------------------------------------------------------------------------------




----------------------------------------- Iteration    1(   3)  ---------------------------------------


    EDDAV :  VPU time 5042.76: CPU time 5045.40
    DOS   :  VPU time    0.00: CPU time   -0.00
    ------------------------------------------
      LOOP:  VPU time 5043.12: CPU time 5045.78

 eigenvalue-minimisations  : 83104
 total energy-change (2. order) :-0.5949058E+03  (-0.5491497E+03)
 number of electron  352.0000000 magnetization 
 augmentation part   352.0000000 magnetization 

 Free energy of the ion-electron system (eV)
  ---------------------------------------------------
  alpha Z        PSCENC =      3613.38753142
  Ewald energy   TEWEN  =    -35866.39782013
  -1/2 Hartree   DENC   =    -10173.27527195
  -V(xc)+E(xc)   XCENC  =      1408.84078235
  PAW double counting   =     34625.67335558   -39234.46421604
  entropy T*S    EENTRO =        -0.00072356
  eigenvalues    EBANDS =      1009.90238189
  atomic energy  EATOM  =     44511.34040493
  ---------------------------------------------------
  free energy    TOTEN  =      -104.99357551 eV

  energy without entropy =     -104.99285195  energy(sigma->0) =     -104.99321373


--------------------------------------------------------------------------------------------------------




----------------------------------------- Iteration    1(   4)  ---------------------------------------


    EDDAV :  VPU time 5740.82: CPU time 5743.62
    DOS   :  VPU time    0.00: CPU time   -0.00
    ------------------------------------------
      LOOP:  VPU time 5741.18: CPU time 5743.98

 eigenvalue-minimisations  : 86380
 total energy-change (2. order) :-0.4115376E+02  (-0.3977105E+02)
 number of electron  352.0000000 magnetization 
 augmentation part   352.0000000 magnetization 

 Free energy of the ion-electron system (eV)
  ---------------------------------------------------
  alpha Z        PSCENC =      3613.38753142
  Ewald energy   TEWEN  =    -35866.39782013
  -1/2 Hartree   DENC   =    -10173.27527195
  -V(xc)+E(xc)   XCENC  =      1408.84078235
  PAW double counting   =     34625.67335558   -39234.46421604
  entropy T*S    EENTRO =        -0.00111894
  eigenvalues    EBANDS =       968.74902122
  atomic energy  EATOM  =     44511.34040493
  ---------------------------------------------------
  free energy    TOTEN  =      -146.14733157 eV

  energy without entropy =     -146.14621263  energy(sigma->0) =     -146.14677210


--------------------------------------------------------------------------------------------------------




----------------------------------------- Iteration    1(   5)  ---------------------------------------


    EDDAV :  VPU time 5604.10: CPU time 5618.77
    DOS   :  VPU time    0.00: CPU time   -0.00
    CHARGE:  VPU time  146.75: CPU time  147.09
    MIXING:  VPU time    0.02: CPU time    0.02
    ------------------------------------------
      LOOP:  VPU time 5751.23: CPU time 5766.24

 eigenvalue-minimisations  : 88308
 total energy-change (2. order) :-0.4974176E+00  (-0.4957283E+00)
 number of electron  352.0000018 magnetization 
 augmentation part   214.0641698 magnetization 

 Broyden mixing:
  rms(total) = 0.39778E+01    rms(broyden)= 0.39778E+01
  rms(prec ) = 0.58998E+01
  weight for this iteration     100.00

 Free energy of the ion-electron system (eV)
  ---------------------------------------------------
  alpha Z        PSCENC =      3613.38753142
  Ewald energy   TEWEN  =    -35866.39782013
  -1/2 Hartree   DENC   =    -10173.27527195
  -V(xc)+E(xc)   XCENC  =      1408.84078235
  PAW double counting   =     34625.67335558   -39234.46421604
  entropy T*S    EENTRO =        -0.00111904
  eigenvalues    EBANDS =       968.25160368
  atomic energy  EATOM  =     44511.34040493
  ---------------------------------------------------
  free energy    TOTEN  =      -146.64474920 eV

  energy without entropy =     -146.64363017  energy(sigma->0) =     -146.64418968


--------------------------------------------------------------------------------------------------------




----------------------------------------- Iteration    1(   6)  ---------------------------------------


    POTLOK:  VPU time    0.84: CPU time    0.84
    SETDIJ:  VPU time    1.88: CPU time    1.89
    EDDAV :  VPU time 5851.01: CPU time 5878.31
    DOS   :  VPU time    0.00: CPU time   -0.00
    CHARGE:  VPU time  135.44: CPU time  135.80
    MIXING:  VPU time    0.02: CPU time    0.02
    ------------------------------------------
      LOOP:  VPU time 5989.55: CPU time 6017.24

 eigenvalue-minimisations  : 89308
 total energy-change (2. order) : 0.1949013E+02  (-0.2623122E+02)
 number of electron  352.0000020 magnetization 
 augmentation part   237.4160839 magnetization 

 Broyden mixing:
  rms(total) = 0.15937E+01    rms(broyden)= 0.15937E+01
  rms(prec ) = 0.22179E+01
  weight for this iteration     100.00

 eigenvalues of (default mixing * dielectric matrix)
  average eigenvalue GAMMA=   0.7166
  0.7166

 Free energy of the ion-electron system (eV)
  ---------------------------------------------------
  alpha Z        PSCENC =      3613.38753142
  Ewald energy   TEWEN  =    -35866.39782013
  -1/2 Hartree   DENC   =     -9392.56553149
  -V(xc)+E(xc)   XCENC  =      1368.96373484
  PAW double counting   =     34017.62124105   -38376.12382130
  entropy T*S    EENTRO =        -0.00095784
  eigenvalues    EBANDS =        -3.37939703
  atomic energy  EATOM  =     44511.34040493
  ---------------------------------------------------
  free energy    TOTEN  =      -127.15461556 eV

  energy without entropy =     -127.15365772  energy(sigma->0) =     -127.15413664


--------------------------------------------------------------------------------------------------------




----------------------------------------- Iteration    1(   7)  ---------------------------------------


    POTLOK:  VPU time    0.84: CPU time    0.84
    SETDIJ:  VPU time    1.91: CPU time    1.91
    EDDAV :  VPU time 5989.90: CPU time 6001.73
    DOS   :  VPU time    0.00: CPU time   -0.00
    CHARGE:  VPU time  136.48: CPU time  136.81
    MIXING:  VPU time    0.02: CPU time    0.02
    ------------------------------------------
      LOOP:  VPU time 6129.50: CPU time 6141.67

 eigenvalue-minimisations  : 92368
 total energy-change (2. order) : 0.8428131E+01  (-0.4282107E+01)
 number of electron  352.0000019 magnetization 
 augmentation part   229.2612533 magnetization 

 Broyden mixing:
  rms(total) = 0.32560E+00    rms(broyden)= 0.32559E+00
  rms(prec ) = 0.49723E+00
  weight for this iteration     100.00

 eigenvalues of (default mixing * dielectric matrix)
  average eigenvalue GAMMA=   1.3055
  1.9421  0.6689

 Free energy of the ion-electron system (eV)
  ---------------------------------------------------
  alpha Z        PSCENC =      3613.38753142
  Ewald energy   TEWEN  =    -35866.39782013
  -1/2 Hartree   DENC   =     -9588.98705678
  -V(xc)+E(xc)   XCENC  =      1379.43131727
  PAW double counting   =     34697.32462761   -39242.98460313
  entropy T*S    EENTRO =        -0.00070845
  eigenvalues    EBANDS =       378.15982295
  atomic energy  EATOM  =     44511.34040493
[...]
     68       1.0052      2.00000
     69       1.0060      2.00000
     70       1.0071      2.00000
     71       1.0071      2.00000
     72       1.0071      2.00000
     73       1.0072      2.00000
     74       1.0072      2.00000
     75       1.0072      2.00000
     76       1.0072      2.00000
     77       1.0074      2.00000
     78       1.0074      2.00000
     79       1.0074      2.00000
     80       1.0074      2.00000
     81       1.0075      2.00000
     82       1.0075      2.00000
     83       1.0075      2.00000
     84       1.0085      2.00000
     85       1.0094      2.00000
     86       1.0098      2.00000
     87       1.0104      2.00000
     88       1.0104      2.00000
     89       1.1471      2.00000
     90       1.1471      2.00000
     91       1.1475      2.00000
     92       1.1478      2.00000
     93       1.1481      2.00000
     94       1.1482      2.00000
     95       1.1483      2.00000
     96       1.1483      2.00000
     97       1.1486      2.00000
     98       1.1486      2.00000
     99       1.1487      2.00000
    100       1.1488      2.00000
    101       1.1492      2.00000
    102       1.1494      2.00000
    103       1.1498      2.00000
    104       1.1498      2.00000
    105       1.6613      2.00000
    106       1.6623      2.00000
    107       1.6623      2.00000
    108       1.6641      2.00000
    109       1.6643      2.00000
    110       1.6643      2.00000
    111       1.6644      2.00000
    112       1.6645      2.00000
    113       1.6647      2.00000
    114       1.6647      2.00000
    115       1.6647      2.00000
    116       1.6647      2.00000
    117       1.6648      2.00000
    118       1.6649      2.00000
    119       1.6649      2.00000
    120       1.6649      2.00000
    121       1.6650      2.00000
    122       1.6652      2.00000
    123       1.6653      2.00000
    124       1.6653      2.00000
    125       1.6654      2.00000
    126       1.6673      2.00000
    127       1.6673      2.00000
    128       1.6682      2.00000
    129       1.9492      2.00000
    130       1.9506      2.00000
    131       1.9506      2.00000
    132       1.9506      2.00000
    133       1.9512      2.00000
    134       1.9512      2.00000
    135       1.9515      2.00000
    136       1.9516      2.00000
    137       1.9517      2.00000
    138       1.9518      2.00000
    139       1.9520      2.00000
    140       1.9520      2.00000
    141       1.9527      2.00000
    142       1.9527      2.00000
    143       1.9527      2.00000
    144       1.9541      2.00000
    145       2.5099      2.00000
    146       2.5099      2.00000
    147       2.5101      2.00000
    148       2.5101      2.00000
    149       2.5103      2.00000
    150       2.5103      2.00000
    151       2.5103      2.00000
    152       2.5104      2.00000
    153       2.5104      2.00000
    154       2.5105      2.00000
    155       2.5105      2.00000
    156       2.5105      2.00000
    157       2.5107      2.00000
    158       2.5108      2.00000
    159       2.5108      2.00000
    160       2.5108      2.00000
    161       2.5109      2.00000
    162       2.5109      2.00000
    163       2.5110      2.00000
    164       2.5110      2.00000
    165       2.5111      2.00000
    166       2.5111      2.00000
    167       2.5113      2.00000
    168       2.5113      2.00000
    169       5.1343      0.00000
    170       5.1363      0.00000
    171       5.1363      0.00000
    172       5.1394      0.00000
    173       5.1399      0.00000
    174       5.1399      0.00000
    175       5.1400      0.00000
    176       5.1400      0.00000
    177       5.1401      0.00000
    178       5.1401      0.00000
    179       5.1402      0.00000
    180       5.1402      0.00000
    181       5.1404      0.00000
    182       5.1404      0.00000
    183       5.1405      0.00000
    184       5.1405      0.00000
    185       5.1406      0.00000
    186       5.1407      0.00000
    187       5.1407      0.00000
    188       5.1407      0.00000
    189       5.1413      0.00000
    190       5.1443      0.00000
    191       5.1443      0.00000
    192       5.1463      0.00000
    193      11.1193      0.00000
    194      11.1194      0.00000
    195      11.1204      0.00000
    196      11.1249      0.00000
    197      11.1251      0.00000
    198      11.1253      0.00000
    199      11.1254      0.00000
    200      11.1257      0.00000
    201      11.1257      0.00000
    202      11.1258      0.00000
    203      11.1259      0.00000
    204      11.1260      0.00000
    205      11.1260      0.00000
    206      11.1262      0.00000
    207      11.1264      0.00000
    208      11.1265      0.00000
    209      11.1266      0.00000
    210      11.1269      0.00000
    211      11.1272      0.00000
    212      11.1284      0.00000


--------------------------------------------------------------------------------------------------------


 soft charge-density along one line, spin component           1
         0         1         2         3         4         5         6         7         8         9
 total charge-density along one line
 
 pseudopotential strength for first ion, spin component:           1
 -6.224   0.000  -0.000   0.000  -0.000  -0.354  -0.000   0.000
  0.000  -6.224  -0.000   0.000  -0.000  -0.000  -0.354   0.000
 -0.000  -0.000  -6.204  -0.000  -0.000   0.000   0.000  -0.362
  0.000   0.000  -0.000  -6.224   0.000  -0.000  -0.000   0.000
 -0.000  -0.000  -0.000   0.000  -6.204   0.000   0.000   0.000
 -0.354  -0.000   0.000  -0.000   0.000   1.727   0.000  -0.000
 -0.000  -0.354   0.000  -0.000   0.000   0.000   1.727  -0.000
  0.000   0.000  -0.362   0.000   0.000  -0.000  -0.000   1.730
 -0.000  -0.000   0.000  -0.354  -0.000   0.000   0.000  -0.000
  0.000   0.000   0.000  -0.000  -0.362  -0.000  -0.000  -0.000
 -0.000  -0.000   0.000  -0.000  -0.000  -0.000  -0.000  -0.000
  0.000   0.000  -0.000   0.000   0.000  -0.000  -0.000   0.000
  0.000  -0.000   0.000  -0.000   0.000   0.000   0.000  -0.000
 -0.000  -0.000  -0.000   0.000  -0.000  -0.000   0.000   0.000
 -0.000  -0.000  -0.000  -0.000   0.000  -0.000  -0.000  -0.000
 -0.000  -0.000  -0.000   0.000   0.000  -0.000  -0.000   0.000
  0.000   0.000  -0.000  -0.000   0.000  -0.000  -0.000   0.000
  0.000   0.000   0.000   0.000  -0.000  -0.000  -0.000   0.000
 total augmentation occupancy for first ion, spin component:           1
  1.910  -0.000  -0.003  -0.000  -0.001   0.000  -0.000   0.001   0.000   0.000   0.006   0.000   0.001   0.000  -0.000  -0.000
 -0.000   1.913  -0.001  -0.001  -0.003  -0.000  -0.004   0.001   0.000   0.001   0.005   0.000   0.000   0.000  -0.000  -0.000
 -0.003  -0.001   1.926   0.000  -0.003   0.001   0.001  -0.052   0.001   0.003   0.014   0.003   0.000  -0.000  -0.000  -0.000
 -0.000  -0.001   0.000   1.916   0.001   0.000   0.000   0.001  -0.007   0.000   0.004  -0.000   0.000   0.001  -0.000  -0.000
 -0.001  -0.003  -0.003   0.001   1.915   0.000   0.001   0.003   0.000  -0.044   0.008   0.001   0.000   0.000   0.000   0.000
  0.000  -0.000   0.001   0.000   0.000   0.088   0.000   0.001   0.000  -0.000  -0.002   0.001   0.001  -0.000   0.000  -0.000
 -0.000  -0.004   0.001   0.000   0.001   0.000   0.091  -0.002  -0.000   0.001  -0.001   0.001   0.000  -0.000   0.000   0.000
  0.001   0.001  -0.052   0.001   0.003   0.001  -0.002   0.087  -0.001  -0.001  -0.009  -0.000   0.000   0.000  -0.000   0.000
  0.000   0.000   0.001  -0.007   0.000   0.000  -0.000  -0.001   0.094  -0.002   0.000   0.001  -0.000   0.001   0.000   0.000
  0.000   0.001   0.003   0.000  -0.044  -0.000   0.001  -0.001  -0.002   0.084  -0.005  -0.000  -0.000  -0.000   0.001   0.000
  0.006   0.005   0.014   0.004   0.008  -0.002  -0.001  -0.009   0.000  -0.005   1.250  -0.385  -0.000  -0.000   0.004   0.000
  0.000   0.000   0.003  -0.000   0.001   0.001   0.001  -0.000   0.001  -0.000  -0.385   0.171  -0.000   0.000  -0.001  -0.000
  0.001   0.000   0.000   0.000   0.000   0.001   0.000   0.000  -0.000  -0.000  -0.000  -0.000   0.208  -0.001   0.000  -0.014
  0.000   0.000  -0.000   0.001   0.000  -0.000  -0.000   0.000   0.001  -0.000  -0.000   0.000  -0.001   0.211  -0.002  -0.000
 -0.000  -0.000  -0.000  -0.000   0.000   0.000   0.000  -0.000   0.000   0.001   0.004  -0.001   0.000  -0.002   0.210  -0.000
 -0.000  -0.000  -0.000  -0.000   0.000  -0.000   0.000   0.000   0.000   0.000   0.000  -0.000  -0.014  -0.000  -0.000   0.001
 -0.000  -0.000  -0.000  -0.000   0.000   0.000   0.000  -0.000  -0.000  -0.000   0.000   0.000  -0.000  -0.015  -0.000   0.000
  0.000  -0.000   0.000   0.000  -0.000  -0.000   0.000   0.000  -0.000  -0.000  -0.000   0.000  -0.000  -0.000  -0.015   0.000


------------------------ aborting loop because EDIFF is reached ----------------------------------------




--------------------------------------------------------------------------------------------------------


    CHARGE:  VPU time  160.18: CPU time  160.29
    FORLOC:  VPU time    0.15: CPU time    0.15
    FORNL :  VPU time 1052.29: CPU time 1053.00
    STRESS:  VPU time 6284.93: CPU time 6289.90
    FORCOR:  VPU time    0.92: CPU time    0.92
    FORHAR:  VPU time    0.31: CPU time    0.31
    MIXING:  VPU time    0.03: CPU time    0.03


--------------------------------------------------------------------------------------------------------



  FREE ENERGIE OF THE ION-ELECTRON SYSTEM (eV)
  ---------------------------------------------------
  free  energy   TOTEN  =      -118.333416 eV

  energy  without entropy=     -118.332806  energy(sigma->0) =     -118.333111
 

  FORCE on cell =-STRESS in cart. coord.  units (eV/reduce length):
  Direction    X        Y        Z        XY       YZ       ZX
  --------------------------------------------------------------------------------------
  Alpha Z   3613.39   3613.39   3613.39
  Ewald   -11955.55 -11955.50 -11955.50     -0.00     -0.00     -0.00
  Hartree   3151.84   3151.88   3151.88     -0.00     -0.00     -0.00
  E(xc)    -2008.55  -2008.55  -2008.55     -0.00     -0.00     -0.00
  Local     4032.57   4032.47   4032.47     -0.00      0.00      0.00
  n-local  -1151.34  -1154.81  -1147.87      1.45      0.92      0.40
  augment   1810.41   1810.41   1810.41     -0.00     -0.00     -0.00
  Kinetic   2529.15   2526.10   2532.20      0.04     -1.15     -2.33
  -------------------------------------------------------------------------------------
  Total       21.91     21.91     21.91     -0.00      0.00      0.00
  in kB       96.97     96.97     96.97     -0.00      0.00      0.00
  external pressure =       96.97 kB  Pullay stress =        0.00 kB


 VOLUME and BASIS-vectors are now :
 -----------------------------------------------------------------------------
  energy-cutoff  :      750.00
  volume of cell :      362.07
      direct lattice vectors                 reciprocal lattice vectors
     7.127374991  0.000000000  0.000000000     0.140304109  0.000000000  0.000000000
     0.000000000  7.127374991  0.000000000     0.000000000  0.140304109  0.000000000
     0.000000000  0.000000000  7.127374991     0.000000000  0.000000000  0.140304109

  length of vectors
     7.127374991  7.127374991  7.127374991     0.140304109  0.140304109  0.140304109


 FORCES acting on ions
    electron-ion (+dipol)            ewald-force                    non-local-force                 convergence-correction
 -----------------------------------------------------------------------------------------------
   0.618E+01 0.260E-13 0.118E-05   -.625E+01 -.195E-13 -.218E-12   -.112E-01 -.271E-19 0.678E-20   0.330E-03 0.451E-13 -.787E-13
   -.163E+01 0.161E-13 -.123E-05   0.165E+01 -.506E-13 0.149E-12   -.211E-01 -.136E-19 -.678E-20   -.314E-03 0.150E-13 -.115E-12
   0.517E+00 0.349E-12 0.137E-09   -.522E+00 -.755E-13 0.105E-12   0.425E-02 0.000E+00 -.339E-20   0.152E-03 -.559E-13 -.320E-13
   -.415E+00 0.595E-11 0.136E-09   0.410E+00 -.346E-13 0.121E-12   0.568E-02 0.000E+00 0.169E-20   -.157E-03 -.643E-13 -.604E-13
   0.517E+00 0.262E-13 0.410E-08   -.522E+00 0.222E-13 0.657E-13   0.425E-02 0.339E-20 0.000E+00   0.152E-03 0.474E-13 0.983E-13
   -.415E+00 0.260E-13 0.410E-08   0.410E+00 -.222E-13 0.497E-13   0.568E-02 0.000E+00 0.000E+00   -.157E-03 0.173E-13 0.166E-12
   0.217E+00 0.349E-12 -.680E-10   -.216E+00 -.790E-13 0.657E-13   -.124E-02 0.136E-19 0.678E-20   0.402E-05 -.577E-13 0.646E-13
   -.200E+00 -.511E-11 -.652E-10   0.202E+00 -.622E-14 0.497E-13   -.111E-02 0.000E+00 0.000E+00   -.362E-05 -.665E-13 0.120E-12
   -.785E+00 -.151E+01 0.480E-09   0.792E+00 0.152E+01 0.622E-13   0.376E-02 -.102E-02 -.847E-21   -.243E-04 0.114E-03 -.753E-13
   -.791E+00 0.150E+01 0.499E-09   0.798E+00 -.151E+01 0.115E-12   0.399E-02 0.800E-03 0.000E+00   0.192E-04 0.291E-03 -.608E-13
   -.785E+00 0.151E+01 0.480E-09   0.792E+00 -.152E+01 0.149E-12   0.376E-02 0.102E-02 0.000E+00   -.243E-04 -.114E-03 -.626E-13
   -.791E+00 -.150E+01 0.477E-09   0.798E+00 0.151E+01 0.149E-12   0.399E-02 -.800E-03 -.424E-21   0.192E-04 -.291E-03 -.135E-13
   -.218E-01 -.125E+00 -.738E-10   0.239E-01 0.125E+00 0.144E-12   -.186E-02 0.553E-04 0.000E+00   -.730E-04 0.137E-03 0.150E-12
   -.248E-01 0.125E+00 -.658E-10   0.268E-01 -.125E+00 0.144E-12   -.184E-02 -.481E-04 0.339E-20   0.766E-04 0.293E-03 0.115E-12
   -.218E-01 0.125E+00 -.738E-10   0.239E-01 -.125E+00 0.497E-13   -.186E-02 -.553E-04 0.000E+00   -.730E-04 -.137E-03 0.119E-12
   -.248E-01 -.125E+00 -.658E-10   0.268E-01 0.125E+00 -.711E-14   -.184E-02 0.481E-04 -.339E-20   0.766E-04 -.293E-03 0.104E-12
   -.785E+00 0.292E-13 -.151E+01   0.792E+00 0.140E-12 0.152E+01   0.376E-02 -.339E-20 -.102E-02   -.244E-04 0.821E-14 0.114E-03
   -.791E+00 0.340E-13 0.150E+01   0.798E+00 0.835E-13 -.151E+01   0.399E-02 -.339E-20 0.800E-03   0.191E-04 0.196E-13 0.291E-03
   -.218E-01 0.355E-12 -.125E+00   0.239E-01 -.178E-14 0.125E+00   -.186E-02 -.566E-20 0.553E-04   -.730E-04 -.451E-13 0.137E-03
   -.248E-01 -.172E-11 0.125E+00   0.268E-01 0.112E-12 -.125E+00   -.184E-02 0.508E-20 -.481E-04   0.766E-04 -.719E-13 0.293E-03
   -.785E+00 0.368E-13 0.151E+01   0.792E+00 0.149E-12 -.152E+01   0.376E-02 0.339E-20 0.102E-02   -.244E-04 0.312E-13 -.114E-03
   -.791E+00 0.532E-13 -.150E+01   0.798E+00 0.355E-13 0.151E+01   0.399E-02 0.000E+00 -.800E-03   0.191E-04 0.483E-13 -.291E-03
   -.218E-01 0.352E-12 0.125E+00   0.239E-01 0.213E-13 -.125E+00   -.186E-02 -.339E-20 -.553E-04   -.730E-04 -.675E-13 -.137E-03
   -.248E-01 -.551E-12 -.125E+00   0.268E-01 0.782E-13 0.125E+00   -.184E-02 -.267E-20 0.481E-04   0.766E-04 -.999E-13 -.293E-03
   0.979E+00 0.409E-02 0.409E-02   -.985E+00 -.435E-02 -.435E-02   0.485E-02 -.254E-05 -.254E-05   0.159E-03 0.234E-03 0.234E-03
   -.548E+00 -.147E-02 -.147E-02   0.554E+00 0.130E-02 0.130E-02   -.522E-02 -.159E-04 -.159E-04   -.160E-03 0.183E-03 0.183E-03
   0.979E+00 -.409E-02 0.409E-02   -.985E+00 0.435E-02 -.435E-02   0.485E-02 0.254E-05 -.254E-05   0.159E-03 -.234E-03 0.234E-03
   -.548E+00 0.147E-02 -.147E-02   0.554E+00 -.130E-02 0.130E-02   -.522E-02 0.159E-04 -.159E-04   -.160E-03 -.183E-03 0.183E-03
   0.979E+00 0.409E-02 -.409E-02   -.985E+00 -.435E-02 0.435E-02   0.485E-02 -.254E-05 0.254E-05   0.159E-03 0.234E-03 -.234E-03
   -.548E+00 -.147E-02 0.147E-02   0.554E+00 0.130E-02 -.130E-02   -.522E-02 -.159E-04 0.159E-04   -.160E-03 0.183E-03 -.183E-03
   0.979E+00 -.409E-02 -.409E-02   -.985E+00 0.435E-02 0.435E-02   0.485E-02 0.254E-05 0.254E-05   0.159E-03 -.234E-03 -.234E-03
   -.548E+00 0.147E-02 0.147E-02   0.554E+00 -.130E-02 -.130E-02   -.522E-02 0.159E-04 0.159E-04   -.160E-03 -.183E-03 -.183E-03
 -----------------------------------------------------------------------------------------------
   0.915E-05 -.320E-11 -.457E-08   0.275E-13 -.170E-12 -.106E-12   -.172E-04 0.000E+00 -.407E-19   -.237E-05 -.561E-12 0.100E-11
 
 
 POSITION                                       TOTAL-FORCE (eV/Angst)
 -----------------------------------------------------------------------------------
      0.01000      0.00000      0.00000        -0.084255     -0.000000      0.000000
      3.56369      0.00000      0.00000         0.001090      0.000000     -0.000000
      0.00000      3.56369      0.00000        -0.000383      0.000000      0.000000
      3.56369      3.56369      0.00000         0.000259      0.000000     -0.000000
      0.00000      0.00000      3.56369        -0.000383     -0.000000     -0.000000
      3.56369      0.00000      3.56369         0.000259      0.000000     -0.000000
      0.00000      3.56369      3.56369        -0.000135     -0.000000      0.000000
      3.56369      3.56369      3.56369         0.000001      0.000000     -0.000000
      1.78184      1.78184      0.00000         0.010566      0.012321      0.000000
      5.34553      1.78184      0.00000         0.010256     -0.011881      0.000000
      1.78184      5.34553      0.00000         0.010566     -0.012321      0.000000
      5.34553      5.34553      0.00000         0.010256      0.011881      0.000000
      1.78184      1.78184      3.56369         0.000180      0.000137      0.000000
      5.34553      1.78184      3.56369         0.000178     -0.000139      0.000000
      1.78184      5.34553      3.56369         0.000180     -0.000137     -0.000000
      5.34553      5.34553      3.56369         0.000178      0.000139      0.000000
      1.78184      0.00000      1.78184         0.010566      0.000000      0.012321
      5.34553      0.00000      1.78184         0.010256     -0.000000     -0.011881
      1.78184      3.56369      1.78184         0.000180      0.000000      0.000137
      5.34553      3.56369      1.78184         0.000178      0.000000     -0.000139
      1.78184      0.00000      5.34553         0.010566     -0.000000     -0.012321
      5.34553      0.00000      5.34553         0.010256     -0.000000      0.011881
      1.78184      3.56369      5.34553         0.000180      0.000000     -0.000137
      5.34553      3.56369      5.34553         0.000178      0.000000      0.000139
      0.00000      1.78184      1.78184        -0.001079     -0.000026     -0.000026
      3.56369      1.78184      1.78184         0.000785      0.000001      0.000001
      0.00000      5.34553      1.78184        -0.001079      0.000026     -0.000026
      3.56369      5.34553      1.78184         0.000785     -0.000001      0.000001
      0.00000      1.78184      5.34553        -0.001079     -0.000026      0.000026
      3.56369      1.78184      5.34553         0.000785      0.000001     -0.000001
      0.00000      5.34553      5.34553        -0.001079      0.000026      0.000026
      3.56369      5.34553      5.34553         0.000785     -0.000001     -0.000001
 -----------------------------------------------------------------------------------
    total drift:                               -0.000010     -0.000000     -0.000000


--------------------------------------------------------------------------------------------------------



 mean value of Nose-termostat <S>:     1.000 mean value of <T> :     0.000
 mean temperature <T/S>/<1/S>  :     0.000

     LOOP+:  VPU time********: CPU time********
  
  
 General timing and accounting informations for this job:
 ========================================================
  
                  Total CPU time used (sec):   129072.319
                            User time (sec):    99549.168
                          System time (sec):    29523.151
                         Elapsed time (sec):   129205.314
  
                   Maximum memory used (kb):    17189992.
                   Average memory used (kb):           0.
  
                          Minor page faults:      3457997
                          Major page faults:            0
                 Voluntary context switches:         1073
