36   
2    

1    
  0.0069177475639133   0.0000194226878246   0.0072211073528351
  -0.0452184500    0.0007352900   -0.0499468400
   0.0087403800   -0.0034569700    0.0016296200
   0.0085670200    0.0043929400    0.0016326100
   0.0019800700   -0.0075601600    0.0016215000
   0.0026118800    0.0078191900    0.0013825800
   0.0009821300    0.0003964800    0.0007730600
   0.0018562300    0.0008556400    0.0016153900
   0.0012359300    0.0007283000    0.0007720200
   0.0025114900   -0.0001616200    0.0013860800
  -0.0034167700   -0.0001488300    0.0132944100
   0.0006132000    0.0015709100   -0.0002027900
   0.0006352300   -0.0004309000   -0.0001904700
  -0.0007309000    0.0004918400   -0.0001990600
   0.0000915200   -0.0000070300   -0.0003306300
  -0.0015562900    0.0003200700   -0.0009854000
  -0.0008239800   -0.0009367100   -0.0002034200
  -0.0012975100    0.0006689500   -0.0009849700
  -0.0000290800    0.0020490400   -0.0003270200
   0.0128781000   -0.0076555600    0.0124445300
   0.0002357100   -0.0005534300   -0.0001783800
  -0.0015158000   -0.0022086400   -0.0014275700
   0.0009814200    0.0081243700    0.0057600500
  -0.0021464600   -0.0011339000   -0.0015210900
   0.0001841800   -0.0004491300    0.0007321900
   0.0006248400   -0.0000697600   -0.0001564000
   0.0011995600   -0.0007978800   -0.0002047600
  -0.0005386000    0.0009880400   -0.0004016800
  -0.0018767400    0.0008914400   -0.0017127000
   0.0002590200   -0.0004878100   -0.0001505600
   0.0128998900    0.0061777800    0.0123505700
   0.0009467000   -0.0087257300    0.0054461700
   0.0000584000    0.0002561100    0.0005967800
  -0.0020798700    0.0008576300   -0.0014286900
   0.0005912000   -0.0001272300   -0.0001740300
   0.0011902800   -0.0008002700   -0.0001917300
  -0.0006439400   -0.0016124600   -0.0005193500

1    
 -0.0069177475639133  -0.0000194226878246  -0.0072211073528351
   0.0437184200   -0.0003081200    0.0499074600
  -0.0099654600    0.0045083400   -0.0016284700
  -0.0100935200   -0.0036277000   -0.0016252900
  -0.0037301300    0.0078543600   -0.0016359400
  -0.0034679600   -0.0072782900   -0.0013675300
  -0.0025978800    0.0002881700   -0.0007719100
  -0.0038105000    0.0002876900   -0.0016420400
  -0.0023442700    0.0006204400   -0.0007721000
  -0.0036165000    0.0011856900   -0.0013634300
   0.0020021800    0.0006446500   -0.0132818000
  -0.0020145700   -0.0005183000    0.0001885100
  -0.0020030400    0.0012275500    0.0002002800
  -0.0010216200   -0.0002568200    0.0001914100
  -0.0009805200    0.0005103200    0.0003302300
  -0.0000515900    0.0003684400    0.0009943600
  -0.0011249000    0.0020625600    0.0001872100
   0.0002063400    0.0007176000    0.0009934000
  -0.0010910100   -0.0010593500    0.0003334800
  -0.0114082000    0.0064327200   -0.0119847500
   0.0008779500   -0.0008255100    0.0001908600
   0.0033994600    0.0010810600    0.0013315100
   0.0005949800   -0.0085820100   -0.0055655200
   0.0030043300    0.0006200900    0.0015157300
   0.0015828900    0.0001891100   -0.0007362500
   0.0007353300   -0.0007324600    0.0001417900
   0.0002083200   -0.0002578600    0.0001857100
   0.0019628400   -0.0014480900    0.0004158100
   0.0030636300   -0.0018947600    0.0018095100
   0.0008221900   -0.0008842300    0.0001431000
  -0.0112943200   -0.0075260600   -0.0128204700
   0.0007219100    0.0082715700   -0.0056337500
   0.0007968300   -0.0007672500   -0.0006007400
   0.0038659200   -0.0011292100    0.0014527400
   0.0007702200   -0.0006595900    0.0001911500
   0.0002258000   -0.0002755200    0.0002231400
   0.0020564500    0.0011607600    0.0005026100
