phonopy:
  version: 1.11.2
  configuration:
    dim: "3 3 2"
    atom_name: "Ti"
    mp: "8 8 8"
    tprop: ".true."

supercell_matrix:
- [   3,   0,   0 ]
- [   0,   3,   0 ]
- [   0,   0,   2 ]

primitive_cell:
  lattice:
  - [     2.940222366636026,     0.008255146727232,     0.000000000000000 ] # a
  - [    -1.462961956844116,     2.550434870042714,     0.000000000000000 ] # b
  - [     0.000000000000000,     0.000000000000000,     4.603737232645213 ] # c
  points:
  - symbol: Ti # 1
    coordinates: [  0.332230184158760,  0.667769815841240,  0.250000000000000 ]
    mass: 47.867000
  - symbol: Ti # 2
    coordinates: [  0.667769815841240,  0.332230184158760,  0.750000000000000 ]
    mass: 47.867000
  reciprocal_lattice: # without 2pi
  - [     0.339563459873167,     0.194777929663613,     0.000000000000000 ] # a*
  - [    -0.001099085578458,     0.391459547286804,     0.000000000000000 ] # b*
  - [     0.000000000000000,     0.000000000000000,     0.217214829923171 ] # c*

unit_cell:
  lattice:
  - [     2.940222366636026,     0.008255146727232,     0.000000000000000 ] # a
  - [    -1.462961956844116,     2.550434870042714,     0.000000000000000 ] # b
  - [     0.000000000000000,     0.000000000000000,     4.603737232645213 ] # c
  points:
  - symbol: Ti # 1
    coordinates: [  0.332230184158760,  0.667769815841240,  0.250000000000000 ]
    mass: 47.867000
    reduced_to: 1
  - symbol: Ti # 2
    coordinates: [  0.667769815841240,  0.332230184158760,  0.750000000000000 ]
    mass: 47.867000
    reduced_to: 2

supercell:
  lattice:
  - [     8.820667099908079,     0.024765440181696,     0.000000000000000 ] # a
  - [    -4.388885870532348,     7.651304610128141,     0.000000000000000 ] # b
  - [     0.000000000000000,     0.000000000000000,     9.207474465290426 ] # c
  points:
  - symbol: Ti # 1
    coordinates: [  0.110743394719587,  0.222589938613747,  0.125000000000000 ]
    mass: 47.867000
    reduced_to: 1
  - symbol: Ti # 2
    coordinates: [  0.444076728052920,  0.222589938613747,  0.125000000000000 ]
    mass: 47.867000
    reduced_to: 1
  - symbol: Ti # 3
    coordinates: [  0.777410061386253,  0.222589938613747,  0.125000000000000 ]
    mass: 47.867000
    reduced_to: 1
  - symbol: Ti # 4
    coordinates: [  0.110743394719587,  0.555923271947080,  0.125000000000000 ]
    mass: 47.867000
    reduced_to: 1
  - symbol: Ti # 5
    coordinates: [  0.444076728052920,  0.555923271947080,  0.125000000000000 ]
    mass: 47.867000
    reduced_to: 1
  - symbol: Ti # 6
    coordinates: [  0.777410061386253,  0.555923271947080,  0.125000000000000 ]
    mass: 47.867000
    reduced_to: 1
  - symbol: Ti # 7
    coordinates: [  0.110743394719587,  0.889256605280413,  0.125000000000000 ]
    mass: 47.867000
    reduced_to: 1
  - symbol: Ti # 8
    coordinates: [  0.444076728052920,  0.889256605280413,  0.125000000000000 ]
    mass: 47.867000
    reduced_to: 1
  - symbol: Ti # 9
    coordinates: [  0.777410061386253,  0.889256605280413,  0.125000000000000 ]
    mass: 47.867000
    reduced_to: 1
  - symbol: Ti # 10
    coordinates: [  0.110743394719587,  0.222589938613747,  0.625000000000000 ]
    mass: 47.867000
    reduced_to: 1
  - symbol: Ti # 11
    coordinates: [  0.444076728052920,  0.222589938613747,  0.625000000000000 ]
    mass: 47.867000
    reduced_to: 1
  - symbol: Ti # 12
    coordinates: [  0.777410061386253,  0.222589938613747,  0.625000000000000 ]
    mass: 47.867000
    reduced_to: 1
  - symbol: Ti # 13
    coordinates: [  0.110743394719587,  0.555923271947080,  0.625000000000000 ]
    mass: 47.867000
    reduced_to: 1
  - symbol: Ti # 14
    coordinates: [  0.444076728052920,  0.555923271947080,  0.625000000000000 ]
    mass: 47.867000
    reduced_to: 1
  - symbol: Ti # 15
    coordinates: [  0.777410061386253,  0.555923271947080,  0.625000000000000 ]
    mass: 47.867000
    reduced_to: 1
  - symbol: Ti # 16
    coordinates: [  0.110743394719587,  0.889256605280413,  0.625000000000000 ]
    mass: 47.867000
    reduced_to: 1
  - symbol: Ti # 17
    coordinates: [  0.444076728052920,  0.889256605280413,  0.625000000000000 ]
    mass: 47.867000
    reduced_to: 1
  - symbol: Ti # 18
    coordinates: [  0.777410061386253,  0.889256605280413,  0.625000000000000 ]
    mass: 47.867000
    reduced_to: 1
  - symbol: Ti # 19
    coordinates: [  0.222589938613747,  0.110743394719587,  0.375000000000000 ]
    mass: 47.867000
    reduced_to: 19
  - symbol: Ti # 20
    coordinates: [  0.555923271947080,  0.110743394719587,  0.375000000000000 ]
    mass: 47.867000
    reduced_to: 19
  - symbol: Ti # 21
    coordinates: [  0.889256605280413,  0.110743394719587,  0.375000000000000 ]
    mass: 47.867000
    reduced_to: 19
  - symbol: Ti # 22
    coordinates: [  0.222589938613747,  0.444076728052920,  0.375000000000000 ]
    mass: 47.867000
    reduced_to: 19
  - symbol: Ti # 23
    coordinates: [  0.555923271947080,  0.444076728052920,  0.375000000000000 ]
    mass: 47.867000
    reduced_to: 19
  - symbol: Ti # 24
    coordinates: [  0.889256605280413,  0.444076728052920,  0.375000000000000 ]
    mass: 47.867000
    reduced_to: 19
  - symbol: Ti # 25
    coordinates: [  0.222589938613747,  0.777410061386253,  0.375000000000000 ]
    mass: 47.867000
    reduced_to: 19
  - symbol: Ti # 26
    coordinates: [  0.555923271947080,  0.777410061386253,  0.375000000000000 ]
    mass: 47.867000
    reduced_to: 19
  - symbol: Ti # 27
    coordinates: [  0.889256605280413,  0.777410061386253,  0.375000000000000 ]
    mass: 47.867000
    reduced_to: 19
  - symbol: Ti # 28
    coordinates: [  0.222589938613747,  0.110743394719587,  0.875000000000000 ]
    mass: 47.867000
    reduced_to: 19
  - symbol: Ti # 29
    coordinates: [  0.555923271947080,  0.110743394719587,  0.875000000000000 ]
    mass: 47.867000
    reduced_to: 19
  - symbol: Ti # 30
    coordinates: [  0.889256605280413,  0.110743394719587,  0.875000000000000 ]
    mass: 47.867000
    reduced_to: 19
  - symbol: Ti # 31
    coordinates: [  0.222589938613747,  0.444076728052920,  0.875000000000000 ]
    mass: 47.867000
    reduced_to: 19
  - symbol: Ti # 32
    coordinates: [  0.555923271947080,  0.444076728052920,  0.875000000000000 ]
    mass: 47.867000
    reduced_to: 19
  - symbol: Ti # 33
    coordinates: [  0.889256605280413,  0.444076728052920,  0.875000000000000 ]
    mass: 47.867000
    reduced_to: 19
  - symbol: Ti # 34
    coordinates: [  0.222589938613747,  0.777410061386253,  0.875000000000000 ]
    mass: 47.867000
    reduced_to: 19
  - symbol: Ti # 35
    coordinates: [  0.555923271947080,  0.777410061386253,  0.875000000000000 ]
    mass: 47.867000
    reduced_to: 19
  - symbol: Ti # 36
    coordinates: [  0.889256605280413,  0.777410061386253,  0.875000000000000 ]
    mass: 47.867000
    reduced_to: 19
