mesh: [    48,    48,    48 ]
nqpoint: 2600   
reciprocal_lattice:
- [   0.25019182,   0.00000000,   0.00000000 ] # a*
- [   0.00000000,   0.25019182,   0.00000000 ] # b*
- [   0.00000000,   0.00000000,   0.25019182 ] # c*
natom:   4      
lattice:
- [     3.996933305976087,     0.000000000000000,     0.000000000000000 ] # a
- [     0.000000000000000,     3.996933305976087,     0.000000000000000 ] # b
- [     0.000000000000000,     0.000000000000000,     3.996933305976087 ] # c
points:
- symbol: Al # 1
  coordinates: [  0.500000000000000,  0.500000000000000,  0.000000000000000 ]
  mass: 26.981539
- symbol: Al # 2
  coordinates: [  0.500000000000000,  0.000000000000000,  0.500000000000000 ]
  mass: 26.981539
- symbol: Al # 3
  coordinates: [  0.000000000000000,  0.500000000000000,  0.500000000000000 ]
  mass: 26.981539
- symbol: Al # 4
  coordinates: [  0.000000000000000,  0.000000000000000,  0.000000000000000 ]
  mass: 26.981539
phonon:
- q-position: [    0.0104167,    0.0104167,    0.0104167 ]
  weight: 8    
  band:
  - # 1
    frequency:     0.1377318469
  - # 2
    frequency:     0.1377318469
  - # 3
    frequency:     0.3323072020
  - # 4
    frequency:     6.2808836111
  - # 5
    frequency:     6.2808836111
  - # 6
    frequency:     6.2808836111
  - # 7
    frequency:     6.2857333330
  - # 8
    frequency:     6.2857333330
  - # 9
    frequency:     6.2857333330
  - # 10
    frequency:    10.3594182654
  - # 11
    frequency:    10.3594182654
  - # 12
    frequency:    10.3594182654

- q-position: [    0.0312500,    0.0104167,    0.0104167 ]
  weight: 24   
  band:
  - # 1
    frequency:     0.2816152419
  - # 2
    frequency:     0.3190167886
  - # 3
    frequency:     0.6021931877
  - # 4
    frequency:     6.2740300452
  - # 5
    frequency:     6.2788696858
  - # 6
    frequency:     6.2820081886
  - # 7
    frequency:     6.2820081886
  - # 8
    frequency:     6.2970606511
  - # 9
    frequency:     6.2970606511
  - # 10
    frequency:    10.3483402316
  - # 11
    frequency:    10.3503908480
  - # 12
    frequency:    10.3503908480

- q-position: [    0.0520833,    0.0104167,    0.0104167 ]
  weight: 24   
  band:
  - # 1
    frequency:     0.4860100851
  - # 2
    frequency:     0.5167603416
  - # 3
    frequency:     0.9107748025
  - # 4
    frequency:     6.2603314946
  - # 5
    frequency:     6.2651509419
  - # 6
    frequency:     6.2884783748
  - # 7
    frequency:     6.2884783748
  - # 8
    frequency:     6.3153886976
  - # 9
    frequency:     6.3153886976
  - # 10
    frequency:    10.3261960431
  - # 11
    frequency:    10.3323770987
  - # 12
    frequency:    10.3323770987

- q-position: [    0.0729167,    0.0104167,    0.0104167 ]
  weight: 24   
  band:
  - # 1
    frequency:     0.6930041129
  - # 2
    frequency:     0.7170162004
  - # 3
    frequency:     1.2320024339
  - # 4
    frequency:     6.2398051009
  - # 5
    frequency:     6.2445941814
  - # 6
    frequency:     6.2997482200
  - # 7
    frequency:     6.2997482200
  - # 8
    frequency:     6.3410540592
  - # 9
    frequency:     6.3410540592
  - # 10
    frequency:    10.2930094464
  - # 11
    frequency:    10.3054590035
  - # 12
    frequency:    10.3054590035

- q-position: [    0.0937500,    0.0104167,    0.0104167 ]
  weight: 24   
  band:
  - # 1
    frequency:     0.8984708579
  - # 2
    frequency:     0.9175988598
  - # 3
    frequency:     1.5581604570
  - # 4
    frequency:     6.2124765247
  - # 5
    frequency:     6.2172249720
  - # 6
    frequency:     6.3153101647
  - # 7
    frequency:     6.3153101647
  - # 8
    frequency:     6.3742545650
  - # 9
    frequency:     6.3742545650
  - # 10
    frequency:    10.2488160313
  - # 11
    frequency:    10.2697590798
  - # 12
    frequency:    10.2697590798

- q-position: [    0.1145833,    0.0104167,    0.0104167 ]
  weight: 24   
  band:
  - # 1
    frequency:     1.1021674314
  - # 2
    frequency:     1.1177402459
  - # 3
    frequency:     1.8859506797
  - # 4
    frequency:     6.1783798832
  - # 5
    frequency:     6.1830773076
  - # 6
    frequency:     6.3346804824
  - # 7
    frequency:     6.3346804824
  - # 8
    frequency:     6.4150688294
  - # 9
    frequency:     6.4150688294
  - # 10
    frequency:    10.1936631945
  - # 11
    frequency:    10.2254398232
  - # 12
    frequency:    10.2254398232

- q-position: [    0.1354167,    0.0104167,    0.0104167 ]
  weight: 24   
  band:
  - # 1
    frequency:     1.3041279711
  - # 2
    frequency:     1.3170162083
  - # 3
    frequency:     2.2136520668
  - # 4
    frequency:     6.1375576686
  - # 5
    frequency:     6.1421935252
  - # 6
    frequency:     6.3573768387
  - # 7
    frequency:     6.3573768387
  - # 8
    frequency:     6.4634850405
  - # 9
    frequency:     6.4634850405
  - # 10
    frequency:    10.1276100926
  - # 11
    frequency:    10.1727029730
  - # 12
    frequency:    10.1727029730

- q-position: [    0.1562500,    0.0104167,    0.0104167 ]
  weight: 24   
  band:
  - # 1
    frequency:     1.5043346958
  - # 2
    frequency:     1.5151198147
  - # 3
    frequency:     2.5402030139
  - # 4
    frequency:     6.0900606462
  - # 5
    frequency:     6.0946242032
  - # 6
    frequency:     6.3829033800
  - # 7
    frequency:     6.3829033800
  - # 8
    frequency:     6.5194233546
  - # 9
    frequency:     6.5194233546
  - # 10
    frequency:    10.0507275816
  - # 11
    frequency:    10.1117885975
  - # 12
    frequency:    10.1117885975

- q-position: [    0.1770833,    0.0104167,    0.0104167 ]
  weight: 24   
  band:
  - # 1
    frequency:     1.7027088982
  - # 2
    frequency:     1.7117932957
  - # 3
    frequency:     2.8648521404
  - # 4
    frequency:     6.0359477339
  - # 5
    frequency:     6.0404280406
  - # 6
    frequency:     6.4107448032
  - # 7
    frequency:     6.4107448032
  - # 8
    frequency:     6.5827502050
  - # 9
    frequency:     6.5827502050
  - # 10
    frequency:     9.9630981463
  - # 11
    frequency:    10.0429740015
  - # 12
    frequency:    10.0429740015

- q-position: [    0.1979167,    0.0104167,    0.0104167 ]
  weight: 24   
  band:
  - # 1
    frequency:     1.8991305360
  - # 2
    frequency:     1.9068027690
  - # 3
    frequency:     3.1870088191
  - # 4
    frequency:     5.9752858637
  - # 5
    frequency:     5.9796717171
  - # 6
    frequency:     6.4403670618
  - # 7
    frequency:     6.4403670618
  - # 8
    frequency:     6.6532866185
  - # 9
    frequency:     6.6532866185
  - # 10
    frequency:     9.8648158172
  - # 11
    frequency:     9.9665724597
  - # 12
    frequency:     9.9665724597

- q-position: [    0.2187500,    0.0104167,    0.0104167 ]
  weight: 24   
  band:
  - # 1
    frequency:     2.0934536459
  - # 2
    frequency:     2.0999274114
  - # 3
    frequency:     3.5061728728
  - # 4
    frequency:     5.9081498258
  - # 5
    frequency:     5.9124297362
  - # 6
    frequency:     6.4712221461
  - # 7
    frequency:     6.4712221461
  - # 8
    frequency:     6.7308128699
  - # 9
    frequency:     6.7308128699
  - # 10
    frequency:     9.7559860761
  - # 11
    frequency:     9.8829317789
  - # 12
    frequency:     9.8829317789

- q-position: [    0.2395833,    0.0104167,    0.0104167 ]
  weight: 24   
  band:
  - # 1
    frequency:     2.2855161964
  - # 2
    frequency:     2.2909543328
  - # 3
    frequency:     3.8218988942
  - # 4
    frequency:     5.8346220957
  - # 5
    frequency:     5.8387842515
  - # 6
    frequency:     6.5027550585
  - # 7
    frequency:     6.5027550585
  - # 8
    frequency:     6.8150711377
  - # 9
    frequency:     6.8150711377
  - # 10
    frequency:     9.6367257515
  - # 11
    frequency:     9.7924326922
  - # 12
    frequency:     9.7924326922

- q-position: [    0.2604167,    0.0104167,    0.0104167 ]
  weight: 24   
  band:
  - # 1
    frequency:     2.4751462138
  - # 2
    frequency:     2.4796759778
  - # 3
    frequency:     4.1337769981
  - # 4
    frequency:     5.7547926475
  - # 5
    frequency:     5.7588248774
  - # 6
    frequency:     6.5344117713
  - # 7
    frequency:     6.5344117713
  - # 8
    frequency:     6.9057671883
  - # 9
    frequency:     6.9057671883
  - # 10
    frequency:     9.5071629017
  - # 11
    frequency:     9.6954870915
  - # 12
    frequency:     9.6954870915

- q-position: [    0.2812500,    0.0104167,    0.0104167 ]
  weight: 24   
  band:
  - # 1
    frequency:     2.6621656514
  - # 2
    frequency:     2.6658887532
  - # 3
    frequency:     4.4414219187
  - # 4
    frequency:     5.6687587517
  - # 5
    frequency:     5.6726484846
  - # 6
    frequency:     6.5656474194
  - # 7
    frequency:     6.5656474194
  - # 8
    frequency:     7.0025716849
  - # 9
    frequency:     7.0025716849
  - # 10
    frequency:     9.3674366886
  - # 11
    frequency:     9.5925361012
  - # 12
    frequency:     9.5925361012

- q-position: [    0.3020833,    0.0104167,    0.0104167 ]
  weight: 24   
  band:
  - # 1
    frequency:     2.8463929090
  - # 2
    frequency:     2.8493922952
  - # 3
    frequency:     4.7444665980
  - # 4
    frequency:     5.5766247606
  - # 5
    frequency:     5.5803589824
  - # 6
    frequency:     6.5959342742
  - # 7
    frequency:     6.5959342742
  - # 8
    frequency:     7.1051214526
  - # 9
    frequency:     7.1051214526
  - # 10
    frequency:     9.2176972408
  - # 11
    frequency:     9.4840480003
  - # 12
    frequency:     9.4840480003

- q-position: [    0.3229167,    0.0104167,    0.0104167 ]
  weight: 24   
  band:
  - # 1
    frequency:     3.0276445380
  - # 2
    frequency:     3.0299890949
  - # 3
    frequency:     5.0425583085
  - # 4
    frequency:     5.4785018825
  - # 5
    frequency:     5.4820670884
  - # 6
    frequency:     6.6247692297
  - # 7
    frequency:     6.6247692297
  - # 8
    frequency:     7.2130208771
  - # 9
    frequency:     7.2130208771
  - # 10
    frequency:     9.0581055069
  - # 11
    frequency:     9.3705159988
  - # 12
    frequency:     9.3705159988

- q-position: [    0.3437500,    0.0104167,    0.0104167 ]
  weight: 24   
  band:
  - # 1
    frequency:     3.2057364434
  - # 2
    frequency:     3.2074843324
  - # 3
    frequency:     5.3353562687
  - # 4
    frequency:     5.3745079455
  - # 5
    frequency:     5.3778900871
  - # 6
    frequency:     6.6516806484
  - # 7
    frequency:     6.6516806484
  - # 8
    frequency:     7.3258435222
  - # 9
    frequency:     7.3258435222
  - # 10
    frequency:     8.8888330995
  - # 11
    frequency:     9.2524558770
  - # 12
    frequency:     9.2524558770

- q-position: [    0.3645833,    0.0104167,    0.0104167 ]
  weight: 24   
  band:
  - # 1
    frequency:     3.3804847714
  - # 2
    frequency:     3.3816858421
  - # 3
    frequency:     5.2647671518
  - # 4
    frequency:     5.2679515775
  - # 5
    frequency:     5.6225301664
  - # 6
    frequency:     6.6762344888
  - # 7
    frequency:     6.6762344888
  - # 8
    frequency:     7.4431339949
  - # 9
    frequency:     7.4431339949
  - # 10
    frequency:     8.7100621315
  - # 11
    frequency:     9.1304034993
  - # 12
    frequency:     9.1304034993

- q-position: [    0.3854167,    0.0104167,    0.0104167 ]
  weight: 24   
  band:
  - # 1
    frequency:     3.5517065952
  - # 2
    frequency:     3.5524041617
  - # 3
    frequency:     5.1494098263
  - # 4
    frequency:     5.1523812129
  - # 5
    frequency:     5.9037592544
  - # 6
    frequency:     6.6980396829
  - # 7
    frequency:     6.6980396829
  - # 8
    frequency:     7.5644100517
  - # 9
    frequency:     7.5644100517
  - # 10
    frequency:     8.5219850434
  - # 11
    frequency:     9.0049122199
  - # 12
    frequency:     9.0049122199

- q-position: [    0.4062500,    0.0104167,    0.0104167 ]
  weight: 24   
  band:
  - # 1
    frequency:     3.7192204702
  - # 2
    frequency:     3.7194526400
  - # 3
    frequency:     5.0285721578
  - # 4
    frequency:     5.0313144314
  - # 5
    frequency:     6.1787318135
  - # 6
    frequency:     6.7167527626
  - # 7
    frequency:     6.7167527626
  - # 8
    frequency:     7.6891648989
  - # 9
    frequency:     7.6891648989
  - # 10
    frequency:     8.3248044254
  - # 11
    frequency:     8.8765502185
  - # 12
    frequency:     8.8765502185

- q-position: [    0.4270833,    0.0104167,    0.0104167 ]
  weight: 24   
  band:
  - # 1
    frequency:     3.8826475850
  - # 2
    frequency:     3.8828469029
  - # 3
    frequency:     4.9023959374
  - # 4
    frequency:     4.9048921801
  - # 5
    frequency:     6.4471448584
  - # 6
    frequency:     6.7320817515
  - # 7
    frequency:     6.7320817515
  - # 8
    frequency:     7.8168695677
  - # 9
    frequency:     7.8168695677
  - # 10
    frequency:     8.1187328321
  - # 11
    frequency:     8.7458978700
  - # 12
    frequency:     8.7458978700

- q-position: [    0.4479167,    0.0104167,    0.0104167 ]
  weight: 24   
  band:
  - # 1
    frequency:     4.0418084417
  - # 2
    frequency:     4.0424087635
  - # 3
    frequency:     4.7710282931
  - # 4
    frequency:     4.7732606330
  - # 5
    frequency:     6.7087040050
  - # 6
    frequency:     6.7437893481
  - # 7
    frequency:     6.7437893481
  - # 8
    frequency:     7.9039925954
  - # 9
    frequency:     7.9469749373
  - # 10
    frequency:     7.9469749373
  - # 11
    frequency:     8.6135455523
  - # 12
    frequency:     8.6135455523

- q-position: [    0.4687500,    0.0104167,    0.0104167 ]
  weight: 24   
  band:
  - # 1
    frequency:     4.1967579938
  - # 2
    frequency:     4.1977316598
  - # 3
    frequency:     4.6346214244
  - # 4
    frequency:     4.6365709036
  - # 5
    frequency:     6.7516954281
  - # 6
    frequency:     6.7516954281
  - # 7
    frequency:     6.9631234480
  - # 8
    frequency:     7.6808156339
  - # 9
    frequency:     8.0789108783
  - # 10
    frequency:     8.0789108783
  - # 11
    frequency:     8.4800943995
  - # 12
    frequency:     8.4800943995

- q-position: [    0.4895833,    0.0104167,    0.0104167 ]
  weight: 24   
  band:
  - # 1
    frequency:     4.3473225821
  - # 2
    frequency:     4.3486442857
  - # 3
    frequency:     4.4933323375
  - # 4
    frequency:     4.4949787516
  - # 5
    frequency:     6.7556788938
  - # 6
    frequency:     6.7556788938
  - # 7
    frequency:     7.2101260137
  - # 8
    frequency:     7.4494432638
  - # 9
    frequency:     8.2120402002
  - # 10
    frequency:     8.2120402002
  - # 11
    frequency:     8.3462022955
  - # 12
    frequency:     8.3462022955

- q-position: [    0.0312500,    0.0312500,    0.0104167 ]
  weight: 24   
  band:
  - # 1
    frequency:     0.2971812631
  - # 2
    frequency:     0.4227976302
  - # 3
    frequency:     0.8197885267
  - # 4
    frequency:     6.2739958602
  - # 5
    frequency:     6.2751643134
  - # 6
    frequency:     6.2751643134
  - # 7
    frequency:     6.2901957176
  - # 8
    frequency:     6.2901957176
  - # 9
    frequency:     6.3174328370
  - # 10
    frequency:    10.3393975933
  - # 11
    frequency:    10.3393975933
  - # 12
    frequency:    10.3413832354

- q-position: [    0.0520833,    0.0312500,    0.0104167 ]
  weight: 48   
  band:
  - # 1
    frequency:     0.4408355850
  - # 2
    frequency:     0.5865587815
  - # 3
    frequency:     1.0908253854
  - # 4
    frequency:     6.2614847922
  - # 5
    frequency:     6.2717753615
  - # 6
    frequency:     6.2764743397
  - # 7
    frequency:     6.2816336236
  - # 8
    frequency:     6.3085400261
  - # 9
    frequency:     6.3442691905
  - # 10
    frequency:    10.3174227928
  - # 11
    frequency:    10.3215535489
  - # 12
    frequency:    10.3234088992

- q-position: [    0.0729167,    0.0312500,    0.0104167 ]
  weight: 48   
  band:
  - # 1
    frequency:     0.6356527985
  - # 2
    frequency:     0.7691956329
  - # 3
    frequency:     1.3828065611
  - # 4
    frequency:     6.2409860571
  - # 5
    frequency:     6.2559134834
  - # 6
    frequency:     6.2752729634
  - # 7
    frequency:     6.2928856324
  - # 8
    frequency:     6.3342427804
  - # 9
    frequency:     6.3774373762
  - # 10
    frequency:    10.2844898564
  - # 11
    frequency:    10.2948903819
  - # 12
    frequency:    10.2965494339

- q-position: [    0.0937500,    0.0312500,    0.0104167 ]
  weight: 48   
  band:
  - # 1
    frequency:     0.8423650171
  - # 2
    frequency:     0.9593473693
  - # 3
    frequency:     1.6861145704
  - # 4
    frequency:     6.2136926905
  - # 5
    frequency:     6.2285385675
  - # 6
    frequency:     6.2842036915
  - # 7
    frequency:     6.3084087431
  - # 8
    frequency:     6.3675017138
  - # 9
    frequency:     6.4169173508
  - # 10
    frequency:    10.2406338798
  - # 11
    frequency:    10.2595310665
  - # 12
    frequency:    10.2609267731

- q-position: [    0.1145833,    0.0312500,    0.0104167 ]
  weight: 48   
  band:
  - # 1
    frequency:     1.0508689242
  - # 2
    frequency:     1.1527062696
  - # 3
    frequency:     1.9959334902
  - # 4
    frequency:     6.1796373452
  - # 5
    frequency:     6.1943834290
  - # 6
    frequency:     6.2981892887
  - # 7
    frequency:     6.3277162049
  - # 8
    frequency:     6.4083931059
  - # 9
    frequency:     6.4626881276
  - # 10
    frequency:    10.1859016214
  - # 11
    frequency:    10.2156387280
  - # 12
    frequency:    10.2167026411

- q-position: [    0.1354167,    0.0312500,    0.0104167 ]
  weight: 48   
  band:
  - # 1
    frequency:     1.2583024141
  - # 2
    frequency:     1.3472730995
  - # 3
    frequency:     2.3093084120
  - # 4
    frequency:     6.1388606383
  - # 5
    frequency:     6.1534902778
  - # 6
    frequency:     6.3167679305
  - # 7
    frequency:     6.3503225962
  - # 8
    frequency:     6.4569017647
  - # 9
    frequency:     6.5147241028
  - # 10
    frequency:    10.1203514719
  - # 11
    frequency:    10.1634159246
  - # 12
    frequency:    10.1640778245

- q-position: [    0.1562500,    0.0312500,    0.0104167 ]
  weight: 48   
  band:
  - # 1
    frequency:     1.4637527725
  - # 2
    frequency:     1.5419484948
  - # 3
    frequency:     2.6242473974
  - # 4
    frequency:     6.0914110161
  - # 5
    frequency:     6.1059096431
  - # 6
    frequency:     6.3394010039
  - # 7
    frequency:     6.3757284085
  - # 8
    frequency:     6.5129440619
  - # 9
    frequency:     6.5729954307
  - # 10
    frequency:    10.0440534163
  - # 11
    frequency:    10.1031037539
  - # 12
    frequency:    10.1032912652

- q-position: [    0.1770833,    0.0312500,    0.0104167 ]
  weight: 48   
  band:
  - # 1
    frequency:     1.6668889986
  - # 2
    frequency:     1.7360362903
  - # 3
    frequency:     2.9393215019
  - # 4
    frequency:     6.0373445922
  - # 5
    frequency:     6.0517003127
  - # 6
    frequency:     6.3654834642
  - # 7
    frequency:     6.4034139739
  - # 8
    frequency:     6.5763825288
  - # 9
    frequency:     6.6374657184
  - # 10
    frequency:     9.9570889893
  - # 11
    frequency:    10.0346189782
  - # 12
    frequency:    10.0349807850

- q-position: [    0.1979167,    0.0312500,    0.0104167 ]
  weight: 48   
  band:
  - # 1
    frequency:     1.8675556957
  - # 2
    frequency:     1.9290416255
  - # 3
    frequency:     3.2534508164
  - # 4
    frequency:     5.9767249558
  - # 5
    frequency:     5.9909292665
  - # 6
    frequency:     6.3943581879
  - # 7
    frequency:     6.4328401904
  - # 8
    frequency:     6.6470343032
  - # 9
    frequency:     6.7080863953
  - # 10
    frequency:     9.8595512231
  - # 11
    frequency:     9.9583727971
  - # 12
    frequency:     9.9593618198

- q-position: [    0.2187500,    0.0312500,    0.0104167 ]
  weight: 48   
  band:
  - # 1
    frequency:     2.0656424398
  - # 2
    frequency:     2.1205791483
  - # 3
    frequency:     3.5657802263
  - # 4
    frequency:     5.9096229527
  - # 5
    frequency:     5.9236716055
  - # 6
    frequency:     6.4253332972
  - # 7
    frequency:     6.4634533733
  - # 8
    frequency:     6.7246758581
  - # 9
    frequency:     6.7847885640
  - # 10
    frequency:     9.7515445898
  - # 11
    frequency:     9.8748989512
  - # 12
    frequency:     9.8765964854

- q-position: [    0.2395833,    0.0312500,    0.0104167 ]
  weight: 48   
  band:
  - # 1
    frequency:     2.2610412387
  - # 2
    frequency:     2.3103274306
  - # 3
    frequency:     3.8756040907
  - # 4
    frequency:     5.8361164387
  - # 5
    frequency:     5.8500104767
  - # 6
    frequency:     6.4577008211
  - # 7
    frequency:     6.4946923112
  - # 8
    frequency:     6.8090457143
  - # 9
    frequency:     6.8674737650
  - # 10
    frequency:     9.6331849372
  - # 11
    frequency:     9.7845764786
  - # 12
    frequency:     9.7870676625

- q-position: [    0.2604167,    0.0312500,    0.0104167 ]
  weight: 48   
  band:
  - # 1
    frequency:     2.4536339774
  - # 2
    frequency:     2.4980046923
  - # 3
    frequency:     4.1823192141
  - # 4
    frequency:     5.7562900092
  - # 5
    frequency:     5.7700369921
  - # 6
    frequency:     6.4907549373
  - # 7
    frequency:     6.5259962988
  - # 8
    frequency:     6.8998461736
  - # 9
    frequency:     6.9560052312
  - # 10
    frequency:     9.5045994191
  - # 11
    frequency:     9.6878154825
  - # 12
    frequency:     9.6911897521

- q-position: [    0.2812500,    0.0312500,    0.0104167 ]
  weight: 48   
  band:
  - # 1
    frequency:     2.6432902436
  - # 2
    frequency:     2.6833551258
  - # 3
    frequency:     4.4853947649
  - # 4
    frequency:     5.6702347114
  - # 5
    frequency:     5.6838501377
  - # 6
    frequency:     6.5238083431
  - # 7
    frequency:     6.5568133977
  - # 8
    frequency:     6.9967446680
  - # 9
    frequency:     7.0502009263
  - # 10
    frequency:     9.3659264220
  - # 11
    frequency:     9.5850552351
  - # 12
    frequency:     9.5894067870

- q-position: [    0.3020833,    0.0312500,    0.0104167 ]
  weight: 48   
  band:
  - # 1
    frequency:     2.8298685697
  - # 2
    frequency:     2.8661408409
  - # 3
    frequency:     4.7843526190
  - # 4
    frequency:     5.5780477493
  - # 5
    frequency:     5.5915566630
  - # 6
    frequency:     6.5562058694
  - # 7
    frequency:     6.5866084706
  - # 8
    frequency:     7.0993750508
  - # 9
    frequency:     7.1498291274
  - # 10
    frequency:     9.2173154876
  - # 11
    frequency:     9.4767621416
  - # 12
    frequency:     9.4821903933

- q-position: [    0.3229167,    0.0312500,    0.0104167 ]
  weight: 48   
  band:
  - # 1
    frequency:     3.0132185803
  - # 2
    frequency:     3.0461369470
  - # 3
    frequency:     5.0787542669
  - # 4
    frequency:     5.4798321964
  - # 5
    frequency:     5.4932709387
  - # 6
    frequency:     6.5873350594
  - # 7
    frequency:     6.6148707278
  - # 8
    frequency:     7.2073389980
  - # 9
    frequency:     7.2546067185
  - # 10
    frequency:     9.0589272333
  - # 11
    frequency:     9.3634275774
  - # 12
    frequency:     9.3700376129

- q-position: [    0.3437500,    0.0312500,    0.0104167 ]
  weight: 48   
  band:
  - # 1
    frequency:     3.1931831623
  - # 2
    frequency:     3.2231284659
  - # 3
    frequency:     5.3681919459
  - # 4
    frequency:     5.3756967407
  - # 5
    frequency:     5.3891147607
  - # 6
    frequency:     6.6166339228
  - # 7
    frequency:     6.6411206356
  - # 8
    frequency:     7.3202075900
  - # 9
    frequency:     7.3641998936
  - # 10
    frequency:     8.8909332729
  - # 11
    frequency:     9.2455656226
  - # 12
    frequency:     9.2534686037

- q-position: [    0.3645833,    0.0312500,    0.0104167 ]
  weight: 48   
  band:
  - # 1
    frequency:     3.3696003906
  - # 2
    frequency:     3.3969083512
  - # 3
    frequency:     5.2657554844
  - # 4
    frequency:     5.2792170778
  - # 5
    frequency:     5.6522825433
  - # 6
    frequency:     6.6435963471
  - # 7
    frequency:     6.6649161166
  - # 8
    frequency:     7.4375230712
  - # 9
    frequency:     7.4782266913
  - # 10
    frequency:     8.7135161377
  - # 11
    frequency:     9.1237107418
  - # 12
    frequency:     9.1330242536

- q-position: [    0.3854167,    0.0312500,    0.0104167 ]
  weight: 48   
  band:
  - # 1
    frequency:     3.5423051678
  - # 2
    frequency:     3.5672761914
  - # 3
    frequency:     5.1501278234
  - # 4
    frequency:     5.1637136223
  - # 5
    frequency:     5.9306633556
  - # 6
    frequency:     6.6677757322
  - # 7
    frequency:     6.6858580192
  - # 8
    frequency:     7.5588007064
  - # 9
    frequency:     7.5962606564
  - # 10
    frequency:     8.5268692033
  - # 11
    frequency:     8.9984155156
  - # 12
    frequency:     9.0092637937

- q-position: [    0.4062500,    0.0312500,    0.0104167 ]
  weight: 48   
  band:
  - # 1
    frequency:     3.7111306137
  - # 2
    frequency:     3.7340373424
  - # 3
    frequency:     5.0289384175
  - # 4
    frequency:     5.0427464324
  - # 5
    frequency:     6.2029891097
  - # 6
    frequency:     6.6887873590
  - # 7
    frequency:     6.7035948634
  - # 8
    frequency:     7.6835304838
  - # 9
    frequency:     7.7178348122
  - # 10
    frequency:     8.3311966234
  - # 11
    frequency:     8.8702487110
  - # 12
    frequency:     8.8827626402

- q-position: [    0.4270833,    0.0312500,    0.0104167 ]
  weight: 48   
  band:
  - # 1
    frequency:     3.8759092664
  - # 2
    frequency:     3.8970023243
  - # 3
    frequency:     4.9023172381
  - # 4
    frequency:     4.9164632825
  - # 5
    frequency:     6.4689298564
  - # 6
    frequency:     6.7063098908
  - # 7
    frequency:     6.7178268954
  - # 8
    frequency:     7.8111778898
  - # 9
    frequency:     7.8424445989
  - # 10
    frequency:     8.1267132767
  - # 11
    frequency:     8.7397946297
  - # 12
    frequency:     8.7541112145

- q-position: [    0.4479167,    0.0312500,    0.0104167 ]
  weight: 48   
  band:
  - # 1
    frequency:     4.0364741483
  - # 2
    frequency:     4.0559863782
  - # 3
    frequency:     4.7703996493
  - # 4
    frequency:     4.7850170669
  - # 5
    frequency:     6.7200862760
  - # 6
    frequency:     6.7281694777
  - # 7
    frequency:     6.7283094894
  - # 8
    frequency:     7.9136447311
  - # 9
    frequency:     7.9411806498
  - # 10
    frequency:     7.9695454956
  - # 11
    frequency:     8.6076577444
  - # 12
    frequency:     8.6239178094

- q-position: [    0.4687500,    0.0312500,    0.0104167 ]
  weight: 48   
  band:
  - # 1
    frequency:     4.1926597455
  - # 2
    frequency:     4.2108091139
  - # 3
    frequency:     4.6333264487
  - # 4
    frequency:     4.6485652108
  - # 5
    frequency:     6.7299242185
  - # 6
    frequency:     6.7348559476
  - # 7
    frequency:     6.9804046273
  - # 8
    frequency:     7.6922272344
  - # 9
    frequency:     8.0729228397
  - # 10
    frequency:     8.0985186772
  - # 11
    frequency:     8.4744991097
  - # 12
    frequency:     8.4928340543

- q-position: [    0.4895833,    0.0312500,    0.0104167 ]
  weight: 48   
  band:
  - # 1
    frequency:     4.3443029249
  - # 2
    frequency:     4.3612942139
  - # 3
    frequency:     4.4912437900
  - # 4
    frequency:     4.5072691889
  - # 5
    frequency:     6.7356962950
  - # 6
    frequency:     6.7373397482
  - # 7
    frequency:     7.2253439858
  - # 8
    frequency:     7.4627077409
  - # 9
    frequency:     8.2054164494
  - # 10
    frequency:     8.2280833046
  - # 11
    frequency:     8.3416258726
  - # 12
    frequency:     8.3618728577

- q-position: [    0.0520833,    0.0520833,    0.0104167 ]
  weight: 24   
  band:
  - # 1
    frequency:     0.4788935062
  - # 2
    frequency:     0.7142506835
  - # 3
    frequency:     1.3334776672
  - # 4
    frequency:     6.2603969492
  - # 5
    frequency:     6.2679513801
  - # 6
    frequency:     6.2679513801
  - # 7
    frequency:     6.2948513521
  - # 8
    frequency:     6.2948513521
  - # 9
    frequency:     6.3799019989
  - # 10
    frequency:    10.2999177929
  - # 11
    frequency:    10.2999177929
  - # 12
    frequency:    10.3055129981

- q-position: [    0.0729167,    0.0520833,    0.0104167 ]
  weight: 48   
  band:
  - # 1
    frequency:     0.6114128984
  - # 2
    frequency:     0.8712442488
  - # 3
    frequency:     1.6014360189
  - # 4
    frequency:     6.2474461293
  - # 5
    frequency:     6.2549350219
  - # 6
    frequency:     6.2743400149
  - # 7
    frequency:     6.2791662524
  - # 8
    frequency:     6.3206292629
  - # 9
    frequency:     6.4214955829
  - # 10
    frequency:    10.2674925180
  - # 11
    frequency:    10.2737638707
  - # 12
    frequency:    10.2787702101

- q-position: [    0.0937500,    0.0520833,    0.0104167 ]
  weight: 48   
  band:
  - # 1
    frequency:     0.7913305985
  - # 2
    frequency:     1.0437818656
  - # 3
    frequency:     1.8833644480
  - # 4
    frequency:     6.2201395166
  - # 5
    frequency:     6.2470320266
  - # 6
    frequency:     6.2553259817
  - # 7
    frequency:     6.2946100237
  - # 8
    frequency:     6.3540054450
  - # 9
    frequency:     6.4688176858
  - # 10
    frequency:    10.2243117569
  - # 11
    frequency:    10.2390848334
  - # 12
    frequency:    10.2433013070

- q-position: [    0.1145833,    0.0520833,    0.0104167 ]
  weight: 48   
  band:
  - # 1
    frequency:     0.9900883558
  - # 2
    frequency:     1.2247392776
  - # 3
    frequency:     2.1740457017
  - # 4
    frequency:     6.1860602531
  - # 5
    frequency:     6.2129620729
  - # 6
    frequency:     6.2613657020
  - # 7
    frequency:     6.3137901932
  - # 8
    frequency:     6.3950513735
  - # 9
    frequency:     6.5216846166
  - # 10
    frequency:    10.1704208893
  - # 11
    frequency:    10.1960449474
  - # 12
    frequency:    10.1992664778

- q-position: [    0.1354167,    0.0520833,    0.0104167 ]
  weight: 48   
  band:
  - # 1
    frequency:     1.1956642589
  - # 2