   4   4   0   0
  0.1745885E+02  0.4118053E-09  0.4118053E-09  0.4118053E-09  0.5000000E-15
  1.000000000000000E-004
  CAR 
 unknown system                          
     19.32439547     -4.40555585  301      7.43339721      1.00000000
     -4.406  0.0000E+00  0.0000E+00
     -4.326  0.0000E+00  0.0000E+00
     -4.247  0.0000E+00  0.0000E+00
     -4.168  0.0000E+00  0.0000E+00
     -4.089  0.0000E+00  0.0000E+00
     -4.010  0.0000E+00  0.0000E+00
     -3.931  0.0000E+00  0.0000E+00
     -3.852  0.0000E+00  0.0000E+00
     -3.773  0.0000E+00  0.0000E+00
     -3.694  0.0000E+00  0.0000E+00
     -3.615  0.0000E+00  0.0000E+00
     -3.535  0.0000E+00  0.0000E+00
     -3.456  0.0000E+00  0.0000E+00
     -3.377  0.7976E-14  0.6309E-15
     -3.298  0.1463E-01  0.1157E-02
     -3.219  0.9295E-01  0.8510E-02
     -3.140  0.2603E+00  0.2910E-01
     -3.061  0.8776E-01  0.3819E-01
     -2.982  0.3529E+00  0.6611E-01
     -2.903  0.3494E+00  0.9375E-01
     -2.824  0.1750E+00  0.1076E+00
     -2.744  0.4392E+00  0.1424E+00
     -2.665  0.4528E+00  0.1782E+00
     -2.586  0.3643E+00  0.2070E+00
     -2.507  0.3512E+00  0.2350E+00
     -2.428  0.7023E+00  0.2905E+00
     -2.349  0.8249E-01  0.2970E+00
     -2.270  0.7023E+00  0.3530E+00
     -2.191  0.5455E+00  0.3962E+00
     -2.112  0.6331E+00  0.4462E+00
     -2.033  0.7023E+00  0.5058E+00
     -1.953  0.3512E+00  0.5336E+00
     -1.874  0.2584E+00  0.5540E+00
     -1.795  0.4388E+00  0.5960E+00
     -1.716  0.1057E+01  0.6797E+00
     -1.637  0.4650E+00  0.7164E+00
     -1.558  0.1052E+01  0.7996E+00
     -1.479  0.7023E+00  0.8553E+00
     -1.400  0.8228E-01  0.8618E+00
     -1.321  0.7928E+00  0.9245E+00
     -1.242  0.7031E+00  0.9804E+00
     -1.162  0.8613E+00  0.1049E+01
     -1.083  0.6275E+00  0.1098E+01
     -1.004  0.1054E+01  0.1182E+01
     -0.925  0.1007E+00  0.1190E+01
     -0.846  0.1635E+01  0.1319E+01
     -0.767  0.7024E+00  0.1376E+01
     -0.688  0.4333E+00  0.1410E+01
     -0.609  0.1300E+01  0.1513E+01
     -0.530  0.7023E+00  0.1571E+01
     -0.451  0.2309E-01  0.1572E+01
     -0.371  0.8636E+00  0.1641E+01
     -0.292  0.1229E+01  0.1740E+01
     -0.213  0.7669E+00  0.1800E+01
     -0.134  0.1310E+01  0.1904E+01
     -0.055  0.1405E+01  0.2017E+01
      0.024  0.1272E+00  0.2027E+01
      0.103  0.1258E+01  0.2127E+01
      0.182  0.3513E+00  0.2156E+01
      0.261  0.1053E+01  0.2240E+01
      0.340  0.1026E+01  0.2321E+01
      0.420  0.1405E+01  0.2434E+01
      0.499  0.2622E-01  0.2436E+01
      0.578  0.1442E+01  0.2550E+01
      0.657  0.1405E+01  0.2663E+01
      0.736  0.5673E+00  0.2708E+01
      0.815  0.1878E+01  0.2857E+01
      0.894  0.7023E+00  0.2913E+01
      0.973  0.2124E+00  0.2930E+01
      1.052  0.1013E+01  0.3010E+01
      1.131  0.1757E+01  0.3149E+01
      1.211  0.9689E+00  0.3226E+01
      1.290  0.1601E+01  0.3353E+01
      1.369  0.7023E+00  0.3409E+01
      1.448  0.2299E+00  0.3427E+01
      1.527  0.1491E+01  0.3554E+01
      1.606  0.7284E+00  0.3612E+01
      1.685  0.1570E+01  0.3736E+01
      1.764  0.7023E+00  0.3804E+01
      1.843  0.1756E+01  0.3943E+01
      1.922  0.2788E+00  0.3965E+01
      2.002  0.2107E+01  0.4138E+01
      2.081  0.1925E+01  0.4290E+01
      2.160  0.5333E+00  0.4332E+01
      2.239  0.7030E+00  0.4388E+01
      2.318  0.1404E+01  0.4499E+01
      2.397  0.3447E+00  0.4526E+01
      2.476  0.7064E+00  0.4582E+01
      2.555  0.2022E+01  0.4742E+01
      2.634  0.9197E+00  0.4825E+01
      2.713  0.2593E+01  0.5030E+01
      2.793  0.5672E+00  0.5075E+01
      2.872  0.1057E+01  0.5159E+01
      2.951  0.1498E+01  0.5277E+01
      3.030  0.1904E+01  0.5428E+01
      3.109  0.4288E+00  0.5470E+01
      3.188  0.2246E+01  0.5648E+01
      3.267  0.8666E+00  0.5723E+01
      3.346  0.1054E+00  0.5732E+01
      3.425  0.1878E+01  0.5880E+01
      3.504  0.1724E+01  0.6017E+01
      3.584  0.6975E+00  0.6084E+01
      3.663  0.2694E+01  0.6297E+01
      3.742  0.6942E-02  0.6307E+01
      3.821  0.9352E+00  0.6381E+01
      3.900  0.2300E+01  0.6563E+01
      3.979  0.1054E+01  0.6647E+01
      4.058  0.1842E+01  0.6793E+01
      4.137  0.1661E+01  0.6953E+01
      4.216  0.3650E+00  0.6981E+01
      4.295  0.1906E+01  0.7132E+01
      4.375  0.1607E+01  0.7272E+01
      4.454  0.1405E+01  0.7383E+01
      4.533  0.2258E+01  0.7562E+01
      4.612  0.3507E+00  0.7605E+01
      4.691  0.1434E+01  0.7719E+01
      4.770  0.2333E+01  0.7912E+01
      4.849  0.1327E+01  0.8019E+01
      4.928  0.1894E+01  0.8176E+01
      5.007  0.1054E+01  0.8262E+01
      5.086  0.8289E+00  0.8327E+01
      5.166  0.8944E+00  0.8402E+01
      5.245  0.1802E+01  0.8571E+01
      5.324  0.2054E+01  0.8733E+01
      5.403  0.1166E+01  0.8826E+01
      5.482  0.1820E+01  0.8970E+01
      5.561  0.1164E+01  0.9063E+01
      5.640  0.1484E+01  0.9180E+01
      5.719  0.1926E+01  0.9332E+01
      5.798  0.1945E+01  0.9486E+01
      5.877  0.7692E+00  0.9554E+01
      5.957  0.1320E+01  0.9658E+01
      6.036  0.3494E+00  0.9691E+01
      6.115  0.1883E+01  0.9854E+01
      6.194  0.2104E+01  0.1002E+02
      6.273  0.1269E+01  0.1012E+02
      6.352  0.2510E+01  0.1032E+02
      6.431  0.1648E+01  0.1046E+02
      6.510  0.3129E+00  0.1049E+02
      6.589  0.1441E+01  0.1061E+02
      6.668  0.1931E+01  0.1076E+02
      6.748  0.1554E+01  0.1088E+02
      6.827  0.2017E+01  0.1106E+02
      6.906  0.1469E+01  0.1118E+02
      6.985  0.8133E+00  0.1124E+02
      7.064  0.1061E+01  0.1132E+02
      7.143  0.1776E+01  0.1146E+02
      7.222  0.1368E+01  0.1157E+02
      7.301  0.3003E+01  0.1181E+02
      7.380  0.1787E+01  0.1195E+02
      7.459  0.1681E+01  0.1209E+02
      7.539  0.2103E+01  0.1226E+02
      7.618  0.1918E+01  0.1241E+02
      7.697  0.8574E+00  0.1249E+02
      7.776  0.1847E+01  0.1264E+02
      7.855  0.1269E+01  0.1274E+02
      7.934  0.1464E+01  0.1286E+02
      8.013  0.2276E+01  0.1305E+02
      8.092  0.3512E+00  0.1309E+02
      8.171  0.1168E+01  0.1318E+02
      8.250  0.1830E+01  0.1333E+02
      8.330  0.2973E+01  0.1357E+02
      8.409  0.1729E+01  0.1371E+02
      8.488  0.2405E+01  0.1390E+02
      8.567  0.1435E+01  0.1402E+02
      8.646  0.8301E+00  0.1411E+02
      8.725  0.1329E+01  0.1422E+02
      8.804  0.2471E+01  0.1442E+02
      8.883  0.2889E+01  0.1466E+02
      8.962  0.1197E+01  0.1477E+02
      9.041  0.5854E+00  0.1482E+02
      9.121  0.1694E+01  0.1497E+02
      9.200  0.1862E+01  0.1513E+02
      9.279  0.2158E+01  0.1531E+02
      9.358  0.1168E+01  0.1541E+02
      9.437  0.2628E+01  0.1562E+02
      9.516  0.1351E+01  0.1574E+02
      9.595  0.2341E+00  0.1576E+02
      9.674  0.3092E+01  0.1601E+02
      9.753  0.1983E+01  0.1617E+02
      9.832  0.2160E+01  0.1634E+02
      9.912  0.1312E+01  0.1645E+02
      9.991  0.1512E+01  0.1657E+02
     10.070  0.1745E+01  0.1674E+02
     10.149  0.2092E+01  0.1690E+02
     10.228  0.1709E+01  0.1704E+02
     10.307  0.1933E+01  0.1719E+02
     10.386  0.2169E+01  0.1737E+02
     10.465  0.2610E+01  0.1757E+02
     10.544  0.2542E+01  0.1779E+02
     10.623  0.1481E+01  0.1791E+02
     10.703  0.1487E+01  0.1803E+02
     10.782  0.2240E+01  0.1821E+02
     10.861  0.2371E+01  0.1840E+02
     10.940  0.1266E+01  0.1850E+02
     11.019  0.1464E+01  0.1862E+02
     11.098  0.2679E+01  0.1884E+02
     11.177  0.2118E+01  0.1901E+02
     11.256  0.1036E+01  0.1909E+02
     11.335  0.2526E+01  0.1929E+02
     11.414  0.2479E+01  0.1949E+02
     11.494  0.2122E+01  0.1968E+02
     11.573  0.4943E+00  0.1973E+02
     11.652  0.2075E+01  0.1989E+02
     11.731  0.2302E+01  0.2008E+02
     11.810  0.1294E+01  0.2019E+02
     11.889  0.2934E+01  0.2042E+02
     11.968  0.4552E+01  0.2079E+02
     12.047  0.7019E+00  0.2085E+02
     12.126  0.1756E+01  0.2099E+02
     12.205  0.2205E+01  0.2116E+02
     12.285  0.8967E+00  0.2125E+02
     12.364  0.4029E+01  0.2157E+02
     12.443  0.2613E+01  0.2180E+02
     12.522  0.7100E+00  0.2186E+02
     12.601  0.1432E+01  0.2198E+02
     12.680  0.2632E+01  0.2218E+02
     12.759  0.2515E+01  0.2240E+02
     12.838  0.3150E+01  0.2266E+02
     12.917  0.2366E+01  0.2285E+02
     12.996  0.1248E+01  0.2297E+02
     13.076  0.2170E+01  0.2316E+02
     13.155  0.2958E+01  0.2340E+02
     13.234  0.2376E+01  0.2360E+02
     13.313  0.2335E+01  0.2380E+02
     13.392  0.1605E+01  0.2394E+02
     13.471  0.1821E+01  0.2409E+02
     13.550  0.5314E+00  0.2413E+02
     13.629  0.3668E+01  0.2442E+02
     13.708  0.2077E+01  0.2459E+02
     13.787  0.1107E+01  0.2468E+02
     13.867  0.3203E+01  0.2493E+02
     13.946  0.3136E+01  0.2518E+02
     14.025  0.2833E+01  0.2540E+02
     14.104  0.2609E+01  0.2561E+02
     14.183  0.1596E+01  0.2575E+02
     14.262  0.3362E+01  0.2602E+02
     14.341  0.4986E+00  0.2608E+02
     14.420  0.2263E+01  0.2626E+02
     14.499  0.1593E+01  0.2641E+02
     14.578  0.2451E+01  0.2663E+02
     14.658  0.2029E+01  0.2679E+02
     14.737  0.1268E+01  0.2691E+02
     14.816  0.1893E+01  0.2707E+02
     14.895  0.2282E+01  0.2725E+02
     14.974  0.2690E+01  0.2746E+02
     15.053  0.2264E+01  0.2764E+02
     15.132  0.1058E+01  0.2773E+02
     15.211  0.1443E+01  0.2784E+02
     15.290  0.2768E+01  0.2806E+02
     15.369  0.2096E+01  0.2823E+02
     15.449  0.1323E+01  0.2833E+02
     15.528  0.3023E+01  0.2857E+02
     15.607  0.1511E+01  0.2869E+02
     15.686  0.3937E+01  0.2901E+02
     15.765  0.2312E+01  0.2920E+02
     15.844  0.1470E+01  0.2932E+02
     15.923  0.2051E+01  0.2948E+02
     16.002  0.8437E+00  0.2956E+02
     16.081  0.2155E+01  0.2973E+02
     16.160  0.1956E+01  0.2990E+02
     16.240  0.2035E+01  0.3006E+02
     16.319  0.1482E+01  0.3018E+02
     16.398  0.7594E+00  0.3024E+02
     16.477  0.8725E+00  0.3032E+02
     16.556  0.3016E+01  0.3056E+02
     16.635  0.2418E+01  0.3077E+02
     16.714  0.2478E+01  0.3096E+02
     16.793  0.1265E+01  0.3107E+02
     16.872  0.0000E+00  0.3107E+02
     16.951  0.4495E-01  0.3108E+02
     17.031  0.2680E+01  0.3129E+02
     17.110  0.1009E+01  0.3137E+02
     17.189  0.1634E-05  0.3138E+02
     17.268  0.5670E+00  0.3142E+02
     17.347  0.2308E+00  0.3145E+02
     17.426  0.1654E+01  0.3158E+02
     17.505  0.1050E+01  0.3167E+02
     17.584  0.1498E-01  0.3167E+02
     17.663  0.8234E+00  0.3173E+02
     17.742  0.2282E+00  0.3175E+02
     17.821  0.1501E+01  0.3187E+02
     17.901  0.9442E+00  0.3194E+02
     17.980  0.4118E+00  0.3198E+02
     18.059  0.1735E+00  0.3199E+02
     18.138  0.0000E+00  0.3199E+02
     18.217  0.4208E-05  0.3199E+02
     18.296  0.1171E+00  0.3200E+02
     18.375  0.0000E+00  0.3200E+02
     18.454  0.0000E+00  0.3200E+02
     18.533  0.0000E+00  0.3200E+02
     18.612  0.0000E+00  0.3200E+02
     18.692  0.0000E+00  0.3200E+02
     18.771  0.0000E+00  0.3200E+02
     18.850  0.0000E+00  0.3200E+02
     18.929  0.0000E+00  0.3200E+02
     19.008  0.0000E+00  0.3200E+02
     19.087  0.0000E+00  0.3200E+02
     19.166  0.0000E+00  0.3200E+02
     19.245  0.0000E+00  0.3200E+02
     19.324  0.0000E+00  0.3200E+02
