mesh: [    48,    48,    48 ]
nqpoint: 2600   
reciprocal_lattice:
- [   0.24047563,   0.00000000,   0.00000000 ] # a*
- [   0.00000000,   0.24047563,   0.00000000 ] # b*
- [   0.00000000,   0.00000000,   0.24047563 ] # c*
natom:   4      
lattice:
- [     4.158425560763000,     0.000000000000000,     0.000000000000000 ] # a
- [     0.000000000000000,     4.158425560763000,     0.000000000000000 ] # b
- [     0.000000000000000,     0.000000000000000,     4.158425560763000 ] # c
points:
- symbol: Al # 1
  coordinates: [  0.500000000000000,  0.500000000000000,  0.000000000000000 ]
  mass: 26.981539
- symbol: Al # 2
  coordinates: [  0.500000000000000,  0.000000000000000,  0.500000000000000 ]
  mass: 26.981539
- symbol: Al # 3
  coordinates: [  0.000000000000000,  0.500000000000000,  0.500000000000000 ]
  mass: 26.981539
- symbol: Al # 4
  coordinates: [  0.000000000000000,  0.000000000000000,  0.000000000000000 ]
  mass: 26.981539
phonon:
- q-position: [    0.0104167,    0.0104167,    0.0104167 ]
  weight: 8    
  band:
  - # 1
    frequency:     0.1156124325
  - # 2
    frequency:     0.1156124325
  - # 3
    frequency:     0.2405026111
  - # 4
    frequency:     4.3993294212
  - # 5
    frequency:     4.3993294212
  - # 6
    frequency:     4.3993294212
  - # 7
    frequency:     4.4026970000
  - # 8
    frequency:     4.4026970000
  - # 9
    frequency:     4.4026970000
  - # 10
    frequency:     8.3738711166
  - # 11
    frequency:     8.3738711166
  - # 12
    frequency:     8.3738711166

- q-position: [    0.0312500,    0.0104167,    0.0104167 ]
  weight: 24   
  band:
  - # 1
    frequency:     0.2252047202
  - # 2
    frequency:     0.2291891843
  - # 3
    frequency:     0.4551630566
  - # 4
    frequency:     4.3943646657
  - # 5
    frequency:     4.3977432262
  - # 6
    frequency:     4.3998331128
  - # 7
    frequency:     4.3998331128
  - # 8
    frequency:     4.4099600014
  - # 9
    frequency:     4.4099600014
  - # 10
    frequency:     8.3626745153
  - # 11
    frequency:     8.3626745153
  - # 12
    frequency:     8.3647489209

- q-position: [    0.0520833,    0.0104167,    0.0104167 ]
  weight: 24   
  band:
  - # 1
    frequency:     0.3588898865
  - # 2
    frequency:     0.3615407679
  - # 3
    frequency:     0.7083194877
  - # 4
    frequency:     4.3844428986
  - # 5
    frequency:     4.3878432661
  - # 6
    frequency:     4.4041917553
  - # 7
    frequency:     4.4041917553
  - # 8
    frequency:     4.4211392728
  - # 9
    frequency:     4.4211392728
  - # 10
    frequency:     8.3403449261
  - # 11
    frequency:     8.3403449261
  - # 12
    frequency:     8.3465158538

- q-position: [    0.0729167,    0.0104167,    0.0104167 ]
  weight: 24   
  band:
  - # 1
    frequency:     0.4961438196
  - # 2
    frequency:     0.4976351757
  - # 3
    frequency:     0.9702881979
  - # 4
    frequency:     4.3695795770
  - # 5
    frequency:     4.3730122654
  - # 6
    frequency:     4.4124359996
  - # 7
    frequency:     4.4124359996
  - # 8
    frequency:     4.4362123076
  - # 9
    frequency:     4.4362123076
  - # 10
    frequency:     8.3070093496
  - # 11
    frequency:     8.3070093496
  - # 12
    frequency:     8.3191945373

- q-position: [    0.0937500,    0.0104167,    0.0104167 ]
  weight: 24   
  band:
  - # 1
    frequency:     0.6341341257
  - # 2
    frequency:     0.6347429922
  - # 3
    frequency:     1.2348513354
  - # 4
    frequency:     4.3497978111
  - # 5
    frequency:     4.3532728705
  - # 6
    frequency:     4.4246458191
  - # 7
    frequency:     4.4246458191
  - # 8
    frequency:     4.4551089788
  - # 9
    frequency:     4.4551089788
  - # 10
    frequency:     8.2628577201
  - # 11
    frequency:     8.2628577201
  - # 12
    frequency:     8.2828188388

- q-position: [    0.1145833,    0.0104167,    0.0104167 ]
  weight: 24   
  band:
  - # 1
    frequency:     0.7719657222
  - # 2
    frequency:     0.7720627830
  - # 3
    frequency:     1.4998685060
  - # 4
    frequency:     4.3251282736
  - # 5
    frequency:     4.3286551423
  - # 6
    frequency:     4.4409346876
  - # 7
    frequency:     4.4409346876
  - # 8
    frequency:     4.4777242810
  - # 9
    frequency:     4.4777242810
  - # 10
    frequency:     8.2081422223
  - # 11
    frequency:     8.2081422223
  - # 12
    frequency:     8.2374337914

- q-position: [    0.1354167,    0.0104167,    0.0104167 ]
  weight: 24   
  band:
  - # 1
    frequency:     0.9088706909
  - # 2
    frequency:     0.9095601422
  - # 3
    frequency:     1.7643070147
  - # 4
    frequency:     4.2956090808
  - # 5
    frequency:     4.2991964420
  - # 6
    frequency:     4.4614053999
  - # 7
    frequency:     4.4614053999
  - # 8
    frequency:     4.5039580974
  - # 9
    frequency:     4.5039580974
  - # 10
    frequency:     8.1431763745
  - # 11
    frequency:     8.1431763745
  - # 12
    frequency:     8.1830954903

- q-position: [    0.1562500,    0.0104167,    0.0104167 ]
  weight: 24   
  band:
  - # 1
    frequency:     1.0451861605
  - # 2
    frequency:     1.0463896110
  - # 3
    frequency:     2.0275298657
  - # 4
    frequency:     4.2612856445
  - # 5
    frequency:     4.2649412909
  - # 6
    frequency:     4.4860702049
  - # 7
    frequency:     4.4860702049
  - # 8
    frequency:     4.5337891946
  - # 9
    frequency:     4.5337891946
  - # 10
    frequency:     8.0683338710
  - # 11
    frequency:     8.0683338710
  - # 12
    frequency:     8.1198709636

- q-position: [    0.1770833,    0.0104167,    0.0104167 ]
  weight: 24   
  band:
  - # 1
    frequency:     1.1807075421
  - # 2
    frequency:     1.1823666459
  - # 3
    frequency:     2.2890694741
  - # 4
    frequency:     4.2222104979
  - # 5
    frequency:     4.2259412030
  - # 6
    frequency:     4.5147249773
  - # 7
    frequency:     4.5147249773
  - # 8
    frequency:     4.5673937179
  - # 9
    frequency:     4.5673937179
  - # 10
    frequency:     7.9840471775
  - # 11
    frequency:     7.9840471775
  - # 12
    frequency:     8.0478380189

- q-position: [    0.1979167,    0.0104167,    0.0104167 ]
  weight: 24   
  band:
  - # 1
    frequency:     1.3152620061
  - # 2
    frequency:     1.3173302884
  - # 3
    frequency:     2.5485408673
  - # 4
    frequency:     4.1784430948
  - # 5
    frequency:     4.1822544938
  - # 6
    frequency:     4.5467878673
  - # 7
    frequency:     4.5467878673
  - # 8
    frequency:     4.6052979076
  - # 9
    frequency:     4.6052979076
  - # 10
    frequency:     7.8908058665
  - # 11
    frequency:     7.8908058665
  - # 12
    frequency:     7.9670850671

- q-position: [    0.2187500,    0.0104167,    0.0104167 ]
  weight: 24   
  band:
  - # 1
    frequency:     1.4486930921
  - # 2
    frequency:     1.4511313578
  - # 3
    frequency:     2.8056036471
  - # 4
    frequency:     4.1300495850
  - # 5
    frequency:     4.1339460657
  - # 6
    frequency:     4.5812008127
  - # 7
    frequency:     4.5812008127
  - # 8
    frequency:     4.6484670082
  - # 9
    frequency:     4.6484670082
  - # 10
    frequency:     7.7891546781
  - # 11
    frequency:     7.7891546781
  - # 12
    frequency:     7.8777109244

- q-position: [    0.2395833,    0.0104167,    0.0104167 ]
  weight: 24   
  band:
  - # 1
    frequency:     1.5808532826
  - # 2
    frequency:     1.5836269408
  - # 3
    frequency:     3.0599435999
  - # 4
    frequency:     4.0771025661
  - # 5
    frequency:     4.0810871711
  - # 6
    frequency:     4.6165953966
  - # 7
    frequency:     4.6165953966
  - # 8
    frequency:     4.6981294336
  - # 9
    frequency:     4.6981294336
  - # 10
    frequency:     7.6796912875
  - # 11
    frequency:     7.6796912875
  - # 12
    frequency:     7.7798245935

- q-position: [    0.2604167,    0.0104167,    0.0104167 ]
  weight: 24   
  band:
  - # 1
    frequency:     1.7116001307
  - # 2
    frequency:     1.7146775921
  - # 3
    frequency:     3.3112631264
  - # 4
    frequency:     4.0196808157
  - # 5
    frequency:     4.0237551560
  - # 6
    frequency:     4.6517238081
  - # 7
    frequency:     4.6517238081
  - # 8
    frequency:     4.7553361201
  - # 9
    frequency:     4.7553361201
  - # 10
    frequency:     7.5630637530
  - # 11
    frequency:     7.5630637530
  - # 12
    frequency:     7.6735450252

- q-position: [    0.2812500,    0.0104167,    0.0104167 ]
  weight: 24   
  band:
  - # 1
    frequency:     1.8407941245
  - # 2
    frequency:     1.8441458274
  - # 3
    frequency:     3.5592759813
  - # 4
    frequency:     3.9578690030
  - # 5
    frequency:     3.9620331854
  - # 6
    frequency:     4.6857401039
  - # 7
    frequency:     4.6857401039
  - # 8
    frequency:     4.8206706377
  - # 9
    frequency:     4.8206706377
  - # 10
    frequency:     7.4399676145
  - # 11
    frequency:     7.4399676145
  - # 12
    frequency:     7.5590008627

- q-position: [    0.3020833,    0.0104167,    0.0104167 ]
  weight: 24   
  band:
  - # 1
    frequency:     1.9682974664
  - # 2
    frequency:     1.9718952852
  - # 3
    frequency:     3.8037042693
  - # 4
    frequency:     3.8917573853
  - # 5
    frequency:     3.8960099520
  - # 6
    frequency:     4.7181232460
  - # 7
    frequency:     4.7181232460
  - # 8
    frequency:     4.8943193347
  - # 9
    frequency:     4.8943193347
  - # 10
    frequency:     7.3111426036
  - # 11
    frequency:     7.3111426036
  - # 12
    frequency:     7.4363301691

- q-position: [    0.3229167,    0.0104167,    0.0104167 ]
  weight: 24   
  band:
  - # 1
    frequency:     2.0939733679
  - # 2
    frequency:     2.0977902632
  - # 3
    frequency:     3.8214414885
  - # 4
    frequency:     3.8257793718
  - # 5
    frequency:     4.0442766948
  - # 6
    frequency:     4.7484943379
  - # 7
    frequency:     4.7484943379
  - # 8
    frequency:     4.9762497345
  - # 9
    frequency:     4.9762497345
  - # 10
    frequency:     7.1773689198
  - # 11
    frequency:     7.1773689198
  - # 12
    frequency:     7.3056801413

- q-position: [    0.3437500,    0.0104167,    0.0104167 ]
  weight: 24   
  band:
  - # 1
    frequency:     2.2176856531
  - # 2
    frequency:     2.2216954788
  - # 3
    frequency:     3.7470217765
  - # 4
    frequency:     3.7514402670
  - # 5
    frequency:     4.2807275411
  - # 6
    frequency:     4.7765153032
  - # 7
    frequency:     4.7765153032
  - # 8
    frequency:     5.0663103933
  - # 9
    frequency:     5.0663103933
  - # 10
    frequency:     7.0394630190
  - # 11
    frequency:     7.0394630190
  - # 12
    frequency:     7.1672068101

- q-position: [    0.3645833,    0.0104167,    0.0104167 ]
  weight: 24   
  band:
  - # 1
    frequency:     2.3392985586
  - # 2
    frequency:     2.3434759721
  - # 3
    frequency:     3.6686033104
  - # 4
    frequency:     3.6730960404
  - # 5
    frequency:     4.5127960951
  - # 6
    frequency:     4.8018618605
  - # 7
    frequency:     4.8018618605
  - # 8
    frequency:     5.1642595767
  - # 9
    frequency:     5.1642595767
  - # 10
    frequency:     6.8982728550
  - # 11
    frequency:     6.8982728550
  - # 12
    frequency:     7.0210747309

- q-position: [    0.3854167,    0.0104167,    0.0104167 ]
  weight: 24   
  band:
  - # 1
    frequency:     2.4586766640
  - # 2
    frequency:     2.4629971063
  - # 3
    frequency:     3.5862954013
  - # 4
    frequency:     3.5908543422
  - # 5
    frequency:     4.7402263544
  - # 6
    frequency:     4.8242263123
  - # 7
    frequency:     4.8242263123
  - # 8
    frequency:     5.2697671866
  - # 9
    frequency:     5.2697671866
  - # 10
    frequency:     6.7546725119
  - # 11
    frequency:     6.7546725119
  - # 12
    frequency:     6.8674566650

- q-position: [    0.4062500,    0.0104167,    0.0104167 ]
  weight: 24   
  band:
  - # 1
    frequency:     2.5756849168
  - # 2
    frequency:     2.5801246385
  - # 3
    frequency:     3.5002112578
  - # 4
    frequency:     3.5048267327
  - # 5
    frequency:     4.8433271755
  - # 6
    frequency:     4.8433271755
  - # 7
    frequency:     4.9627669191
  - # 8
    frequency:     5.3824126156
  - # 9
    frequency:     5.3824126156
  - # 10
    frequency:     6.6095561728
  - # 11
    frequency:     6.6095561728
  - # 12
    frequency:     6.7065332544

- q-position: [    0.4270833,    0.0104167,    0.0104167 ]
  weight: 24   
  band:
  - # 1
    frequency:     2.6901887256
  - # 2
    frequency:     2.6947248440
  - # 3
    frequency:     3.4104676331
  - # 4
    frequency:     3.4151283431
  - # 5
    frequency:     4.8589182507
  - # 6
    frequency:     4.8589182507
  - # 7
    frequency:     5.1801710103
  - # 8
    frequency:     5.5016854081
  - # 9
    frequency:     5.5016854081
  - # 10
    frequency:     6.4638314113
  - # 11
    frequency:     6.4638314113
  - # 12
    frequency:     6.5384926926

- q-position: [    0.4479167,    0.0104167,    0.0104167 ]
  weight: 24   
  band:
  - # 1
    frequency:     2.8020541071
  - # 2
    frequency:     2.8066646827
  - # 3
    frequency:     3.3171844728
  - # 4
    frequency:     3.3218775371
  - # 5
    frequency:     4.8707955912
  - # 6
    frequency:     4.8707955912
  - # 7
    frequency:     5.3921965759
  - # 8
    frequency:     5.6269894385
  - # 9
    frequency:     5.6269894385
  - # 10
    frequency:     6.3184119863
  - # 11
    frequency:     6.3184119863
  - # 12
    frequency:     6.3635303939

- q-position: [    0.4687500,    0.0104167,    0.0104167 ]
  weight: 24   
  band:
  - # 1
    frequency:     2.9111478763
  - # 2
    frequency:     2.9158120001
  - # 3
    frequency:     3.2204845673
  - # 4
    frequency:     3.2251955761
  - # 5
    frequency:     4.8788024637
  - # 6
    frequency:     4.8788024637
  - # 7
    frequency:     5.5986064599
  - # 8
    frequency:     5.7576483504
  - # 9
    frequency:     5.7576483504
  - # 10
    frequency:     6.1742116213
  - # 11
    frequency:     6.1742116213
  - # 12
    frequency:     6.1818486627

- q-position: [    0.4895833,    0.0104167,    0.0104167 ]
  weight: 24   
  band:
  - # 1
    frequency:     3.0173378720
  - # 2
    frequency:     3.0220357582
  - # 3
    frequency:     3.1204932109
  - # 4
    frequency:     3.1252062902
  - # 5
    frequency:     4.8828326884
  - # 6
    frequency:     4.8828326884
  - # 7
    frequency:     5.7991686177
  - # 8
    frequency:     5.8928853935
  - # 9
    frequency:     5.8928853935
  - # 10
    frequency:     5.9936563669
  - # 11
    frequency:     6.0321646037
  - # 12
    frequency:     6.0321646037

- q-position: [    0.0312500,    0.0312500,    0.0104167 ]
  weight: 24   
  band:
  - # 1
    frequency:     0.2857552304
  - # 2
    frequency:     0.3027515692
  - # 3
    frequency:     0.6027341421
  - # 4
    frequency:     4.3936769330
  - # 5
    frequency:     4.3949030517
  - # 6
    frequency:     4.3949030517
  - # 7
    frequency:     4.4050569708
  - # 8
    frequency:     4.4050569708
  - # 9
    frequency:     4.4238453909
  - # 10
    frequency:     8.3515353958
  - # 11
    frequency:     8.3536084411
  - # 12
    frequency:     8.3536084411

- q-position: [    0.0520833,    0.0312500,    0.0104167 ]
  weight: 48   
  band:
  - # 1
    frequency:     0.3932105780
  - # 2
    frequency:     0.4133845059
  - # 3
    frequency:     0.8139897232
  - # 4
    frequency:     4.3850498873
  - # 5
    frequency:     4.3914523982
  - # 6
    frequency:     4.3952584913
  - # 7
    frequency:     4.3993465969
  - # 8
    frequency:     4.4163194272
  - # 9
    frequency:     4.4415331686
  - # 10
    frequency:     8.3293203130
  - # 11
    frequency:     8.3313912045
  - # 12
    frequency:     8.3354874153

- q-position: [    0.0729167,    0.0312500,    0.0104167 ]
  weight: 48   
  band:
  - # 1
    frequency:     0.5191434808
  - # 2
    frequency:     0.5380186136
  - # 3
    frequency:     1.0507595365
  - # 4
    frequency:     4.3702875531
  - # 5
    frequency:     4.3805796568
  - # 6
    frequency:     4.3932456214
  - # 7
    frequency:     4.4077255285
  - # 8
    frequency:     4.4315029852
  - # 9
    frequency:     4.4629459373
  - # 10
    frequency:     8.2961553530
  - # 11
    frequency:     8.2982244384
  - # 12
    frequency:     8.3083336599

- q-position: [    0.0937500,    0.0312500,    0.0104167 ]
  weight: 48   
  band:
  - # 1
    frequency:     0.6514497791
  - # 2
    frequency:     0.6685815620
  - # 3
    frequency:     1.2990443174
  - # 4
    frequency:     4.3506369883
  - # 5
    frequency:     4.3610429412
  - # 6
    frequency:     4.3991465463
  - # 7
    frequency:     4.4201136838
  - # 8
    frequency:     4.4505354797
  - # 9
    frequency:     4.4880044083
  - # 10
    frequency:     8.2522290796
  - # 11
    frequency:     8.2542984357
  - # 12
    frequency:     8.2721804491

- q-position: [    0.1145833,    0.0312500,    0.0104167 ]
  weight: 48   
  band:
  - # 1
    frequency:     0.7860448419
  - # 2
    frequency:     0.8018576572
  - # 3
    frequency:     1.5528038482
  - # 4
    frequency:     4.3261261752
  - # 5
    frequency:     4.3366780083
  - # 6
    frequency:     4.4092531697
  - # 7
    frequency:     4.4366116595
  - # 8
    frequency:     4.4733141059
  - # 9
    frequency:     4.5166200490
  - # 10
    frequency:     8.1977918512
  - # 11
    frequency:     8.1998658951
  - # 12
    frequency:     8.2270720398

- q-position: [    0.1354167,    0.0312500,    0.0104167 ]
  weight: 48   
  band:
  - # 1
    frequency:     0.9213264219
  - # 2
    frequency:     0.9363250735
  - # 3
    frequency:     1.8090125653
  - # 4
    frequency:     4.2967901705
  - # 5
    frequency:     4.3075214786
  - # 6
    frequency:     4.4236546430
  - # 7
    frequency:     4.4573013374
  - # 8
    frequency:     4.4997466708
  - # 9
    frequency:     4.5487075066
  - # 10
    frequency:     8.1331549058
  - # 11
    frequency:     8.1352410361
  - # 12
    frequency:     8.1730635795

- q-position: [    0.1562500,    0.0312500,    0.0104167 ]
  weight: 48   
  band:
  - # 1
    frequency:     1.0565354379
  - # 2
    frequency:     1.0711377259
  - # 3
    frequency:     2.0659458782
  - # 4
    frequency:     4.2626711190
  - # 5
    frequency:     4.2736166662
  - # 6
    frequency:     4.4424011968
  - # 7
    frequency:     4.4821642040
  - # 8
    frequency:     4.5298276417
  - # 9
    frequency:     4.5842087503
  - # 10
    frequency:     8.0586892052
  - # 11
    frequency:     8.0607984839
  - # 12
    frequency:     8.1102209919

- q-position: [    0.1770833,    0.0312500,    0.0104167 ]
  weight: 48   
  band:
  - # 1
    frequency:     1.1912424096
  - # 2
    frequency:     1.2057565985
  - # 3
    frequency:     2.3225027443
  - # 4
    frequency:     4.2238182349
  - # 5
    frequency:     4.2350133027
  - # 6
    frequency:     4.4654606072
  - # 7
    frequency:     4.5109550469
  - # 8
    frequency:     4.5637574021
  - # 9
    frequency:     4.6231292107
  - # 10
    frequency:     7.9748240339
  - # 11
    frequency:     7.9769719185
  - # 12
    frequency:     8.0386208421

- q-position: [    0.1979167,    0.0312500,    0.0104167 ]
  weight: 48   
  band:
  - # 1
    frequency:     1.3251618181
  - # 2
    frequency:     1.3397992147
  - # 3
    frequency:     2.5779077662
  - # 4
    frequency:     4.1802877382
  - # 5
    frequency:     4.1917672615
  - # 6
    frequency:     4.4926622303
  - # 7
    frequency:     4.5430485054
  - # 8
    frequency:     4.6020873908
  - # 9
    frequency:     4.6655850568
  - # 10
    frequency:     7.8820453379
  - # 11
    frequency:     7.8842524775
  - # 12
    frequency:     7.9583501815

- q-position: [    0.2187500,    0.0312500,    0.0104167 ]
  weight: 48   
  band:
  - # 1
    frequency:     1.4580761235
  - # 2
    frequency:     1.4729708867
  - # 3
    frequency:     2.8315681648
  - # 4
    frequency:     4.1321427380
  - # 5
    frequency:     4.1439402961
  - # 6
    frequency:     4.5236339716
  - # 7
    frequency:     4.5773659446
  - # 8
    frequency:     4.6457840029
  - # 9
    frequency:     4.7118566055
  - # 10
    frequency:     7.7808937924
  - # 11
    frequency:     7.7831869010
  - # 12
    frequency:     7.8695063738

- q-position: [    0.2395833,    0.0312500,    0.0104167 ]
  weight: 48   
  band:
  - # 1
    frequency:     1.5898018699
  - # 2
    frequency:     1.6050297826
  - # 3
    frequency:     3.0829999439
  - # 4
    frequency:     4.0794530579
  - # 5
    frequency:     4.0915997960
  - # 6
    frequency:     4.5577464927
  - # 7
    frequency:     4.6125667417
  - # 8
    frequency:     4.6960276891
  - # 9
    frequency:     4.7624341038
  - # 10
    frequency:     7.6719625778
  - # 11
    frequency:     7.6743754024
  - # 12
    frequency:     7.7721969037

- q-position: [    0.2604167,    0.0312500,    0.0104167 ]
  weight: 48   
  band:
  - # 1
    frequency:     1.7201736689
  - # 2
    frequency:     1.7357674985
  - # 3
    frequency:     3.3317874112
  - # 4
    frequency:     4.0222950073
  - # 5
    frequency:     4.0348185638
  - # 6
    frequency:     4.5940915980
  - # 7
    frequency:     4.6474569351
  - # 8
    frequency:     4.7537949728
  - # 9
    frequency:     4.8180296380
  - # 10
    frequency:     7.5558948407
  - # 11
    frequency:     7.5584692454
  - # 12
    frequency:     7.6665391696

- q-position: [    0.2812500,    0.0312500,    0.0104167 ]
  weight: 48   
  band:
  - # 1
    frequency:     1.8490362712
  - # 2
    frequency:     1.8649975298
  - # 3
    frequency:     3.5775598561
  - # 4
    frequency:     3.9607511039
  - # 5
    frequency:     3.9736746094
  - # 6
    frequency:     4.6315280186
  - # 7
    frequency:     4.6812206738
  - # 8
    frequency:     4.8196186842
  - # 9
    frequency:     4.8795227122
  - # 10
    frequency:     7.4333808118
  - # 11
    frequency:     7.4361680007
  - # 12
    frequency:     7.5526602614

- q-position: [    0.3020833,    0.0312500,    0.0104167 ]
  weight: 48   
  band:
  - # 1
    frequency:     1.9762404601
  - # 2
    frequency:     1.9925481468
  - # 3
    frequency:     3.8199775464
  - # 4
    frequency:     3.8949097579
  - # 5
    frequency:     3.9082509549
  - # 6
    frequency:     4.6688081043
  - # 7
    frequency:     4.7133329422
  - # 8
    frequency:     4.8936686528
  - # 9
    frequency:     4.9478267393
  - # 10
    frequency:     7.3051545442
  - # 11
    frequency:     7.3082164553
  - # 12
    frequency:     7.4306967268

- q-position: [    0.3229167,    0.0312500,    0.0104167 ]
  weight: 48   
  band:
  - # 1
    frequency:     2.1016408270
  - # 2
    frequency:     2.1182578784
  - # 3
    frequency:     3.8248649278
  - # 4
    frequency:     3.8386354446
  - # 5
    frequency:     4.0587230352
  - # 6
    frequency:     4.7047484891
  - # 7
    frequency:     4.7433952025
  - # 8
    frequency:     4.9759118251
  - # 9
    frequency:     5.0237140095
  - # 10
    frequency:     7.1719902335
  - # 11
    frequency:     7.1754011380
  - # 12
    frequency:     7.3007943260

- q-position: [    0.3437500,    0.0312500,    0.0104167 ]
  weight: 48   
  band:
  - # 1
    frequency:     2.2250945200
  - # 2
    frequency:     2.2419726077
  - # 3
    frequency:     3.7507157596
  - # 4
    frequency:     3.7649205538
  - # 5
    frequency:     4.2934956182
  - # 6
    frequency:     4.7383682575
  - # 7
    frequency:     4.7710471759
  - # 8
    frequency:     5.0661989950
  - # 9
    frequency:     5.1076760545
  - # 10
    frequency:     7.0346980769
  - # 11
    frequency:     7.0385464296
  - # 12
    frequency:     7.1631077795

- q-position: [    0.3645833,    0.0312500,    0.0104167 ]
  weight: 48   
  band:
  - # 1
    frequency:     2.3464605291
  - # 2
    frequency:     2.3635436880
  - # 3
    frequency:     3.6725662164
  - # 4
    frequency:     3.6872031921
  - # 5
    frequency:     4.5240077299
  - # 6
    frequency:     4.7689402590
  - # 7
    frequency:     4.7959433566
  - # 8
    frequency:     5.1642897248
  - # 9
    frequency:     5.1998739439
  - # 10
    frequency:     6.8941196343
  - # 11
    frequency:     6.8985102274
  - # 12
    frequency:     7.0178005092

- q-position: [    0.3854167,    0.0312500,    0.0104167 ]
  weight: 48   
  band:
  - # 1
    frequency:     2.4655992834
  - # 2
    frequency:     2.4828267215
  - # 3
    frequency:     3.5905247067
  - # 4
    frequency:     3.6055845006
  - # 5
    frequency:     4.7499825702
  - # 6
    frequency:     4.7959642139
  - # 7
    frequency:     4.8177553886
  - # 8
    frequency:     5.2698542028
  - # 9
    frequency:     5.3001697692
  - # 10
    frequency:     6.7511226842
  - # 11
    frequency:     6.7561791673
  - # 12
    frequency:     6.8650443782

- q-position: [    0.4062500,    0.0312500,    0.0104167 ]
  weight: 48   
  band:
  - # 1
    frequency:     2.5823724478
  - # 2
    frequency:     2.5996807771
  - # 3
    frequency:     3.5047037150
  - # 4
    frequency:     3.5201696417
  - # 5
    frequency:     4.8191072165
  - # 6
    frequency:     4.8361804201
  - # 7
    frequency:     4.9711525364
  - # 8
    frequency:     5.3824714868
  - # 9
    frequency:     5.4081932625
  - # 10
    frequency:     6.6065956679
  - # 11
    frequency:     6.6124634965
  - # 12
    frequency:     6.7050194300

- q-position: [    0.4270833,    0.0312500,    0.0104167 ]
  weight: 48   
  band:
  - # 1
    frequency:     2.6966428515
  - # 2
    frequency:     2.7139679051
  - # 3
    frequency:     3.4152194410
  - # 4
    frequency:     3.4310675845
  - # 5
    frequency:     4.8381489579
  - # 6
    frequency:     4.8509488859
  - # 7
    frequency:     5.1872581933
  - # 8
    frequency:     5.5016297189
  - # 9
    frequency:     5.5234052170
  - # 10
    frequency:     6.4614421964
  - # 11
    frequency:     6.4682920313
  - # 12
    frequency:     6.5379136333

- q-position: [    0.4479167,    0.0312500,    0.0104167 ]
  weight: 48   
  band:
  - # 1
    frequency:     2.8082745109
  - # 2
    frequency:     2.8255528565
  - # 3
    frequency:     3.3221914474
  - # 4
    frequency:     3.3383908889
  - # 5
    frequency:     4.8529453276
  - # 6
    frequency:     4.8618302689
  - # 7
    frequency:     5.3980476142
  - # 8
    frequency:     5.6267271703
  - # 9
    frequency:     5.6451411579
  - # 10
    frequency:     6.3165778651
  - # 11
    frequency:     6.3246091587
  - # 12
    frequency:     6.3639226352

- q-position: [    0.4687500,    0.0312500,    0.0104167 ]
  weight: 48   
  band:
  - # 1
    frequency:     2.9171327243
  - # 2
    frequency:     2.9343029466
  - # 3
    frequency:     3.2257423214
  - # 4
    frequency:     3.2422554926
  - # 5
    frequency:     4.8634088960
  - # 6
    frequency:     4.8686368680
  - # 7
    frequency:     5.6032759800
  - # 8
    frequency:     5.7570610981
  - # 9
    frequency:     5.7726211807
  - # 10
    frequency:     6.1729442735
  - # 11
    frequency:     6.1823862077
  - # 12
    frequency:     6.1832495293

- q-position: [    0.4895833,    0.0312500,    0.0104167 ]
  weight: 48   
  band:
  - # 1
    frequency:     3.0230842203
  - # 2
    frequency:     3.0400880226
  - # 3
    frequency:     3.1259973511
  - # 4
    frequency:     3.1427805064
  - # 5
    frequency:     4.8695003763
  - # 6
    frequency:     4.8712259119
  - # 7
    frequency:     5.8027053630
  - # 8
    frequency:     5.8916111874
  - # 9
    frequency:     5.9046575495
  - # 10
    frequency:     5.9961046443
  - # 11
    frequency:     6.0318139191
  - # 12
    frequency:     6.0428394553

- q-position: [    0.0520833,    0.0520833,    0.0104167 ]
  weight: 24   
  band:
  - # 1
    frequency:     0.4678299668
  - # 2
    frequency:     0.5022519220
  - # 3
    frequency:     0.9847524174
  - # 4
    frequency:     4.3826337244
  - # 5
    frequency:     4.3896603070
  - # 6
    frequency:     4.3896603070
  - # 7
    frequency:     4.4066886699
  - # 8
    frequency:     4.4066886699
  - # 9
    frequency:     4.4656663071
  - # 10
    frequency:     8.3073333279
  - # 11
    frequency:     8.3134944752
  - # 12
    frequency:     8.3134944752

- q-position: [    0.0729167,    0.0520833,    0.0104167 ]
  weight: 48   
  band:
  - # 1
    frequency:     0.5716016567
  - # 2
    frequency:     0.6115552587
  - # 3
    frequency:     1.1903766051
  - # 4
    frequency:     4.3751411151
  - # 5
    frequency:     4.3779081244
  - # 6
    frequency:     4.3922646581
  - # 7
    frequency:     4.3983026624
  - # 8
    frequency:     4.4220968723
  - # 9
    frequency:     4.4933761031
  - # 10
    frequency:     8.2745082284
  - # 11
    frequency:     8.2806647023
  - # 12
    frequency:     8.2866761486

- q-position: [    0.0937500,    0.0520833,    0.0104167 ]
  weight: 48   
  band:
  - # 1
    frequency:     0.6907958904
  - # 2
    frequency:     0.7318952924
  - # 3
    frequency:     1.4152926979
  - # 4
    frequency:     4.3558018116
  - # 5
    frequency:     4.3730733437
  - # 6
    frequency:     4.3774065100
  - # 7
    frequency:     4.4110377730
  - # 8
    frequency:     4.4414076319
  - # 9
    frequency:     4.5245438443
  - # 10
    frequency:     8.2310308362
  - # 11
    frequency:     8.2371890879
  - # 12
    frequency:     8.2509682970

- q-position: [    0.1145833,    0.0520833,    0.0104167 ]
  weight: 48   
  band:
  - # 1
    frequency:     0.8175474405
  - # 2
    frequency:     0.8582953703
  - # 3
    frequency:     1.6512848940
  - # 4
    frequency:     4.3316602931
  - # 5
    frequency:     4.3491483246
  - # 6
    frequency:     4.3812580176
  - # 7
    frequency:     4.4279396595
  - # 8
    frequency:     4.4645234185
  - # 9
    frequency:     4.5590517600
  - # 10
    frequency:     8.1771478576
  - # 11
    frequency:     8.1833213297
  - # 12
    frequency:     8.2064136026

- q-position: [    0.1354167,    0.0520833,    0.0104167 ]
  weight: 48   
  band:
  - # 1
    frequency:     0.9479323002
  - # 2