32   
1    

1    
  0.0100000000000000   0.0000000000000000   0.0000000000000000
  -0.0422267700   -0.0000000000   -0.0000000000
   0.0044122100    0.0000000000   -0.0000000000
  -0.0006719700   -0.0000000000    0.0000000000
  -0.0020461200   -0.0000000000    0.0000000000
  -0.0006719700    0.0000000000   -0.0000000000
  -0.0020461200   -0.0000000000   -0.0000000000
   0.0002817300    0.0000000000    0.0000000000
  -0.0001079500    0.0000000000   -0.0000000000
   0.0063513300    0.0081336000   -0.0000000000
   0.0061232900   -0.0078120700   -0.0000000000
   0.0063513300   -0.0081336000    0.0000000000
   0.0061232900    0.0078120700    0.0000000000
   0.0001858500    0.0000780900    0.0000000000
   0.0001836100   -0.0000670400   -0.0000000000
   0.0001858500   -0.0000780900    0.0000000000
   0.0001836100    0.0000670400   -0.0000000000
   0.0063513300   -0.0000000000    0.0081336000
   0.0061232900   -0.0000000000   -0.0078120700
   0.0001858500   -0.0000000000    0.0000780900
   0.0001836100   -0.0000000000   -0.0000670400
   0.0063513300   -0.0000000000   -0.0081336000
   0.0061232900    0.0000000000    0.0078120700
   0.0001858500   -0.0000000000   -0.0000780900
   0.0001836100   -0.0000000000    0.0000670400
  -0.0028951000   -0.0000031000   -0.0000031000
   0.0008202600    0.0000065800    0.0000065800
  -0.0028951000    0.0000031000   -0.0000031000
   0.0008202600   -0.0000065800    0.0000065800
  -0.0028951000   -0.0000031000    0.0000031000
   0.0008202600    0.0000065800   -0.0000065800
  -0.0028951000    0.0000031000    0.0000031000
   0.0008202600   -0.0000065800   -0.0000065800
