mesh: [    48,    48,    48 ]
nqpoint: 2600   
reciprocal_lattice:
- [   0.23727154,   0.00000000,   0.00000000 ] # a*
- [   0.00000000,   0.23727154,   0.00000000 ] # b*
- [   0.00000000,   0.00000000,   0.23727154 ] # c*
natom:   4      
lattice:
- [     4.214580421338017,     0.000000000000000,     0.000000000000000 ] # a
- [     0.000000000000000,     4.214580421338017,     0.000000000000000 ] # b
- [     0.000000000000000,     0.000000000000000,     4.214580421338017 ] # c
points:
- symbol: Au # 1
  coordinates: [  0.000000000000000,  0.000000000000000,  0.000000000000000 ]
  mass: 196.966569
- symbol: Au # 2
  coordinates: [  0.500000000000000,  0.500000000000000,  0.000000000000000 ]
  mass: 196.966569
- symbol: Au # 3
  coordinates: [  0.500000000000000,  0.000000000000000,  0.500000000000000 ]
  mass: 196.966569
- symbol: Au # 4
  coordinates: [  0.000000000000000,  0.500000000000000,  0.500000000000000 ]
  mass: 196.966569
phonon:
- q-position: [    0.0104167,    0.0104167,    0.0104167 ]
  weight: 8    
  band:
  - # 1
    frequency:     0.0376442125
  - # 2
    frequency:     0.0376442125
  - # 3
    frequency:     0.1193370346
  - # 4
    frequency:     2.0760393467
  - # 5
    frequency:     2.0760393467
  - # 6
    frequency:     2.0760393467
  - # 7
    frequency:     2.0780963702
  - # 8
    frequency:     2.0780963702
  - # 9
    frequency:     2.0780963702
  - # 10
    frequency:     3.5694565503
  - # 11
    frequency:     3.5694565503
  - # 12
    frequency:     3.5694565503

- q-position: [    0.0312500,    0.0104167,    0.0104167 ]
  weight: 24   
  band:
  - # 1
    frequency:     0.0766002216
  - # 2
    frequency:     0.0826144674
  - # 3
    frequency:     0.2233318913
  - # 4
    frequency:     2.0728959643
  - # 5
    frequency:     2.0738815822
  - # 6
    frequency:     2.0738815822
  - # 7
    frequency:     2.0749474411
  - # 8
    frequency:     2.0813563690
  - # 9
    frequency:     2.0813563690
  - # 10
    frequency:     3.5659570980
  - # 11
    frequency:     3.5659570980
  - # 12
    frequency:     3.5666790790

- q-position: [    0.0520833,    0.0104167,    0.0104167 ]
  weight: 24   
  band:
  - # 1
    frequency:     0.1283491396
  - # 2
    frequency:     0.1329175744
  - # 3
    frequency:     0.3452913124
  - # 4
    frequency:     2.0666202135
  - # 5
    frequency:     2.0686606437
  - # 6
    frequency:     2.0705873325
  - # 7
    frequency:     2.0705873325
  - # 8
    frequency:     2.0868780971
  - # 9
    frequency:     2.0868780971
  - # 10
    frequency:     3.5589754099
  - # 11
    frequency:     3.5589754099
  - # 12
    frequency:     3.5611161649

- q-position: [    0.0729167,    0.0104167,    0.0104167 ]
  weight: 24   
  band:
  - # 1
    frequency:     0.1809565607
  - # 2
    frequency:     0.1843733749
  - # 3
    frequency:     0.4715335926
  - # 4
    frequency:     2.0572340619
  - # 5
    frequency:     2.0592580369
  - # 6
    frequency:     2.0659207573
  - # 7
    frequency:     2.0659207573
  - # 8
    frequency:     2.0949428135
  - # 9
    frequency:     2.0949428135
  - # 10
    frequency:     3.5485458399
  - # 11
    frequency:     3.5485458399
  - # 12
    frequency:     3.5527520086

- q-position: [    0.0937500,    0.0104167,    0.0104167 ]
  weight: 24   
  band:
  - # 1
    frequency:     0.2337461012
  - # 2
    frequency:     0.2363856343
  - # 3
    frequency:     0.5988571688
  - # 4
    frequency:     2.0447703087
  - # 5
    frequency:     2.0467725539
  - # 6
    frequency:     2.0598728799
  - # 7
    frequency:     2.0598728799
  - # 8
    frequency:     2.1056261392
  - # 9
    frequency:     2.1056261392
  - # 10
    frequency:     3.5347197205
  - # 11
    frequency:     3.5347197205
  - # 12
    frequency:     3.5415632660

- q-position: [    0.1145833,    0.0104167,    0.0104167 ]
  weight: 24   
  band:
  - # 1
    frequency:     0.2867271794
  - # 2
    frequency:     0.2888162164
  - # 3
    frequency:     0.7260626603
  - # 4
    frequency:     2.0292724029
  - # 5
    frequency:     2.0312478162
  - # 6
    frequency:     2.0525105828
  - # 7
    frequency:     2.0525105828
  - # 8
    frequency:     2.1189473245
  - # 9
    frequency:     2.1189473245
  - # 10
    frequency:     3.5175651257
  - # 11
    frequency:     3.5175651257
  - # 12
    frequency:     3.5275194676

- q-position: [    0.1354167,    0.0104167,    0.0104167 ]
  weight: 24   
  band:
  - # 1
    frequency:     0.3399576262
  - # 2
    frequency:     0.3416341581
  - # 3
    frequency:     0.8525257430
  - # 4
    frequency:     2.0107942022
  - # 5
    frequency:     2.0127378867
  - # 6
    frequency:     2.0439370728
  - # 7
    frequency:     2.0439370728
  - # 8
    frequency:     2.1349065436
  - # 9
    frequency:     2.1349065436
  - # 10
    frequency:     3.4971665538
  - # 11
    frequency:     3.4971665538
  - # 12
    frequency:     3.5105835665

- q-position: [    0.1562500,    0.0104167,    0.0104167 ]
  weight: 24   
  band:
  - # 1
    frequency:     0.3934869493
  - # 2
    frequency:     0.3948393311
  - # 3
    frequency:     0.9778360261
  - # 4
    frequency:     1.9893996718
  - # 5
    frequency:     1.9913069635
  - # 6
    frequency:     2.0342806830
  - # 7
    frequency:     2.0342806830
  - # 8
    frequency:     2.1534934007
  - # 9
    frequency:     2.1534934007
  - # 10
    frequency:     3.4736245317
  - # 11
    frequency:     3.4736245317
  - # 12
    frequency:     3.4907126051

- q-position: [    0.1770833,    0.0104167,    0.0104167 ]
  weight: 24   
  band:
  - # 1
    frequency:     0.4473509529
  - # 2
    frequency:     0.4484386382
  - # 3
    frequency:     1.1016795768
  - # 4
    frequency:     1.9651625260
  - # 5
    frequency:     1.9670290146
  - # 6
    frequency:     2.0236904100
  - # 7
    frequency:     2.0236904100
  - # 8
    frequency:     2.1746883116
  - # 9
    frequency:     2.1746883116
  - # 10
    frequency:     3.4470551402
  - # 11
    frequency:     3.4470551402
  - # 12
    frequency:     3.4678584904

- q-position: [    0.1979167,    0.0104167,    0.0104167 ]
  weight: 24   
  band:
  - # 1
    frequency:     0.5015718942
  - # 2
    frequency:     0.5024366166
  - # 3
    frequency:     1.2237936052
  - # 4
    frequency:     1.9381658122
  - # 5
    frequency:     1.9399873554
  - # 6
    frequency:     2.0123331484
  - # 7
    frequency:     2.0123331484
  - # 8
    frequency:     2.1984618652
  - # 9
    frequency:     2.1984618652
  - # 10
    frequency:     3.4175894594
  - # 11
    frequency:     3.4175894594
  - # 12
    frequency:     3.4419688648

- q-position: [    0.2187500,    0.0104167,    0.0104167 ]
  weight: 24   
  band:
  - # 1
    frequency:     0.5561589476
  - # 2
    frequency:     0.5568310477
  - # 3
    frequency:     1.3439467923
  - # 4
    frequency:     1.9085014390
  - # 5
    frequency:     1.9102741701
  - # 6
    frequency:     2.0003912606
  - # 7
    frequency:     2.0003912606
  - # 8
    frequency:     2.2247735842
  - # 9
    frequency:     2.2247735842
  - # 10
    frequency:     3.3853729361
  - # 11
    frequency:     3.3853729361
  - # 12
    frequency:     3.4129880582

- q-position: [    0.2395833,    0.0104167,    0.0104167 ]
  weight: 24   
  band:
  - # 1
    frequency:     0.6111084751
  - # 2
    frequency:     0.6116106629
  - # 3
    frequency:     1.4619300340
  - # 4
    frequency:     1.8762696508
  - # 5
    frequency:     1.8779899797
  - # 6
    frequency:     1.9880600505
  - # 7
    frequency:     1.9880600505
  - # 8
    frequency:     2.2535705805
  - # 9
    frequency:     2.2535705805
  - # 10
    frequency:     3.3505646716
  - # 11
    frequency:     3.3505646716
  - # 12
    frequency:     3.3808581080

- q-position: [    0.2604167,    0.0104167,    0.0104167 ]
  weight: 24   
  band:
  - # 1
    frequency:     0.6664041876
  - # 2
    frequency:     0.6667538798
  - # 3
    frequency:     1.5775518571
  - # 4
    frequency:     1.8415784485
  - # 5
    frequency:     1.8432430562
  - # 6
    frequency:     1.9755449784
  - # 7
    frequency:     1.9755449784
  - # 8
    frequency:     2.2847863165
  - # 9
    frequency:     2.2847863165
  - # 10
    frequency:     3.3133366300
  - # 11
    frequency:     3.3133366300
  - # 12
    frequency:     3.3455198304

- q-position: [    0.2812500,    0.0104167,    0.0104167 ]
  weight: 24   
  band:
  - # 1
    frequency:     0.7220172983
  - # 2
    frequency:     0.7222281285
  - # 3
    frequency:     1.6906360937
  - # 4
    frequency:     1.8045429604
  - # 5
    frequency:     1.8061487881
  - # 6
    frequency:     1.9630585555
  - # 7
    frequency:     1.9630585555
  - # 8
    frequency:     2.3183395861
  - # 9
    frequency:     2.3183395861
  - # 10
    frequency:     3.2738727679
  - # 11
    frequency:     3.2738727679
  - # 12
    frequency:     3.3069139292

- q-position: [    0.3020833,    0.0104167,    0.0104167 ]
  weight: 24   
  band:
  - # 1
    frequency:     0.7779067341
  - # 2
    frequency:     0.7779895623
  - # 3
    frequency:     1.7652847633
  - # 4
    frequency:     1.7668289963
  - # 5
    frequency:     1.8010207061
  - # 6
    frequency:     1.9508169001
  - # 7
    frequency:     1.9508169001
  - # 8
    frequency:     2.3541337784
  - # 9
    frequency:     2.3541337784
  - # 10
    frequency:     3.2323680843
  - # 11
    frequency:     3.2323680843
  - # 12
    frequency:     3.2649821247

- q-position: [    0.3229167,    0.0104167,    0.0104167 ]
  weight: 24   
  band:
  - # 1
    frequency:     0.8339830447
  - # 2
    frequency:     0.8340194374
  - # 3
    frequency:     1.7239311584
  - # 4
    frequency:     1.7254112051
  - # 5
    frequency:     1.9085572127
  - # 6
    frequency:     1.9390359707
  - # 7
    frequency:     1.9390359707
  - # 8
    frequency:     2.3920564565
  - # 9
    frequency:     2.3920564565
  - # 10
    frequency:     3.1890275928
  - # 11
    frequency:     3.1890275928
  - # 12
    frequency:     3.2196682910

- q-position: [    0.3437500,    0.0104167,    0.0104167 ]
  weight: 24   
  band:
  - # 1
    frequency:     0.8901423509
  - # 2
    frequency:     0.8902907702
  - # 3
    frequency:     1.6806144017
  - # 4
    frequency:     1.6820278688
  - # 5
    frequency:     1.9279275179
  - # 6
    frequency:     1.9279275179
  - # 7
    frequency:     2.0131104302
  - # 8
    frequency:     2.4319792644
  - # 9
    frequency:     2.4319792644
  - # 10
    frequency:     3.1440652147
  - # 11
    frequency:     3.1440652147
  - # 12
    frequency:     3.1709195839

- q-position: [    0.3645833,    0.0104167,    0.0104167 ]
  weight: 24   
  band:
  - # 1
    frequency:     0.9463905405
  - # 2
    frequency:     0.9466450222
  - # 3
    frequency:     1.6354708946
  - # 4
    frequency:     1.6368155586
  - # 5
    frequency:     1.9176948282
  - # 6
    frequency:     1.9176948282
  - # 7
    frequency:     2.1145583700
  - # 8
    frequency:     2.4737581524
  - # 9
    frequency:     2.4737581524
  - # 10
    frequency:     3.0977025969
  - # 11
    frequency:     3.0977025969
  - # 12
    frequency:     3.1186875488

- q-position: [    0.3854167,    0.0104167,    0.0104167 ]
  weight: 24   
  band:
  - # 1
    frequency:     1.0026404721
  - # 2
    frequency:     1.0029960172
  - # 3
    frequency:     1.5886403355
  - # 4
    frequency:     1.5899141115
  - # 5
    frequency:     1.9085283591
  - # 6
    frequency:     1.9085283591
  - # 7
    frequency:     2.2127921988
  - # 8
    frequency:     2.5172339003
  - # 9
    frequency:     2.5172339003
  - # 10
    frequency:     3.0501678587
  - # 11
    frequency:     3.0501678587
  - # 12
    frequency:     3.0629291946

- q-position: [    0.4062500,    0.0104167,    0.0104167 ]
  weight: 24   
  band:
  - # 1
    frequency:     1.0587954340
  - # 2
    frequency:     1.0592478077
  - # 3
    frequency:     1.5402648374
  - # 4
    frequency:     1.5414657447
  - # 5
    frequency:     1.9006013942
  - # 6
    frequency:     1.9006013942
  - # 7
    frequency:     2.3077162057
  - # 8
    frequency:     2.5622328978
  - # 9
    frequency:     2.5622328978
  - # 10
    frequency:     3.0016942780
  - # 11
    frequency:     3.0016942780
  - # 12
    frequency:     3.0036080231

- q-position: [    0.4270833,    0.0104167,    0.0104167 ]
  weight: 24   
  band:
  - # 1
    frequency:     1.1147498709
  - # 2
    frequency:     1.1152954458
  - # 3
    frequency:     1.4904880148
  - # 4
    frequency:     1.4916141399
  - # 5
    frequency:     1.8940658681
  - # 6
    frequency:     1.8940658681
  - # 7
    frequency:     2.3992477416
  - # 8
    frequency:     2.6085681157
  - # 9
    frequency:     2.6085681157
  - # 10
    frequency:     2.9406950035
  - # 11
    frequency:     2.9525189534
  - # 12
    frequency:     2.9525189534

- q-position: [    0.4479167,    0.0104167,    0.0104167 ]
  weight: 24   
  band:
  - # 1
    frequency:     1.1703901879
  - # 2
    frequency:     1.1710258204
  - # 3
    frequency:     1.4394540435
  - # 4
    frequency:     1.4405035007
  - # 5
    frequency:     1.8890485287
  - # 6
    frequency:     1.8890485287
  - # 7
    frequency:     2.4873171072
  - # 8
    frequency:     2.6560400943
  - # 9
    frequency:     2.6560400943
  - # 10
    frequency:     2.8741694829
  - # 11
    frequency:     2.9028815777
  - # 12
    frequency:     2.9028815777

- q-position: [    0.4687500,    0.0104167,    0.0104167 ]
  weight: 24   
  band:
  - # 1
    frequency:     1.2255956167
  - # 2
    frequency:     1.2263185455
  - # 3
    frequency:     1.3873066998
  - # 4
    frequency:     1.3882775891
  - # 5
    frequency:     1.8856476049
  - # 6
    frequency:     1.8856476049
  - # 7
    frequency:     2.5718673758
  - # 8
    frequency:     2.7044370694
  - # 9
    frequency:     2.7044370694
  - # 10
    frequency:     2.8040200257
  - # 11
    frequency:     2.8530241697
  - # 12
    frequency:     2.8530241697

- q-position: [    0.4895833,    0.0104167,    0.0104167 ]
  weight: 24   
  band:
  - # 1
    frequency:     1.2802391286
  - # 2
    frequency:     1.2810468912
  - # 3
    frequency:     1.3341883832
  - # 4
    frequency:     1.3350787442
  - # 5
    frequency:     1.8839301425
  - # 6
    frequency:     1.8839301425
  - # 7
    frequency:     2.6528541400
  - # 8
    frequency:     2.7302451766
  - # 9
    frequency:     2.7535199486
  - # 10
    frequency:     2.7535199486
  - # 11
    frequency:     2.8032060209
  - # 12
    frequency:     2.8032060209

- q-position: [    0.0312500,    0.0312500,    0.0104167 ]
  weight: 24   
  band:
  - # 1
    frequency:     0.0860170324
  - # 2
    frequency:     0.1093717220
  - # 3
    frequency:     0.2977726226
  - # 4
    frequency:     2.0689441075
  - # 5
    frequency:     2.0707439780
  - # 6
    frequency:     2.0707439780
  - # 7
    frequency:     2.0782022956
  - # 8
    frequency:     2.0782022956
  - # 9
    frequency:     2.0873946245
  - # 10
    frequency:     3.5624578937
  - # 11
    frequency:     3.5632122351
  - # 12
    frequency:     3.5632122351

- q-position: [    0.0520833,    0.0312500,    0.0104167 ]
  weight: 48   
  band:
  - # 1
    frequency:     0.1246380568
  - # 2
    frequency:     0.1509569849
  - # 3
    frequency:     0.4005412945
  - # 4
    frequency:     2.0633875087
  - # 5
    frequency:     2.0644797956
  - # 6
    frequency:     2.0674562261
  - # 7
    frequency:     2.0719052909
  - # 8
    frequency:     2.0837185159
  - # 9
    frequency:     2.0951757141
  - # 10
    frequency:     3.5554767045
  - # 11
    frequency:     3.5562956705
  - # 12
    frequency:     3.5577142870

- q-position: [    0.0729167,    0.0312500,    0.0104167 ]
  weight: 48   
  band:
  - # 1
    frequency:     0.1746123513
  - # 2
    frequency:     0.1977635147
  - # 3
    frequency:     0.5145517383
  - # 4
    frequency:     2.0551110239
  - # 5
    frequency:     2.0571815941
  - # 6
    frequency:     2.0624875741
  - # 7
    frequency:     2.0627972507
  - # 8
    frequency:     2.0917764255
  - # 9
    frequency:     2.1047750889
  - # 10
    frequency:     3.5450478906
  - # 11
    frequency:     3.5459635519
  - # 12
    frequency:     3.5494469594

- q-position: [    0.0937500,    0.0312500,    0.0104167 ]
  weight: 48   
  band:
  - # 1
    frequency:     0.2274157882
  - # 2
    frequency:     0.2469703270
  - # 3
    frequency:     0.6336901442
  - # 4
    frequency:     2.0426704876
  - # 5
    frequency:     2.0499823121
  - # 6
    frequency:     2.0501424562
  - # 7
    frequency:     2.0567575656
  - # 8
    frequency:     2.1024513284
  - # 9
    frequency:     2.1164430675
  - # 10
    frequency:     3.5312227943
  - # 11
    frequency:     3.5322669315
  - # 12
    frequency:     3.5383861842

- q-position: [    0.1145833,    0.0312500,    0.0104167 ]
  weight: 48   
  band:
  - # 1
    frequency:     0.2810325288
  - # 2
    frequency:     0.2975446662
  - # 3
    frequency:     0.7551261529
  - # 4
    frequency:     2.0272016581
  - # 5
    frequency:     2.0344334269
  - # 6
    frequency:     2.0421727891
  - # 7
    frequency:     2.0494029763
  - # 8
    frequency:     2.1157624603
  - # 9
    frequency:     2.1303627876
  - # 10
    frequency:     3.5140695024
  - # 11
    frequency:     3.5152735095
  - # 12
    frequency:     3.5245005593

- q-position: [    0.1354167,    0.0312500,    0.0104167 ]
  weight: 48   
  band:
  - # 1
    frequency:     0.3349945104
  - # 2
    frequency:     0.3490514115
  - # 3
    frequency:     0.8773321319
  - # 4
    frequency:     2.0087584024
  - # 5
    frequency:     2.0158953404
  - # 6
    frequency:     2.0332593282
  - # 7
    frequency:     2.0408352347
  - # 8
    frequency:     2.1317101013
  - # 9
    frequency:     2.1466505307
  - # 10
    frequency:     3.4936725305
  - # 11
    frequency:     3.4950673167
  - # 12
    frequency:     3.5077519225

- q-position: [    0.1562500,    0.0312500,    0.0104167 ]
  weight: 48   
  band:
  - # 1
    frequency:     0.3892088473
  - # 2
    frequency:     0.4012858809
  - # 3
    frequency:     0.9993784224
  - # 4
    frequency:     1.9874046713
  - # 5
    frequency:     1.9944326582
  - # 6
    frequency:     2.0234528760
  - # 7
    frequency:     2.0311809213
  - # 8
    frequency:     2.1502840158
  - # 9
    frequency:     2.1653730074
  - # 10
    frequency:     3.4701324269
  - # 11
    frequency:     3.4717483194
  - # 12
    frequency:     3.4880960497

- q-position: [    0.1770833,    0.0312500,    0.0104167 ]
  weight: 48   
  band:
  - # 1
    frequency:     0.4436768357
  - # 2
    frequency:     0.4541417143
  - # 3
    frequency:     1.1206381200
  - # 4
    frequency:     1.9632141284
  - # 5
    frequency:     1.9701197950
  - # 6
    frequency:     2.0128512403
  - # 7
    frequency:     2.0205870290
  - # 8
    frequency:     2.1714648063
  - # 9
    frequency:     2.1865613397
  - # 10
    frequency:     3.4435652989
  - # 11
    frequency:     3.4454319441
  - # 12
    frequency:     3.4654834636

- q-position: [    0.1979167,    0.0312500,    0.0104167 ]
  weight: 48   
  band:
  - # 1
    frequency:     0.4984179649
  - # 2
    frequency:     0.5075562573
  - # 3
    frequency:     1.2406509528
  - # 4
    frequency:     1.9362697210
  - # 5
    frequency:     1.9430405423
  - # 6
    frequency:     2.0015869712
  - # 7
    frequency:     2.0092182367
  - # 8
    frequency:     2.1952232589
  - # 9
    frequency:     2.2102199145
  - # 10
    frequency:     3.4141022596
  - # 11
    frequency:     3.4162485234
  - # 12
    frequency:     3.4398603410

- q-position: [    0.2187500,    0.0312500,    0.0104167 ]
  weight: 48   
  band:
  - # 1
    frequency:     0.5534473801
  - # 2
    frequency:     0.5614852899
  - # 3
    frequency:     1.3590557692
  - # 4
    frequency:     1.9066631950
  - # 5
    frequency:     1.9132875822
  - # 6
    frequency:     1.9898186866
  - # 7
    frequency:     1.9972545228
  - # 8
    frequency:     2.2215190941
  - # 9
    frequency:     2.2363313813
  - # 10
    frequency:     3.3818887961
  - # 11
    frequency:     3.3843426635
  - # 12
    frequency:     3.4111695030

- q-position: [    0.2395833,    0.0312500,    0.0104167 ]
  weight: 48   
  band:
  - # 1
    frequency:     0.6087689123
  - # 2
    frequency:     0.6158902462
  - # 3
    frequency:     1.4755549946
  - # 4
    frequency:     1.8744945554
  - # 5
    frequency:     1.8809619477
  - # 6
    frequency:     1.9777246135
  - # 7
    frequency:     1.9848886869
  - # 8
    frequency:     2.2502996114
  - # 9
    frequency:     2.2648592272
  - # 10
    frequency:     3.3470840596
  - # 11
    frequency:     3.3498725321
  - # 12
    frequency:     3.3793514722

- q-position: [    0.2604167,    0.0312500,    0.0104167 ]
  weight: 48   
  band:
  - # 1
    frequency:     0.6643730455
  - # 2
    frequency:     0.6707313004
  - # 3
    frequency:     1.5898949756
  - # 4
    frequency:     1.8398714744
  - # 5
    frequency:     1.8461724337
  - # 6
    frequency:     1.9654973505
  - # 7
    frequency:     1.9723236223
  - # 8
    frequency:     2.2814984427
  - # 9
    frequency:     2.2957489739
  - # 10
    frequency:     3.3098600768
  - # 11
    frequency:     3.3130090683
  - # 12
    frequency:     3.3443455816

- q-position: [    0.2812500,    0.0312500,    0.0104167 ]
  weight: 48   
  band:
  - # 1
    frequency:     0.7202365751
  - # 2
    frequency:     0.7259634412
  - # 3
    frequency:     1.7018546618
  - # 4
    frequency:     1.8029086482
  - # 5
    frequency:     1.8090349595
  - # 6
    frequency:     1.9533392301
  - # 7
    frequency:     1.9597692750
  - # 8
    frequency:     2.3150345233
  - # 9
    frequency:     2.3289286735
  - # 10
    frequency:     3.2704008847
  - # 11
    frequency:     3.2739351138
  - # 12
    frequency:     3.3060911194

- q-position: [    0.3020833,    0.0312500,    0.0104167 ]
  weight: 48   
  band:
  - # 1
    frequency:     0.7763229146
  - # 2
    frequency:     0.7815341774
  - # 3
    frequency:     1.7637271055
  - # 4
    frequency:     1.7696718875
  - # 5
    frequency:     1.8112388678
  - # 6
    frequency:     1.9414579091
  - # 7
    frequency:     1.9474392730
  - # 8
    frequency:     2.3508113446
  - # 9
    frequency:     2.3643091176
  - # 10
    frequency:     3.2289015883
  - # 11
    frequency:     3.2328444685
  - # 12
    frequency:     3.2645284935

- q-position: [    0.3229167,    0.0312500,    0.0104167 ]
  weight: 48   
  band:
  - # 1
    frequency:     0.8325827071
  - # 2
    frequency:     0.8373821837
  - # 3
    frequency:     1.7224534695
  - # 4
    frequency:     1.7282112985
  - # 5
    frequency:     1.9178741475
  - # 6
    frequency:     1.9300619928
  - # 7
    frequency:     1.9355472386
  - # 8
    frequency:     2.3887165186
  - # 9
    frequency:     2.4017840063
  - # 10
    frequency:     3.1855673462
  - # 11
    frequency:     3.1899408704
  - # 12
    frequency:     3.2196004014

- q-position: [    0.3437500,    0.0312500,    0.0104167 ]
  weight: 48   
  band:
  - # 1
    frequency:     0.8889546147
  - # 2
    frequency:     0.8934365298
  - # 3
    frequency:     1.6792191736
  - # 4
    frequency:     1.6847862305
  - # 5
    frequency:     1.9193566060
  - # 6
    frequency:     1.9243028257
  - # 7
    frequency:     2.0216062011
  - # 8
    frequency:     2.4286216601
  - # 9
    frequency:     2.4412302143
  - # 10
    frequency:     3.1406122888
  - # 11
    frequency:     3.1454369083
  - # 12
    frequency:     3.1712529914

- q-position: [    0.3645833,    0.0312500,    0.0104167 ]
  weight: 48   
  band:
  - # 1
    frequency:     0.9453662085
  - # 2
    frequency:     0.9496163204
  - # 3
    frequency:     1.6341596345
  - # 4
    frequency:     1.6395338806
  - # 5
    frequency:     1.9095389056
  - # 6
    frequency:     1.9139075499
  - # 7
    frequency:     2.1222981989
  - # 8
    frequency:     2.4703825705
  - # 9
    frequency:     2.4825082136
  - # 10
    frequency:     3.0942583841
  - # 11
    frequency:     3.0995528766
  - # 12
    frequency:     3.1194370018

- q-position: [    0.3854167,    0.0312500,    0.0104167 ]
  weight: 48   
  band:
  - # 1
    frequency:     1.0017348760
  - # 2
    frequency:     1.0058306873
  - # 3
    frequency:     1.5874133835
  - # 4
    frequency:     1.5925947787
  - # 5
    frequency:     1.9007935869
  - # 6
    frequency:     1.9045505090
  - # 7
    frequency:     2.2198296569
  - # 8
    frequency:     2.5138396735
  - # 9
    frequency:     2.5254626517
  - # 10
    frequency:     3.0467342856
  - # 11
    frequency:     3.0525156050
  - # 12
    frequency:     3.0641088668

- q-position: [    0.4062500,    0.0312500,    0.0104167 ]
  weight: 48   
  band:
  - # 1
    frequency:     1.0579686637
  - # 2
    frequency:     1.0619791262
  - # 3
    frequency:     1.5391211575
  - # 4
    frequency:     1.5441119340
  - # 5
    frequency:     1.8932884816
  - # 6
    frequency:     1.8964041170
  - # 7
    frequency:     2.3140956411
  - # 8
    frequency:     2.5588185962
  - # 9
    frequency:     2.5699229920
  - # 10
    frequency:     2.9982742590
  - # 11
    frequency:     3.0045573403
  - # 12
    frequency:     3.0052317779

- q-position: [    0.4270833,    0.0312500,    0.0104167 ]
  weight: 48   
  band:
  - # 1
    frequency:     1.1139670120
  - # 2
    frequency:     1.1179521584
  - # 3
    frequency:     1.4894249515
  - # 4
    frequency:     1.4942299630
  - # 5
    frequency:     1.8871703767
  - # 6
    frequency:     1.8896199990
  - # 7
    frequency:     2.4050061606
  - # 8
    frequency:     2.6051306064
  - # 9
    frequency:     2.6157038838
  - # 10
    frequency:     2.9427766938
  - # 11
    frequency:     2.9491175079
  - # 12
    frequency:     2.9559149377

- q-position: [    0.4479167,    0.0312500,    0.0104167 ]
  weight: 48   
  band:
  - # 1
    frequency:     1.1696214074
  - # 2
    frequency:     1.1736322449
  - # 3
    frequency:     1.4384670363
  - # 4
    frequency:     1.4430942027
  - # 5
    frequency:     1.8825612049
  - # 6
    frequency:     1.8843252064
  - # 7
    frequency:     2.4924856583
  - # 8
    frequency:     2.6525718344
  - # 9
    frequency:     2.6626038692
  - # 10
    frequency:     2.8767232889
  - # 11
    frequency:     2.8995092686
  - # 12
    frequency:     2.9068303968

- q-position: [    0.4687500,    0.0312500,    0.0104167 ]
  weight: 48   
  band:
  - # 1
    frequency:     1.2248160247
  - # 2
    frequency:     1.2288948431
  - # 3
    frequency:     1.3863889448
  - # 4
    frequency:     1.3908498140
  - # 5
    frequency:     1.8795547646
  - # 6
    frequency:     1.8806189206
  - # 7
    frequency:     2.5764725399
  - # 8
    frequency:     2.7009150282
  - # 9
    frequency:     2.7103933158
  - # 10
    frequency:     2.8070608369
  - # 11
    frequency:     2.8497127605
  - # 12
    frequency:     2.8575589610

- q-position: [    0.4895833,    0.0312500,    0.0104167 ]
  weight: 48   
  band:
  - # 1
    frequency:     1.2794284369
  - # 2
    frequency:     1.2836094948
  - # 3
    frequency:     1.3333304340
  - # 4
    frequency:     1.3376408797
  - # 5
    frequency:     1.8782141190
  - # 6
    frequency:     1.8785698016
  - # 7
    frequency:     2.6569187012
  - # 8
    frequency:     2.7337890259
  - # 9
    frequency:     2.7498041581
  - # 10
    frequency:     2.7586101436
  - # 11
    frequency:     2.8002133981
  - # 12
    frequency:     2.8084744312

- q-position: [    0.0520833,    0.0520833,    0.0104167 ]
  weight: 24   
  band:
  - # 1
    frequency:     0.1400804601
  - # 2
    frequency:     0.1833276488
  - # 3
    frequency:     0.4859089158
  - # 4
    frequency:     2.0549386742
  - # 5
    frequency:     2.0612051373
  - # 6
    frequency:     2.0612051373
  - # 7
    frequency:     2.0774105971
  - # 8
    frequency:     2.0774105971
  - # 9
    frequency:     2.1058429011
  - # 10
    frequency:     3.5484965193
  - # 11
    frequency:     3.5509274576
  - # 12
    frequency:     3.5509274576

- q-position: [    0.0729167,    0.0520833,    0.0104167 ]
  weight: 48   
  band:
  - # 1
    frequency:     0.1764745723
  - # 2
    frequency:     0.2234459487
  - # 3
    frequency:     0.5862202460
  - # 4
    frequency:     2.0460756165
  - # 5
    frequency:     2.0518562411
  - # 6
    frequency:     2.0565615646
  - # 7
    frequency:     2.0679767605
  - # 8
    frequency:     2.0854550195
  - # 9
    frequency:     2.1180898097
  - # 10
    frequency:     3.5380692269
  - # 11
    frequency:     3.5407894502
  - # 12
    frequency:     3.5428534690

- q-position: [    0.0937500,    0.0520833,    0.0104167 ]
  weight: 48   
  band:
  - # 1
    frequency:     0.2235246074
  - # 2
    frequency:     0.2679734829
  - # 3
    frequency:     0.6946647985
  - # 4
    frequency:     2.0368094357
  - # 5
    frequency:     2.0394426200
  - # 6
    frequency:     2.0505386064
  - # 7
    frequency:     2.0554504696
  - # 8
    frequency:     2.0961132342
  - # 9
    frequency:     2.1319712812
  - # 10
    frequency:     3.5242461886
  - # 11
    frequency:     3.5273507262
  - # 12
    frequency:     3.5320481614

- q-position: [    0.1145833,    0.0520833,    0.0104167 ]
  weight: 48   
  band:
  - # 1
    frequency:     0.2750568496
  - # 2
    frequency:     0.3151954202
  - # 3
    frequency:     0.8077010052
  - # 4
    frequency:     2.0240080491
  - # 5
    frequency:     2.0270742444
  - # 6
    frequency:     2.0398760331
  - # 7
    frequency:     2.0431999646
  - # 8
    frequency:     2.1094044495
  - # 9
    frequency:     2.1476384274
  - # 10
    frequency:     3.5070955174
  - # 11
    frequency:     3.5106781969
  - # 12
    frequency:     3.5184782333

- q-position: [    0.1354167,    0.0520833,    0.0104167 ]
  weight: 48   
  band:
  - # 1
    frequency:     0.3285254648