<?xml version="1.0" encoding="ISO-8859-1"?>
<modeling>
 <generator>
  <i name="program" type="string">vasp</i>
  <i name="version" type="string">4.6.28 </i>
  <i name="subversion" type="string">25Jul05 complex  parallel</i>
  <i name="platform" type="string">LinuxIFC</i>
  <i name="date" type="string">2017 01 12</i>
  <i name="time" type="string">01:02:37</i>
 </generator>
 <incar>
  <i type="string" name="PREC">accurate</i>
  <i type="int" name="IALGO">    38</i>
  <i type="logical" name="ADDGRID"> T  </i>
  <i name="EDIFF">      0.00000001</i>
  <i type="int" name="IBRION">    -1</i>
  <i name="ENCUT">    750.00000000</i>
  <i type="logical" name="LREAL"> F  </i>
  <i type="int" name="ISMEAR">     0</i>
  <i name="SIGMA">      0.01000000</i>
  <i type="logical" name="LWAVE"> F  </i>
  <i type="logical" name="LCHARG"> F  </i>
 </incar>
 <kpoints>
  <generation param="Gamma">
   <v type="int" name="divisions">      12      12      12</v>
   <v name="usershift">      0.00000000      0.00000000      0.00000000</v>
   <v name="genvec1">      0.08333333      0.00000000      0.00000000</v>
   <v name="genvec2">      0.00000000      0.08333333      0.00000000</v>
   <v name="genvec3">      0.00000000      0.00000000      0.08333333</v>
   <v name="shift">      0.00000000      0.00000000      0.00000000</v>
  </generation>
  <varray name="kpointlist" >
   <v>       0.00000000      0.00000000      0.00000000</v>
   <v>       0.08333333      0.00000000      0.00000000</v>
   <v>       0.16666667      0.00000000      0.00000000</v>
   <v>       0.25000000      0.00000000      0.00000000</v>
   <v>       0.33333333      0.00000000      0.00000000</v>
   <v>       0.41666667      0.00000000      0.00000000</v>
   <v>       0.50000000      0.00000000      0.00000000</v>
   <v>       0.00000000      0.08333333      0.00000000</v>
   <v>       0.08333333      0.08333333      0.00000000</v>
   <v>       0.16666667      0.08333333      0.00000000</v>
   <v>       0.25000000      0.08333333      0.00000000</v>
   <v>       0.33333333      0.08333333      0.00000000</v>
   <v>       0.41666667      0.08333333      0.00000000</v>
   <v>       0.50000000      0.08333333      0.00000000</v>
   <v>       0.00000000      0.16666667      0.00000000</v>
   <v>       0.08333333      0.16666667      0.00000000</v>
   <v>       0.16666667      0.16666667      0.00000000</v>
   <v>       0.25000000      0.16666667      0.00000000</v>
   <v>       0.33333333      0.16666667      0.00000000</v>
   <v>       0.41666667      0.16666667      0.00000000</v>
   <v>       0.50000000      0.16666667      0.00000000</v>
   <v>       0.00000000      0.25000000      0.00000000</v>
   <v>       0.08333333      0.25000000      0.00000000</v>
   <v>       0.16666667      0.25000000      0.00000000</v>
   <v>       0.25000000      0.25000000      0.00000000</v>
   <v>       0.33333333      0.25000000      0.00000000</v>
   <v>       0.41666667      0.25000000      0.00000000</v>
   <v>       0.50000000      0.25000000      0.00000000</v>
   <v>       0.00000000      0.33333333      0.00000000</v>
   <v>       0.08333333      0.33333333      0.00000000</v>
   <v>       0.16666667      0.33333333      0.00000000</v>
   <v>       0.25000000      0.33333333      0.00000000</v>
   <v>       0.33333333      0.33333333      0.00000000</v>
   <v>       0.41666667      0.33333333      0.00000000</v>
   <v>       0.50000000      0.33333333      0.00000000</v>
   <v>       0.00000000      0.41666667      0.00000000</v>
   <v>       0.08333333      0.41666667      0.00000000</v>
   <v>       0.16666667      0.41666667      0.00000000</v>
   <v>       0.25000000      0.41666667      0.00000000</v>
   <v>       0.33333333      0.41666667      0.00000000</v>
   <v>       0.41666667      0.41666667      0.00000000</v>
   <v>       0.50000000      0.41666667      0.00000000</v>
   <v>       0.00000000      0.50000000      0.00000000</v>
   <v>       0.08333333      0.50000000      0.00000000</v>
   <v>       0.16666667      0.50000000      0.00000000</v>
   <v>       0.25000000      0.50000000      0.00000000</v>
   <v>       0.33333333      0.50000000      0.00000000</v>
   <v>       0.41666667      0.50000000      0.00000000</v>
   <v>       0.50000000      0.50000000      0.00000000</v>
   <v>       0.00000000      0.08333333      0.08333333</v>
   <v>       0.08333333      0.08333333      0.08333333</v>
   <v>       0.16666667      0.08333333      0.08333333</v>
   <v>       0.25000000      0.08333333      0.08333333</v>
   <v>       0.33333333      0.08333333      0.08333333</v>
   <v>       0.41666667      0.08333333      0.08333333</v>
   <v>       0.50000000      0.08333333      0.08333333</v>
   <v>       0.00000000      0.16666667      0.08333333</v>
   <v>       0.08333333      0.16666667      0.08333333</v>
   <v>       0.16666667      0.16666667      0.08333333</v>
   <v>       0.25000000      0.16666667      0.08333333</v>
   <v>       0.33333333      0.16666667      0.08333333</v>
   <v>       0.41666667      0.16666667      0.08333333</v>
   <v>       0.50000000      0.16666667      0.08333333</v>
   <v>       0.00000000      0.25000000      0.08333333</v>
   <v>       0.08333333      0.25000000      0.08333333</v>
   <v>       0.16666667      0.25000000      0.08333333</v>
   <v>       0.25000000      0.25000000      0.08333333</v>
   <v>       0.33333333      0.25000000      0.08333333</v>
   <v>       0.41666667      0.25000000      0.08333333</v>
   <v>       0.50000000      0.25000000      0.08333333</v>
   <v>       0.00000000      0.33333333      0.08333333</v>
   <v>       0.08333333      0.33333333      0.08333333</v>
   <v>       0.16666667      0.33333333      0.08333333</v>
   <v>       0.25000000      0.33333333      0.08333333</v>
   <v>       0.33333333      0.33333333      0.08333333</v>
   <v>       0.41666667      0.33333333      0.08333333</v>
   <v>       0.50000000      0.33333333      0.08333333</v>
   <v>       0.00000000      0.41666667      0.08333333</v>
   <v>       0.08333333      0.41666667      0.08333333</v>
   <v>       0.16666667      0.41666667      0.08333333</v>
   <v>       0.25000000      0.41666667      0.08333333</v>
   <v>       0.33333333      0.41666667      0.08333333</v>
   <v>       0.41666667      0.41666667      0.08333333</v>
   <v>       0.50000000      0.41666667      0.08333333</v>
   <v>       0.00000000      0.50000000      0.08333333</v>
   <v>       0.08333333      0.50000000      0.08333333</v>
   <v>       0.16666667      0.50000000      0.08333333</v>
   <v>       0.25000000      0.50000000      0.08333333</v>
   <v>       0.33333333      0.50000000      0.08333333</v>
   <v>       0.41666667      0.50000000      0.08333333</v>
   <v>       0.50000000      0.50000000      0.08333333</v>
   <v>       0.00000000      0.16666667      0.16666667</v>
   <v>       0.08333333      0.16666667      0.16666667</v>
   <v>       0.16666667      0.16666667      0.16666667</v>
   <v>       0.25000000      0.16666667      0.16666667</v>
   <v>       0.33333333      0.16666667      0.16666667</v>
   <v>       0.41666667      0.16666667      0.16666667</v>
   <v>       0.50000000      0.16666667      0.16666667</v>
   <v>       0.00000000      0.25000000      0.16666667</v>
   <v>       0.08333333      0.25000000      0.16666667</v>
   <v>       0.16666667      0.25000000      0.16666667</v>
   <v>       0.25000000      0.25000000      0.16666667</v>
   <v>       0.33333333      0.25000000      0.16666667</v>
   <v>       0.41666667      0.25000000      0.16666667</v>
   <v>       0.50000000      0.25000000      0.16666667</v>
   <v>       0.00000000      0.33333333      0.16666667</v>
   <v>       0.08333333      0.33333333      0.16666667</v>
   <v>       0.16666667      0.33333333      0.16666667</v>
   <v>       0.25000000      0.33333333      0.16666667</v>
   <v>       0.33333333      0.33333333      0.16666667</v>
   <v>       0.41666667      0.33333333      0.16666667</v>
   <v>       0.50000000      0.33333333      0.16666667</v>
   <v>       0.00000000      0.41666667      0.16666667</v>
   <v>       0.08333333      0.41666667      0.16666667</v>
   <v>       0.16666667      0.41666667      0.16666667</v>
   <v>       0.25000000      0.41666667      0.16666667</v>
   <v>       0.33333333      0.41666667      0.16666667</v>
   <v>       0.41666667      0.41666667      0.16666667</v>
   <v>       0.50000000      0.41666667      0.16666667</v>
   <v>       0.00000000      0.50000000      0.16666667</v>
   <v>       0.08333333      0.50000000      0.16666667</v>
   <v>       0.16666667      0.50000000      0.16666667</v>
   <v>       0.25000000      0.50000000      0.16666667</v>
   <v>       0.33333333      0.50000000      0.16666667</v>
   <v>       0.41666667      0.50000000      0.16666667</v>
   <v>       0.50000000      0.50000000      0.16666667</v>
   <v>       0.00000000      0.25000000      0.25000000</v>
   <v>       0.08333333      0.25000000      0.25000000</v>
   <v>       0.16666667      0.25000000      0.25000000</v>
   <v>       0.25000000      0.25000000      0.25000000</v>
   <v>       0.33333333      0.25000000      0.25000000</v>
   <v>       0.41666667      0.25000000      0.25000000</v>
   <v>       0.50000000      0.25000000      0.25000000</v>
   <v>       0.00000000      0.33333333      0.25000000</v>
   <v>       0.08333333      0.33333333      0.25000000</v>
   <v>       0.16666667      0.33333333      0.25000000</v>
   <v>       0.25000000      0.33333333      0.25000000</v>
   <v>       0.33333333      0.33333333      0.25000000</v>
   <v>       0.41666667      0.33333333      0.25000000</v>
   <v>       0.50000000      0.33333333      0.25000000</v>
   <v>       0.00000000      0.41666667      0.25000000</v>
   <v>       0.08333333      0.41666667      0.25000000</v>
   <v>       0.16666667      0.41666667      0.25000000</v>
   <v>       0.25000000      0.41666667      0.25000000</v>
   <v>       0.33333333      0.41666667      0.25000000</v>
   <v>       0.41666667      0.41666667      0.25000000</v>
   <v>       0.50000000      0.41666667      0.25000000</v>
   <v>       0.00000000      0.50000000      0.25000000</v>
   <v>       0.08333333      0.50000000      0.25000000</v>
   <v>       0.16666667      0.50000000      0.25000000</v>
   <v>       0.25000000      0.50000000      0.25000000</v>
   <v>       0.33333333      0.50000000      0.25000000</v>
   <v>       0.41666667      0.50000000      0.25000000</v>
   <v>       0.50000000      0.50000000      0.25000000</v>
   <v>       0.00000000      0.33333333      0.33333333</v>
   <v>       0.08333333      0.33333333      0.33333333</v>
   <v>       0.16666667      0.33333333      0.33333333</v>
   <v>       0.25000000      0.33333333      0.33333333</v>
   <v>       0.33333333      0.33333333      0.33333333</v>
   <v>       0.41666667      0.33333333      0.33333333</v>
   <v>       0.50000000      0.33333333      0.33333333</v>
   <v>       0.00000000      0.41666667      0.33333333</v>
   <v>       0.08333333      0.41666667      0.33333333</v>
   <v>       0.16666667      0.41666667      0.33333333</v>
   <v>       0.25000000      0.41666667      0.33333333</v>
   <v>       0.33333333      0.41666667      0.33333333</v>
   <v>       0.41666667      0.41666667      0.33333333</v>
   <v>       0.50000000      0.41666667      0.33333333</v>
   <v>       0.00000000      0.50000000      0.33333333</v>
   <v>       0.08333333      0.50000000      0.33333333</v>
   <v>       0.16666667      0.50000000      0.33333333</v>
   <v>       0.25000000      0.50000000      0.33333333</v>
   <v>       0.33333333      0.50000000      0.33333333</v>
   <v>       0.41666667      0.50000000      0.33333333</v>
   <v>       0.50000000      0.50000000      0.33333333</v>
   <v>       0.00000000      0.41666667      0.41666667</v>
   <v>       0.08333333      0.41666667      0.41666667</v>
   <v>       0.16666667      0.41666667      0.41666667</v>
   <v>       0.25000000      0.41666667      0.41666667</v>
   <v>       0.33333333      0.41666667      0.41666667</v>
   <v>       0.41666667      0.41666667      0.41666667</v>
   <v>       0.50000000      0.41666667      0.41666667</v>
   <v>       0.00000000      0.50000000      0.41666667</v>
   <v>       0.08333333      0.50000000      0.41666667</v>
   <v>       0.16666667      0.50000000      0.41666667</v>
   <v>       0.25000000      0.50000000      0.41666667</v>
   <v>       0.33333333      0.50000000      0.41666667</v>
   <v>       0.41666667      0.50000000      0.41666667</v>
   <v>       0.50000000      0.50000000      0.41666667</v>
   <v>       0.00000000      0.50000000      0.50000000</v>
   <v>       0.08333333      0.50000000      0.50000000</v>
   <v>       0.16666667      0.50000000      0.50000000</v>
   <v>       0.25000000      0.50000000      0.50000000</v>
   <v>       0.33333333      0.50000000      0.50000000</v>
   <v>       0.41666667      0.50000000      0.50000000</v>
   <v>       0.50000000      0.50000000      0.50000000</v>
  </varray>
  <varray name="weights" >
   <v>       0.00057870</v>
   <v>       0.00115741</v>
   <v>       0.00115741</v>
   <v>       0.00115741</v>
   <v>       0.00115741</v>
   <v>       0.00115741</v>
   <v>       0.00057870</v>
   <v>       0.00231481</v>
   <v>       0.00462963</v>
   <v>       0.00462963</v>
   <v>       0.00462963</v>
   <v>       0.00462963</v>
   <v>       0.00462963</v>
   <v>       0.00231481</v>
   <v>       0.00231481</v>
   <v>       0.00462963</v>
   <v>       0.00462963</v>
   <v>       0.00462963</v>
   <v>       0.00462963</v>
   <v>       0.00462963</v>
   <v>       0.00231481</v>
   <v>       0.00231481</v>
   <v>       0.00462963</v>
   <v>       0.00462963</v>
   <v>       0.00462963</v>
   <v>       0.00462963</v>
   <v>       0.00462963</v>
   <v>       0.00231481</v>
   <v>       0.00231481</v>
   <v>       0.00462963</v>
   <v>       0.00462963</v>
   <v>       0.00462963</v>
   <v>       0.00462963</v>
   <v>       0.00462963</v>
   <v>       0.00231481</v>
   <v>       0.00231481</v>
   <v>       0.00462963</v>
   <v>       0.00462963</v>
   <v>       0.00462963</v>
   <v>       0.00462963</v>
   <v>       0.00462963</v>
   <v>       0.00231481</v>
   <v>       0.00115741</v>
   <v>       0.00231481</v>
   <v>       0.00231481</v>
   <v>       0.00231481</v>
   <v>       0.00231481</v>
   <v>       0.00231481</v>
   <v>       0.00115741</v>
   <v>       0.00231481</v>
   <v>       0.00462963</v>
   <v>       0.00462963</v>
   <v>       0.00462963</v>
   <v>       0.00462963</v>
   <v>       0.00462963</v>
   <v>       0.00231481</v>
   <v>       0.00462963</v>
   <v>       0.00925926</v>
   <v>       0.00925926</v>
   <v>       0.00925926</v>
   <v>       0.00925926</v>
   <v>       0.00925926</v>
   <v>       0.00462963</v>
   <v>       0.00462963</v>
   <v>       0.00925926</v>
   <v>       0.00925926</v>
   <v>       0.00925926</v>
   <v>       0.00925926</v>
   <v>       0.00925926</v>
   <v>       0.00462963</v>
   <v>       0.00462963</v>
   <v>       0.00925926</v>
   <v>       0.00925926</v>
   <v>       0.00925926</v>
   <v>       0.00925926</v>
   <v>       0.00925926</v>
   <v>       0.00462963</v>
   <v>       0.00462963</v>
   <v>       0.00925926</v>
   <v>       0.00925926</v>
   <v>       0.00925926</v>
   <v>       0.00925926</v>
   <v>       0.00925926</v>
   <v>       0.00462963</v>
   <v>       0.00231481</v>
   <v>       0.00462963</v>
   <v>       0.00462963</v>
   <v>       0.00462963</v>
   <v>       0.00462963</v>
   <v>       0.00462963</v>
   <v>       0.00231481</v>
   <v>       0.00231481</v>
   <v>       0.00462963</v>
   <v>       0.00462963</v>
   <v>       0.00462963</v>
   <v>       0.00462963</v>
   <v>       0.00462963</v>
   <v>       0.00231481</v>
   <v>       0.00462963</v>
   <v>       0.00925926</v>
   <v>       0.00925926</v>
   <v>       0.00925926</v>
   <v>       0.00925926</v>
   <v>       0.00925926</v>
   <v>       0.00462963</v>
   <v>       0.00462963</v>
   <v>       0.00925926</v>
   <v>       0.00925926</v>
   <v>       0.00925926</v>
   <v>       0.00925926</v>
   <v>       0.00925926</v>
   <v>       0.00462963</v>
   <v>       0.00462963</v>
   <v>       0.00925926</v>
   <v>       0.00925926</v>
   <v>       0.00925926</v>
   <v>       0.00925926</v>
   <v>       0.00925926</v>
   <v>       0.00462963</v>
   <v>       0.00231481</v>
   <v>       0.00462963</v>
   <v>       0.00462963</v>
   <v>       0.00462963</v>
   <v>       0.00462963</v>
   <v>       0.00462963</v>
   <v>       0.00231481</v>
   <v>       0.00231481</v>
   <v>       0.00462963</v>
   <v>       0.00462963</v>
   <v>       0.00462963</v>
   <v>       0.00462963</v>
   <v>       0.00462963</v>
   <v>       0.00231481</v>
   <v>       0.00462963</v>
   <v>       0.00925926</v>
   <v>       0.00925926</v>
   <v>       0.00925926</v>
   <v>       0.00925926</v>
   <v>       0.00925926</v>
   <v>       0.00462963</v>
   <v>       0.00462963</v>
   <v>       0.00925926</v>
   <v>       0.00925926</v>
   <v>       0.00925926</v>
   <v>       0.00925926</v>
   <v>       0.00925926</v>
   <v>       0.00462963</v>
   <v>       0.00231481</v>
   <v>       0.00462963</v>
   <v>       0.00462963</v>
   <v>       0.00462963</v>
   <v>       0.00462963</v>
   <v>       0.00462963</v>
   <v>       0.00231481</v>
   <v>       0.00231481</v>
   <v>       0.00462963</v>
   <v>       0.00462963</v>
   <v>       0.00462963</v>
   <v>       0.00462963</v>
   <v>       0.00462963</v>
   <v>       0.00231481</v>
   <v>       0.00462963</v>
   <v>       0.00925926</v>
   <v>       0.00925926</v>
   <v>       0.00925926</v>
   <v>       0.00925926</v>
   <v>       0.00925926</v>
   <v>       0.00462963</v>
   <v>       0.00231481</v>
   <v>       0.00462963</v>
   <v>       0.00462963</v>
   <v>       0.00462963</v>
   <v>       0.00462963</v>
   <v>       0.00462963</v>
   <v>       0.00231481</v>
   <v>       0.00231481</v>
   <v>       0.00462963</v>
   <v>       0.00462963</v>
   <v>       0.00462963</v>
   <v>       0.00462963</v>
   <v>       0.00462963</v>
   <v>       0.00231481</v>
   <v>       0.00231481</v>
   <v>       0.00462963</v>
   <v>       0.00462963</v>
   <v>       0.00462963</v>
   <v>       0.00462963</v>
   <v>       0.00462963</v>
   <v>       0.00231481</v>
   <v>       0.00057870</v>
   <v>       0.00115741</v>
   <v>       0.00115741</v>
   <v>       0.00115741</v>
   <v>       0.00115741</v>
   <v>       0.00115741</v>
   <v>       0.00057870</v>
  </varray>
 </kpoints>
 <parameters>
  <separator name="general" >
   <i type="string" name="SYSTEM">unknown system</i>
   <i type="logical" name="LCOMPAT"> F  </i>
  </separator>
  <separator name="electronic" >
   <i type="string" name="PREC">accura</i>
   <i name="ENMAX">    750.00000000</i>
   <i name="ENAUG">    356.67000000</i>
   <i name="EDIFF">      0.00000001</i>
   <i type="int" name="IALGO">    38</i>
   <i type="int" name="IWAVPR">    10</i>
   <i type="int" name="NBANDS">   211</i>
   <i name="NELECT">    352.00000000</i>
   <separator name="electronic smearing" >
    <i type="int" name="ISMEAR">     0</i>
    <i name="SIGMA">      0.01000000</i>
   </separator>
   <separator name="electronic projectors" >
    <i type="logical" name="LREAL"> F  </i>
    <v name="ROPT">      0.00000000</v>
    <i type="int" name="LMAXPAW">  -100</i>
    <i type="int" name="LMAXMIX">     2</i>
   </separator>
   <separator name="electronic startup" >
    <i type="int" name="ISTART">     0</i>
    <i type="int" name="ICHARG">     2</i>
    <i type="int" name="INIWAV">     1</i>
   </separator>
   <separator name="electronic spin" >
    <i type="int" name="ISPIN">     1</i>
    <i type="logical" name="LNONCOLLINEAR"> F  </i>
    <v name="MAGMOM">      1.00000000      1.00000000      1.00000000      1.00000000      1.00000000      1.00000000      1.00000000      1.00000000      1.00000000      1.00000000      1.00000000      1.00000000      1.00000000      1.00000000      1.00000000      1.00000000      1.00000000      1.00000000      1.00000000      1.00000000
      1.00000000      1.00000000      1.00000000      1.00000000      1.00000000      1.00000000      1.00000000      1.00000000      1.00000000      1.00000000      1.00000000      1.00000000</v>
    <i name="NUPDOWN">     -1.00000000</i>
    <i type="logical" name="LSORBIT"> F  </i>
    <v name="SAXIS">      0.00000000      0.00000000      1.00000000</v>
    <i type="logical" name="LSPIRAL"> F  </i>
    <v name="QSPIRAL">      0.00000000      0.00000000      0.00000000</v>
    <i type="logical" name="LZEROZ"> F  </i>
   </separator>
   <separator name="electronic exchange-correlation" >
    <i type="string" name="GGA">--</i>
    <i type="int" name="VOSKOWN">     0</i>
    <i type="logical" name="LASPH"> F  </i>
    <i type="logical" name="LMETAGGA"> F  </i>
    <i type="string" name="GGA2">--</i>
   </separator>
   <separator name="electronic convergence" >
    <i type="int" name="NELM">    60</i>
    <i type="int" name="NELMDL">    -5</i>
    <i type="int" name="NELMIN">     2</i>
    <i name="ENINI">    750.00000000</i>
    <separator name="electronic convergence detail" >
     <i type="logical" name="LDIAG"> T  </i>
     <i name="WEIMIN">      0.00000000</i>
     <i name="EBREAK">      0.00000000</i>
     <i name="DEPER">      0.30000000</i>
     <i type="int" name="NRMM">     4</i>
     <i name="TIME">      0.10000000</i>
    </separator>
   </separator>
   <separator name="electronic mixer" >
    <i name="AMIX">      0.40000000</i>
    <i name="BMIX">      1.00000000</i>
    <i name="AMIN">      0.10000000</i>
    <i name="AMIX_MAG">      1.60000000</i>
    <i name="BMIX_MAG">      1.00000000</i>
    <separator name="electronic mixer details" >
     <i type="int" name="IMIX">     4</i>
     <i type="int" name="MAXMIX">   -45</i>
     <i name="WC">    100.00000000</i>
     <i type="int" name="INIMIX">     1</i>
     <i type="int" name="MIXPRE">     1</i>
     <i type="int" name="MREMOVE">     5</i>
    </separator>
   </separator>
   <separator name="electronic dipolcorrection" >
    <i type="int" name="IDIPOL">     0</i>
    <i type="logical" name="LDIPOL"> F  </i>
    <v name="DIPOL">   -100.00000000</v>
    <i name="EFIELD">      0.00000000</i>
   </separator>
  </separator>
  <separator name="grids" >
   <i type="int" name="NGX">    80</i>
   <i type="int" name="NGY">    80</i>
   <i type="int" name="NGZ">    80</i>
   <i type="int" name="NGXF">   160</i>
   <i type="int" name="NGYF">   160</i>
   <i type="int" name="NGZF">   160</i>
   <i type="logical" name="ADDGRID"> T  </i>
  </separator>
  <separator name="ionic" >
   <i type="int" name="NSW">     0</i>
   <i type="int" name="IBRION">    -1</i>
   <i type="int" name="ISIF">     2</i>
   <i name="PSTRESS">      0.00000000</i>
   <i name="EDIFFG">      0.00000010</i>
   <i type="int" name="NFREE">     0</i>
   <i name="POTIM">      0.50000000</i>
   <i name="SMASS">     -3.00000000</i>
  </separator>
  <separator name="ionic md" >
   <i name="TEBEG">      0.00010000</i>
   <i name="TEEND">      0.00010000</i>
   <i type="int" name="NBLOCK">     1</i>
   <i type="int" name="KBLOCK">     1</i>
   <i type="int" name="NPACO">   256</i>
   <i name="APACO">     16.00000000</i>
  </separator>
  <separator name="symmetry" >
   <i type="int" name="ISYM">     2</i>
   <i name="SYMPREC">      0.00001000</i>
  </separator>
  <separator name="dos" >
   <i type="logical" name="LORBIT"> F  </i>
   <v name="RWIGS">     -1.00000000</v>
   <i type="int" name="NEDOS">   301</i>
   <i name="EMIN">     10.00000000</i>
   <i name="EMAX">    -10.00000000</i>
  </separator>
  <separator name="writing" >
   <i type="int" name="NWRITE">     2</i>
   <i type="logical" name="LWAVE"> F  </i>
   <i type="logical" name="LCHARG"> F  </i>
   <i type="logical" name="LPARD"> F  </i>
   <i type="logical" name="LVTOT"> F  </i>
   <i type="logical" name="LELF"> F  </i>
   <i type="logical" name="LOPTICS"> F  </i>
   <i name="STM">      0.00000000</i>
  </separator>
  <separator name="performance" >
   <i type="int" name="NPAR">     8</i>
   <i type="int" name="NSIM">     4</i>
   <i type="int" name="NBLK">   256</i>
   <i type="logical" name="LPLANE"> T  </i>
   <i type="logical" name="LCRITICAL_MEM"> F  </i>
   <i type="logical" name="LSCALAPACK"> F  </i>
   <i type="logical" name="LSCALU"> F  </i>
   <i type="logical" name="LASYNC"> F  </i>
  </separator>
  <separator name="miscellaneous" >
   <i type="int" name="IDIOT">     3</i>
   <i type="logical" name="LMUSIC"> F  </i>
   <v name="POMASS">    196.96600000</v>
   <i type="logical" name="LCORR"> T  </i>
  </separator>
  <i type="logical" name="LREAL_COMPAT"> F  </i>
  <i type="logical" name="GGA_COMPAT"> T  </i>
  <i type="logical" name="LBERRY"> F  </i>
  <i type="int" name="ICORELEVEL">     0</i>
  <i type="logical" name="LDAU"> F  </i>
  <i type="int" name="I_CONSTRAINED_M">     0</i>
 </parameters>
 <atominfo>
  <atoms>      32</atoms>
  <types>       1</types>
  <array name="atoms" >
   <dimension dim="1">ion</dimension>
   <field type="string">element</field>
   <field type="int">atomtype</field>
   <set>
    <rc><c>Au</c><c>   1</c></rc>
    <rc><c>Au</c><c>   1</c></rc>
    <rc><c>Au</c><c>   1</c></rc>
    <rc><c>Au</c><c>   1</c></rc>
    <rc><c>Au</c><c>   1</c></rc>
    <rc><c>Au</c><c>   1</c></rc>
    <rc><c>Au</c><c>   1</c></rc>
    <rc><c>Au</c><c>   1</c></rc>
    <rc><c>Au</c><c>   1</c></rc>
    <rc><c>Au</c><c>   1</c></rc>
    <rc><c>Au</c><c>   1</c></rc>
    <rc><c>Au</c><c>   1</c></rc>
    <rc><c>Au</c><c>   1</c></rc>
    <rc><c>Au</c><c>   1</c></rc>
    <rc><c>Au</c><c>   1</c></rc>
    <rc><c>Au</c><c>   1</c></rc>
    <rc><c>Au</c><c>   1</c></rc>
    <rc><c>Au</c><c>   1</c></rc>
    <rc><c>Au</c><c>   1</c></rc>
    <rc><c>Au</c><c>   1</c></rc>
    <rc><c>Au</c><c>   1</c></rc>
    <rc><c>Au</c><c>   1</c></rc>
    <rc><c>Au</c><c>   1</c></rc>
    <rc><c>Au</c><c>   1</c></rc>
    <rc><c>Au</c><c>   1</c></rc>
    <rc><c>Au</c><c>   1</c></rc>
    <rc><c>Au</c><c>   1</c></rc>
    <rc><c>Au</c><c>   1</c></rc>
    <rc><c>Au</c><c>   1</c></rc>
    <rc><c>Au</c><c>   1</c></rc>
    <rc><c>Au</c><c>   1</c></rc>
    <rc><c>Au</c><c>   1</c></rc>
   </set>
  </array>
  <array name="atomtypes" >
   <dimension dim="1">type</dimension>
   <field type="int">atomspertype</field>
   <field type="string">element</field>
   <field>mass</field>
   <field>valence</field>
   <field type="string">pseudopotential</field>
   <set>
    <rc><c>  32</c><c>Au</c><c>    196.96600000</c><c>     11.00000000</c><c> PAW_PBE Au 06Sep2000                   </c></rc>
   </set>
  </array>
 </atominfo>
 <structure name="initialpos" >
  <crystal>
   <varray name="basis" >
    <v>       8.42916084      0.00000000      0.00000000</v>
    <v>       0.00000000      8.42916084      0.00000000</v>
    <v>       0.00000000      0.00000000      8.42916084</v>
   </varray>
   <i name="volume">    598.89822091</i>
   <varray name="rec_basis" >
    <v>       0.11863577      0.00000000      0.00000000</v>
    <v>       0.00000000      0.11863577      0.00000000</v>
    <v>       0.00000000      0.00000000      0.11863577</v>
   </varray>
  </crystal>
  <varray name="positions" >
   <v>       0.00118636      0.00000000      0.00000000</v>
   <v>       0.50000000      0.00000000      0.00000000</v>
   <v>       0.00000000      0.50000000      0.00000000</v>
   <v>       0.50000000      0.50000000      0.00000000</v>
   <v>       0.00000000      0.00000000      0.50000000</v>
   <v>       0.50000000      0.00000000      0.50000000</v>
   <v>       0.00000000      0.50000000      0.50000000</v>
   <v>       0.50000000      0.50000000      0.50000000</v>
   <v>       0.25000000      0.25000000      0.00000000</v>
   <v>       0.75000000      0.25000000      0.00000000</v>
   <v>       0.25000000      0.75000000      0.00000000</v>
   <v>       0.75000000      0.75000000      0.00000000</v>
   <v>       0.25000000      0.25000000      0.50000000</v>
   <v>       0.75000000      0.25000000      0.50000000</v>
   <v>       0.25000000      0.75000000      0.50000000</v>
   <v>       0.75000000      0.75000000      0.50000000</v>
   <v>       0.25000000      0.00000000      0.25000000</v>
   <v>       0.75000000      0.00000000      0.25000000</v>
   <v>       0.25000000      0.50000000      0.25000000</v>
   <v>       0.75000000      0.50000000      0.25000000</v>
   <v>       0.25000000      0.00000000      0.75000000</v>
   <v>       0.75000000      0.00000000      0.75000000</v>
   <v>       0.25000000      0.50000000      0.75000000</v>
   <v>       0.75000000      0.50000000      0.75000000</v>
   <v>       0.00000000      0.25000000      0.25000000</v>
   <v>       0.50000000      0.25000000      0.25000000</v>
   <v>       0.00000000      0.75000000      0.25000000</v>
   <v>       0.50000000      0.75000000      0.25000000</v>
   <v>       0.00000000      0.25000000      0.75000000</v>
   <v>       0.50000000      0.25000000      0.75000000</v>
   <v>       0.00000000      0.75000000      0.75000000</v>
   <v>       0.50000000      0.75000000      0.75000000</v>
  </varray>
 </structure>
 <calculation>
  <scstep>
   <time name="dav"> 1846.55 1850.53</time>
   <time name="total"> 1847.75 1851.74</time>
   <energy>
    <i name="alphaZ">   3202.16027136</i>
    <i name="ewald"> -30327.25737275</i>
    <i name="hartreedc">  -4357.02316370</i>
    <i name="XCdc">    481.55610614</i>
    <i name="pawpsdc">  23920.39735419</i>
    <i name="pawaedc"> -23172.13309131</i>
    <i name="eentropy">     -0.00067521</i>
    <i name="bandstr">   5298.18363128</i>
    <i name="atom">  29633.78979189</i>
    <i name="e_fr_energy">   4679.67285191</i>
    <i name="e_wo_entrp">   4679.67352711</i>
    <i name="e_0_energy">   4679.67318951</i>
   </energy>
  </scstep>
  <scstep>
   <time name="dav"> 1845.61 1848.62</time>
   <time name="total"> 1845.71 1848.73</time>
   <energy>
    <i name="e_fr_energy">    162.42520536</i>
    <i name="e_wo_entrp">    162.42563040</i>
    <i name="e_0_energy">    162.42541788</i>
   </energy>
  </scstep>
  <scstep>
   <time name="dav"> 1988.90 1992.15</time>
   <time name="total"> 1989.00 1992.25</time>
   <energy>
    <i name="e_fr_energy">   -103.05363818</i>
    <i name="e_wo_entrp">   -103.05283891</i>
    <i name="e_0_energy">   -103.05323855</i>
   </energy>
  </scstep>
  <scstep>
   <time name="dav"> 1946.45 1949.64</time>
   <time name="total"> 1946.55 1949.74</time>
   <energy>
    <i name="e_fr_energy">   -112.10366432</i>
    <i name="e_wo_entrp">   -112.10272131</i>
    <i name="e_0_energy">   -112.10319282</i>
   </energy>
  </scstep>
  <scstep>
   <time name="dav"> 1958.42 1962.13</time>
   <time name="total"> 2021.29 2025.11</time>
   <energy>
    <i name="e_fr_energy">   -112.25568718</i>
    <i name="e_wo_entrp">   -112.25472781</i>
    <i name="e_0_energy">   -112.25520749</i>
   </energy>
  </scstep>
  <scstep>
   <time name="dav"> 1924.85 1927.98</time>
   <time name="total"> 1988.06 1991.30</time>
   <energy>
    <i name="e_fr_energy">   -104.95643735</i>
    <i name="e_wo_entrp">   -104.95582160</i>
    <i name="e_0_energy">   -104.95612947</i>
   </energy>
  </scstep>
  <scstep>
   <time name="dav"> 1999.67 2002.93</time>
   <time name="total"> 2063.67 2067.04</time>
   <energy>
    <i name="e_fr_energy">   -104.55665387</i>
    <i name="e_wo_entrp">   -104.55605253</i>
    <i name="e_0_energy">   -104.55635320</i>
   </energy>
  </scstep>
  <scstep>
   <time name="dav"> 1898.92 1902.54</time>
   <time name="total"> 1962.21 1965.97</time>
   <energy>
    <i name="e_fr_energy">   -104.47820106</i>
    <i name="e_wo_entrp">   -104.47760064</i>
    <i name="e_0_energy">   -104.47790085</i>
   </energy>
  </scstep>
  <scstep>
   <time name="dav"> 2003.62 2007.44</time>
   <time name="total"> 2067.53 2071.48</time>
   <energy>
    <i name="e_fr_energy">   -104.47855517</i>
    <i name="e_wo_entrp">   -104.47794974</i>
    <i name="e_0_energy">   -104.47825245</i>
   </energy>
  </scstep>
  <scstep>
   <time name="dav"> 1900.46 1904.07</time>
   <time name="total"> 1964.13 1967.87</time>
   <energy>
    <i name="e_fr_energy">   -104.47860525</i>
    <i name="e_wo_entrp">   -104.47800383</i>
    <i name="e_0_energy">   -104.47830454</i>
   </energy>
  </scstep>
  <scstep>
   <time name="dav"> 1961.05 1964.27</time>
   <time name="total"> 2024.37 2027.69</time>
   <energy>
    <i name="e_fr_energy">   -104.47861211</i>
    <i name="e_wo_entrp">   -104.47801140</i>
    <i name="e_0_energy">   -104.47831176</i>
   </energy>
  </scstep>
  <scstep>
   <time name="dav"> 1921.44 1925.83</time>
   <time name="total"> 1985.41 1989.93</time>
   <energy>
    <i name="e_fr_energy">   -104.47861526</i>
    <i name="e_wo_entrp">   -104.47801470</i>
    <i name="e_0_energy">   -104.47831498</i>
   </energy>
  </scstep>
  <scstep>
   <time name="dav"> 1858.31 1861.35</time>
   <time name="total"> 1921.47 1924.61</time>
   <energy>
    <i name="e_fr_energy">   -104.47861425</i>
    <i name="e_wo_entrp">   -104.47801369</i>
    <i name="e_0_energy">   -104.47831397</i>
   </energy>
  </scstep>
  <scstep>
   <time name="dav"> 1335.83 1338.05</time>
   <time name="total"> 1399.35 1401.67</time>
   <energy>
    <i name="e_fr_energy">   -104.47861348</i>
    <i name="e_wo_entrp">   -104.47801292</i>
    <i name="e_0_energy">   -104.47831320</i>
   </energy>
  </scstep>
  <scstep>
   <time name="dav"> 1220.72 1222.76</time>
   <time name="total"> 1284.17 1286.31</time>
   <energy>
    <i name="e_fr_energy">   -104.47861350</i>
    <i name="e_wo_entrp">   -104.47801294</i>
    <i name="e_0_energy">   -104.47831322</i>
   </energy>
  </scstep>
  <scstep>
   <time name="dav"> 1215.24 1217.65</time>
   <time name="total"> 1216.44 1218.86</time>
   <energy>
    <i name="alphaZ">   3202.16027136</i>
    <i name="ewald"> -30327.25737275</i>
    <i name="hartreedc">  -4014.56248016</i>
    <i name="XCdc">    466.10136057</i>
    <i name="pawpsdc">  23828.24315049</i>
    <i name="pawaedc"> -23152.15042242</i>
    <i name="eentropy">     -0.00060056</i>
    <i name="bandstr">    259.19768807</i>
    <i name="atom">  29633.78979189</i>
    <i name="e_fr_energy">   -104.47861350</i>
    <i name="e_wo_entrp">   -104.47801294</i>
    <i name="e_0_energy">   -104.47831322</i>
   </energy>
  </scstep>
  <structure>
   <crystal>
    <varray name="basis" >
     <v>       8.42916084      0.00000000      0.00000000</v>
     <v>       0.00000000      8.42916084      0.00000000</v>
     <v>       0.00000000      0.00000000      8.42916084</v>
    </varray>
    <i name="volume">    598.89822091</i>
    <varray name="rec_basis" >
     <v>       0.11863577      0.00000000      0.00000000</v>
     <v>       0.00000000      0.11863577      0.00000000</v>
     <v>       0.00000000      0.00000000      0.11863577</v>
    </varray>
   </crystal>
   <varray name="positions" >
    <v>       0.00118636      0.00000000      0.00000000</v>
    <v>       0.50000000      0.00000000      0.00000000</v>
    <v>       0.00000000      0.50000000      0.00000000</v>
    <v>       0.50000000      0.50000000      0.00000000</v>
    <v>       0.00000000      0.00000000      0.50000000</v>
    <v>       0.50000000      0.00000000      0.50000000</v>
    <v>       0.00000000      0.50000000      0.50000000</v>
    <v>       0.50000000      0.50000000      0.50000000</v>
    <v>       0.25000000      0.25000000      0.00000000</v>
    <v>       0.75000000      0.25000000      0.00000000</v>
    <v>       0.25000000      0.75000000      0.00000000</v>
    <v>       0.75000000      0.75000000      0.00000000</v>
    <v>       0.25000000      0.25000000      0.50000000</v>
    <v>       0.75000000      0.25000000      0.50000000</v>
    <v>       0.25000000      0.75000000      0.50000000</v>
    <v>       0.75000000      0.75000000      0.50000000</v>
    <v>       0.25000000      0.00000000      0.25000000</v>
    <v>       0.75000000      0.00000000      0.25000000</v>
    <v>       0.25000000      0.50000000      0.25000000</v>
    <v>       0.75000000      0.50000000      0.25000000</v>
    <v>       0.25000000      0.00000000      0.75000000</v>
    <v>       0.75000000      0.00000000      0.75000000</v>
    <v>       0.25000000      0.50000000      0.75000000</v>
    <v>       0.75000000      0.50000000      0.75000000</v>
    <v>       0.00000000      0.25000000      0.25000000</v>
    <v>       0.50000000      0.25000000      0.25000000</v>
    <v>       0.00000000      0.75000000      0.25000000</v>
    <v>       0.50000000      0.75000000      0.25000000</v>
    <v>       0.00000000      0.25000000      0.75000000</v>
    <v>       0.50000000      0.25000000      0.75000000</v>
    <v>       0.00000000      0.75000000      0.75000000</v>
    <v>       0.50000000      0.75000000      0.75000000</v>
   </varray>
  </structure>
  <varray name="forces" >
   <v>      -0.04222677     -0.00000000     -0.00000000</v>
   <v>       0.00441221      0.00000000     -0.00000000</v>
   <v>      -0.00067197     -0.00000000      0.00000000</v>
   <v>      -0.00204612     -0.00000000      0.00000000</v>
   <v>      -0.00067197      0.00000000     -0.00000000</v>
   <v>      -0.00204612     -0.00000000     -0.00000000</v>
   <v>       0.00028173      0.00000000      0.00000000</v>
   <v>      -0.00010795      0.00000000     -0.00000000</v>
   <v>       0.00635133      0.00813360     -0.00000000</v>
   <v>       0.00612329     -0.00781207     -0.00000000</v>
   <v>       0.00635133     -0.00813360      0.00000000</v>
   <v>       0.00612329      0.00781207      0.00000000</v>
   <v>       0.00018585      0.00007809      0.00000000</v>
   <v>       0.00018361     -0.00006704     -0.00000000</v>
   <v>       0.00018585     -0.00007809      0.00000000</v>
   <v>       0.00018361      0.00006704     -0.00000000</v>
   <v>       0.00635133     -0.00000000      0.00813360</v>
   <v>       0.00612329     -0.00000000     -0.00781207</v>
   <v>       0.00018585     -0.00000000      0.00007809</v>
   <v>       0.00018361     -0.00000000     -0.00006704</v>
   <v>       0.00635133     -0.00000000     -0.00813360</v>
   <v>       0.00612329      0.00000000      0.00781207</v>
   <v>       0.00018585     -0.00000000     -0.00007809</v>
   <v>       0.00018361     -0.00000000      0.00006704</v>
   <v>      -0.00289510     -0.00000310     -0.00000310</v>
   <v>       0.00082026      0.00000658      0.00000658</v>
   <v>      -0.00289510      0.00000310     -0.00000310</v>
   <v>       0.00082026     -0.00000658      0.00000658</v>
   <v>      -0.00289510     -0.00000310      0.00000310</v>
   <v>       0.00082026      0.00000658     -0.00000658</v>
   <v>      -0.00289510      0.00000310      0.00000310</v>
   <v>       0.00082026     -0.00000658     -0.00000658</v>
  </varray>
  <varray name="stress" >
   <v>     -37.07801222      0.00000000      0.00000000</v>
   <v>      -0.00000000    -37.07891032      0.00000000</v>
   <v>       0.00000000      0.00000000    -37.07891032</v>
  </varray>
  <energy>
   <i name="e_fr_energy">   -104.47861350</i>
   <i name="e_wo_entrp">   -104.47831322</i>
   <i name="e_0_energy">     -0.00060056</i>
  </energy>
  <eigenvalues>
   <array>
    <dimension dim="1">band</dimension>
    <dimension dim="2">kpoint</dimension>
    <dimension dim="3">spin</dimension>
    <field>eigene</field>
    <field>occ</field>
    <set>
     <set comment="spin 1">
      <set comment="kpoint 1">
       <r>  -4.3009  1.0000</r>
       <r>  -2.0563  1.0000</r>
       <r>  -2.0531  1.0000</r>
       <r>  -2.0531  1.0000</r>
       <r>  -2.0531  1.0000</r>
       <r>  -2.0531  1.0000</r>
       <r>  -2.0499  1.0000</r>
       <r>  -1.9345  1.0000</r>
       <r>  -1.9345  1.0000</r>
       <r>  -1.9345  1.0000</r>
       <r>  -1.9344  1.0000</r>
       <r>  -1.6855  1.0000</r>
       <r>  -1.6855  1.0000</r>
       <r>  -1.6855  1.0000</r>
       <r>  -1.4256  1.0000</r>
       <r>  -1.4256  1.0000</r>
       <r>  -1.4256  1.0000</r>
       <r>  -0.8480  1.0000</r>
       <r>  -0.8466  1.0000</r>
       <r>  -0.8466  1.0000</r>
       <r>  -0.8449  1.0000</r>
       <r>  -0.8447  1.0000</r>
       <r>  -0.8446  1.0000</r>
       <r>  -0.8446  1.0000</r>
       <r>  -0.8446  1.0000</r>
       <r>  -0.8444  1.0000</r>
       <r>  -0.8427  1.0000</r>
       <r>  -0.8427  1.0000</r>
       <r>  -0.8413  1.0000</r>
       <r>  -0.7185  1.0000</r>
       <r>  -0.7164  1.0000</r>
       <r>  -0.7164  1.0000</r>
       <r>  -0.7164  1.0000</r>
       <r>  -0.7164  1.0000</r>
       <r>  -0.7143  1.0000</r>
       <r>  -0.6164  1.0000</r>
       <r>  -0.6144  1.0000</r>
       <r>  -0.6144  1.0000</r>
       <r>  -0.6143  1.0000</r>
       <r>  -0.6143  1.0000</r>
       <r>  -0.6123  1.0000</r>
       <r>  -0.1008  1.0000</r>
       <r>  -0.0982  1.0000</r>
       <r>  -0.0982  1.0000</r>
       <r>  -0.0970  1.0000</r>
       <r>  -0.0970  1.0000</r>
       <r>  -0.0970  1.0000</r>
       <r>  -0.0970  1.0000</r>
       <r>  -0.0970  1.0000</r>
       <r>  -0.0969  1.0000</r>
       <r>  -0.0958  1.0000</r>
       <r>  -0.0958  1.0000</r>
       <r>  -0.0934  1.0000</r>
       <r>  -0.0373  1.0000</r>
       <r>  -0.0373  1.0000</r>
       <r>  -0.0350  1.0000</r>
       <r>  -0.0350  1.0000</r>
       <r>  -0.0350  1.0000</r>
       <r>  -0.0350  1.0000</r>
       <r>  -0.0350  1.0000</r>
       <r>  -0.0349  1.0000</r>
       <r>  -0.0349  1.0000</r>
       <r>  -0.0347  1.0000</r>
       <r>  -0.0326  1.0000</r>
       <r>  -0.0326  1.0000</r>
       <r>   0.2140  1.0000</r>
       <r>   0.2176  1.0000</r>
       <r>   0.2177  1.0000</r>
       <r>   0.2177  1.0000</r>
       <r>   0.2179  1.0000</r>
       <r>   0.2179  1.0000</r>
       <r>   0.2179  1.0000</r>
       <r>   0.2179  1.0000</r>
       <r>   0.2182  1.0000</r>
       <r>   0.2182  1.0000</r>
       <r>   0.2182  1.0000</r>
       <r>   0.2218  1.0000</r>
       <r>   0.3084  1.0000</r>
       <r>   0.3084  1.0000</r>
       <r>   0.3084  1.0000</r>
       <r>   0.3084  1.0000</r>
       <r>   0.3085  1.0000</r>
       <r>   0.3085  1.0000</r>
       <r>   0.3085  1.0000</r>
       <r>   0.3085  1.0000</r>
       <r>   0.3340  1.0000</r>
       <r>   0.3340  1.0000</r>
       <r>   0.3341  1.0000</r>
       <r>   0.9665  1.0000</r>
       <r>   0.9685  1.0000</r>
       <r>   0.9686  1.0000</r>
       <r>   0.9686  1.0000</r>
       <r>   0.9686  1.0000</r>
       <r>   0.9706  1.0000</r>
       <r>   1.1292  1.0000</r>
       <r>   1.1300  1.0000</r>
       <r>   1.1311  1.0000</r>
       <r>   1.1311  1.0000</r>
       <r>   1.1317  1.0000</r>
       <r>   1.1317  1.0000</r>
       <r>   1.1317  1.0000</r>
       <r>   1.1317  1.0000</r>
       <r>   1.1323  1.0000</r>
       <r>   1.1323  1.0000</r>
       <r>   1.1336  1.0000</r>
       <r>   1.1342  1.0000</r>
       <r>   1.3924  1.0000</r>
       <r>   1.3924  1.0000</r>
       <r>   1.3950  1.0000</r>
       <r>   1.3950  1.0000</r>
       <r>   1.3952  1.0000</r>
       <r>   1.3952  1.0000</r>
       <r>   1.3952  1.0000</r>
       <r>   1.3952  1.0000</r>
       <r>   1.3954  1.0000</r>
       <r>   1.3954  1.0000</r>
       <r>   1.3978  1.0000</r>
       <r>   1.3978  1.0000</r>
       <r>   1.5239  1.0000</r>
       <r>   1.5257  1.0000</r>
       <r>   1.5257  1.0000</r>
       <r>   1.5257  1.0000</r>
       <r>   1.5257  1.0000</r>
       <r>   1.5274  1.0000</r>
       <r>   1.6197  1.0000</r>
       <r>   1.6203  1.0000</r>
       <r>   1.6222  1.0000</r>
       <r>   1.6222  1.0000</r>
       <r>   1.6247  1.0000</r>
       <r>   1.6251  1.0000</r>
       <r>   1.6252  1.0000</r>
       <r>   1.6252  1.0000</r>
       <r>   1.6252  1.0000</r>
       <r>   1.6253  1.0000</r>
       <r>   1.6256  1.0000</r>
       <r>   1.6258  1.0000</r>
       <r>   1.6282  1.0000</r>
       <r>   1.6282  1.0000</r>
       <r>   2.0899  1.0000</r>
       <r>   2.0911  1.0000</r>
       <r>   2.0911  1.0000</r>
       <r>   2.0911  1.0000</r>
       <r>   2.0911  1.0000</r>
       <r>   2.0924  1.0000</r>
       <r>   2.5985  1.0000</r>
       <r>   2.5985  1.0000</r>
       <r>   2.5986  1.0000</r>
       <r>   2.6380  1.0000</r>
       <r>   2.6380  1.0000</r>
       <r>   2.6380  1.0000</r>
       <r>   2.6380  1.0000</r>
       <r>   2.6380  1.0000</r>
       <r>   2.6380  1.0000</r>
       <r>   2.6380  1.0000</r>
       <r>   2.6381  1.0000</r>
       <r>   2.9085  1.0000</r>
       <r>   2.9088  1.0000</r>
       <r>   2.9088  1.0000</r>
       <r>   2.9088  1.0000</r>
       <r>   2.9088  1.0000</r>
       <r>   2.9088  1.0000</r>
       <r>   2.9103  1.0000</r>
       <r>   2.9104  1.0000</r>
       <r>   2.9104  1.0000</r>
       <r>   2.9104  1.0000</r>
       <r>   2.9104  1.0000</r>
       <r>   2.9106  1.0000</r>
       <r>   4.0555  1.0000</r>
       <r>   4.0555  1.0000</r>
       <r>   4.0555  1.0000</r>
       <r>   4.0555  1.0000</r>
       <r>   4.2100  1.0000</r>
       <r>   4.2106  1.0000</r>
       <r>   4.2106  1.0000</r>
       <r>   4.2113  1.0000</r>
       <r>   4.2118  1.0000</r>
       <r>   4.2118  1.0000</r>
       <r>   4.2118  1.0000</r>
       <r>   4.2118  1.0000</r>
       <r>   4.2123  1.0000</r>
       <r>   4.2130  1.0000</r>
       <r>   4.2130  1.0000</r>
       <r>   4.2137  1.0000</r>
       <r>   5.8845  0.0000</r>
       <r>   5.8845  0.0000</r>
       <r>   5.8846  0.0000</r>
       <r>   7.2167  0.0000</r>
       <r>   7.2167  0.0000</r>
       <r>   7.2167  0.0000</r>
       <r>   7.2167  0.0000</r>
       <r>   8.9215  0.0000</r>
       <r>   8.9216  0.0000</r>
       <r>   8.9217  0.0000</r>
       <r>   8.9217  0.0000</r>
       <r>   8.9217  0.0000</r>
       <r>   8.9219  0.0000</r>
       <r>   9.7001  0.0000</r>
       <r>   9.7002  0.0000</r>
       <r>   9.7002  0.0000</r>
       <r>  10.6196  0.0000</r>
       <r>  10.6196  0.0000</r>
       <r>  10.6227  0.0000</r>
       <r>  10.6227  0.0000</r>
       <r>  10.6231  0.0000</r>
       <r>  10.6231  0.0000</r>
       <r>  10.6232  0.0000</r>
       <r>  10.6232  0.0000</r>
       <r>  10.6236  0.0000</r>
       <r>  10.6236  0.0000</r>
       <r>  10.6267  0.0000</r>
       <r>  10.6267  0.0000</r>
       <r>  12.6962  0.0000</r>
       <r>  12.6977  0.0000</r>
       <r>  12.6982  0.0000</r>
       <r>  12.6989  0.0000</r>
       <r>  12.6997  0.0000</r>
      </set>
      <set comment="kpoint 2">
       <r>  -4.2822  1.0000</r>
       <r>  -2.3203  1.0000</r>
       <r>  -2.0396  1.0000</r>
       <r>  -2.0395  1.0000</r>
       <r>  -2.0395  1.0000</r>
       <r>  -2.0395  1.0000</r>
       <r>  -1.9243  1.0000</r>
       <r>  -1.9243  1.0000</r>
       <r>  -1.9243  1.0000</r>
       <r>  -1.9243  1.0000</r>
       <r>  -1.8250  1.0000</r>
       <r>  -1.6794  1.0000</r>
       <r>  -1.6734  1.0000</r>
       <r>  -1.6734  1.0000</r>
       <r>  -1.4191  1.0000</r>
       <r>  -1.4157  1.0000</r>
       <r>  -1.4157  1.0000</r>
       <r>  -0.9428  1.0000</r>
       <r>  -0.9427  1.0000</r>
       <r>  -0.9427  1.0000</r>
       <r>  -0.9427  1.0000</r>
       <r>  -0.8973  1.0000</r>
       <r>  -0.8973  1.0000</r>
       <r>  -0.8973  1.0000</r>
       <r>  -0.8973  1.0000</r>
       <r>  -0.7603  1.0000</r>
       <r>  -0.7603  1.0000</r>
       <r>  -0.7603  1.0000</r>
       <r>  -0.7603  1.0000</r>
       <r>  -0.7414  1.0000</r>
       <r>  -0.7413  1.0000</r>
       <r>  -0.7269  1.0000</r>
       <r>  -0.7078  1.0000</r>
       <r>  -0.7078  1.0000</r>
       <r>  -0.7078  1.0000</r>
       <r>  -0.7077  1.0000</r>
       <r>  -0.6088  1.0000</r>
       <r>  -0.6088  1.0000</r>
       <r>  -0.6088  1.0000</r>
       <r>  -0.6088  1.0000</r>
       <r>  -0.4995  1.0000</r>
       <r>  -0.2535  1.0000</r>
       <r>  -0.2535  1.0000</r>
       <r>  -0.1412  1.0000</r>
       <r>  -0.1411  1.0000</r>
       <r>  -0.1411  1.0000</r>
       <r>  -0.1410  1.0000</r>
       <r>  -0.0629  1.0000</r>
       <r>  -0.0623  1.0000</r>
       <r>  -0.0623  1.0000</r>
       <r>  -0.0623  1.0000</r>
       <r>  -0.0544  1.0000</r>
       <r>  -0.0543  1.0000</r>
       <r>  -0.0543  1.0000</r>
       <r>  -0.0540  1.0000</r>
       <r>  -0.0451  1.0000</r>
       <r>  -0.0450  1.0000</r>
       <r>  -0.0450  1.0000</r>
       <r>  -0.0450  1.0000</r>
       <r>  -0.0340  1.0000</r>
       <r>  -0.0339  1.0000</r>
       <r>  -0.0339  1.0000</r>
       <r>  -0.0336  1.0000</r>
       <r>   0.1620  1.0000</r>
       <r>   0.1621  1.0000</r>
       <r>   0.1621  1.0000</r>
       <r>   0.1621  1.0000</r>
       <r>   0.2004  1.0000</r>
       <r>   0.2004  1.0000</r>
       <r>   0.2430  1.0000</r>
       <r>   0.2442  1.0000</r>
       <r>   0.2442  1.0000</r>
       <r>   0.2442  1.0000</r>
       <r>   0.2481  1.0000</r>
       <r>   0.2481  1.0000</r>
       <r>   0.2481  1.0000</r>
       <r>   0.2494  1.0000</r>
       <r>   0.3044  1.0000</r>
       <r>   0.3044  1.0000</r>
       <r>   0.3044  1.0000</r>
       <r>   0.3045  1.0000</r>
       <r>   0.3165  1.0000</r>
       <r>   0.3165  1.0000</r>
       <r>   0.3165  1.0000</r>
       <r>   0.3165  1.0000</r>
       <r>   0.3252  1.0000</r>
       <r>   0.3420  1.0000</r>
       <r>   0.3420  1.0000</r>
       <r>   0.9191  1.0000</r>
       <r>   0.9192  1.0000</r>
       <r>   0.9192  1.0000</r>
       <r>   0.9192  1.0000</r>
       <r>   0.9498  1.0000</r>
       <r>   1.0624  1.0000</r>
       <r>   1.0928  1.0000</r>
       <r>   1.0929  1.0000</r>
       <r>   1.0929  1.0000</r>
       <r>   1.0929  1.0000</r>
       <r>   1.1317  1.0000</r>
       <r>   1.1317  1.0000</r>
       <r>   1.1317  1.0000</r>
       <r>   1.1318  1.0000</r>
       <r>   1.1772  1.0000</r>
       <r>   1.1772  1.0000</r>
       <r>   1.1773  1.0000</r>
       <r>   1.1773  1.0000</r>
       <r>   1.2383  1.0000</r>
       <r>   1.2383  1.0000</r>
       <r>   1.3946  1.0000</r>
       <r>   1.3946  1.0000</r>
       <r>   1.3947  1.0000</r>
       <r>   1.3947  1.0000</r>
       <r>   1.4368  1.0000</r>
       <r>   1.4368  1.0000</r>
       <r>   1.4368  1.0000</r>
       <r>   1.4368  1.0000</r>
       <r>   1.5296  1.0000</r>
       <r>   1.5296  1.0000</r>
       <r>   1.5296  1.0000</r>
       <r>   1.5297  1.0000</r>
       <r>   1.5492  1.0000</r>
       <r>   1.5492  1.0000</r>
       <r>   1.5495  1.0000</r>
       <r>   1.5495  1.0000</r>
       <r>   1.5530  1.0000</r>
       <r>   1.5531  1.0000</r>
       <r>   1.5594  1.0000</r>
       <r>   1.5594  1.0000</r>
       <r>   1.6109  1.0000</r>
       <r>   1.6241  1.0000</r>
       <r>   1.6672  1.0000</r>
       <r>   1.6672  1.0000</r>
       <r>   1.6672  1.0000</r>
       <r>   1.6673  1.0000</r>
       <r>   1.7192  1.0000</r>
       <r>   1.7192  1.0000</r>
       <r>   1.7193  1.0000</r>
       <r>   1.7193  1.0000</r>
       <r>   2.0277  1.0000</r>
       <r>   2.1030  1.0000</r>
       <r>   2.1030  1.0000</r>
       <r>   2.1030  1.0000</r>
       <r>   2.1030  1.0000</r>
       <r>   2.1552  1.0000</r>
       <r>   2.5793  1.0000</r>
       <r>   2.5793  1.0000</r>
       <r>   2.5793  1.0000</r>
       <r>   2.5793  1.0000</r>
       <r>   2.5853  1.0000</r>
       <r>   2.5853  1.0000</r>
       <r>   2.5940  1.0000</r>
       <r>   2.6266  1.0000</r>
       <r>   2.6266  1.0000</r>
       <r>   2.6266  1.0000</r>
       <r>   2.6266  1.0000</r>
       <r>   2.8492  1.0000</r>
       <r>   2.8492  1.0000</r>
       <r>   2.8924  1.0000</r>
       <r>   2.8924  1.0000</r>
       <r>   2.8925  1.0000</r>
       <r>   2.8925  1.0000</r>
       <r>   2.8925  1.0000</r>
       <r>   2.8925  1.0000</r>
       <r>   2.9086  1.0000</r>
       <r>   2.9088  1.0000</r>
       <r>   2.9103  1.0000</r>
       <r>   2.9106  1.0000</r>
       <r>   3.9366  1.0000</r>
       <r>   3.9366  1.0000</r>
       <r>   3.9366  1.0000</r>
       <r>   3.9367  1.0000</r>
       <r>   4.0694  1.0000</r>
       <r>   4.0695  1.0000</r>
       <r>   4.0695  1.0000</r>
       <r>   4.0695  1.0000</r>
       <r>   4.2119  1.0000</r>
       <r>   4.2119  1.0000</r>
       <r>   4.2119  1.0000</r>
       <r>   4.2119  1.0000</r>
       <r>   4.5082  1.0000</r>
       <r>   4.5082  1.0000</r>
       <r>   4.5082  1.0000</r>
       <r>   4.5082  1.0000</r>
       <r>   5.7137  0.0000</r>
       <r>   5.9579  0.0000</r>
       <r>   5.9579  0.0000</r>
       <r>   7.2861  0.0000</r>
       <r>   7.2861  0.0000</r>
       <r>   7.2861  0.0000</r>
       <r>   7.2861  0.0000</r>
       <r>   8.7805  0.0000</r>
       <r>   8.7805  0.0000</r>
       <r>   8.7805  0.0000</r>
       <r>   8.7805  0.0000</r>
       <r>   8.9335  0.0000</r>
       <r>   8.9335  0.0000</r>
       <r>   9.6856  0.0000</r>
       <r>   9.6856  0.0000</r>
       <r>   9.9037  0.0000</r>
       <r>  10.1273  0.0000</r>
       <r>  10.1273  0.0000</r>
       <r>  10.6571  0.0000</r>
       <r>  10.6571  0.0000</r>
       <r>  10.6572  0.0000</r>
       <r>  10.6572  0.0000</r>
       <r>  10.6775  0.0000</r>
       <r>  10.6775  0.0000</r>
       <r>  10.6776  0.0000</r>
       <r>  10.6776  0.0000</r>
       <r>  11.1125  0.0000</r>
       <r>  11.1125  0.0000</r>
       <r>  12.3826  0.0000</r>
       <r>  12.3831  0.0000</r>
       <r>  12.3839  0.0000</r>
       <r>  12.3856  0.0000</r>
       <r>  12.3869  0.0000</r>
      </set>
      <set comment="kpoint 3">
       <r>  -4.2262  1.0000</r>
       <r>  -2.6054  1.0000</r>
       <r>  -1.9994  1.0000</r>
       <r>  -1.9993  1.0000</r>
       <r>  -1.9993  1.0000</r>
       <r>  -1.9993  1.0000</r>
       <r>  -1.8937  1.0000</r>
       <r>  -1.8937  1.0000</r>
       <r>  -1.8937  1.0000</r>
       <r>  -1.8937  1.0000</r>
       <r>  -1.6615  1.0000</r>
       <r>  -1.6549  1.0000</r>
       <r>  -1.6374  1.0000</r>
       <r>  -1.6374  1.0000</r>
       <r>  -1.3997  1.0000</r>
       <r>  -1.3863  1.0000</r>
       <r>  -1.3863  1.0000</r>
       <r>  -1.0569  1.0000</r>
       <r>  -1.0569  1.0000</r>
       <r>  -1.0569  1.0000</r>
       <r>  -1.0569  1.0000</r>
       <r>  -1.0203  1.0000</r>
       <r>  -1.0203  1.0000</r>
       <r>  -1.0203  1.0000</r>
       <r>  -1.0203  1.0000</r>
       <r>  -0.8355  1.0000</r>
       <r>  -0.8110  1.0000</r>
       <r>  -0.8110  1.0000</r>
       <r>  -0.6860  1.0000</r>
       <r>  -0.6859  1.0000</r>
       <r>  -0.6859  1.0000</r>
       <r>  -0.6859  1.0000</r>
       <r>  -0.6826  1.0000</r>
       <r>  -0.6826  1.0000</r>
       <r>  -0.6826  1.0000</r>
       <r>  -0.6824  1.0000</r>
       <r>  -0.5923  1.0000</r>
       <r>  -0.5923  1.0000</r>
       <r>  -0.5923  1.0000</r>
       <r>  -0.5923  1.0000</r>
       <r>  -0.4543  1.0000</r>
       <r>  -0.4543  1.0000</r>
       <r>  -0.3842  1.0000</r>
       <r>  -0.1932  1.0000</r>
       <r>  -0.1931  1.0000</r>
       <r>  -0.1931  1.0000</r>
       <r>  -0.1931  1.0000</r>
       <r>  -0.0737  1.0000</r>
       <r>  -0.0737  1.0000</r>
       <r>  -0.0737  1.0000</r>
       <r>  -0.0737  1.0000</r>
       <r>  -0.0382  1.0000</r>
       <r>  -0.0374  1.0000</r>
       <r>  -0.0374  1.0000</r>
       <r>  -0.0374  1.0000</r>
       <r>  -0.0312  1.0000</r>
       <r>  -0.0311  1.0000</r>
       <r>  -0.0311  1.0000</r>
       <r>  -0.0304  1.0000</r>
       <r>   0.0215  1.0000</r>
       <r>   0.0216  1.0000</r>
       <r>   0.0216  1.0000</r>
       <r>   0.0217  1.0000</r>
       <r>   0.0807  1.0000</r>
       <r>   0.0807  1.0000</r>
       <r>   0.0807  1.0000</r>
       <r>   0.0807  1.0000</r>
       <r>   0.2516  1.0000</r>
       <r>   0.2517  1.0000</r>
       <r>   0.2517  1.0000</r>
       <r>   0.2517  1.0000</r>
       <r>   0.2926  1.0000</r>
       <r>   0.2926  1.0000</r>
       <r>   0.2926  1.0000</r>
       <r>   0.2927  1.0000</r>
       <r>   0.2988  1.0000</r>
       <r>   0.3406  1.0000</r>
       <r>   0.3406  1.0000</r>
       <r>   0.3406  1.0000</r>
       <r>   0.3407  1.0000</r>
       <r>   0.3553  1.0000</r>
       <r>   0.3553  1.0000</r>
       <r>   0.3553  1.0000</r>
       <r>   0.3553  1.0000</r>
       <r>   0.3657  1.0000</r>
       <r>   0.3657  1.0000</r>
       <r>   0.4517  1.0000</r>
       <r>   0.4517  1.0000</r>
       <r>   0.8120  1.0000</r>
       <r>   0.8121  1.0000</r>
       <r>   0.8121  1.0000</r>
       <r>   0.8121  1.0000</r>
       <r>   0.9831  1.0000</r>
       <r>   1.0028  1.0000</r>
       <r>   1.0028  1.0000</r>
       <r>   1.0028  1.0000</r>
       <r>   1.0028  1.0000</r>
       <r>   1.0904  1.0000</r>
       <r>   1.0904  1.0000</r>
       <r>   1.1747  1.0000</r>
       <r>   1.1748  1.0000</r>
       <r>   1.1748  1.0000</r>
       <r>   1.1748  1.0000</r>
       <r>   1.2513  1.0000</r>
       <r>   1.2541  1.0000</r>
       <r>   1.2541  1.0000</r>
       <r>   1.2542  1.0000</r>
       <r>   1.2549  1.0000</r>
       <r>   1.3933  1.0000</r>
       <r>   1.3933  1.0000</r>
       <r>   1.3933  1.0000</r>
       <r>   1.3933  1.0000</r>
       <r>   1.4915  1.0000</r>
       <r>   1.4915  1.0000</r>
       <r>   1.4916  1.0000</r>
       <r>   1.4916  1.0000</r>
       <r>   1.5137  1.0000</r>
       <r>   1.5138  1.0000</r>
       <r>   1.5138  1.0000</r>
       <r>   1.5138  1.0000</r>
       <r>   1.5401  1.0000</r>
       <r>   1.5401  1.0000</r>
       <r>   1.5402  1.0000</r>
       <r>   1.5402  1.0000</r>
       <r>   1.5830  1.0000</r>
       <r>   1.6294  1.0000</r>
       <r>   1.6295  1.0000</r>
       <r>   1.6359  1.0000</r>
       <r>   1.7278  1.0000</r>
       <r>   1.7278  1.0000</r>
       <r>   1.7665  1.0000</r>
       <r>   1.7665  1.0000</r>
       <r>   1.7665  1.0000</r>
       <r>   1.7665  1.0000</r>
       <r>   1.8306  1.0000</r>
       <r>   1.8306  1.0000</r>
       <r>   1.8307  1.0000</r>
       <r>   1.8307  1.0000</r>
       <r>   1.9660  1.0000</r>
       <r>   2.1456  1.0000</r>
       <r>   2.1456  1.0000</r>
       <r>   2.1456  1.0000</r>
       <r>   2.1456  1.0000</r>
       <r>   2.2187  1.0000</r>
       <r>   2.4189  1.0000</r>
       <r>   2.4189  1.0000</r>
       <r>   2.4189  1.0000</r>
       <r>   2.4189  1.0000</r>
       <r>   2.5459  1.0000</r>
       <r>   2.5459  1.0000</r>
       <r>   2.5806  1.0000</r>
       <r>   2.5928  1.0000</r>
       <r>   2.5928  1.0000</r>
       <r>   2.5928  1.0000</r>
       <r>   2.5928  1.0000</r>
       <r>   2.6858  1.0000</r>
       <r>   2.6858  1.0000</r>
       <r>   2.8402  1.0000</r>
       <r>   2.8402  1.0000</r>
       <r>   2.8402  1.0000</r>
       <r>   2.8402  1.0000</r>
       <r>   2.8441  1.0000</r>
       <r>   2.8441  1.0000</r>
       <r>   2.9086  1.0000</r>
       <r>   2.9089  1.0000</r>
       <r>   2.9102  1.0000</r>
       <r>   2.9106  1.0000</r>
       <r>   3.6776  1.0000</r>
       <r>   3.6776  1.0000</r>
       <r>   3.6776  1.0000</r>
       <r>   3.6776  1.0000</r>
       <r>   4.1021  1.0000</r>
       <r>   4.1022  1.0000</r>
       <r>   4.1022  1.0000</r>
       <r>   4.1022  1.0000</r>
       <r>   4.2120  1.0000</r>
       <r>   4.2120  1.0000</r>
       <r>   4.2120  1.0000</r>
       <r>   4.2121  1.0000</r>
       <r>   4.8315  0.0000</r>
       <r>   4.8315  0.0000</r>
       <r>   4.8315  0.0000</r>
       <r>   4.8315  0.0000</r>
       <r>   5.2829  0.0000</r>
       <r>   6.1624  0.0000</r>
       <r>   6.1624  0.0000</r>
       <r>   7.4877  0.0000</r>
       <r>   7.4877  0.0000</r>
       <r>   7.4877  0.0000</r>
       <r>   7.4878  0.0000</r>
       <r>   8.4261  0.0000</r>
       <r>   8.4261  0.0000</r>
       <r>   8.4261  0.0000</r>
       <r>   8.4261  0.0000</r>
       <r>   8.9684  0.0000</r>
       <r>   8.9684  0.0000</r>
       <r>   9.6290  0.0000</r>
       <r>   9.6290  0.0000</r>
       <r>   9.6431  0.0000</r>
       <r>   9.6431  0.0000</r>
       <r>  10.4331  0.0000</r>
       <r>  10.7579  0.0000</r>
       <r>  10.7579  0.0000</r>
       <r>  10.7579  0.0000</r>
       <r>  10.7579  0.0000</r>
       <r>  10.7944  0.0000</r>
       <r>  10.7944  0.0000</r>
       <r>  10.7944  0.0000</r>
       <r>  10.7944  0.0000</r>
       <r>  11.5909  0.0000</r>
       <r>  11.5909  0.0000</r>
       <r>  11.7833  0.0000</r>
       <r>  11.7833  0.0000</r>
       <r>  11.7834  0.0000</r>
       <r>  11.7834  0.0000</r>
       <r>  12.1034  0.0000</r>
      </set>
      <set comment="kpoint 4">
       <r>  -4.1333  1.0000</r>
       <r>  -2.8910  1.0000</r>
       <r>  -1.9336  1.0000</r>
       <r>  -1.9335  1.0000</r>
       <r>  -1.9335  1.0000</r>
       <r>  -1.9335  1.0000</r>
       <r>  -1.8431  1.0000</r>
       <r>  -1.8431  1.0000</r>
       <r>  -1.8431  1.0000</r>
       <r>  -1.8431  1.0000</r>
       <r>  -1.6332  1.0000</r>
       <r>  -1.5786  1.0000</r>
       <r>  -1.5785  1.0000</r>
       <r>  -1.5503  1.0000</r>
       <r>  -1.3676  1.0000</r>
       <r>  -1.3374  1.0000</r>
       <r>  -1.3374  1.0000</r>
       <r>  -1.1863  1.0000</r>
       <r>  -1.1863  1.0000</r>
       <r>  -1.1863  1.0000</r>
       <r>  -1.1863  1.0000</r>
       <r>  -1.1670  1.0000</r>
       <r>  -1.1670  1.0000</r>
       <r>  -1.1670  1.0000</r>
       <r>  -1.1670  1.0000</r>
       <r>  -0.9383  1.0000</r>
       <r>  -0.9132  1.0000</r>
       <r>  -0.9132  1.0000</r>
       <r>  -0.6425  1.0000</r>
       <r>  -0.6425  1.0000</r>
       <r>  -0.6425  1.0000</r>
       <r>  -0.6425  1.0000</r>
       <r>  -0.6372  1.0000</r>
       <r>  -0.6372  1.0000</r>
       <r>  -0.6185  1.0000</r>
       <r>  -0.6184  1.0000</r>
       <r>  -0.6184  1.0000</r>
       <r>  -0.6184  1.0000</r>
       <r>  -0.5653  1.0000</r>
       <r>  -0.5653  1.0000</r>
       <r>  -0.5653  1.0000</r>
       <r>  -0.5653  1.0000</r>
       <r>  -0.2706  1.0000</r>
       <r>  -0.2510  1.0000</r>
       <r>  -0.2510  1.0000</r>
       <r>  -0.2510  1.0000</r>
       <r>  -0.2510  1.0000</r>
       <r>  -0.1163  1.0000</r>
       <r>  -0.1163  1.0000</r>
       <r>  -0.1163  1.0000</r>
       <r>  -0.1163  1.0000</r>
       <r>  -0.0278  1.0000</r>
       <r>  -0.0269  1.0000</r>
       <r>  -0.0269  1.0000</r>
       <r>  -0.0268  1.0000</r>
       <r>  -0.0214  1.0000</r>
       <r>  -0.0214  1.0000</r>
       <r>  -0.0214  1.0000</r>
       <r>  -0.0205  1.0000</r>
       <r>  -0.0143  1.0000</r>
       <r>  -0.0142  1.0000</r>
       <r>  -0.0142  1.0000</r>
       <r>  -0.0142  1.0000</r>
       <r>   0.0772  1.0000</r>
       <r>   0.0772  1.0000</r>
       <r>   0.0772  1.0000</r>
       <r>   0.0772  1.0000</r>
       <r>   0.2557  1.0000</r>
       <r>   0.2590  1.0000</r>
       <r>   0.2591  1.0000</r>
       <r>   0.2591  1.0000</r>
       <r>   0.2591  1.0000</r>
       <r>   0.2737  1.0000</r>
       <r>   0.2737  1.0000</r>
       <r>   0.2737  1.0000</r>
       <r>   0.2738  1.0000</r>
       <r>   0.3805  1.0000</r>
       <r>   0.3806  1.0000</r>
       <r>   0.3806  1.0000</r>
       <r>   0.3806  1.0000</r>
       <r>   0.4052  1.0000</r>
       <r>   0.4052  1.0000</r>
       <r>   0.5448  1.0000</r>
       <r>   0.5448  1.0000</r>
       <r>   0.5448  1.0000</r>
       <r>   0.5448  1.0000</r>
       <r>   0.6917  1.0000</r>
       <r>   0.6917  1.0000</r>
       <r>   0.6917  1.0000</r>
       <r>   0.6917  1.0000</r>
       <r>   0.7179  1.0000</r>
       <r>   0.7179  1.0000</r>
       <r>   0.8952  1.0000</r>
       <r>   0.8952  1.0000</r>
       <r>   0.8952  1.0000</r>
       <r>   0.8952  1.0000</r>
       <r>   0.9531  1.0000</r>
       <r>   0.9531  1.0000</r>
       <r>   1.0491  1.0000</r>
       <r>   1.2460  1.0000</r>
       <r>   1.2460  1.0000</r>
       <r>   1.2460  1.0000</r>
       <r>   1.2460  1.0000</r>
       <r>   1.3420  1.0000</r>
       <r>   1.3420  1.0000</r>
       <r>   1.3420  1.0000</r>
       <r>   1.3420  1.0000</r>
       <r>   1.3916  1.0000</r>
       <r>   1.3916  1.0000</r>
       <r>   1.3916  1.0000</r>
       <r>   1.3916  1.0000</r>
       <r>   1.4499  1.0000</r>
       <r>   1.4499  1.0000</r>
       <r>   1.4499  1.0000</r>
       <r>   1.4499  1.0000</r>
       <r>   1.5375  1.0000</r>
       <r>   1.5450  1.0000</r>
       <r>   1.5518  1.0000</r>
       <r>   1.5519  1.0000</r>
       <r>   1.5519  1.0000</r>
       <r>   1.5523  1.0000</r>
       <r>   1.5672  1.0000</r>
       <r>   1.5672  1.0000</r>
       <r>   1.5673  1.0000</r>
       <r>   1.5673  1.0000</r>
       <r>   1.6549  1.0000</r>
       <r>   1.7424  1.0000</r>
       <r>   1.7424  1.0000</r>
       <r>   1.8888  1.0000</r>
       <r>   1.8889  1.0000</r>
       <r>   1.8889  1.0000</r>
       <r>   1.8889  1.0000</r>
       <r>   1.8987  1.0000</r>
       <r>   1.8987  1.0000</r>
       <r>   1.9071  1.0000</r>
       <r>   1.9569  1.0000</r>
       <r>   1.9569  1.0000</r>
       <r>   1.9570  1.0000</r>
       <r>   1.9570  1.0000</r>
       <r>   2.1895  1.0000</r>
       <r>   2.1895  1.0000</r>
       <r>   2.1895  1.0000</r>
       <r>   2.1895  1.0000</r>
       <r>   2.2340  1.0000</r>
       <r>   2.2340  1.0000</r>
       <r>   2.2340  1.0000</r>
       <r>   2.2340  1.0000</r>
       <r>   2.2806  1.0000</r>
       <r>   2.4518  1.0000</r>
       <r>   2.4518  1.0000</r>
       <r>   2.4810  1.0000</r>
       <r>   2.4810  1.0000</r>
       <r>   2.5375  1.0000</r>
       <r>   2.5375  1.0000</r>
       <r>   2.5375  1.0000</r>
       <r>   2.5375  1.0000</r>
       <r>   2.5585  1.0000</r>
       <r>   2.7572  1.0000</r>
       <r>   2.7572  1.0000</r>
       <r>   2.7572  1.0000</r>
       <r>   2.7572  1.0000</r>
       <r>   2.7660  1.0000</r>
       <r>   2.7660  1.0000</r>
       <r>   2.9087  1.0000</r>
       <r>   2.9090  1.0000</r>
       <r>   2.9101  1.0000</r>
       <r>   2.9105  1.0000</r>
       <r>   3.4307  1.0000</r>
       <r>   3.4307  1.0000</r>
       <r>   3.4307  1.0000</r>
       <r>   3.4307  1.0000</r>
       <r>   4.1376  1.0000</r>
       <r>   4.1376  1.0000</r>
       <r>   4.1376  1.0000</r>
       <r>   4.1376  1.0000</r>
       <r>   4.2118  1.0000</r>
       <r>   4.2118  1.0000</r>
       <r>   4.2118  1.0000</r>
       <r>   4.2118  1.0000</r>
       <r>   4.7245  0.0000</r>
       <r>   5.1871  0.0000</r>
       <r>   5.1871  0.0000</r>
       <r>   5.1871  0.0000</r>
       <r>   5.1871  0.0000</r>
       <r>   6.4646  0.0000</r>
       <r>   6.4646  0.0000</r>
       <r>   7.8047  0.0000</r>
       <r>   7.8047  0.0000</r>
       <r>   7.8047  0.0000</r>
       <r>   7.8047  0.0000</r>
       <r>   7.9650  0.0000</r>
       <r>   7.9650  0.0000</r>
       <r>   7.9651  0.0000</r>
       <r>   7.9651  0.0000</r>
       <r>   9.0249  0.0000</r>
       <r>   9.0249  0.0000</r>
       <r>   9.1321  0.0000</r>
       <r>   9.1321  0.0000</r>
       <r>   9.5762  0.0000</r>
       <r>   9.5762  0.0000</r>
       <r>  10.9193  0.0000</r>
       <r>  10.9193  0.0000</r>
       <r>  10.9195  0.0000</r>
       <r>  10.9195  0.0000</r>
       <r>  10.9215  0.0000</r>
       <r>  10.9215  0.0000</r>
       <r>  10.9216  0.0000</r>
       <r>  10.9216  0.0000</r>
       <r>  11.1265  0.0000</r>
       <r>  11.1266  0.0000</r>
       <r>  11.1266  0.0000</r>
       <r>  11.1266  0.0000</r>
       <r>  11.1574  0.0000</r>
       <r>  11.8588  0.0000</r>
       <r>  11.8588  0.0000</r>
       <r>  11.8590  0.0000</r>
      </set>
      <set comment="kpoint 5">
       <r>  -4.0045  1.0000</r>
       <r>  -3.1646  1.0000</r>
       <r>  -1.8441  1.0000</r>
       <r>  -1.8441  1.0000</r>
       <r>  -1.8441  1.0000</r>
       <r>  -1.8441  1.0000</r>
       <r>  -1.7729  1.0000</r>
       <r>  -1.7729  1.0000</r>
       <r>  -1.7729  1.0000</r>
       <r>  -1.7729  1.0000</r>
       <r>  -1.5975  1.0000</r>
       <r>  -1.5044  1.0000</r>
       <r>  -1.4983  1.0000</r>
       <r>  -1.4982  1.0000</r>
       <r>  -1.3260  1.0000</r>
       <r>  -1.3260  1.0000</r>
       <r>  -1.3259  1.0000</r>
       <r>  -1.3259  1.0000</r>
       <r>  -1.3233  1.0000</r>
       <r>  -1.3143  1.0000</r>
       <r>  -1.3142  1.0000</r>
       <r>  -1.3142  1.0000</r>
       <r>  -1.3142  1.0000</r>
       <r>  -1.2688  1.0000</r>
       <r>  -1.2688  1.0000</r>
       <r>  -1.0341  1.0000</r>
       <r>  -1.0340  1.0000</r>
       <r>  -1.0340  1.0000</r>
       <r>  -0.8015  1.0000</r>
       <r>  -0.8015  1.0000</r>
       <r>  -0.5913  1.0000</r>
       <r>  -0.5912  1.0000</r>
       <r>  -0.5912  1.0000</r>
       <r>  -0.5912  1.0000</r>
       <r>  -0.5587  1.0000</r>
       <r>  -0.5587  1.0000</r>
       <r>  -0.5587  1.0000</r>
       <r>  -0.5586  1.0000</r>
       <r>  -0.5285  1.0000</r>
       <r>  -0.5285  1.0000</r>
       <r>  -0.5285  1.0000</r>
       <r>  -0.5285  1.0000</r>
       <r>  -0.3118  1.0000</r>
       <r>  -0.3118  1.0000</r>
       <r>  -0.3118  1.0000</r>
       <r>  -0.3118  1.0000</r>
       <r>  -0.1656  1.0000</r>
       <r>  -0.1656  1.0000</r>
       <r>  -0.1656  1.0000</r>
       <r>  -0.1656  1.0000</r>
       <r>  -0.1608  1.0000</r>
       <r>  -0.1092  1.0000</r>
       <r>  -0.1092  1.0000</r>
       <r>  -0.1092  1.0000</r>
       <r>  -0.1092  1.0000</r>
       <r>  -0.0223  1.0000</r>
       <r>  -0.0217  1.0000</r>
       <r>  -0.0217  1.0000</r>
       <r>  -0.0216  1.0000</r>
       <r>  -0.0131  1.0000</r>
       <r>  -0.0130  1.0000</r>
       <r>  -0.0130  1.0000</r>
       <r>  -0.0124  1.0000</r>
       <r>   0.1177  1.0000</r>
       <r>   0.1177  1.0000</r>
       <r>   0.1177  1.0000</r>
       <r>   0.1178  1.0000</r>
       <r>   0.1969  1.0000</r>
       <r>   0.2489  1.0000</r>
       <r>   0.2489  1.0000</r>
       <r>   0.2489  1.0000</r>
       <r>   0.2489  1.0000</r>
       <r>   0.2808  1.0000</r>
       <r>   0.2809  1.0000</r>
       <r>   0.2809  1.0000</r>
       <r>   0.2809  1.0000</r>
       <r>   0.4356  1.0000</r>
       <r>   0.4357  1.0000</r>
       <r>   0.4357  1.0000</r>
       <r>   0.4357  1.0000</r>
       <r>   0.4601  1.0000</r>
       <r>   0.4601  1.0000</r>
       <r>   0.5762  1.0000</r>
       <r>   0.5762  1.0000</r>
       <r>   0.5762  1.0000</r>
       <r>   0.5762  1.0000</r>
       <r>   0.7855  1.0000</r>
       <r>   0.7855  1.0000</r>
       <r>   0.7860  1.0000</r>
       <r>   0.7860  1.0000</r>
       <r>   0.7863  1.0000</r>
       <r>   0.7863  1.0000</r>
       <r>   0.7868  1.0000</r>
       <r>   0.7868  1.0000</r>
       <r>   0.8274  1.0000</r>
       <r>   0.8274  1.0000</r>
       <r>   0.9971  1.0000</r>
       <r>   0.9971  1.0000</r>
       <r>   1.1332  1.0000</r>
       <r>   1.3295  1.0000</r>
       <r>   1.3295  1.0000</r>
       <r>   1.3295  1.0000</r>
       <r>   1.3295  1.0000</r>
       <r>   1.3904  1.0000</r>
       <r>   1.3904  1.0000</r>
       <r>   1.3904  1.0000</r>
       <r>   1.3904  1.0000</r>
       <r>   1.4217  1.0000</r>
       <r>   1.4217  1.0000</r>
       <r>   1.4217  1.0000</r>
       <r>   1.4218  1.0000</r>
       <r>   1.4236  1.0000</r>
       <r>   1.4237  1.0000</r>
       <r>   1.4237  1.0000</r>
       <r>   1.4237  1.0000</r>
       <r>   1.4762  1.0000</r>
       <r>   1.5589  1.0000</r>
       <r>   1.5589  1.0000</r>
       <r>   1.5589  1.0000</r>
       <r>   1.5589  1.0000</r>
       <r>   1.5758  1.0000</r>
       <r>   1.5758  1.0000</r>
       <r>   1.5759  1.0000</r>
       <r>   1.5759  1.0000</r>
       <r>   1.6814  1.0000</r>
       <r>   1.8514  1.0000</r>
       <r>   1.8762  1.0000</r>
       <r>   1.8763  1.0000</r>
       <r>   1.9205  1.0000</r>
       <r>   1.9205  1.0000</r>
       <r>   1.9205  1.0000</r>
       <r>   1.9205  1.0000</r>
       <r>   1.9361  1.0000</r>
       <r>   2.0175  1.0000</r>
       <r>   2.0175  1.0000</r>
       <r>   2.0175  1.0000</r>
       <r>   2.0175  1.0000</r>
       <r>   2.0687  1.0000</r>
       <r>   2.0687  1.0000</r>
       <r>   2.0943  1.0000</r>
       <r>   2.0943  1.0000</r>
       <r>   2.0943  1.0000</r>
       <r>   2.0943  1.0000</r>
       <r>   2.1776  1.0000</r>
       <r>   2.1776  1.0000</r>
       <r>   2.3398  1.0000</r>
       <r>   2.3723  1.0000</r>
       <r>   2.3723  1.0000</r>
       <r>   2.3723  1.0000</r>
       <r>   2.3723  1.0000</r>
       <r>   2.3925  1.0000</r>
       <r>   2.3925  1.0000</r>
       <r>   2.4625  1.0000</r>
       <r>   2.4625  1.0000</r>
       <r>   2.4625  1.0000</r>
       <r>   2.4625  1.0000</r>
       <r>   2.5282  1.0000</r>
       <r>   2.6489  1.0000</r>
       <r>   2.6489  1.0000</r>
       <r>   2.6489  1.0000</r>
       <r>   2.6489  1.0000</r>
       <r>   2.6616  1.0000</r>
       <r>   2.6616  1.0000</r>
       <r>   2.9088  1.0000</r>
       <r>   2.9092  1.0000</r>
       <r>   2.9100  1.0000</r>
       <r>   2.9104  1.0000</r>
       <r>   3.1937  1.0000</r>
       <r>   3.1937  1.0000</r>
       <r>   3.1937  1.0000</r>
       <r>   3.1937  1.0000</r>
       <r>   4.1216  1.0000</r>
       <r>   4.1666  1.0000</r>
       <r>   4.1666  1.0000</r>
       <r>   4.1666  1.0000</r>
       <r>   4.1666  1.0000</r>
       <r>   4.2105  1.0000</r>
       <r>   4.2105  1.0000</r>
       <r>   4.2105  1.0000</r>
       <r>   4.2107  1.0000</r>
       <r>   5.5784  0.0000</r>
       <r>   5.5784  0.0000</r>
       <r>   5.5784  0.0000</r>
       <r>   5.5784  0.0000</r>
       <r>   6.8335  0.0000</r>
       <r>   6.8335  0.0000</r>
       <r>   7.4639  0.0000</r>
       <r>   7.4639  0.0000</r>
       <r>   7.4639  0.0000</r>
       <r>   7.4639  0.0000</r>
       <r>   8.2164  0.0000</r>
       <r>   8.2164  0.0000</r>
       <r>   8.2164  0.0000</r>
       <r>   8.2164  0.0000</r>
       <r>   8.6407  0.0000</r>
       <r>   8.6407  0.0000</r>
       <r>   9.1002  0.0000</r>
       <r>   9.1002  0.0000</r>
       <r>   9.4904  0.0000</r>
       <r>   9.4904  0.0000</r>
       <r>  10.4734  0.0000</r>
       <r>  10.4734  0.0000</r>
       <r>  10.4734  0.0000</r>
       <r>  10.4734  0.0000</r>
       <r>  11.0415  0.0000</r>
       <r>  11.0415  0.0000</r>
       <r>  11.0415  0.0000</r>
       <r>  11.0415  0.0000</r>
       <r>  11.1424  0.0000</r>
       <r>  11.1425  0.0000</r>
       <r>  11.1425  0.0000</r>
       <r>  11.1425  0.0000</r>
       <r>  11.6465  0.0000</r>
       <r>  11.6465  0.0000</r>
       <r>  11.6465  0.0000</r>
       <r>  11.6465  0.0000</r>
      </set>
      <set comment="kpoint 6">
       <r>  -3.8409  1.0000</r>
       <r>  -3.4176  1.0000</r>
       <r>  -1.7339  1.0000</r>
       <r>  -1.7339  1.0000</r>
       <r>  -1.7339  1.0000</r>
       <r>  -1.7339  1.0000</r>
       <r>  -1.6836  1.0000</r>
       <r>  -1.6836  1.0000</r>
       <r>  -1.6836  1.0000</r>
       <r>  -1.6836  1.0000</r>
       <r>  -1.5586  1.0000</r>
       <r>  -1.5007  1.0000</r>
       <r>  -1.4687  1.0000</r>
       <r>  -1.4687  1.0000</r>
       <r>  -1.4687  1.0000</r>
       <r>  -1.4687  1.0000</r>
       <r>  -1.4522  1.0000</r>
       <r>  -1.4522  1.0000</r>
       <r>  -1.4522  1.0000</r>
       <r>  -1.4522  1.0000</r>
       <r>  -1.3994  1.0000</r>
       <r>  -1.3994  1.0000</r>
       <r>  -1.2669  1.0000</r>
       <r>  -1.1809  1.0000</r>
       <r>  -1.1809  1.0000</r>
       <r>  -1.1612  1.0000</r>
       <r>  -1.1612  1.0000</r>
       <r>  -1.1215  1.0000</r>
       <r>  -0.9470  1.0000</r>
       <r>  -0.9470  1.0000</r>
       <r>  -0.5381  1.0000</r>
       <r>  -0.5379  1.0000</r>
       <r>  -0.5379  1.0000</r>
       <r>  -0.5379  1.0000</r>
       <r>  -0.5140  1.0000</r>
       <r>  -0.5140  1.0000</r>
       <r>  -0.5140  1.0000</r>
       <r>  -0.5139  1.0000</r>
       <r>  -0.4831  1.0000</r>
       <r>  -0.4830  1.0000</r>
       <r>  -0.4830  1.0000</r>
       <r>  -0.4830  1.0000</r>
       <r>  -0.3725  1.0000</r>
       <r>  -0.3725  1.0000</r>
       <r>  -0.3725  1.0000</r>
       <r>  -0.3725  1.0000</r>
       <r>  -0.2096  1.0000</r>
       <r>  -0.2095  1.0000</r>
       <r>  -0.2095  1.0000</r>
       <r>  -0.2095  1.0000</r>
       <r>  -0.1877  1.0000</r>
       <r>  -0.1877  1.0000</r>
       <r>  -0.1877  1.0000</r>
       <r>  -0.1876  1.0000</r>
       <r>  -0.0570  1.0000</r>
       <r>  -0.0173  1.0000</r>
       <r>  -0.0164  1.0000</r>
       <r>  -0.0164  1.0000</r>
       <r>  -0.0164  1.0000</r>
       <r>  -0.0106  1.0000</r>
       <r>  -0.0105  1.0000</r>
       <r>  -0.0105  1.0000</r>
       <r>  -0.0096  1.0000</r>
       <r>   0.1239  1.0000</r>
       <r>   0.1534  1.0000</r>
       <r>   0.1534  1.0000</r>
       <r>   0.1534  1.0000</r>
       <r>   0.1535  1.0000</r>
       <r>   0.2197  1.0000</r>
       <r>   0.2197  1.0000</r>
       <r>   0.2197  1.0000</r>
       <r>   0.2197  1.0000</r>
       <r>   0.3235  1.0000</r>
       <r>   0.3235  1.0000</r>
       <r>   0.3235  1.0000</r>
       <r>   0.3236  1.0000</r>
       <r>   0.4734  1.0000</r>
       <r>   0.4735  1.0000</r>
       <r>   0.4735  1.0000</r>
       <r>   0.4736  1.0000</r>
       <r>   0.5052  1.0000</r>
       <r>   0.5052  1.0000</r>
       <r>   0.5052  1.0000</r>
       <r>   0.5052  1.0000</r>
       <r>   0.5303  1.0000</r>
       <r>   0.5303  1.0000</r>
       <r>   0.6823  1.0000</r>
       <r>   0.6823  1.0000</r>
       <r>   0.6823  1.0000</r>
       <r>   0.6823  1.0000</r>
       <r>   0.7145  1.0000</r>
       <r>   0.7145  1.0000</r>
       <r>   1.0561  1.0000</r>
       <r>   1.0561  1.0000</r>
       <r>   1.0561  1.0000</r>
       <r>   1.0561  1.0000</r>
       <r>   1.2248  1.0000</r>
       <r>   1.2871  1.0000</r>
       <r>   1.2871  1.0000</r>
       <r>   1.3909  1.0000</r>
       <r>   1.3909  1.0000</r>
       <r>   1.3909  1.0000</r>
       <r>   1.3910  1.0000</r>
       <r>   1.4012  1.0000</r>
       <r>   1.4043  1.0000</r>
       <r>   1.4044  1.0000</r>
       <r>   1.4044  1.0000</r>
       <r>   1.4044  1.0000</r>
       <r>   1.4132  1.0000</r>
       <r>   1.4132  1.0000</r>
       <r>   1.4132  1.0000</r>
       <r>   1.4133  1.0000</r>
       <r>   1.4885  1.0000</r>
       <r>   1.4885  1.0000</r>
       <r>   1.4885  1.0000</r>
       <r>   1.4885  1.0000</r>
       <r>   1.5452  1.0000</r>
       <r>   1.5453  1.0000</r>
       <r>   1.5454  1.0000</r>
       <r>   1.5454  1.0000</r>
       <r>   1.5543  1.0000</r>
       <r>   1.5543  1.0000</r>
       <r>   1.5544  1.0000</r>
       <r>   1.5544  1.0000</r>
       <r>   1.6331  1.0000</r>
       <r>   1.6332  1.0000</r>
       <r>   1.6332  1.0000</r>
       <r>   1.6332  1.0000</r>
       <r>   1.7148  1.0000</r>
       <r>   1.8005  1.0000</r>
       <r>   1.8841  1.0000</r>
       <r>   1.8841  1.0000</r>
       <r>   2.0177  1.0000</r>
       <r>   2.0177  1.0000</r>
       <r>   2.1438  1.0000</r>
       <r>   2.1438  1.0000</r>
       <r>   2.1438  1.0000</r>
       <r>   2.1438  1.0000</r>
       <r>   2.2341  1.0000</r>
       <r>   2.2341  1.0000</r>
       <r>   2.2381  1.0000</r>
       <r>   2.2381  1.0000</r>
       <r>   2.2381  1.0000</r>
       <r>   2.2381  1.0000</r>
       <r>   2.2827  1.0000</r>
       <r>   2.2827  1.0000</r>
       <r>   2.3699  1.0000</r>
       <r>   2.3699  1.0000</r>
       <r>   2.3699  1.0000</r>
       <r>   2.3699  1.0000</r>
       <r>   2.3953  1.0000</r>
       <r>   2.4075  1.0000</r>
       <r>   2.4904  1.0000</r>
       <r>   2.5218  1.0000</r>
       <r>   2.5218  1.0000</r>
       <r>   2.5218  1.0000</r>
       <r>   2.5218  1.0000</r>
       <r>   2.5351  1.0000</r>
       <r>   2.5351  1.0000</r>
       <r>   2.5488  1.0000</r>
       <r>   2.5489  1.0000</r>
       <r>   2.5489  1.0000</r>
       <r>   2.5489  1.0000</r>
       <r>   2.9088  1.0000</r>
       <r>   2.9094  1.0000</r>
       <r>   2.9098  1.0000</r>
       <r>   2.9103  1.0000</r>
       <r>   2.9662  1.0000</r>
       <r>   2.9662  1.0000</r>
       <r>   2.9662  1.0000</r>
       <r>   2.9662  1.0000</r>
[...]
       <r>   1.2116  1.0000</r>
       <r>   1.2116  1.0000</r>
       <r>   1.2120  1.0000</r>
       <r>   1.2120  1.0000</r>
       <r>   1.2120  1.0000</r>
       <r>   1.2121  1.0000</r>
       <r>   1.2125  1.0000</r>
       <r>   1.2125  1.0000</r>
       <r>   1.5454  1.0000</r>
       <r>   1.5457  1.0000</r>
       <r>   1.5457  1.0000</r>
       <r>   1.5458  1.0000</r>
       <r>   1.5899  1.0000</r>
       <r>   1.5901  1.0000</r>
       <r>   1.5901  1.0000</r>
       <r>   1.5901  1.0000</r>
       <r>   1.5925  1.0000</r>
       <r>   1.5925  1.0000</r>
       <r>   1.5931  1.0000</r>
       <r>   1.5931  1.0000</r>
       <r>   1.5931  1.0000</r>
       <r>   1.5937  1.0000</r>
       <r>   1.5939  1.0000</r>
       <r>   1.5939  1.0000</r>
       <r>   1.8175  1.0000</r>
       <r>   1.8177  1.0000</r>
       <r>   1.8177  1.0000</r>
       <r>   1.8177  1.0000</r>
       <r>   1.8278  1.0000</r>
       <r>   1.8278  1.0000</r>
       <r>   1.8278  1.0000</r>
       <r>   1.8280  1.0000</r>
       <r>   2.0113  1.0000</r>
       <r>   2.0114  1.0000</r>
       <r>   2.0114  1.0000</r>
       <r>   2.0114  1.0000</r>
       <r>   2.6516  1.0000</r>
       <r>   2.6516  1.0000</r>
       <r>   2.6518  1.0000</r>
       <r>   2.6518  1.0000</r>
       <r>   2.6518  1.0000</r>
       <r>   2.6518  1.0000</r>
       <r>   2.6520  1.0000</r>
       <r>   2.6520  1.0000</r>
       <r>   2.6691  1.0000</r>
       <r>   2.6691  1.0000</r>
       <r>   2.6691  1.0000</r>
       <r>   2.6691  1.0000</r>
       <r>   2.6903  1.0000</r>
       <r>   2.6903  1.0000</r>
       <r>   2.6904  1.0000</r>
       <r>   2.6904  1.0000</r>
       <r>   2.6919  1.0000</r>
       <r>   2.6919  1.0000</r>
       <r>   2.6921  1.0000</r>
       <r>   2.6921  1.0000</r>
       <r>   2.6921  1.0000</r>
       <r>   2.6921  1.0000</r>
       <r>   2.6924  1.0000</r>
       <r>   2.6924  1.0000</r>
       <r>   4.4015  1.0000</r>
       <r>   4.4015  1.0000</r>
       <r>   4.4015  1.0000</r>
       <r>   4.4016  1.0000</r>
       <r>   5.0709  0.0000</r>
       <r>   5.0709  0.0000</r>
       <r>   5.0712  0.0000</r>
       <r>   5.0712  0.0000</r>
       <r>   5.0712  0.0000</r>
       <r>   5.0712  0.0000</r>
       <r>   5.0715  0.0000</r>
       <r>   5.0715  0.0000</r>
       <r>   6.0226  0.0000</r>
       <r>   6.0226  0.0000</r>
       <r>   6.0232  0.0000</r>
       <r>   6.0232  0.0000</r>
       <r>   6.0232  0.0000</r>
       <r>   6.0232  0.0000</r>
       <r>   6.0238  0.0000</r>
       <r>   6.0238  0.0000</r>
       <r>   6.6953  0.0000</r>
       <r>   6.6953  0.0000</r>
       <r>   6.6953  0.0000</r>
       <r>   6.6953  0.0000</r>
       <r>   8.7946  0.0000</r>
       <r>   8.7946  0.0000</r>
       <r>   8.7948  0.0000</r>
       <r>   8.7948  0.0000</r>
       <r>   8.7948  0.0000</r>
       <r>   8.7948  0.0000</r>
       <r>   8.7950  0.0000</r>
       <r>   8.7950  0.0000</r>
       <r>   9.1967  0.0000</r>
       <r>   9.1967  0.0000</r>
       <r>   9.1967  0.0000</r>
       <r>   9.1967  0.0000</r>
       <r>  10.4684  0.0000</r>
       <r>  10.4684  0.0000</r>
       <r>  10.4684  0.0000</r>
       <r>  10.4684  0.0000</r>
       <r>  10.8145  0.0000</r>
       <r>  10.8145  0.0000</r>
       <r>  10.8145  0.0000</r>
       <r>  10.8145  0.0000</r>
       <r>  10.8145  0.0000</r>
       <r>  10.8145  0.0000</r>
       <r>  10.8146  0.0000</r>
       <r>  10.8146  0.0000</r>
      </set>
      <set comment="kpoint 195">
       <r>  -2.7563  1.0000</r>
       <r>  -2.7562  1.0000</r>
       <r>  -2.7562  1.0000</r>
       <r>  -2.7562  1.0000</r>
       <r>  -2.4975  1.0000</r>
       <r>  -2.4975  1.0000</r>
       <r>  -2.4975  1.0000</r>
       <r>  -2.4975  1.0000</r>
       <r>  -1.1984  1.0000</r>
       <r>  -1.1983  1.0000</r>
       <r>  -1.1983  1.0000</r>
       <r>  -1.1983  1.0000</r>
       <r>  -1.1724  1.0000</r>
       <r>  -1.1724  1.0000</r>
       <r>  -1.1721  1.0000</r>
       <r>  -1.1721  1.0000</r>
       <r>  -1.1721  1.0000</r>
       <r>  -1.1719  1.0000</r>
       <r>  -1.1718  1.0000</r>
       <r>  -1.1718  1.0000</r>
       <r>  -1.1488  1.0000</r>
       <r>  -1.1481  1.0000</r>
       <r>  -1.1481  1.0000</r>
       <r>  -1.1477  1.0000</r>
       <r>  -1.1460  1.0000</r>
       <r>  -1.1460  1.0000</r>
       <r>  -1.1457  1.0000</r>
       <r>  -1.1456  1.0000</r>
       <r>  -1.1454  1.0000</r>
       <r>  -1.1448  1.0000</r>
       <r>  -1.1448  1.0000</r>
       <r>  -1.1445  1.0000</r>
       <r>  -0.4686  1.0000</r>
       <r>  -0.4686  1.0000</r>
       <r>  -0.4681  1.0000</r>
       <r>  -0.4681  1.0000</r>
       <r>  -0.4681  1.0000</r>
       <r>  -0.4680  1.0000</r>
       <r>  -0.4675  1.0000</r>
       <r>  -0.4675  1.0000</r>
       <r>  -0.4376  1.0000</r>
       <r>  -0.4375  1.0000</r>
       <r>  -0.4375  1.0000</r>
       <r>  -0.4375  1.0000</r>
       <r>  -0.2646  1.0000</r>
       <r>  -0.2644  1.0000</r>
       <r>  -0.2644  1.0000</r>
       <r>  -0.2641  1.0000</r>
       <r>  -0.2639  1.0000</r>
       <r>  -0.2639  1.0000</r>
       <r>  -0.2636  1.0000</r>
       <r>  -0.2635  1.0000</r>
       <r>  -0.2635  1.0000</r>
       <r>  -0.2631  1.0000</r>
       <r>  -0.2630  1.0000</r>
       <r>  -0.2630  1.0000</r>
       <r>   0.1958  1.0000</r>
       <r>   0.1958  1.0000</r>
       <r>   0.1958  1.0000</r>
       <r>   0.1958  1.0000</r>
       <r>   0.3146  1.0000</r>
       <r>   0.3146  1.0000</r>
       <r>   0.3147  1.0000</r>
       <r>   0.3147  1.0000</r>
       <r>   0.5679  1.0000</r>
       <r>   0.5679  1.0000</r>
       <r>   0.5679  1.0000</r>
       <r>   0.5681  1.0000</r>
       <r>   0.5748  1.0000</r>
       <r>   0.5748  1.0000</r>
       <r>   0.5748  1.0000</r>
       <r>   0.5749  1.0000</r>
       <r>   0.5810  1.0000</r>
       <r>   0.5811  1.0000</r>
       <r>   0.5811  1.0000</r>
       <r>   0.5811  1.0000</r>
       <r>   0.5899  1.0000</r>
       <r>   0.5899  1.0000</r>
       <r>   0.5903  1.0000</r>
       <r>   0.5903  1.0000</r>
       <r>   0.5912  1.0000</r>
       <r>   0.5912  1.0000</r>
       <r>   0.5916  1.0000</r>
       <r>   0.5916  1.0000</r>
       <r>   0.6371  1.0000</r>
       <r>   0.6371  1.0000</r>
       <r>   0.6387  1.0000</r>
       <r>   0.6387  1.0000</r>
       <r>   0.6388  1.0000</r>
       <r>   0.6388  1.0000</r>
       <r>   0.6404  1.0000</r>
       <r>   0.6404  1.0000</r>
       <r>   0.7271  1.0000</r>
       <r>   0.7271  1.0000</r>
       <r>   0.7283  1.0000</r>
       <r>   0.7284  1.0000</r>
       <r>   0.7284  1.0000</r>
       <r>   0.7284  1.0000</r>
       <r>   0.7297  1.0000</r>
       <r>   0.7297  1.0000</r>
       <r>   0.7873  1.0000</r>
       <r>   0.7873  1.0000</r>
       <r>   0.7873  1.0000</r>
       <r>   0.7873  1.0000</r>
       <r>   1.2365  1.0000</r>
       <r>   1.2365  1.0000</r>
       <r>   1.2365  1.0000</r>
       <r>   1.2366  1.0000</r>
       <r>   1.2730  1.0000</r>
       <r>   1.2730  1.0000</r>
       <r>   1.2735  1.0000</r>
       <r>   1.2736  1.0000</r>
       <r>   1.2736  1.0000</r>
       <r>   1.2736  1.0000</r>
       <r>   1.2741  1.0000</r>
       <r>   1.2741  1.0000</r>
       <r>   1.4596  1.0000</r>
       <r>   1.4596  1.0000</r>
       <r>   1.4602  1.0000</r>
       <r>   1.4603  1.0000</r>
       <r>   1.4603  1.0000</r>
       <r>   1.4603  1.0000</r>
       <r>   1.4610  1.0000</r>
       <r>   1.4610  1.0000</r>
       <r>   1.4733  1.0000</r>
       <r>   1.4733  1.0000</r>
       <r>   1.4733  1.0000</r>
       <r>   1.4733  1.0000</r>
       <r>   1.6551  1.0000</r>
       <r>   1.6552  1.0000</r>
       <r>   1.6552  1.0000</r>
       <r>   1.6552  1.0000</r>
       <r>   1.7724  1.0000</r>
       <r>   1.7726  1.0000</r>
       <r>   1.7726  1.0000</r>
       <r>   1.7726  1.0000</r>
       <r>   1.7948  1.0000</r>
       <r>   1.7948  1.0000</r>
       <r>   1.7948  1.0000</r>
       <r>   1.7949  1.0000</r>
       <r>   1.8911  1.0000</r>
       <r>   1.8912  1.0000</r>
       <r>   1.8912  1.0000</r>
       <r>   1.8912  1.0000</r>
       <r>   2.6891  1.0000</r>
       <r>   2.6891  1.0000</r>
       <r>   2.6892  1.0000</r>
       <r>   2.6892  1.0000</r>
       <r>   2.6892  1.0000</r>
       <r>   2.6892  1.0000</r>
       <r>   2.6893  1.0000</r>
       <r>   2.6893  1.0000</r>
       <r>   2.6981  1.0000</r>
       <r>   2.6981  1.0000</r>
       <r>   2.6981  1.0000</r>
       <r>   2.6981  1.0000</r>
       <r>   2.7103  1.0000</r>
       <r>   2.7103  1.0000</r>
       <r>   2.7104  1.0000</r>
       <r>   2.7104  1.0000</r>
       <r>   2.7153  1.0000</r>
       <r>   2.7153  1.0000</r>
       <r>   2.7153  1.0000</r>
       <r>   2.7154  1.0000</r>
       <r>   2.7154  1.0000</r>
       <r>   2.7154  1.0000</r>
       <r>   2.7155  1.0000</r>
       <r>   2.7155  1.0000</r>
       <r>   4.9374  0.0000</r>
       <r>   4.9375  0.0000</r>
       <r>   4.9375  0.0000</r>
       <r>   4.9375  0.0000</r>
       <r>   5.2736  0.0000</r>
       <r>   5.2736  0.0000</r>
       <r>   5.2739  0.0000</r>
       <r>   5.2739  0.0000</r>
       <r>   5.2739  0.0000</r>
       <r>   5.2739  0.0000</r>
       <r>   5.2743  0.0000</r>
       <r>   5.2743  0.0000</r>
       <r>   5.7550  0.0000</r>
       <r>   5.7550  0.0000</r>
       <r>   5.7555  0.0000</r>
       <r>   5.7555  0.0000</r>
       <r>   5.7555  0.0000</r>
       <r>   5.7555  0.0000</r>
       <r>   5.7560  0.0000</r>
       <r>   5.7560  0.0000</r>
       <r>   6.0942  0.0000</r>
       <r>   6.0942  0.0000</r>
       <r>   6.0943  0.0000</r>
       <r>   6.0943  0.0000</r>
       <r>   9.2575  0.0000</r>
       <r>   9.2575  0.0000</r>
       <r>   9.2577  0.0000</r>
       <r>   9.2577  0.0000</r>
       <r>   9.2577  0.0000</r>
       <r>   9.2577  0.0000</r>
       <r>   9.2578  0.0000</r>
       <r>   9.2578  0.0000</r>
       <r>   9.4491  0.0000</r>
       <r>   9.4492  0.0000</r>
       <r>   9.4492  0.0000</r>
       <r>   9.4492  0.0000</r>
       <r>  10.0936  0.0000</r>
       <r>  10.0936  0.0000</r>
       <r>  10.0936  0.0000</r>
       <r>  10.0936  0.0000</r>
       <r>  10.2726  0.0000</r>
       <r>  10.2726  0.0000</r>
       <r>  10.2727  0.0000</r>
       <r>  10.2727  0.0000</r>
       <r>  10.2727  0.0000</r>
       <r>  10.2727  0.0000</r>
       <r>  10.2728  0.0000</r>
       <r>  10.2728  0.0000</r>
      </set>
      <set comment="kpoint 196">
       <r>  -2.6386  1.0000</r>
       <r>  -2.6352  1.0000</r>
       <r>  -2.6352  1.0000</r>
       <r>  -2.6347  1.0000</r>
       <r>  -2.6344  1.0000</r>
       <r>  -2.6339  1.0000</r>
       <r>  -2.6339  1.0000</r>
       <r>  -2.6306  1.0000</r>
       <r>  -1.1665  1.0000</r>
       <r>  -1.1665  1.0000</r>
       <r>  -1.1665  1.0000</r>
       <r>  -1.1664  1.0000</r>
       <r>  -1.1659  1.0000</r>
       <r>  -1.1650  1.0000</r>
       <r>  -1.1642  1.0000</r>
       <r>  -1.1641  1.0000</r>
       <r>  -1.1641  1.0000</r>
       <r>  -1.1641  1.0000</r>
       <r>  -1.1641  1.0000</r>
       <r>  -1.1640  1.0000</r>
       <r>  -1.1639  1.0000</r>
       <r>  -1.1638  1.0000</r>
       <r>  -1.1638  1.0000</r>
       <r>  -1.1638  1.0000</r>
       <r>  -1.1638  1.0000</r>
       <r>  -1.1637  1.0000</r>
       <r>  -1.1630  1.0000</r>
       <r>  -1.1620  1.0000</r>
       <r>  -1.1616  1.0000</r>
       <r>  -1.1615  1.0000</r>
       <r>  -1.1615  1.0000</r>
       <r>  -1.1614  1.0000</r>
       <r>  -0.3632  1.0000</r>
       <r>  -0.3597  1.0000</r>
       <r>  -0.3594  1.0000</r>
       <r>  -0.3591  1.0000</r>
       <r>  -0.3591  1.0000</r>
       <r>  -0.3585  1.0000</r>
       <r>  -0.3581  1.0000</r>
       <r>  -0.3581  1.0000</r>
       <r>  -0.3579  1.0000</r>
       <r>  -0.3579  1.0000</r>
       <r>  -0.3579  1.0000</r>
       <r>  -0.3578  1.0000</r>
       <r>  -0.3578  1.0000</r>
       <r>  -0.3577  1.0000</r>
       <r>  -0.3577  1.0000</r>
       <r>  -0.3577  1.0000</r>
       <r>  -0.3575  1.0000</r>
       <r>  -0.3575  1.0000</r>
       <r>  -0.3571  1.0000</r>
       <r>  -0.3565  1.0000</r>
       <r>  -0.3565  1.0000</r>
       <r>  -0.3563  1.0000</r>
       <r>  -0.3560  1.0000</r>
       <r>  -0.3525  1.0000</r>
       <r>   0.2592  1.0000</r>
       <r>   0.2609  1.0000</r>
       <r>   0.2614  1.0000</r>
       <r>   0.2614  1.0000</r>
       <r>   0.2617  1.0000</r>
       <r>   0.2617  1.0000</r>
       <r>   0.2623  1.0000</r>
       <r>   0.2639  1.0000</r>
       <r>   0.5757  1.0000</r>
       <r>   0.5757  1.0000</r>
       <r>   0.5761  1.0000</r>
       <r>   0.5764  1.0000</r>
       <r>   0.5770  1.0000</r>
       <r>   0.5771  1.0000</r>
       <r>   0.5772  1.0000</r>
       <r>   0.5772  1.0000</r>
       <r>   0.5775  1.0000</r>
       <r>   0.5775  1.0000</r>
       <r>   0.5776  1.0000</r>
       <r>   0.5777  1.0000</r>
       <r>   0.5783  1.0000</r>
       <r>   0.5785  1.0000</r>
       <r>   0.5789  1.0000</r>
       <r>   0.5789  1.0000</r>
       <r>   0.6771  1.0000</r>
       <r>   0.6771  1.0000</r>
       <r>   0.6781  1.0000</r>
       <r>   0.6786  1.0000</r>
       <r>   0.6802  1.0000</r>
       <r>   0.6809  1.0000</r>
       <r>   0.6810  1.0000</r>
       <r>   0.6810  1.0000</r>
       <r>   0.6811  1.0000</r>
       <r>   0.6811  1.0000</r>
       <r>   0.6811  1.0000</r>
       <r>   0.6811  1.0000</r>
       <r>   0.6812  1.0000</r>
       <r>   0.6813  1.0000</r>
       <r>   0.6813  1.0000</r>
       <r>   0.6813  1.0000</r>
       <r>   0.6814  1.0000</r>
       <r>   0.6814  1.0000</r>
       <r>   0.6814  1.0000</r>
       <r>   0.6822  1.0000</r>
       <r>   0.6839  1.0000</r>
       <r>   0.6843  1.0000</r>
       <r>   0.6854  1.0000</r>
       <r>   0.6854  1.0000</r>
       <r>   1.3495  1.0000</r>
       <r>   1.3510  1.0000</r>
       <r>   1.3510  1.0000</r>
       <r>   1.3533  1.0000</r>
       <r>   1.3535  1.0000</r>
       <r>   1.3536  1.0000</r>
       <r>   1.3536  1.0000</r>
       <r>   1.3539  1.0000</r>
       <r>   1.3540  1.0000</r>
       <r>   1.3540  1.0000</r>
       <r>   1.3540  1.0000</r>
       <r>   1.3541  1.0000</r>
       <r>   1.3542  1.0000</r>
       <r>   1.3542  1.0000</r>
       <r>   1.3542  1.0000</r>
       <r>   1.3542  1.0000</r>
       <r>   1.3543  1.0000</r>
       <r>   1.3546  1.0000</r>
       <r>   1.3546  1.0000</r>
       <r>   1.3547  1.0000</r>
       <r>   1.3549  1.0000</r>
       <r>   1.3572  1.0000</r>
       <r>   1.3572  1.0000</r>
       <r>   1.3587  1.0000</r>
       <r>   1.7683  1.0000</r>
       <r>   1.7698  1.0000</r>
       <r>   1.7699  1.0000</r>
       <r>   1.7699  1.0000</r>
       <r>   1.7710  1.0000</r>
       <r>   1.7710  1.0000</r>
       <r>   1.7713  1.0000</r>
       <r>   1.7714  1.0000</r>
       <r>   1.7715  1.0000</r>
       <r>   1.7716  1.0000</r>
       <r>   1.7718  1.0000</r>
       <r>   1.7718  1.0000</r>
       <r>   1.7730  1.0000</r>
       <r>   1.7730  1.0000</r>
       <r>   1.7731  1.0000</r>
       <r>   1.7746  1.0000</r>
       <r>   2.7117  1.0000</r>
       <r>   2.7117  1.0000</r>
       <r>   2.7120  1.0000</r>
       <r>   2.7122  1.0000</r>
       <r>   2.7123  1.0000</r>
       <r>   2.7123  1.0000</r>
       <r>   2.7123  1.0000</r>
       <r>   2.7123  1.0000</r>
       <r>   2.7124  1.0000</r>
       <r>   2.7125  1.0000</r>
       <r>   2.7125  1.0000</r>
       <r>   2.7125  1.0000</r>
       <r>   2.7127  1.0000</r>
       <r>   2.7128  1.0000</r>
       <r>   2.7128  1.0000</r>
       <r>   2.7128  1.0000</r>
       <r>   2.7129  1.0000</r>
       <r>   2.7130  1.0000</r>
       <r>   2.7130  1.0000</r>
       <r>   2.7130  1.0000</r>
       <r>   2.7130  1.0000</r>
       <r>   2.7133  1.0000</r>
       <r>   2.7135  1.0000</r>
       <r>   2.7135  1.0000</r>
       <r>   5.4983  0.0000</r>
       <r>   5.5013  0.0000</r>
       <r>   5.5013  0.0000</r>
       <r>   5.5031  0.0000</r>
       <r>   5.5036  0.0000</r>
       <r>   5.5039  0.0000</r>
       <r>   5.5039  0.0000</r>
       <r>   5.5040  0.0000</r>
       <r>   5.5040  0.0000</r>
       <r>   5.5040  0.0000</r>
       <r>   5.5040  0.0000</r>
       <r>   5.5040  0.0000</r>
       <r>   5.5044  0.0000</r>
       <r>   5.5044  0.0000</r>
       <r>   5.5044  0.0000</r>
       <r>   5.5044  0.0000</r>
       <r>   5.5044  0.0000</r>
       <r>   5.5045  0.0000</r>
       <r>   5.5045  0.0000</r>
       <r>   5.5047  0.0000</r>
       <r>   5.5053  0.0000</r>
       <r>   5.5071  0.0000</r>
       <r>   5.5071  0.0000</r>
       <r>   5.5101  0.0000</r>
       <r>   9.7462  0.0000</r>
       <r>   9.7462  0.0000</r>
       <r>   9.7494  0.0000</r>
       <r>   9.7495  0.0000</r>
       <r>   9.7502  0.0000</r>
       <r>   9.7507  0.0000</r>
       <r>   9.7507  0.0000</r>
       <r>   9.7513  0.0000</r>
       <r>   9.7513  0.0000</r>
       <r>   9.7513  0.0000</r>
       <r>   9.7514  0.0000</r>
       <r>   9.7514  0.0000</r>
       <r>   9.7515  0.0000</r>
       <r>   9.7515  0.0000</r>
       <r>   9.7515  0.0000</r>
       <r>   9.7515  0.0000</r>
       <r>   9.7516  0.0000</r>
       <r>   9.7522  0.0000</r>
       <r>   9.7522  0.0000</r>
       <r>   9.7526  0.0000</r>
       <r>   9.7533  0.0000</r>
       <r>   9.7534  0.0000</r>
       <r>   9.7567  0.0000</r>
       <r>   9.7567  0.0000</r>
      </set>
     </set>
    </set>
   </array>
  </eigenvalues>
 </calculation>
 <structure name="finalpos" >
  <crystal>
   <varray name="basis" >
    <v>       8.42916084      0.00000000      0.00000000</v>
    <v>       0.00000000      8.42916084      0.00000000</v>
    <v>       0.00000000      0.00000000      8.42916084</v>
   </varray>
   <i name="volume">    598.89822091</i>
   <varray name="rec_basis" >
    <v>       0.11863577      0.00000000      0.00000000</v>
    <v>       0.00000000      0.11863577      0.00000000</v>
    <v>       0.00000000      0.00000000      0.11863577</v>
   </varray>
  </crystal>
  <varray name="positions" >
   <v>       0.00118636      0.00000000      0.00000000</v>
   <v>       0.50000000      0.00000000      0.00000000</v>
   <v>       0.00000000      0.50000000      0.00000000</v>
   <v>       0.50000000      0.50000000      0.00000000</v>
   <v>       0.00000000      0.00000000      0.50000000</v>
   <v>       0.50000000      0.00000000      0.50000000</v>
   <v>       0.00000000      0.50000000      0.50000000</v>
   <v>       0.50000000      0.50000000      0.50000000</v>
   <v>       0.25000000      0.25000000      0.00000000</v>
   <v>       0.75000000      0.25000000      0.00000000</v>
   <v>       0.25000000      0.75000000      0.00000000</v>
   <v>       0.75000000      0.75000000      0.00000000</v>
   <v>       0.25000000      0.25000000      0.50000000</v>
   <v>       0.75000000      0.25000000      0.50000000</v>
   <v>       0.25000000      0.75000000      0.50000000</v>
   <v>       0.75000000      0.75000000      0.50000000</v>
   <v>       0.25000000      0.00000000      0.25000000</v>
   <v>       0.75000000      0.00000000      0.25000000</v>
   <v>       0.25000000      0.50000000      0.25000000</v>
   <v>       0.75000000      0.50000000      0.25000000</v>
   <v>       0.25000000      0.00000000      0.75000000</v>
   <v>       0.75000000      0.00000000      0.75000000</v>
   <v>       0.25000000      0.50000000      0.75000000</v>
   <v>       0.75000000      0.50000000      0.75000000</v>
   <v>       0.00000000      0.25000000      0.25000000</v>
   <v>       0.50000000      0.25000000      0.25000000</v>
   <v>       0.00000000      0.75000000      0.25000000</v>
   <v>       0.50000000      0.75000000      0.25000000</v>
   <v>       0.00000000      0.25000000      0.75000000</v>
   <v>       0.50000000      0.25000000      0.75000000</v>
   <v>       0.00000000      0.75000000      0.75000000</v>
   <v>       0.50000000      0.75000000      0.75000000</v>
  </varray>
 </structure>
</modeling>
