  32  32   0   0
  0.1501398E+02  0.7832168E-09  0.7832168E-09  0.7832168E-09  0.5000000E-15
  1.000000000000000E-004
  CAR 
 unknown system                          
     13.80241736     -3.57212515  301      9.01032261      1.00000000
     -3.572  0.0000E+00  0.0000E+00
     -3.514  0.0000E+00  0.0000E+00
     -3.456  0.0000E+00  0.0000E+00
     -3.398  0.0000E+00  0.0000E+00
     -3.340  0.0000E+00  0.0000E+00
     -3.283  0.0000E+00  0.0000E+00
     -3.225  0.0000E+00  0.0000E+00
     -3.167  0.0000E+00  0.0000E+00
     -3.109  0.0000E+00  0.0000E+00
     -3.051  0.0000E+00  0.0000E+00
     -2.993  0.0000E+00  0.0000E+00
     -2.935  0.0000E+00  0.0000E+00
     -2.877  0.0000E+00  0.0000E+00
     -2.819  0.1493E-07  0.8644E-09
     -2.761  0.1596E+00  0.9246E-02
     -2.703  0.9169E+00  0.6235E-01
     -2.645  0.1315E+01  0.1385E+00
     -2.588  0.8991E+00  0.1906E+00
     -2.530  0.1043E+01  0.2509E+00
     -2.472  0.9443E+00  0.3056E+00
     -2.414  0.3836E+01  0.5278E+00
     -2.356  0.3836E+01  0.7500E+00
     -2.298  0.8570E-12  0.7500E+00
     -2.240  0.1634E+01  0.8447E+00
     -2.182  0.2303E+01  0.9780E+00
     -2.124  0.3071E+01  0.1156E+01
     -2.066  0.3559E+01  0.1362E+01
     -2.008  0.3822E+01  0.1583E+01
     -1.951  0.1279E+01  0.1657E+01
     -1.893  0.3833E+01  0.1879E+01
     -1.835  0.7422E+01  0.2309E+01
     -1.777  0.2567E+00  0.2324E+01
     -1.719  0.2691E+00  0.2340E+01
     -1.661  0.9797E+00  0.2396E+01
     -1.603  0.7393E+01  0.2825E+01
     -1.545  0.5747E+01  0.3157E+01
     -1.487  0.3837E+01  0.3380E+01
     -1.429  0.3827E+01  0.3601E+01
     -1.371  0.7279E+01  0.4023E+01
     -1.313  0.2983E+01  0.4196E+01
     -1.256  0.1258E+01  0.4269E+01
     -1.198  0.1227E+00  0.4276E+01
     -1.140  0.3720E+01  0.4491E+01
     -1.082  0.4791E+01  0.4769E+01
     -1.024  0.1151E+02  0.5435E+01
     -0.966  0.5100E+01  0.5731E+01
     -0.908  0.1604E-01  0.5731E+01
     -0.850  0.8007E+01  0.6195E+01
     -0.792  0.5578E+01  0.6518E+01
     -0.734  0.5600E+01  0.6843E+01
     -0.676  0.3694E-02  0.6843E+01
     -0.618  0.1915E+01  0.6954E+01
     -0.561  0.7674E+01  0.7398E+01
     -0.503  0.7664E+01  0.7842E+01
     -0.445  0.7455E+01  0.8274E+01
     -0.387  0.4011E+01  0.8506E+01
     -0.329  0.2541E+01  0.8653E+01
     -0.271  0.3293E+01  0.8844E+01
     -0.213  0.1053E+02  0.9454E+01
     -0.155  0.1056E-02  0.9454E+01
     -0.097  0.3836E+01  0.9676E+01
     -0.039  0.1534E+02  0.1056E+02
      0.019  0.7614E+01  0.1101E+02
      0.077  0.3540E+01  0.1121E+02
      0.134  0.2737E+01  0.1137E+02
      0.192  0.4041E+01  0.1160E+02
      0.250  0.9214E+01  0.1214E+02
      0.308  0.7388E+01  0.1256E+02
      0.366  0.4389E-04  0.1256E+02
      0.424  0.1279E+01  0.1264E+02
      0.482  0.8626E+01  0.1314E+02
      0.540  0.1321E+02  0.1390E+02
      0.598  0.6845E+01  0.1430E+02
      0.656  0.3088E+01  0.1448E+02
      0.714  0.3899E+01  0.1470E+02
      0.772  0.9856E+01  0.1528E+02
      0.829  0.1491E+02  0.1614E+02
      0.887  0.3266E-03  0.1614E+02
      0.945  0.7674E+01  0.1658E+02
      1.003  0.7668E+01  0.1703E+02
      1.061  0.3791E+01  0.1725E+02
      1.119  0.1014E+02  0.1783E+02
      1.177  0.1425E+01  0.1792E+02
      1.235  0.2389E+01  0.1806E+02
      1.293  0.9739E+01  0.1862E+02
      1.351  0.1473E+02  0.1947E+02
      1.409  0.2484E-03  0.1947E+02
      1.466  0.9591E+00  0.1953E+02
      1.524  0.1534E+02  0.2042E+02
      1.582  0.1526E+02  0.2130E+02
      1.640  0.3699E+01  0.2151E+02
      1.698  0.6030E+01  0.2186E+02
      1.756  0.8390E+01  0.2235E+02
      1.814  0.9575E+01  0.2290E+02
      1.872  0.6929E+01  0.2331E+02
      1.930  0.1152E-01  0.2331E+02
      1.988  0.5744E+01  0.2364E+02
      2.046  0.7674E+01  0.2408E+02
      2.104  0.1917E+02  0.2519E+02
      2.161  0.8827E+01  0.2571E+02
      2.219  0.3586E+01  0.2591E+02
      2.277  0.1130E+02  0.2657E+02
      2.335  0.6964E+01  0.2697E+02
      2.393  0.5141E+01  0.2727E+02
      2.451  0.8261E-01  0.2727E+02
      2.509  0.3796E+01  0.2749E+02
      2.567  0.1627E+02  0.2844E+02
      2.625  0.7671E+01  0.2888E+02
      2.683  0.1151E+02  0.2955E+02
      2.741  0.7639E+01  0.2999E+02
      2.799  0.7420E+01  0.3042E+02
      2.856  0.1650E+02  0.3137E+02
      2.914  0.2971E+01  0.3155E+02
      2.972  0.1012E+01  0.3160E+02
      3.030  0.4565E+01  0.3187E+02
      3.088  0.2159E+02  0.3312E+02
      3.146  0.1892E+02  0.3422E+02
      3.204  0.7633E+01  0.3466E+02
      3.262  0.6015E-05  0.3466E+02
      3.320  0.7670E+01  0.3510E+02
      3.378  0.1530E+02  0.3599E+02
      3.436  0.4370E-01  0.3599E+02
      3.494  0.3474E+01  0.3619E+02
      3.551  0.6895E+01  0.3659E+02
      3.609  0.7898E+01  0.3705E+02
      3.667  0.1413E+02  0.3787E+02
      3.725  0.8524E+01  0.3836E+02
      3.783  0.6569E+01  0.3874E+02
      3.841  0.2488E+02  0.4018E+02
      3.899  0.7251E+01  0.4060E+02
      3.957  0.1228E-01  0.4060E+02
      4.015  0.1150E+02  0.4127E+02
      4.073  0.1599E+02  0.4219E+02
      4.131  0.1133E+02  0.4285E+02
      4.189  0.1464E+02  0.4370E+02
      4.246  0.4704E+01  0.4397E+02
      4.304  0.1083E+02  0.4460E+02
      4.362  0.9677E+01  0.4516E+02
      4.420  0.9499E+01  0.4571E+02
      4.478  0.7155E+00  0.4575E+02
      4.536  0.4976E+01  0.4604E+02
      4.594  0.1485E+02  0.4690E+02
      4.652  0.1164E+02  0.4757E+02
      4.710  0.7549E+01  0.4801E+02
      4.768  0.3834E+01  0.4823E+02
      4.826  0.1913E+02  0.4934E+02
      4.883  0.1154E+02  0.5001E+02
      4.941  0.1153E+02  0.5068E+02
      4.999  0.8599E+01  0.5117E+02
      5.057  0.1496E+02  0.5204E+02
      5.115  0.3497E+01  0.5224E+02
      5.173  0.8432E+01  0.5273E+02
      5.231  0.1409E+01  0.5281E+02
      5.289  0.1594E+02  0.5374E+02
      5.347  0.1073E+02  0.5436E+02
      5.405  0.1833E+02  0.5542E+02
      5.463  0.3497E+01  0.5562E+02
      5.521  0.9800E+01  0.5619E+02
      5.578  0.1512E+02  0.5706E+02
      5.636  0.1531E+02  0.5795E+02
      5.694  0.2306E+02  0.5929E+02
      5.752  0.4086E+00  0.5931E+02
      5.810  0.1110E+02  0.5995E+02
      5.868  0.2733E+00  0.5997E+02
      5.926  0.8577E+01  0.6047E+02
      5.984  0.1236E+02  0.6118E+02
      6.042  0.2391E+02  0.6257E+02
      6.100  0.9106E+01  0.6309E+02
      6.158  0.1337E+02  0.6387E+02
      6.216  0.1785E+02  0.6490E+02
      6.273  0.8689E+01  0.6541E+02
      6.331  0.3470E+00  0.6543E+02
      6.389  0.1726E+02  0.6643E+02
      6.447  0.9236E+01  0.6696E+02
      6.505  0.7136E+01  0.6737E+02
      6.563  0.1031E+02  0.6797E+02
      6.621  0.2353E+02  0.6933E+02
      6.679  0.7246E+01  0.6975E+02
      6.737  0.5858E+01  0.7009E+02
      6.795  0.5145E+01  0.7039E+02
      6.853  0.9522E+01  0.7094E+02
      6.911  0.2090E+02  0.7215E+02
      6.968  0.3824E+01  0.7237E+02
      7.026  0.4176E+01  0.7262E+02
      7.084  0.1848E+02  0.7369E+02
      7.142  0.2277E+02  0.7501E+02
      7.200  0.1592E+02  0.7593E+02
      7.258  0.7797E+01  0.7638E+02
      7.316  0.1713E+00  0.7639E+02
      7.374  0.2950E+00  0.7641E+02
      7.432  0.1371E+02  0.7720E+02
      7.490  0.1141E+02  0.7786E+02
      7.548  0.9703E+01  0.7842E+02
      7.605  0.2005E+02  0.7958E+02
      7.663  0.1261E+02  0.8031E+02
      7.721  0.1136E+02  0.8097E+02
      7.779  0.1348E+01  0.8105E+02
      7.837  0.2352E+02  0.8241E+02
      7.895  0.7676E+01  0.8286E+02
      7.953  0.1921E+02  0.8397E+02
      8.011  0.1094E+02  0.8460E+02
      8.069  0.6601E+01  0.8499E+02
      8.127  0.1457E+02  0.8583E+02
      8.185  0.7745E+01  0.8628E+02
      8.243  0.9751E+01  0.8684E+02
      8.300  0.1964E+02  0.8798E+02
      8.358  0.1297E+02  0.8873E+02
      8.416  0.1085E+02  0.8936E+02
      8.474  0.3865E+01  0.8958E+02
      8.532  0.3837E+01  0.8981E+02
      8.590  0.4791E+00  0.8983E+02
      8.648  0.2450E+02  0.9125E+02
      8.706  0.1339E+02  0.9203E+02
      8.764  0.8824E+01  0.9254E+02
      8.822  0.1800E+02  0.9358E+02
      8.880  0.1718E+02  0.9458E+02
      8.938  0.2014E+02  0.9574E+02
      8.995  0.1174E+01  0.9581E+02
      9.053  0.1997E+02  0.9697E+02
      9.111  0.1551E+02  0.9787E+02
      9.169  0.7801E+01  0.9832E+02
      9.227  0.1482E+02  0.9918E+02
      9.285  0.2451E+01  0.9932E+02
      9.343  0.1012E+02  0.9990E+02
      9.401  0.1360E+02  0.1007E+03
      9.459  0.1116E+01  0.1008E+03
      9.517  0.1568E+02  0.1017E+03
      9.575  0.1041E+02  0.1023E+03
      9.633  0.2249E+02  0.1036E+03
      9.690  0.1517E+02  0.1044E+03
      9.748  0.2937E+01  0.1046E+03
      9.806  0.1417E+02  0.1054E+03
      9.864  0.8589E+01  0.1059E+03
      9.922  0.7660E+01  0.1064E+03
      9.980  0.1946E+02  0.1075E+03
     10.038  0.1697E+02  0.1085E+03
     10.096  0.2237E+02  0.1098E+03
     10.154  0.1063E+02  0.1104E+03
     10.212  0.1258E+02  0.1111E+03
     10.270  0.2496E+02  0.1126E+03
     10.328  0.9103E+01  0.1131E+03
     10.385  0.1509E+02  0.1140E+03
     10.443  0.2679E+00  0.1140E+03
     10.501  0.1167E+02  0.1147E+03
     10.559  0.1832E+02  0.1157E+03
     10.617  0.1220E+02  0.1164E+03
     10.675  0.5178E+00  0.1165E+03
     10.733  0.1068E+02  0.1171E+03
     10.791  0.1496E+02  0.1179E+03
     10.849  0.2102E+02  0.1192E+03
     10.907  0.1103E+02  0.1198E+03
     10.965  0.4169E+01  0.1200E+03
     11.022  0.1554E+02  0.1209E+03
     11.080  0.2877E+02  0.1226E+03
     11.138  0.3638E+01  0.1228E+03
     11.196  0.1289E+02  0.1236E+03
     11.254  0.2491E+02  0.1250E+03
     11.312  0.1975E+02  0.1262E+03
     11.370  0.3930E+01  0.1264E+03
     11.428  0.2795E+01  0.1265E+03
     11.486  0.3758E+01  0.1268E+03
     11.544  0.1401E+02  0.1276E+03
     11.602  0.1907E+02  0.1287E+03
     11.660  0.1304E+02  0.1294E+03
     11.717  0.6799E+01  0.1298E+03
     11.775  0.1542E+02  0.1307E+03
     11.833  0.1881E+02  0.1318E+03
     11.891  0.1643E+02  0.1328E+03
     11.949  0.1205E+02  0.1335E+03
     12.007  0.1798E+02  0.1345E+03
     12.065  0.1438E+02  0.1353E+03
     12.123  0.1181E+02  0.1360E+03
     12.181  0.1476E+02  0.1369E+03
     12.239  0.2253E+02  0.1382E+03
     12.297  0.2010E+01  0.1383E+03
     12.355  0.1356E+02  0.1391E+03
     12.412  0.9460E+01  0.1396E+03
     12.470  0.1273E+02  0.1404E+03
     12.528  0.1121E+02  0.1410E+03
     12.586  0.1705E+01  0.1411E+03
     12.644  0.2174E+02  0.1424E+03
     12.702  0.4740E+01  0.1426E+03
     12.760  0.1124E+02  0.1433E+03
     12.818  0.2190E+01  0.1434E+03
     12.876  0.7204E-06  0.1434E+03
     12.934  0.5037E+01  0.1437E+03
     12.992  0.1560E+01  0.1438E+03
     13.050  0.3314E+01  0.1440E+03
     13.107  0.0000E+00  0.1440E+03
     13.165  0.0000E+00  0.1440E+03
     13.223  0.0000E+00  0.1440E+03
     13.281  0.0000E+00  0.1440E+03
     13.339  0.0000E+00  0.1440E+03
     13.397  0.0000E+00  0.1440E+03
     13.455  0.0000E+00  0.1440E+03
     13.513  0.0000E+00  0.1440E+03
     13.571  0.0000E+00  0.1440E+03
     13.629  0.0000E+00  0.1440E+03
     13.687  0.0000E+00  0.1440E+03
     13.745  0.0000E+00  0.1440E+03
     13.802  0.0000E+00  0.1440E+03
