   32   32    1    1
  0.1501398E+02  0.7832168E-09  0.7832168E-09  0.7832168E-09  0.5000000E-15
  1.000000000000000E-004
  CAR 
 unknown system                          
   96   40   72
 
  0.0000000E+00  0.0000000E+00  0.0000000E+00  0.4629630E-02
   1       -2.7824
   2       -0.3966
   3       -0.3927
   4       -0.3927
   5       -0.3927
   6       -0.3927
   7       -0.3889
   8        1.9462
   9        1.9505
  10        1.9505
  11        1.9523
  12        1.9525
  13        1.9525
  14        1.9525
  15        1.9525
  16        1.9526
  17        1.9545
  18        1.9545
  19        1.9589
  20        4.0448
  21        4.0448
  22        4.0448
  23        4.0448
  24        4.5084
  25        4.5084
  26        4.5084
  27        4.5084
  28        5.8682
  29        5.8682
  30        5.8682
  31        7.3870
  32        7.3870
  33        7.3871
  34        8.0499
  35        8.0499
  36        8.0545
  37        8.0545
  38        8.0546
  39        8.0547
  40        8.0547
  41        8.0547
  42        8.0548
  43        8.0548
  44        8.0594
  45        8.0594
  46        9.0130
  47        9.0173
  48        9.0173
  49        9.0173
  50        9.0173
  51        9.0217
  52       10.2485
  53       10.2485
  54       10.2499
  55       10.2525
  56       10.2527
  57       10.2527
  58       10.2527
  59       10.2528
  60       10.2529
  61       10.2556
  62       10.2569
  63       10.2569
  64       10.6733
  65       10.6745
  66       10.6745
  67       10.6745
  68       10.6746
  69       10.6758
  70       12.0628
  71       12.0659
  72       12.0664
 
  0.1666667E+00  0.0000000E+00  0.0000000E+00  0.9259259E-02
   1       -2.7154
   2       -1.1181
   3       -0.3270
   4       -0.3270
   5       -0.3270
   6       -0.3270
   7        0.4588
   8        1.2407
   9        1.2407
  10        1.2407
  11        1.2407
  12        2.0170
  13        2.0170
  14        2.0170
  15        2.0170
  16        2.7877
  17        2.7877
  18        2.7877
  19        2.7877
  20        3.5385
  21        3.5385
  22        3.5385
  23        3.5386
  24        4.9849
  25        5.1375
  26        5.1375
  27        5.1375
  28        5.1376
  29        5.9288
  30        5.9288
  31        7.1896
  32        7.1896
  33        7.1896
  34        7.1896
  35        7.3855
  36        7.3855
  37        7.4496
  38        7.4496
  39        8.1156
  40        8.1156
  41        8.1156
  42        8.1156
  43        8.3839
  44        8.7746
  45        8.7746
  46        8.8465
  47        8.8465
  48        9.4729
  49        9.4729
  50        9.4729
  51        9.4729
  52        9.5449
  53        9.5449
  54        9.5450
  55        9.5451
  56        9.5803
  57        9.5803
  58        9.5805
  59        9.5805
  60       11.0299
  61       11.0299
  62       11.0480
  63       11.0480
  64       11.0480
  65       11.0480
  66       11.1882
  67       11.1882
  68       11.1883
  69       11.1883
  70       11.3827
  71       11.3827
  72       11.3827
 
  0.3333333E+00  0.0000000E+00  0.0000000E+00  0.9259259E-02
   1       -2.5147
   2       -1.7147
   3       -0.1300
   4       -0.1300
   5       -0.1300
   6       -0.1300
   7        0.6551
   8        0.6551
   9        0.6551
  10        0.6551
  11        1.4331
  12        2.2101
  13        2.2101
  14        2.2101
  15        2.2101
  16        2.9768
  17        2.9768
  18        2.9768
  19        2.9769
  20        3.7231
  21        3.7422
  22        3.7422
  23        3.7422
  24        3.7423
  25        5.9741
  26        5.9741
  27        5.9741
  28        5.9741
  29        6.0666
  30        6.0666
  31        6.0667
  32        6.0667
  33        6.1107
  34        6.1107
  35        6.8386
  36        6.8386
  37        7.6355
  38        7.6355
  39        8.2748
  40        8.2748
  41        8.2750
  42        8.2750
  43        8.2985
  44        8.2986
  45        8.2987
  46        8.2987
  47        8.3377
  48        8.3378
  49        9.0306
  50        9.0307
  51        9.0307
  52        9.0307
  53        9.7612
  54        9.7612
  55        9.9621
  56        9.9621
  57        9.9621
  58        9.9621
  59        9.9862
  60       10.8093
  61       10.8093
  62       10.8093
  63       10.8093
  64       11.8003
  65       11.8004
  66       11.9556
  67       11.9556
  68       11.9662
  69       11.9662
  70       11.9664
  71       11.9664
  72       12.5138
 
  0.5000000E+00  0.0000000E+00  0.0000000E+00  0.4629630E-02
   1       -2.1823
   2       -2.1792
   3        0.1935
   4        0.1968
   5        0.1968
   6        0.1977
   7        0.1978
   8        0.1986
   9        0.1986
  10        0.2020
  11        2.5226
  12        2.5251
  13        2.5293
  14        2.5296
  15        2.5296
  16        2.5304
  17        2.5314
  18        2.5322
  19        2.5322
  20        2.5349
  21        4.8084
  22        4.8084
  23        4.8090
  24        4.8091
  25        4.8094
  26        4.8096
  27        4.8101
  28        4.8101
  29        6.4121
  30        6.4121
  31        6.4154
  32        6.4154
  33        7.1192
  34        7.1192
  35        7.1195
  36        7.1201
  37        7.1202
  38        7.1207
  39        7.1211
  40        7.1211
  41        7.9356
  42        7.9368
  43        7.9386
  44        7.9398
  45        8.6009
  46        8.6009
  47        8.6018
  48        8.6034
  49        8.6035
  50        8.6051
  51        8.6060
  52        8.6060
  53       10.3413
  54       10.3422
  55       10.3422
  56       10.3424
  57       10.3448
  58       10.3450
  59       10.3450
  60       10.3459
  61       10.7973
  62       10.7973
  63       10.7995
  64       10.7995
  65       11.7506
  66       11.7516
  67       12.7372
  68       12.7373
  69       12.7392
  70       12.7393
  71       13.0076
  72       13.0078
 
  0.0000000E+00  0.1666667E+00  0.0000000E+00  0.1851852E-01
   1       -2.7154
   2       -1.1181
   3       -0.3300
   4       -0.3270
   5       -0.3270
   6       -0.3240
   7        0.4588
   8        1.2377
   9        1.2407
  10        1.2407
  11        1.2437
  12        2.0148
  13        2.0157
  14        2.0182
  15        2.0191
  16        2.7846
  17        2.7877
  18        2.7877
  19        2.7907
  20        3.5365
  21        3.5373
  22        3.5398
  23        3.5406
  24        4.9849
  25        5.1354
  26        5.1363
  27        5.1388
  28        5.1396
  29        5.9288
  30        5.9288
  31        7.1863
  32        7.1896
  33        7.1896
  34        7.1929
  35        7.3854
  36        7.3855
  37        7.4496
  38        7.4496
  39        8.1127
  40        8.1156
  41        8.1156
  42        8.1185
  43        8.3839
  44        8.7746
  45        8.7746
  46        8.8465
  47        8.8465
  48        9.4703
  49        9.4716
  50        9.4742
  51        9.4756
  52        9.5422
  53        9.5450
  54        9.5450
  55        9.5478
  56        9.5774
  57        9.5803
  58        9.5805
  59        9.5833
  60       11.0297
  61       11.0299
  62       11.0450
  63       11.0480
  64       11.0482
  65       11.0510
  66       11.1867
  67       11.1882
  68       11.1883
  69       11.1897
  70       11.3813
  71       11.3827
  72       11.3848
 
  0.1666667E+00  0.1666667E+00  0.0000000E+00  0.3703704E-01
   1       -2.6485
   2       -1.0532
   3       -1.0507
   4       -0.2613
   5       -0.2613
   6        0.5224
   7        0.5244
   8        0.5262
   9        1.3039
  10        1.3048
  11        1.3064
  12        1.3073
  13        2.0806
  14        2.0815
  15        2.8480
  16        2.8487
  17        2.8506
  18        2.8510
  19        2.8525
  20        2.8537
  21        3.6164
  22        4.1678
  23        4.1678
  24        4.6380
  25        4.6380
  26        5.0467
  27        5.0475
  28        5.9427
  29        5.9428
  30        5.9894
  31        6.5256
  32        6.5281
  33        7.0906
  34        7.0906
  35        7.4448
  36        7.4476
  37        7.4640
  38        7.4641
  39        7.5112
  40        7.9203
  41        7.9225
  42        8.4438
  43        8.4447
  44        8.7926
  45        8.7936
  46        8.7952
  47        8.7962
  48        8.9055
  49        8.9080
  50        8.9105
  51        9.1250
  52        9.1266
  53        9.6204
  54        9.6232
  55       10.2316
  56       10.2317
  57       10.2716
  58       10.2725
  59       10.2730
  60       10.2741
  61       10.3739
  62       10.3757
  63       10.7003
  64       11.2174
  65       11.2181
  66       11.4893
  67       11.4893
  68       11.7780
  69       11.7802
  70       11.8440
  71       12.1719
  72       12.1721
 
  0.3333333E+00  0.1666667E+00  0.0000000E+00  0.3703704E-01
   1       -2.4478
   2       -1.6483
   3       -0.8538
   4       -0.0658
   5       -0.0644
   6       -0.0628
   7        0.7185
   8        0.7203
   9        0.7216
  10        1.4966
  11        1.4995
  12        1.5001
  13        1.5013
  14        2.2741
  15        2.2741
  16        3.0415
  17        3.0426
  18        3.0430
  19        3.7860
  20        3.7909
  21        3.7912
  22        3.8051
  23        3.8052
  24        4.5625
  25        5.2334
  26        5.2942
  27        5.3890
  28        5.3891
  29        5.9754
  30        6.0241
  31        6.0241
  32        6.1712
  33        6.7597
  34        6.8783
  35        6.8784
  36        6.8995
  37        7.5074
  38        7.5074
  39        7.5917
  40        7.5918
  41        7.6290
  42        7.6929
  43        8.2386
  44        8.2387
  45        8.2746
  46        8.3599
  47        8.6232
  48        9.0800
  49        9.0803
  50        9.0911
  51        9.1833
  52        9.2841
  53        9.3550
  54        9.8214
  55        9.8254
  56       10.0431
  57       10.1327
  58       10.5528
  59       10.8321
  60       10.8321
  61       11.1916
  62       11.1917
  63       11.2045
  64       11.2923
  65       11.5890
  66       11.7111
  67       11.7111
  68       11.8931
  69       12.0174
  70       12.0477
  71       12.6148
  72       12.6214
 
  0.5000000E+00  0.1666667E+00  0.0000000E+00  0.1851852E-01
   1       -2.1156
   2       -2.1126
   3       -0.5257
   4       -0.5227
   5        0.2610
   6        0.2623
   7        0.2641
   8        0.2653
   9        1.0437
  10        1.0468
  11        1.8212
  12        1.8225
  13        1.8243
  14        1.8255
  15        2.5886
  16        2.5897
  17        3.3566
  18        3.3579
  19        3.3597
  20        3.3610
  21        4.1168
  22        4.1179
  23        4.8686
  24        4.8692
  25        4.8696
  26        4.8703
  27        5.5417
  28        5.5449
  29        5.6166
  30        5.6177
  31        6.4344
  32        6.4347
  33        6.4357
  34        6.4358
  35        6.4729
  36        6.4762
  37        7.8054
  38        7.8066
  39        7.8086
  40        7.8099
  41        7.9286
  42        7.9292
  43        7.9302
  44        7.9302
  45        7.9321
  46        7.9353
  47        7.9782
  48        7.9811
  49        8.9107
  50        8.9138
  51        9.3947
  52        9.3981
  53        9.6828
  54        9.6858
  55       10.0887
  56       10.0904
  57       10.8587
  58       10.8608
  59       11.0855
  60       11.0889
  61       11.2420
  62       11.2428
  63       11.2453
  64       11.2461
  65       11.8010
  66       11.8020
  67       12.2247
  68       12.2247
  69       12.2265
  70       12.2265
  71       12.3315
  72       12.3338
 
  0.0000000E+00  0.3333333E+00  0.0000000E+00  0.1851852E-01
   1       -2.5147
   2       -1.7147
   3       -0.1330
   4       -0.1300
   5       -0.1300
   6       -0.1270
   7        0.6521
   8        0.6551
   9        0.6551
  10        0.6581
  11        1.4331
  12        2.2080
  13        2.2088
  14        2.2114
  15        2.2122
  16        2.9747
  17        2.9756
  18        2.9781
  19        2.9790
  20        3.7231
  21        3.7392
  22        3.7422
  23        3.7422
  24        3.7453
  25        5.9709
  26        5.9741
  27        5.9741
  28        5.9773
  29        6.0645
  30        6.0653
  31        6.0680
  32        6.0689
  33        6.1107
  34        6.1107
  35        6.8386
  36        6.8386
  37        7.6355
  38        7.6355
  39        8.2726
  40        8.2737
  41        8.2763
  42        8.2774
  43        8.2956
  44        8.2985
  45        8.2985
  46        8.3014
  47        8.3377
  48        8.3378
  49        9.0278
  50        9.0307
  51        9.0307
  52        9.0336
  53        9.7612
  54        9.7612
  55        9.9595
  56        9.9621
  57        9.9621
  58        9.9646
  59        9.9862
  60       10.8068
  61       10.8093
  62       10.8093
  63       10.8118
  64       11.8003
  65       11.8003
  66       11.9558
  67       11.9558
  68       11.9632
  69       11.9662
  70       11.9663
  71       11.9692
  72       12.5141
 
  0.1666667E+00  0.3333333E+00  0.0000000E+00  0.3703704E-01
   1       -2.4478
   2       -1.6483
   3       -0.8538
   4       -0.0658
   5       -0.0644
   6       -0.0628
   7        0.7186
   8        0.7203
   9        0.7216
  10        1.4968
  11        1.4990
  12        1.5001
  13        1.5016
  14        2.2741
  15        2.2741
  16        3.0408
  17        3.0426
  18        3.0437
  19        3.7860
  20        3.7909
  21        3.7913
  22        3.8050
  23        3.8051
  24        4.5625
  25        5.2334
  26        5.2941
  27        5.3890
  28        5.3891
  29        5.9754
  30        6.0241
  31        6.0242
  32        6.1712
  33        6.7597
  34        6.8783
  35        6.8784
  36        6.8994
  37        7.5074
  38        7.5074
  39        7.5918
  40        7.5918
  41        7.6289
  42        7.6929
  43        8.2386
  44        8.2386
  45        8.2746
  46        8.3599
  47        8.6232
  48        9.0803
  49        9.0803
  50        9.0909
  51        9.1833
  52        9.2841
  53        9.3550
  54        9.8221
  55        9.8247
  56       10.0431
  57       10.1327
  58       10.5527
  59       10.8321
  60       10.8321
  61       11.1917
  62       11.1917
  63       11.2044
  64       11.2923
  65       11.5890
  66       11.7111
  67       11.7111
  68       11.8931
  69       12.0174
  70       12.0477
  71       12.6155
  72       12.6215
 
  0.3333333E+00  0.3333333E+00  0.0000000E+00  0.3703704E-01
   1       -2.2475
   2       -1.4504
   3       -1.4480
   4       -0.6559
   5        0.1323
   6        0.1323
   7        0.9141
   8        0.9150
   9        0.9165
  10        0.9175
  11        1.6904
  12        1.6927
  13        1.6942
  14        1.6951
  15        2.4649
  16        2.4658
  17        3.9757
  18        3.9765
  19        3.9903
  20        3.9911
  21        3.9927
  22        3.9937
  23        4.5369
  24        4.5369
  25        4.7306
  26        4.7331
  27        5.0236
  28        5.0236
  29        5.4961
  30        6.0083
  31        6.0083
  32        6.3531
  33        6.5000
  34        6.5000
  35        7.0325
  36        7.0335
  37        7.0350
  38        7.0362
  39        7.0803
  40        7.0831
  41        7.5918
  42        7.5941
  43        7.8110
  44        7.8117
  45        7.8124
  46        7.8539
  47        8.9001
  48        8.9013
  49        9.5738
  50       10.0027
  51       10.0028
  52       10.0041
  53       10.0052
  54       10.0054
  55       10.0081
  56       10.0603
  57       10.2089
  58       10.2101
  59       10.7084
  60       10.7111
  61       10.7401
  62       10.7419
  63       12.0633
  64       12.0633
  65       12.1769
  66       12.1769
  67       12.2014
  68       12.2034
  69       12.2376
  70       12.2382
  71       12.4432
  72       12.4437
 
  0.5000000E+00  0.3333333E+00  0.0000000E+00  0.1851852E-01
   1       -1.9158
   2       -1.9127
   3       -1.1196
   4       -1.1166
   5        0.4572
   6        0.4584
   7        0.4602
   8        0.4614
   9        1.2386
  10        1.2398
  11        1.2417
  12        1.2429
  13        2.0133
  14        2.0164
  15        2.7808
  16        2.7819
  17        3.5464
  18        3.5475
  19        4.2902
  20        4.2915
  21        4.2930
  22        4.2934
  23        4.2945
  24        4.2961
  25        5.0412
  26        5.0421
  27        5.0422
  28        5.0430
  29        5.8860
  30        5.8861
  31        5.8871
  32        5.8872
  33        6.5265
  34        6.5274
  35        6.6113
  36        6.6122
  37        6.6143
  38        6.6153
  39        6.6549
  40        6.6582
  41        7.3840
  42        7.3874
  43        8.0183
  44        8.0205
  45        8.8578
  46        8.8582
  47        8.8591
  48        8.8595
  49        9.0753
  50        9.0760
  51        9.1461
  52        9.1489
  53       10.3106
  54       10.3140
  55       10.4629
  56       10.4660
  57       11.0397
  58       11.0399
  59       11.0412
  60       11.0414
  61       11.0428
  62       11.0450
  63       11.7793
  64       11.7816
  65       11.7995
  66       11.8027
  67       11.9386
  68       11.9392
  69       12.5087
  70       12.5121
  71       12.7377
  72       12.7391
 
  0.0000000E+00  0.5000000E+00  0.0000000E+00  0.9259259E-02
   1       -2.1807
   2       -2.1807
   3        0.1923
   4        0.1972
   5        0.1977
   6        0.1977
   7        0.1977
   8        0.1977
   9        0.1983
  10        0.2032
  11        2.5234
  12        2.5248
  13        2.5283
  14        2.5286
  15        2.5305
  16        2.5306
  17        2.5312
  18        2.5316
  19        2.5332
  20        2.5351
  21        4.8058
  22        4.8064
  23        4.8093
  24        4.8093
  25        4.8093
  26        4.8093
  27        4.8121
  28        4.8127
  29        6.4138
  30        6.4138
  31        6.4138
  32        6.4138
  33        7.1170
  34        7.1187
  35        7.1188
  36        7.1189
  37        7.1214
  38        7.1215
  39        7.1216
  40        7.1233
  41        7.9377
  42        7.9377
  43        7.9377
  44        7.9377
  45        8.5982
  46        8.6030
  47        8.6035
  48        8.6035
  49        8.6035
  50        8.6035
  51        8.6040
  52        8.6087
  53       10.3392
  54       10.3430
  55       10.3436
  56       10.3436
  57       10.3436
  58       10.3436
  59       10.3442
  60       10.3480
  61       10.7984
  62       10.7984
  63       10.7984
  64       10.7984
  65       11.7511
  66       11.7511
  67       12.7382
  68       12.7382
  69       12.7382
  70       12.7382
  71       13.0063
  72       13.0079
 
  0.1666667E+00  0.5000000E+00  0.0000000E+00  0.1851852E-01
   1       -2.1141
   2       -2.1141
   3       -0.5242
   4       -0.5242
   5        0.2632
   6        0.2632
   7        0.2632
   8        0.2632
   9        1.0453
  10        1.0453
  11        1.8234
  12        1.8234
  13        1.8234
  14        1.8234
  15        2.5891
  16        2.5891
  17        3.3588
  18        3.3588
  19        3.3588
  20        3.3588
  21        4.1173
  22        4.1173
  23        4.8694
  24        4.8694
  25        4.8694
  26        4.8694
  27        5.5433
  28        5.5433
  29        5.6171
  30        5.6171
  31        6.4351
  32        6.4352
  33        6.4352
  34        6.4352
  35        6.4745
  36        6.4745
  37        7.8076
  38        7.8076
  39        7.8076
  40        7.8076
  41        7.9288
  42        7.9296
  43        7.9297
  44        7.9297
  45        7.9334
  46        7.9343
  47        7.9796
  48        7.9797
  49        8.9123
  50        8.9123
  51        9.3964
  52        9.3964
  53        9.6843
  54        9.6843
  55       10.0895
  56       10.0895
  57       10.8597
  58       10.8597
  59       11.0872
  60       11.0872
  61       11.2441
  62       11.2441
  63       11.2441
  64       11.2441
  65       11.8015
  66       11.8015
  67       12.2256
  68       12.2256
  69       12.2256
  70       12.2256
  71       12.3327
  72       12.3327
 
  0.3333333E+00  0.5000000E+00  0.0000000E+00  0.1851852E-01
   1       -1.9143
   2       -1.9143
   3       -1.1181
   4       -1.1181
   5        0.4593
   6        0.4593
   7        0.4593
   8        0.4593
   9        1.2408
  10        1.2408
  11        1.2408
  12        1.2408
  13        2.0148
  14        2.0149
  15        2.7813
  16        2.7813
  17        3.5469
  18        3.5469
  19        4.2917
  20        4.2917
  21        4.2938
  22        4.2938
  23        4.2938
  24        4.2939
  25        5.0421
  26        5.0421
  27        5.0421
  28        5.0421
  29        5.8866
  30        5.8866
  31        5.8866
  32        5.8866
  33        6.5270
  34        6.5270
  35        6.6131
  36        6.6133
  37        6.6133
  38        6.6133
  39        6.6566
  40        6.6567
  41        7.3857
  42        7.3857
  43        8.0194
  44        8.0194
  45        8.8586
  46        8.8587
  47        8.8587
  48        8.8587
  49        9.0756
  50        9.0756
  51        9.1475
  52        9.1475
  53       10.3123
  54       10.3123
  55       10.4645
  56       10.4645
  57       11.0398
  58       11.0400
  59       11.0406
  60       11.0406
  61       11.0445
  62       11.0447
  63       11.7805
  64       11.7805
  65       11.8011
  66       11.8011
  67       11.9389
  68       11.9389
  69       12.5104
  70       12.5104
  71       12.7385
  72       12.7385
 
  0.5000000E+00  0.5000000E+00  0.0000000E+00  0.9259259E-02
   1       -1.5846
   2       -1.5822
   3       -1.5816
   4       -1.5792
   5        0.7817
   6        0.7839
   7        0.7851
   8        0.7854
   9        0.7857
  10        0.7860
  11        0.7872
  12        0.7894
  13        3.0970
  14        3.0987
  15        3.1005
  16        3.1009
  17        3.1010
  18        3.1014
  19        3.1032
  20        3.1049
  21        5.1482
  22        5.1499
  23        5.1507
  24        5.1513
  25        5.1514
  26        5.1520
  27        5.1527
  28        5.1544
  29        5.6517
  30        5.6522
  31        5.6529
  32        5.6539
  33        5.6540
  34        5.6550
  35        5.6557
  36        5.6562
  37        6.9572
  38        6.9600
  39        6.9605
  40        6.9633
  41        7.4752
  42        7.4756
  43        7.4775
  44        7.4779
  45        8.7979
  46        8.7991
  47        8.8001
  48        8.8013
  49        9.8986
  50        9.8993
  51        9.8997
  52        9.8997
  53        9.9010
  54        9.9010
  55        9.9014
  56        9.9021
  57       11.3450
  58       11.3487
  59       11.3505
  60       11.3508
  61       11.3509
  62       11.3512
  63       11.3530
  64       11.3567
  65       12.0683
  66       12.0703
  67       12.0720
  68       12.0720
  69       12.0725
  70       12.0725
  71       12.0742
  72       12.0761
 
  0.0000000E+00  0.1666667E+00  0.1666667E+00  0.1851852E-01
   1       -2.6485
   2       -1.0520
   3       -1.0520
   4       -0.2630
   5       -0.2596
   6        0.5241
   7        0.5241
   8        0.5247
   9        1.3029
  10        1.3049
  11        1.3063
  12        1.3083
  13        2.0810
  14        2.0810
  15        2.8474
  16        2.8490
  17        2.8508
  18        2.8509
  19        2.8523
  20        2.8543
  21        3.6164
  22        4.1678
  23        4.1678
  24        4.6380
  25        4.6380
  26        5.0471
  27        5.0471
  28        5.9410
  29        5.9445
  30        5.9894
  31        6.5269
  32        6.5269
  33        7.0906
  34        7.0906
  35        7.4462
  36        7.4463
  37        7.4640
  38        7.4641
  39        7.5112
  40        7.9214
  41        7.9214
  42        8.4443
  43        8.4443
  44        8.7914
  45        8.7935
  46        8.7953
  47        8.7974
  48        8.9076
  49        8.9076
  50        8.9088
  51        9.1258
  52        9.1258
  53        9.6218
  54        9.6218
  55       10.2317
  56       10.2318
  57       10.2704
  58       10.2711
  59       10.2744
  60       10.2751
  61       10.3748
  62       10.3749
  63       10.7003
  64       11.2177
  65       11.2177
  66       11.4893
  67       11.4893
  68       11.7790
  69       11.7791
  70       11.8440
  71       12.1718
  72       12.1719
 
  0.1666667E+00  0.1666667E+00  0.1666667E+00  0.3703704E-01
   1       -2.5816
   2       -0.9876
   3       -0.9859
   4       -0.9841
   5        0.5860
   6        0.5891
   7        0.5893
   8        0.5901
   9        0.5902
  10        0.5933
  11        2.1420
  12        2.1442
  13        2.1449
  14        2.1454
  15        2.1460
  16        2.1466
  17        2.1489
  18        3.6639
  19        3.6645
  20        3.6651
  21        3.6777
  22        3.6794
  23        3.6812
  24        5.1086
  25        5.1092
  26        5.1097
  27        5.2634
  28        5.2640
  29        5.2646
  30        6.5767
  31        6.5782
  32        6.5796
  33        6.5796
  34        6.5811
  35        6.5826
  36        6.7555
  37        8.0797
  38        8.0801
  39        8.0817
  40        8.0817
  41        8.0833
  42        8.0837
  43        8.1148
  44        8.1166
  45        8.1184
  46        8.5026
  47        8.5033
  48        8.5039
  49        9.5920
  50        9.5930
  51        9.5942
  52        9.5942
  53        9.5954
  54        9.5963
  55        9.9579
  56        9.9593
  57        9.9604
  58        9.9604
  59        9.9615
  60        9.9629
  61       11.0709
  62       11.0720
  63       11.0731
  64       11.6041
  65       11.6052
  66       11.6062
  67       11.8867
  68       11.8869
  69       11.8881
  70       11.8881
  71       11.8894
  72       11.8896
 
  0.3333333E+00  0.1666667E+00  0.1666667E+00  0.3703704E-01
   1       -2.3810
   2       -1.5819
   3       -0.7878
   4       -0.7878
   5        0.0014
   6        0.0014
   7        0.7849
   8        0.7849
   9        0.7857
  10        1.5613
  11        1.5642
  12        1.5648
  13        1.5659
  14        2.3383
  15        2.3383
  16        3.1030
  17        3.1035
  18        3.1061
  19        3.1066
  20        3.8497
  21        3.8666
  22        4.4139
  23        4.6229
  24        4.6229
  25        4.8956
  26        5.2953
  27        5.2953
  28        5.3540
  29        5.3540
  30        6.0352
  31        6.0352
  32        6.1916
  33        6.1916
  34        6.6099
  35        6.6099
  36        6.9106
  37        7.0439
  38        7.0439
  39        7.5635
  40        7.5635
  41        7.6898
  42        8.2877
  43        8.2877
  44        8.3973
  45        8.3973
  46        8.6756
  47        8.6756
  48        8.8643
  49        8.8643
  50        9.0373
  51        9.0373
  52        9.6203
  53        9.6203
  54        9.8842
  55       10.0962
  56       10.2535
  57       10.2535
  58       10.5133
  59       10.5133
  60       11.0438
  61       11.0438
  62       11.2098
  63       11.2099
  64       11.2717
  65       11.2717
  66       11.9898
  67       11.9898
  68       12.3692
  69       12.3692
  70       12.4775
  71       12.4775
  72       12.6605
 
  0.5000000E+00  0.1666667E+00  0.1666667E+00  0.1851852E-01
   1       -2.0489
   2       -2.0459
   3       -0.4609
   4       -0.4589
   5       -0.4579
   6       -0.4558
   7        1.1075
   8        1.1097
   9        1.1098
  10        1.1107
  11        1.1120
  12        1.1134
  13        2.6518
  14        2.6534
  15        2.6574
  16        2.6577
  17        2.6600
  18        2.6611
  19        4.1675
  20        4.1706
  21        4.1793
  22        4.1793
  23        4.1803
  24        4.1805
  25        5.6029
  26        5.6032
  27        5.6061
  28        5.6064
  29        5.6663
  30        5.6664
  31        5.6673
  32        5.6674
  33        5.7605
  34        5.7616
  35        7.1416
  36        7.1437
  37        7.1446
  38        7.1469
  39        7.2428
  40        7.2434
  41        7.2440
  42        7.2447
  43        8.6003
  44        8.6010
  45        8.6036
  46        8.6043
  47        8.7372
  48        8.7385
  49        8.9281
  50        8.9288
  51        8.9309
  52        8.9318
  53       10.1793
  54       10.1799
  55       10.1808
  56       10.1814
  57       10.5942
  58       10.5952
  59       10.5973
  60       10.5983
  61       11.5460
  62       11.5466
  63       11.5478
  64       11.5483
  65       11.8316
  66       11.8322
  67       11.9477
  68       11.9500
  69       11.9511
  70       11.9534
  71       12.9884
  72       13.0127
 
  0.0000000E+00  0.3333333E+00  0.1666667E+00  0.3703704E-01
   1       -2.4478
   2       -1.6483
   3       -0.8538
   4       -0.0666
   5       -0.0643
   6       -0.0621
   7        0.7179
   8        0.7200
   9        0.7225
  10        1.4969
  11        1.4989
  12        1.4996
  13        1.5021
  14        2.2724
  15        2.2758
  16        3.0407
  17        3.0420
  18        3.0444
  19        3.7859
  20        3.7896
  21        3.7928
  22        3.8033
  23        3.8067
  24        4.5625
  25        5.2334
  26        5.2941
  27        5.3874
  28        5.3907
  29        5.9754
  30        6.0224
  31        6.0258
  32        6.1712
  33        6.7597
  34        6.8766
  35        6.8802
  36        6.8994
  37        7.5056
  38        7.5092
  39        7.5900
  40        7.5936
  41        7.6289
  42        7.6929
  43        8.2367
  44        8.2405
  45        8.2745
  46        8.3599
  47        8.6232
  48        9.0784
  49        9.0822
  50        9.0909
  51        9.1833
  52        9.2841
  53        9.3550
  54        9.8224
  55        9.8243
  56       10.0431
  57       10.1327
  58       10.5527
  59       10.8309