32   
1    

1    
  0.0100000000000000   0.0000000000000000   0.0000000000000000
  -0.0753584100    0.0000000000    0.0000000000
   0.0058520200    0.0000000000   -0.0000000000
  -0.0011454400    0.0000000000    0.0000000000
  -0.0022050700    0.0000000000   -0.0000000000
  -0.0011454400    0.0000000000   -0.0000000000
  -0.0022050700    0.0000000000    0.0000000000
   0.0008172000    0.0000000000    0.0000000000
   0.0007567900    0.0000000000    0.0000000000
   0.0110980600    0.0140257700    0.0000000000
   0.0107603600   -0.0135423900   -0.0000000000
   0.0110980600   -0.0140257700    0.0000000000
   0.0107603600    0.0135423900    0.0000000000
  -0.0001178300    0.0001161000    0.0000000000
  -0.0001190200   -0.0001150500    0.0000000000
  -0.0001178300   -0.0001161000    0.0000000000
  -0.0001190200    0.0001150500    0.0000000000
   0.0110980600    0.0000000000    0.0140257700
   0.0107603600    0.0000000000   -0.0135423900
  -0.0001178300    0.0000000000    0.0001161000
  -0.0001190200    0.0000000000   -0.0001150500
   0.0110980600    0.0000000000   -0.0140257700
   0.0107603600    0.0000000000    0.0135423900
  -0.0001178300    0.0000000000   -0.0001161000
  -0.0001190200    0.0000000000    0.0001150500
  -0.0039233300   -0.0000174400   -0.0000174400
   0.0009601100    0.0000019600    0.0000019600
  -0.0039233300    0.0000174400   -0.0000174400
   0.0009601100   -0.0000019600    0.0000019600
  -0.0039233300   -0.0000174400    0.0000174400
   0.0009601100    0.0000019600   -0.0000019600
  -0.0039233300    0.0000174400    0.0000174400
   0.0009601100   -0.0000019600   -0.0000019600
