mesh: [    48,    48,    48 ]
nqpoint: 2600   
reciprocal_lattice:
- [   0.24453496,   0.00000000,   0.00000000 ] # a*
- [   0.00000000,   0.24453496,   0.00000000 ] # b*
- [   0.00000000,   0.00000000,   0.24453496 ] # c*
natom:   4      
lattice:
- [     4.089394864268570,     0.000000000000000,     0.000000000000000 ] # a
- [     0.000000000000000,     4.089394864268570,     0.000000000000000 ] # b
- [     0.000000000000000,     0.000000000000000,     4.089394864268570 ] # c
points:
- symbol: Au # 1
  coordinates: [  0.000000000000000,  0.000000000000000,  0.000000000000000 ]
  mass: 196.966569
- symbol: Au # 2
  coordinates: [  0.500000000000000,  0.500000000000000,  0.000000000000000 ]
  mass: 196.966569
- symbol: Au # 3
  coordinates: [  0.500000000000000,  0.000000000000000,  0.500000000000000 ]
  mass: 196.966569
- symbol: Au # 4
  coordinates: [  0.000000000000000,  0.500000000000000,  0.500000000000000 ]
  mass: 196.966569
phonon:
- q-position: [    0.0104167,    0.0104167,    0.0104167 ]
  weight: 8    
  band:
  - # 1
    frequency:     0.0542199031
  - # 2
    frequency:     0.0542199031
  - # 3
    frequency:     0.1584161066
  - # 4
    frequency:     2.7897577902
  - # 5
    frequency:     2.7897577902
  - # 6
    frequency:     2.7897577902
  - # 7
    frequency:     2.7924023913
  - # 8
    frequency:     2.7924023913
  - # 9
    frequency:     2.7924023913
  - # 10
    frequency:     4.6314843881
  - # 11
    frequency:     4.6314843881
  - # 12
    frequency:     4.6314843881

- q-position: [    0.0312500,    0.0104167,    0.0104167 ]
  weight: 24   
  band:
  - # 1
    frequency:     0.1110537765
  - # 2
    frequency:     0.1217840770
  - # 3
    frequency:     0.2937615221
  - # 4
    frequency:     2.7859156046
  - # 5
    frequency:     2.7883536731
  - # 6
    frequency:     2.7883536731
  - # 7
    frequency:     2.7885520386
  - # 8
    frequency:     2.7979173812
  - # 9
    frequency:     2.7979173812
  - # 10
    frequency:     4.6279157878
  - # 11
    frequency:     4.6280308671
  - # 12
    frequency:     4.6280308671

- q-position: [    0.0520833,    0.0104167,    0.0104167 ]
  weight: 24   
  band:
  - # 1
    frequency:     0.1882385149
  - # 2
    frequency:     0.1965316786
  - # 3
    frequency:     0.4516374077
  - # 4
    frequency:     2.7782428047
  - # 5
    frequency:     2.7808629696
  - # 6
    frequency:     2.7868623730
  - # 7
    frequency:     2.7868623730
  - # 8
    frequency:     2.8076028486
  - # 9
    frequency:     2.8076028486
  - # 10
    frequency:     4.6207678112
  - # 11
    frequency:     4.6211347308
  - # 12
    frequency:     4.6211347308

- q-position: [    0.0729167,    0.0104167,    0.0104167 ]
  weight: 24   
  band:
  - # 1
    frequency:     0.2663638552
  - # 2
    frequency:     0.2726520686
  - # 3
    frequency:     0.6153231455
  - # 4
    frequency:     2.7667624659
  - # 5
    frequency:     2.7693583882
  - # 6
    frequency:     2.7849386589
  - # 7
    frequency:     2.7849386589
  - # 8
    frequency:     2.8217496162
  - # 9
    frequency:     2.8217496162
  - # 10
    frequency:     4.6100190989
  - # 11
    frequency:     4.6108177669
  - # 12
    frequency:     4.6108177669

- q-position: [    0.0937500,    0.0104167,    0.0104167 ]
  weight: 24   
  band:
  - # 1
    frequency:     0.3443573316
  - # 2
    frequency:     0.3492864315
  - # 3
    frequency:     0.7805968140
  - # 4
    frequency:     2.7515090351
  - # 5
    frequency:     2.7540729285
  - # 6
    frequency:     2.7825099237
  - # 7
    frequency:     2.7825099237
  - # 8
    frequency:     2.8403504947
  - # 9
    frequency:     2.8403504947
  - # 10
    frequency:     4.5956380878
  - # 11
    frequency:     4.5971125988
  - # 12
    frequency:     4.5971125988

- q-position: [    0.1145833,    0.0104167,    0.0104167 ]
  weight: 24   
  band:
  - # 1
    frequency:     0.4222226597
  - # 2
    frequency:     0.4261928782
  - # 3
    frequency:     0.9458196568
  - # 4
    frequency:     2.7325281309
  - # 5
    frequency:     2.7350524506
  - # 6
    frequency:     2.7795835556
  - # 7
    frequency:     2.7795835556
  - # 8
    frequency:     2.8632949414
  - # 9
    frequency:     2.8632949414
  - # 10
    frequency:     4.5775835746
  - # 11
    frequency:     4.5800626166
  - # 12
    frequency:     4.5800626166

- q-position: [    0.1354167,    0.0104167,    0.0104167 ]
  weight: 24   
  band:
  - # 1
    frequency:     0.5000190430
  - # 2
    frequency:     0.5032762284
  - # 3
    frequency:     1.1101333342
  - # 4
    frequency:     2.7098762795
  - # 5
    frequency:     2.7123537687
  - # 6
    frequency:     2.7761958032
  - # 7
    frequency:     2.7761958032
  - # 8
    frequency:     2.8904226716
  - # 9
    frequency:     2.8904226716
  - # 10
    frequency:     4.5558054499
  - # 11
    frequency:     4.5597218863
  - # 12
    frequency:     4.5597218863

- q-position: [    0.1562500,    0.0104167,    0.0104167 ]
  weight: 24   
  band:
  - # 1
    frequency:     0.5777847417
  - # 2
    frequency:     0.5804870117
  - # 3
    frequency:     1.2729772256
  - # 4
    frequency:     2.6836205863
  - # 5
    frequency:     2.6860443148
  - # 6
    frequency:     2.7723976856
  - # 7
    frequency:     2.7723976856
  - # 8
    frequency:     2.9215405074
  - # 9
    frequency:     2.9215405074
  - # 10
    frequency:     4.5302455929
  - # 11
    frequency:     4.5361550405
  - # 12
    frequency:     4.5361550405

- q-position: [    0.1770833,    0.0104167,    0.0104167 ]
  weight: 24   
  band:
  - # 1
    frequency:     0.6555364890
  - # 2
    frequency:     0.6577904306
  - # 3
    frequency:     1.4339265382
  - # 4
    frequency:     2.6538383454
  - # 5
    frequency:     2.6562017394
  - # 6
    frequency:     2.7682500153
  - # 7
    frequency:     2.7682500153
  - # 8
    frequency:     2.9564302272
  - # 9
    frequency:     2.9564302272
  - # 10
    frequency:     4.5008389108
  - # 11
    frequency:     4.5094371488
  - # 12
    frequency:     4.5094371488

- q-position: [    0.1979167,    0.0104167,    0.0104167 ]
  weight: 24   
  band:
  - # 1
    frequency:     0.7332739133
  - # 2
    frequency:     0.7351543484
  - # 3
    frequency:     1.5926287062
  - # 4
    frequency:     2.6206165877
  - # 5
    frequency:     2.6229134499
  - # 6
    frequency:     2.7638209445
  - # 7
    frequency:     2.7638209445
  - # 8
    frequency:     2.9948538458
  - # 9
    frequency:     2.9948538458
  - # 10
    frequency:     4.4675145053
  - # 11
    frequency:     4.4796535742
  - # 12
    frequency:     4.4796535742

- q-position: [    0.2187500,    0.0104167,    0.0104167 ]
  weight: 24   
  band:
  - # 1
    frequency:     0.8109825376
  - # 2
    frequency:     0.8125437944
  - # 3
    frequency:     1.7487754312
  - # 4
    frequency:     2.5840515705
  - # 5
    frequency:     2.5862760912
  - # 6
    frequency:     2.7591842763
  - # 7
    frequency:     2.7591842763
  - # 8
    frequency:     3.0365579441
  - # 9
    frequency:     3.0365579441
  - # 10
    frequency:     4.4301969489
  - # 11
    frequency:     4.4468998141
  - # 12
    frequency:     4.4468998141

- q-position: [    0.2395833,    0.0104167,    0.0104167 ]
  weight: 24   
  band:
  - # 1
    frequency:     0.8886354717
  - # 2
    frequency:     0.8899181221
  - # 3
    frequency:     1.9020893843
  - # 4
    frequency:     2.5442482108
  - # 5
    frequency:     2.5463949694
  - # 6
    frequency:     2.7544180045
  - # 7
    frequency:     2.7544180045
  - # 8
    frequency:     3.0812774785
  - # 9
    frequency:     3.0812774785
  - # 10
    frequency:     4.3888076498
  - # 11
    frequency:     4.4112813310
  - # 12
    frequency:     4.4112813310

- q-position: [    0.2604167,    0.0104167,    0.0104167 ]
  weight: 24   
  band:
  - # 1
    frequency:     0.9661943504
  - # 2
    frequency:     0.9672294129
  - # 3
    frequency:     2.0523175472
  - # 4
    frequency:     2.5013194641
  - # 5
    frequency:     2.5033834217
  - # 6
    frequency:     2.7496029023
  - # 7
    frequency:     2.7496029023
  - # 8
    frequency:     3.1287391735
  - # 9
    frequency:     3.1287391735
  - # 10
    frequency:     4.3432662864
  - # 11
    frequency:     4.3729133742
  - # 12
    frequency:     4.3729133742

- q-position: [    0.2812500,    0.0104167,    0.0104167 ]
  weight: 24   
  band:
  - # 1
    frequency:     1.0436098875
  - # 2
    frequency:     1.0444215508
  - # 3
    frequency:     2.1992277864
  - # 4
    frequency:     2.4553856536
  - # 5
    frequency:     2.4573621375
  - # 6
    frequency:     2.7448211038
  - # 7
    frequency:     2.7448211038
  - # 8
    frequency:     3.1786645131
  - # 9
    frequency:     3.1786645131
  - # 10
    frequency:     4.2934922899
  - # 11
    frequency:     4.3319207962
  - # 12
    frequency:     4.3319207962

- q-position: [    0.3020833,    0.0104167,    0.0104167 ]
  weight: 24   
  band:
  - # 1
    frequency:     1.1208222591
  - # 2
    frequency:     1.1214297075
  - # 3
    frequency:     2.3426070844
  - # 4
    frequency:     2.4065737504
  - # 5
    frequency:     2.4084584306
  - # 6
    frequency:     2.7401546656
  - # 7
    frequency:     2.7401546656
  - # 8
    frequency:     3.2307723361
  - # 9
    frequency:     3.2307723361
  - # 10
    frequency:     4.2394063540
  - # 11
    frequency:     4.2884378675
  - # 12
    frequency:     4.2884378675

- q-position: [    0.3229167,    0.0104167,    0.0104167 ]
  weight: 24   
  band:
  - # 1
    frequency:     1.1977614337
  - # 2
    frequency:     1.1981801067
  - # 3
    frequency:     2.3550166111
  - # 4
    frequency:     2.3568054701
  - # 5
    frequency:     2.4822606469
  - # 6
    frequency:     2.7356841173
  - # 7
    frequency:     2.7356841173
  - # 8
    frequency:     3.2847810418
  - # 9
    frequency:     3.2847810418
  - # 10
    frequency:     4.1809319537
  - # 11
    frequency:     4.2426080919
  - # 12
    frequency:     4.2426080919

- q-position: [    0.3437500,    0.0104167,    0.0104167 ]
  weight: 24   
  band:
  - # 1
    frequency:     1.2743475157
  - # 2
    frequency:     1.2745900006
  - # 3
    frequency:     2.3008521746
  - # 4
    frequency:     2.3025414715
  - # 5
    frequency:     2.6180114730
  - # 6
    frequency:     2.7314870182
  - # 7
    frequency:     2.7314870182
  - # 8
    frequency:     3.3404104291
  - # 9
    frequency:     3.3404104291
  - # 10
    frequency:     4.1179968520
  - # 11
    frequency:     4.1945840269
  - # 12
    frequency:     4.1945840269

- q-position: [    0.3645833,    0.0104167,    0.0104167 ]
  weight: 24   
  band:
  - # 1
    frequency:     1.3504911346
  - # 2
    frequency:     1.3505678143
  - # 3
    frequency:     2.2442226244
  - # 4
    frequency:     2.2458088525
  - # 5
    frequency:     2.7276365460
  - # 6
    frequency:     2.7276365460
  - # 7
    frequency:     2.7497001624
  - # 8
    frequency:     3.3973831954
  - # 9
    frequency:     3.3973831954
  - # 10
    frequency:     4.0505345778
  - # 11
    frequency:     4.1445271137
  - # 12
    frequency:     4.1445271137

- q-position: [    0.3854167,    0.0104167,    0.0104167 ]
  weight: 24   
  band:
  - # 1
    frequency:     1.4260134320
  - # 2
    frequency:     1.4260938983
  - # 3
    frequency:     2.1852735199
  - # 4
    frequency:     2.1867533598
  - # 5
    frequency:     2.7242001418
  - # 6
    frequency:     2.7242001418
  - # 7
    frequency:     2.8771848230
  - # 8
    frequency:     3.4554261305
  - # 9
    frequency:     3.4554261305
  - # 10
    frequency:     3.9784858585
  - # 11
    frequency:     4.0926075241
  - # 12
    frequency:     4.0926075241

- q-position: [    0.4062500,    0.0104167,    0.0104167 ]
  weight: 24   
  band:
  - # 1
    frequency:     1.5008186052
  - # 2
    frequency:     1.5010489169
  - # 3
    frequency:     2.1241529026
  - # 4
    frequency:     2.1255231704
  - # 5
    frequency:     2.7212382429
  - # 6
    frequency:     2.7212382429
  - # 7
    frequency:     3.0003410014
  - # 8
    frequency:     3.5142710313
  - # 9
    frequency:     3.5142710313
  - # 10
    frequency:     3.9017999912
  - # 11
    frequency:     4.0390040391
  - # 12
    frequency:     4.0390040391

- q-position: [    0.4270833,    0.0104167,    0.0104167 ]
  weight: 24   
  band:
  - # 1
    frequency:     1.5748674646
  - # 2
    frequency:     1.5752413983
  - # 3
    frequency:     2.0610103824
  - # 4
    frequency:     2.0622679734
  - # 5
    frequency:     2.7188031291
  - # 6
    frequency:     2.7188031291
  - # 7
    frequency:     3.1190615843
  - # 8
    frequency:     3.5736553358
  - # 9
    frequency:     3.5736553358
  - # 10
    frequency:     3.8204361411
  - # 11
    frequency:     3.9839040042
  - # 12
    frequency:     3.9839040042

- q-position: [    0.4479167,    0.0104167,    0.0104167 ]
  weight: 24   
  band:
  - # 1
    frequency:     1.6480371238
  - # 2
    frequency:     1.6485493102
  - # 3
    frequency:     1.9959962117
  - # 4
    frequency:     1.9971380384
  - # 5
    frequency:     2.7169379132
  - # 6
    frequency:     2.7169379132
  - # 7
    frequency:     3.2332566374
  - # 8
    frequency:     3.6333223294
  - # 9
    frequency:     3.6333223294
  - # 10
    frequency:     3.7343645536
  - # 11
    frequency:     3.9275035485
  - # 12
    frequency:     3.9275035485

- q-position: [    0.4687500,    0.0104167,    0.0104167 ]
  weight: 24   
  band:
  - # 1
    frequency:     1.7201983606
  - # 2
    frequency:     1.7208441052
  - # 3
    frequency:     1.9292603515
  - # 4
    frequency:     1.9302832768
  - # 5
    frequency:     2.7156756979
  - # 6
    frequency:     2.7156756979
  - # 7
    frequency:     3.3428531618
  - # 8
    frequency:     3.6435676712
  - # 9
    frequency:     3.6930197781
  - # 10
    frequency:     3.6930197781
  - # 11
    frequency:     3.8700092475
  - # 12
    frequency:     3.8700092475

- q-position: [    0.4895833,    0.0104167,    0.0104167 ]
  weight: 24   
  band:
  - # 1
    frequency:     1.7912163643
  - # 2
    frequency:     1.7919915001
  - # 3
    frequency:     1.8609515392
  - # 4
    frequency:     1.8618523027
  - # 5
    frequency:     2.7150389237
  - # 6
    frequency:     2.7150389237
  - # 7
    frequency:     3.4477947520
  - # 8
    frequency:     3.5480411475
  - # 9
    frequency:     3.7524769764
  - # 10
    frequency:     3.7524769764
  - # 11
    frequency:     3.8116612708
  - # 12
    frequency:     3.8116612708

- q-position: [    0.0312500,    0.0312500,    0.0104167 ]
  weight: 24   
  band:
  - # 1
    frequency:     0.1206860142
  - # 2
    frequency:     0.1612584003
  - # 3
    frequency:     0.3939563293
  - # 4
    frequency:     2.7833200865
  - # 5
    frequency:     2.7845059370
  - # 6
    frequency:     2.7845059370
  - # 7
    frequency:     2.7940515397
  - # 8
    frequency:     2.7940515397
  - # 9
    frequency:     2.8070187403
  - # 10
    frequency:     4.6244992575
  - # 11
    frequency:     4.6244992575
  - # 12
    frequency:     4.6245706625

- q-position: [    0.0520833,    0.0312500,    0.0104167 ]
  weight: 48   
  band:
  - # 1
    frequency:     0.1769051552
  - # 2
    frequency:     0.2229646528
  - # 3
    frequency:     0.5281944269
  - # 4
    frequency:     2.7768220972
  - # 5
    frequency:     2.7788473129
  - # 6
    frequency:     2.7829928812
  - # 7
    frequency:     2.7863317021
  - # 8
    frequency:     2.8037167844
  - # 9
    frequency:     2.8196003731
  - # 10
    frequency:     4.6174250155
  - # 11
    frequency:     4.6176612413
  - # 12
    frequency:     4.6176770297

- q-position: [    0.0729167,    0.0312500,    0.0104167 ]
  weight: 48   
  band:
  - # 1
    frequency:     0.2511886904
  - # 2
    frequency:     0.2921568310
  - # 3
    frequency:     0.6759460410
  - # 4
    frequency:     2.7653253485
  - # 5
    frequency:     2.7747814860
  - # 6
    frequency:     2.7748602071
  - # 7
    frequency:     2.7810328133
  - # 8
    frequency:     2.8178371836
  - # 9
    frequency:     2.8356847543
  - # 10
    frequency:     4.6067862960
  - # 11
    frequency:     4.6073245557
  - # 12
    frequency:     4.6074707464

- q-position: [    0.0937500,    0.0312500,    0.0104167 ]
  weight: 48   
  band:
  - # 1
    frequency:     0.3295589694
  - # 2
    frequency:     0.3646032338
  - # 3
    frequency:     0.8301332806
  - # 4
    frequency:     2.7500503081
  - # 5
    frequency:     2.7594361355
  - # 6
    frequency:     2.7710670845
  - # 7
    frequency:     2.7785537490
  - # 8
    frequency:     2.8364052038
  - # 9
    frequency:     2.8554862631
  - # 10
    frequency:     4.5925508293
  - # 11
    frequency:     4.5935934738
  - # 12
    frequency:     4.5939128130

- q-position: [    0.1145833,    0.0312500,    0.0104167 ]
  weight: 48   
  band:
  - # 1
    frequency:     0.4087291092
  - # 2
    frequency:     0.4387276389
  - # 3
    frequency:     0.9873380687
  - # 4
    frequency:     2.7310428062
  - # 5
    frequency:     2.7403423046
  - # 6
    frequency:     2.7672657266
  - # 7
    frequency:     2.7755629731
  - # 8
    frequency:     2.8593107529
  - # 9
    frequency:     2.8791070825
  - # 10
    frequency:     4.5746765078
  - # 11
    frequency:     4.5765117087
  - # 12
    frequency:     4.5770463299

- q-position: [    0.1354167,    0.0312500,    0.0104167 ]
  weight: 48   
  band:
  - # 1
    frequency:     0.4879194733
  - # 2
    frequency:     0.5138359837
  - # 3
    frequency:     1.1456317705
  - # 4
    frequency:     2.7083596088
  - # 5
    frequency:     2.7175577714
  - # 6
    frequency:     2.7633421678
  - # 7
    frequency:     2.7720962952
  - # 8
    frequency:     2.8863943835
  - # 9
    frequency:     2.9065407361
  - # 10
    frequency:     4.5531121513
  - # 11
    frequency:     4.5561337257
  - # 12
    frequency:     4.5569250034

- q-position: [    0.1562500,    0.0312500,    0.0104167 ]
  weight: 48   
  band:
  - # 1
    frequency:     0.5669546395
  - # 2
    frequency:     0.5895767186
  - # 3
    frequency:     1.3038037631
  - # 4
    frequency:     2.6820680736
  - # 5
    frequency:     2.6911510857
  - # 6
    frequency:     2.7592468138
  - # 7
    frequency:     2.7682041249
  - # 8
    frequency:     2.9174639590
  - # 9
    frequency:     2.9376985653
  - # 10
    frequency:     4.5277984377
  - # 11
    frequency:     4.5325246285
  - # 12
    frequency:     4.5336130360

- q-position: [    0.1770833,    0.0312500,    0.0104167 ]
  weight: 48   
  band:
  - # 1
    frequency:     0.6458112303
  - # 2
    frequency:     0.6657480646
  - # 3
    frequency:     1.4610228114
  - # 4
    frequency:     2.6522457403
  - # 5
    frequency:     2.6612011538
  - # 6
    frequency:     2.7549738900
  - # 7
    frequency:     2.7639465691
  - # 8
    frequency:     2.9523024121
  - # 9
    frequency:     2.9724329869
  - # 10
    frequency:     4.4986689816
  - # 11
    frequency:     4.5057600276
  - # 12
    frequency:     4.5071849999

- q-position: [    0.1979167,    0.0312500,    0.0104167 ]
  weight: 48   
  band:
  - # 1
    frequency:     0.7244975599
  - # 2
    frequency:     0.7422188150
  - # 3
    frequency:     1.6166733325
  - # 4
    frequency:     2.6189798584
  - # 5
    frequency:     2.6277967619
  - # 6
    frequency:     2.7505469818
  - # 7
    frequency:     2.7593910247
  - # 8
    frequency:     2.9906729649
  - # 9
    frequency:     3.0105546229
  - # 10
    frequency:     4.4656515430
  - # 11
    frequency:     4.4759258914
  - # 12
    frequency:     4.4777256937

- q-position: [    0.2187500,    0.0312500,    0.0104167 ]
  weight: 48   
  band:
  - # 1
    frequency:     0.8030194069
  - # 2
    frequency:     0.8188918882
  - # 3
    frequency:     1.7702710083
  - # 4
    frequency:     2.5823668535
  - # 5
    frequency:     2.5910360441
  - # 6
    frequency:     2.7460093535
  - # 7
    frequency:     2.7546105265
  - # 8
    frequency:     3.0323234125
  - # 9
    frequency:     3.0518444826
  - # 10
    frequency:     4.4286693470
  - # 11
    frequency:     4.4431183838
  - # 12
    frequency:     4.4453299864

- q-position: [    0.2395833,    0.0312500,    0.0104167 ]
  weight: 48   
  band:
  - # 1
    frequency:     0.8813704263
  - # 2
    frequency:     0.8956859665
  - # 3
    frequency:     1.9214170221
  - # 4
    frequency:     2.5425117349
  - # 5
    frequency:     2.5510258963
  - # 6
    frequency:     2.7414174164
  - # 7
    frequency:     2.7496823206
  - # 8
    frequency:     3.0769898937
  - # 9
    frequency:     3.0960627269
  - # 10
    frequency:     4.3876424916
  - # 11
    frequency:     4.4074436911
  - # 12
    frequency:     4.4101026495

- q-position: [    0.2604167,    0.0312500,    0.0104167 ]
  weight: 48   
  band:
  - # 1
    frequency:     0.9595299992
  - # 2
    frequency:     0.9725255592
  - # 3
    frequency:     2.0697721615
  - # 4
    frequency:     2.4995274481
  - # 5
    frequency:     2.5078813414
  - # 6
    frequency:     2.7368361387
  - # 7
    frequency:     2.7446864875
  - # 8
    frequency:     3.1244002480
  - # 9
    frequency:     3.1429551472
  - # 10
    frequency:     4.3424894248
  - # 11
    frequency:     4.3690178405
  - # 12
    frequency:     4.3721581830

- q-position: [    0.2812500,    0.0312500,    0.0104167 ]
  weight: 48   
  band:
  - # 1
    frequency:     1.0374633319
  - # 2
    frequency:     1.0493353256
  - # 3
    frequency:     2.2150416309
  - # 4
    frequency:     2.4535341744
  - # 5
    frequency:     2.4617248492
  - # 6
    frequency:     2.7323356328
  - # 7
    frequency:     2.7397045578
  - # 8
    frequency:     3.1742769762
  - # 9
    frequency:     3.1922580859
  - # 10
    frequency:     4.2931284680
  - # 11
    frequency:     4.3279665164
  - # 12
    frequency:     4.3316206369

- q-position: [    0.3020833,    0.0312500,    0.0104167 ]
  weight: 48   
  band:
  - # 1
    frequency:     1.1151221851
  - # 2
    frequency:     1.1260367106
  - # 3
    frequency:     2.3569658714
  - # 4
    frequency:     2.4046585817
  - # 5
    frequency:     2.4126856133
  - # 6
    frequency:     2.7279884532
  - # 7
    frequency:     2.7348181076
  - # 8
    frequency:     3.2263398046
  - # 9
    frequency:     3.2437022492
  - # 10
    frequency:     4.2394793654
  - # 11
    frequency:     4.2844248769
  - # 12
    frequency:     4.2886234335

- q-position: [    0.3229167,    0.0312500,    0.0104167 ]
  weight: 48   
  band:
  - # 1
    frequency:     1.1924457372
  - # 2
    frequency:     1.2025459205
  - # 3
    frequency:     2.3530330297
  - # 4
    frequency:     2.3608987919
  - # 5
    frequency:     2.4953148659
  - # 6
    frequency:     2.7238673407
  - # 7
    frequency:     2.7301073426
  - # 8
    frequency:     3.2803078586
  - # 9
    frequency:     3.2970156925
  - # 10
    frequency:     4.1814648407
  - # 11
    frequency:     4.2385373802
  - # 12
    frequency:     4.2433091974

- q-position: [    0.3437500,    0.0312500,    0.0104167 ]
  weight: 48   
  band:
  - # 1
    frequency:     1.2693614495
  - # 2
    frequency:     1.2787727215
  - # 3
    frequency:     2.2987947355
  - # 4
    frequency:     2.3065047128
  - # 5
    frequency:     2.6298845172
  - # 6
    frequency:     2.7200432598
  - # 7
    frequency:     2.7256496876
  - # 8
    frequency:     3.3359014591
  - # 9
    frequency:     3.3519261559
  - # 10
    frequency:     4.1190121401
  - # 11
    frequency:     4.1904576306
  - # 12
    frequency:     4.1958296027

- q-position: [    0.3645833,    0.0312500,    0.0104167 ]
  weight: 48   
  band:
  - # 1
    frequency:     1.3457859147
  - # 2
    frequency:     1.3546197744
  - # 3
    frequency:     2.2420849025
  - # 4
    frequency:     2.2496480478
  - # 5
    frequency:     2.7165836510
  - # 6
    frequency:     2.7215184047
  - # 7
    frequency:     2.7604942828
  - # 8
    frequency:     3.3928435557
  - # 9
    frequency:     3.4081628607
  - # 10
    frequency:     4.0520545470
  - # 11
    frequency:     4.1403482669
  - # 12
    frequency:     4.1463452561

- q-position: [    0.3854167,    0.0312500,    0.0104167 ]
  weight: 48   
  band:
  - # 1
    frequency:     1.4216256980
  - # 2
    frequency:     1.4299823405
  - # 3
    frequency:     2.1830478218
  - # 4
    frequency:     2.1904769602
  - # 5
    frequency:     2.7135508605
  - # 6
    frequency:     2.7177812666
  - # 7
    frequency:     2.8869855743
  - # 8
    frequency:     3.4508607941
  - # 9
    frequency:     3.4654578199
  - # 10
    frequency:     3.9805328514
  - # 11
    frequency:     4.0883809420
  - # 12
    frequency:     4.0950256587

- q-position: [    0.4062500,    0.0312500,    0.0104167 ]
  weight: 48   
  band:
  - # 1
    frequency:     1.4967781807
  - # 2
    frequency:     1.5047482608
  - # 3
    frequency:     2.1218299503
  - # 4
    frequency:     2.1291422254
  - # 5
    frequency:     2.7110007347
  - # 6
    frequency:     2.7144993123
  - # 7
    frequency:     3.0092206201
  - # 8
    frequency:     3.5096841490
  - # 9
    frequency:     3.5235466041
  - # 10
    frequency:     3.9043967603
  - # 11
    frequency:     4.0347365299
  - # 12
    frequency:     4.0420493564

- q-position: [    0.4270833,    0.0312500,    0.0104167 ]
  weight: 48   
  band:
  - # 1
    frequency:     1.5711324077
  - # 2
    frequency:     1.5787981543
  - # 3
    frequency:     2.0585789771
  - # 4
    frequency:     2.0657963305
  - # 5
    frequency:     2.7089813813
  - # 6
    frequency:     2.7117257145
  - # 7
    frequency:     3.1270815980
  - # 8
    frequency:     3.5690488085
  - # 9
    frequency:     3.5821681848
  - # 10
    frequency:     3.8236062388
  - # 11
    frequency:     3.9796060072
  - # 12
    frequency:     3.9876046337

- q-position: [    0.4479167,    0.0312500,    0.0104167 ]
  weight: 48   
  band:
  - # 1
    frequency:     1.6445699353
  - # 2
    frequency:     1.6520057989
  - # 3
    frequency:     1.9934428855
  - # 4
    frequency:     2.0005925511
  - # 5
    frequency:     2.7075321093
  - # 6
    frequency:     2.7095047840
  - # 7
    frequency:     3.2404699128
  - # 8
    frequency:     3.6286919055
  - # 9
    frequency:     3.6410619801
  - # 10
    frequency:     3.7381327713
  - # 11
    frequency:     3.9231939335
  - # 12
    frequency:     3.9318921968

- q-position: [    0.4687500,    0.0312500,    0.0104167 ]
  weight: 48   
  band:
  - # 1
    frequency:     1.7169656733
  - # 2
    frequency:     1.7242386737
  - # 3
    frequency:     1.9265690221
  - # 4
    frequency:     1.9336840104
  - # 5
    frequency:     2.7066825584
  - # 6
    frequency:     2.7078711386
  - # 7
    frequency:     3.3493055370
  - # 8
    frequency:     3.6479605359
  - # 9
    frequency:     3.6883394310
  - # 10
    frequency:     3.6999493477
  - # 11
    frequency:     3.8657373342
  - # 12
    frequency:     3.8751385429

- q-position: [    0.4895833,    0.0312500,    0.0104167 ]
  weight: 48   
  band:
  - # 1
    frequency:     1.7881887185
  - # 2
    frequency:     1.7953586382
  - # 3
    frequency:     1.8581031823
  - # 4
    frequency:     1.8652227242
  - # 5
    frequency:     2.7064520336
  - # 6
    frequency:     2.7068490564
  - # 7
    frequency:     3.4535263572
  - # 8
    frequency:     3.5530874892
  - # 9
    frequency:     3.7475574127
  - # 10
    frequency:     3.7582438317
  - # 11
    frequency:     3.8077957113
  - # 12
    frequency:     3.8177449605

- q-position: [    0.0520833,    0.0520833,    0.0104167 ]
  weight: 24   
  band:
  - # 1
    frequency:     0.1948309098
  - # 2
    frequency:     0.2708006388
  - # 3
    frequency:     0.6420581981
  - # 4
    frequency:     2.7705607874
  - # 5
    frequency:     2.7752657893
  - # 6
    frequency:     2.7752657893
  - # 7
    frequency:     2.7959567981
  - # 8
    frequency:     2.7959567981
  - # 9
    frequency:     2.8358268744
  - # 10
    frequency:     4.6107254143
  - # 11
    frequency:     4.6107500959
  - # 12
    frequency:     4.6107500959

- q-position: [    0.0729167,    0.0520833,    0.0104167 ]
  weight: 48   
  band:
  - # 1
    frequency:     0.2467591872
  - # 2
    frequency:     0.3299307127
  - # 3
    frequency:     0.7733716900
  - # 4
    frequency:     2.7630321473
  - # 5
    frequency:     2.7637047999
  - # 6
    frequency:     2.7732335300
  - # 7
    frequency:     2.7843470950
  - # 8
    frequency:     2.8100248164
  - # 9
    frequency:     2.8552037059
  - # 10
    frequency:     4.6003310849
  - # 11
    frequency:     4.6003495281
  - # 12
    frequency:     4.6007643734

- q-position: [    0.0937500,    0.0520833,    0.0104167 ]
  weight: 48   
  band:
  - # 1
    frequency:     0.3157926127
  - # 2
    frequency:     0.3953246804
  - # 3
    frequency:     0.9142056853
  - # 4
    frequency:     2.7483452669
  - # 5
    frequency:     2.7562213479
  - # 6
    frequency:     2.7689237860
  - # 7
    frequency:     2.7706546193
  - # 8
    frequency:     2.8285275437
  - # 9
    frequency:     2.8776984507
  - # 10
    frequency:     4.5863862712
  - # 11
    frequency:     4.5865669370
  - # 12
    frequency:     4.5874997718

- q-position: [    0.1145833,    0.0520833,    0.0104167 ]
  weight: 48   
  band:
  - # 1
    frequency:     0.3916451420
  - # 2
    frequency:     0.4643802105
  - # 3
    frequency:     1.0605359782
  - # 4
    frequency:     2.7292339559
  - # 5
    frequency:     2.7497346555
  - # 6
    frequency:     2.7499705964
  - # 7
    frequency:     2.7675361960
  - # 8
    frequency:     2.8513557924
  - # 9
    frequency:     2.9033749370
  - # 10
    frequency:     4.5688716859
  - # 11
    frequency:     4.5694219962
  - # 12
    frequency:     4.5709987504

- q-position: [    0.1354167,    0.0520833,    0.0104167 ]
  weight: 48   
  band:
  - # 1
    frequency:     0.4701093174