<?xml version="1.0" encoding="ISO-8859-1"?>
<modeling>
 <generator>
  <i name="program" type="string">vasp</i>
  <i name="version" type="string">4.6.28 </i>
  <i name="subversion" type="string">25Jul05 complex  parallel</i>
  <i name="platform" type="string">LinuxIFC</i>
  <i name="date" type="string">2017 01 13</i>
  <i name="time" type="string">01:33:04</i>
 </generator>
 <incar>
  <i type="string" name="PREC">accurate</i>
  <i type="int" name="IALGO">    38</i>
  <i type="logical" name="ADDGRID"> T  </i>
  <i name="EDIFF">      0.00000001</i>
  <i type="int" name="IBRION">    -1</i>
  <i name="ENCUT">    750.00000000</i>
  <i type="logical" name="LREAL"> F  </i>
  <i type="int" name="ISMEAR">     0</i>
  <i name="SIGMA">      0.01000000</i>
  <i type="logical" name="LWAVE"> F  </i>
  <i type="logical" name="LCHARG"> F  </i>
 </incar>
 <kpoints>
  <generation param="Gamma">
   <v type="int" name="divisions">      12      12      12</v>
   <v name="usershift">      0.00000000      0.00000000      0.00000000</v>
   <v name="genvec1">      0.08333333      0.00000000      0.00000000</v>
   <v name="genvec2">      0.00000000      0.08333333      0.00000000</v>
   <v name="genvec3">      0.00000000      0.00000000      0.08333333</v>
   <v name="shift">      0.00000000      0.00000000      0.00000000</v>
  </generation>
  <varray name="kpointlist" >
   <v>       0.00000000      0.00000000      0.00000000</v>
   <v>       0.08333333      0.00000000      0.00000000</v>
   <v>       0.16666667      0.00000000      0.00000000</v>
   <v>       0.25000000      0.00000000      0.00000000</v>
   <v>       0.33333333      0.00000000      0.00000000</v>
   <v>       0.41666667      0.00000000      0.00000000</v>
   <v>       0.50000000      0.00000000      0.00000000</v>
   <v>       0.00000000      0.08333333      0.00000000</v>
   <v>       0.08333333      0.08333333      0.00000000</v>
   <v>       0.16666667      0.08333333      0.00000000</v>
   <v>       0.25000000      0.08333333      0.00000000</v>
   <v>       0.33333333      0.08333333      0.00000000</v>
   <v>       0.41666667      0.08333333      0.00000000</v>
   <v>       0.50000000      0.08333333      0.00000000</v>
   <v>       0.00000000      0.16666667      0.00000000</v>
   <v>       0.08333333      0.16666667      0.00000000</v>
   <v>       0.16666667      0.16666667      0.00000000</v>
   <v>       0.25000000      0.16666667      0.00000000</v>
   <v>       0.33333333      0.16666667      0.00000000</v>
   <v>       0.41666667      0.16666667      0.00000000</v>
   <v>       0.50000000      0.16666667      0.00000000</v>
   <v>       0.00000000      0.25000000      0.00000000</v>
   <v>       0.08333333      0.25000000      0.00000000</v>
   <v>       0.16666667      0.25000000      0.00000000</v>
   <v>       0.25000000      0.25000000      0.00000000</v>
   <v>       0.33333333      0.25000000      0.00000000</v>
   <v>       0.41666667      0.25000000      0.00000000</v>
   <v>       0.50000000      0.25000000      0.00000000</v>
   <v>       0.00000000      0.33333333      0.00000000</v>
   <v>       0.08333333      0.33333333      0.00000000</v>
   <v>       0.16666667      0.33333333      0.00000000</v>
   <v>       0.25000000      0.33333333      0.00000000</v>
   <v>       0.33333333      0.33333333      0.00000000</v>
   <v>       0.41666667      0.33333333      0.00000000</v>
   <v>       0.50000000      0.33333333      0.00000000</v>
   <v>       0.00000000      0.41666667      0.00000000</v>
   <v>       0.08333333      0.41666667      0.00000000</v>
   <v>       0.16666667      0.41666667      0.00000000</v>
   <v>       0.25000000      0.41666667      0.00000000</v>
   <v>       0.33333333      0.41666667      0.00000000</v>
   <v>       0.41666667      0.41666667      0.00000000</v>
   <v>       0.50000000      0.41666667      0.00000000</v>
   <v>       0.00000000      0.50000000      0.00000000</v>
   <v>       0.08333333      0.50000000      0.00000000</v>
   <v>       0.16666667      0.50000000      0.00000000</v>
   <v>       0.25000000      0.50000000      0.00000000</v>
   <v>       0.33333333      0.50000000      0.00000000</v>
   <v>       0.41666667      0.50000000      0.00000000</v>
   <v>       0.50000000      0.50000000      0.00000000</v>
   <v>       0.00000000      0.08333333      0.08333333</v>
   <v>       0.08333333      0.08333333      0.08333333</v>
   <v>       0.16666667      0.08333333      0.08333333</v>
   <v>       0.25000000      0.08333333      0.08333333</v>
   <v>       0.33333333      0.08333333      0.08333333</v>
   <v>       0.41666667      0.08333333      0.08333333</v>
   <v>       0.50000000      0.08333333      0.08333333</v>
   <v>       0.00000000      0.16666667      0.08333333</v>
   <v>       0.08333333      0.16666667      0.08333333</v>
   <v>       0.16666667      0.16666667      0.08333333</v>
   <v>       0.25000000      0.16666667      0.08333333</v>
   <v>       0.33333333      0.16666667      0.08333333</v>
   <v>       0.41666667      0.16666667      0.08333333</v>
   <v>       0.50000000      0.16666667      0.08333333</v>
   <v>       0.00000000      0.25000000      0.08333333</v>
   <v>       0.08333333      0.25000000      0.08333333</v>
   <v>       0.16666667      0.25000000      0.08333333</v>
   <v>       0.25000000      0.25000000      0.08333333</v>
   <v>       0.33333333      0.25000000      0.08333333</v>
   <v>       0.41666667      0.25000000      0.08333333</v>
   <v>       0.50000000      0.25000000      0.08333333</v>
   <v>       0.00000000      0.33333333      0.08333333</v>
   <v>       0.08333333      0.33333333      0.08333333</v>
   <v>       0.16666667      0.33333333      0.08333333</v>
   <v>       0.25000000      0.33333333      0.08333333</v>
   <v>       0.33333333      0.33333333      0.08333333</v>
   <v>       0.41666667      0.33333333      0.08333333</v>
   <v>       0.50000000      0.33333333      0.08333333</v>
   <v>       0.00000000      0.41666667      0.08333333</v>
   <v>       0.08333333      0.41666667      0.08333333</v>
   <v>       0.16666667      0.41666667      0.08333333</v>
   <v>       0.25000000      0.41666667      0.08333333</v>
   <v>       0.33333333      0.41666667      0.08333333</v>
   <v>       0.41666667      0.41666667      0.08333333</v>
   <v>       0.50000000      0.41666667      0.08333333</v>
   <v>       0.00000000      0.50000000      0.08333333</v>
   <v>       0.08333333      0.50000000      0.08333333</v>
   <v>       0.16666667      0.50000000      0.08333333</v>
   <v>       0.25000000      0.50000000      0.08333333</v>
   <v>       0.33333333      0.50000000      0.08333333</v>
   <v>       0.41666667      0.50000000      0.08333333</v>
   <v>       0.50000000      0.50000000      0.08333333</v>
   <v>       0.00000000      0.16666667      0.16666667</v>
   <v>       0.08333333      0.16666667      0.16666667</v>
   <v>       0.16666667      0.16666667      0.16666667</v>
   <v>       0.25000000      0.16666667      0.16666667</v>
   <v>       0.33333333      0.16666667      0.16666667</v>
   <v>       0.41666667      0.16666667      0.16666667</v>
   <v>       0.50000000      0.16666667      0.16666667</v>
   <v>       0.00000000      0.25000000      0.16666667</v>
   <v>       0.08333333      0.25000000      0.16666667</v>
   <v>       0.16666667      0.25000000      0.16666667</v>
   <v>       0.25000000      0.25000000      0.16666667</v>
   <v>       0.33333333      0.25000000      0.16666667</v>
   <v>       0.41666667      0.25000000      0.16666667</v>
   <v>       0.50000000      0.25000000      0.16666667</v>
   <v>       0.00000000      0.33333333      0.16666667</v>
   <v>       0.08333333      0.33333333      0.16666667</v>
   <v>       0.16666667      0.33333333      0.16666667</v>
   <v>       0.25000000      0.33333333      0.16666667</v>
   <v>       0.33333333      0.33333333      0.16666667</v>
   <v>       0.41666667      0.33333333      0.16666667</v>
   <v>       0.50000000      0.33333333      0.16666667</v>
   <v>       0.00000000      0.41666667      0.16666667</v>
   <v>       0.08333333      0.41666667      0.16666667</v>
   <v>       0.16666667      0.41666667      0.16666667</v>
   <v>       0.25000000      0.41666667      0.16666667</v>
   <v>       0.33333333      0.41666667      0.16666667</v>
   <v>       0.41666667      0.41666667      0.16666667</v>
   <v>       0.50000000      0.41666667      0.16666667</v>
   <v>       0.00000000      0.50000000      0.16666667</v>
   <v>       0.08333333      0.50000000      0.16666667</v>
   <v>       0.16666667      0.50000000      0.16666667</v>
   <v>       0.25000000      0.50000000      0.16666667</v>
   <v>       0.33333333      0.50000000      0.16666667</v>
   <v>       0.41666667      0.50000000      0.16666667</v>
   <v>       0.50000000      0.50000000      0.16666667</v>
   <v>       0.00000000      0.25000000      0.25000000</v>
   <v>       0.08333333      0.25000000      0.25000000</v>
   <v>       0.16666667      0.25000000      0.25000000</v>
   <v>       0.25000000      0.25000000      0.25000000</v>
   <v>       0.33333333      0.25000000      0.25000000</v>
   <v>       0.41666667      0.25000000      0.25000000</v>
   <v>       0.50000000      0.25000000      0.25000000</v>
   <v>       0.00000000      0.33333333      0.25000000</v>
   <v>       0.08333333      0.33333333      0.25000000</v>
   <v>       0.16666667      0.33333333      0.25000000</v>
   <v>       0.25000000      0.33333333      0.25000000</v>
   <v>       0.33333333      0.33333333      0.25000000</v>
   <v>       0.41666667      0.33333333      0.25000000</v>
   <v>       0.50000000      0.33333333      0.25000000</v>
   <v>       0.00000000      0.41666667      0.25000000</v>
   <v>       0.08333333      0.41666667      0.25000000</v>
   <v>       0.16666667      0.41666667      0.25000000</v>
   <v>       0.25000000      0.41666667      0.25000000</v>
   <v>       0.33333333      0.41666667      0.25000000</v>
   <v>       0.41666667      0.41666667      0.25000000</v>
   <v>       0.50000000      0.41666667      0.25000000</v>
   <v>       0.00000000      0.50000000      0.25000000</v>
   <v>       0.08333333      0.50000000      0.25000000</v>
   <v>       0.16666667      0.50000000      0.25000000</v>
   <v>       0.25000000      0.50000000      0.25000000</v>
   <v>       0.33333333      0.50000000      0.25000000</v>
   <v>       0.41666667      0.50000000      0.25000000</v>
   <v>       0.50000000      0.50000000      0.25000000</v>
   <v>       0.00000000      0.33333333      0.33333333</v>
   <v>       0.08333333      0.33333333      0.33333333</v>
   <v>       0.16666667      0.33333333      0.33333333</v>
   <v>       0.25000000      0.33333333      0.33333333</v>
   <v>       0.33333333      0.33333333      0.33333333</v>
   <v>       0.41666667      0.33333333      0.33333333</v>
   <v>       0.50000000      0.33333333      0.33333333</v>
   <v>       0.00000000      0.41666667      0.33333333</v>
   <v>       0.08333333      0.41666667      0.33333333</v>
   <v>       0.16666667      0.41666667      0.33333333</v>
   <v>       0.25000000      0.41666667      0.33333333</v>
   <v>       0.33333333      0.41666667      0.33333333</v>
   <v>       0.41666667      0.41666667      0.33333333</v>
   <v>       0.50000000      0.41666667      0.33333333</v>
   <v>       0.00000000      0.50000000      0.33333333</v>
   <v>       0.08333333      0.50000000      0.33333333</v>
   <v>       0.16666667      0.50000000      0.33333333</v>
   <v>       0.25000000      0.50000000      0.33333333</v>
   <v>       0.33333333      0.50000000      0.33333333</v>
   <v>       0.41666667      0.50000000      0.33333333</v>
   <v>       0.50000000      0.50000000      0.33333333</v>
   <v>       0.00000000      0.41666667      0.41666667</v>
   <v>       0.08333333      0.41666667      0.41666667</v>
   <v>       0.16666667      0.41666667      0.41666667</v>
   <v>       0.25000000      0.41666667      0.41666667</v>
   <v>       0.33333333      0.41666667      0.41666667</v>
   <v>       0.41666667      0.41666667      0.41666667</v>
   <v>       0.50000000      0.41666667      0.41666667</v>
   <v>       0.00000000      0.50000000      0.41666667</v>
   <v>       0.08333333      0.50000000      0.41666667</v>
   <v>       0.16666667      0.50000000      0.41666667</v>
   <v>       0.25000000      0.50000000      0.41666667</v>
   <v>       0.33333333      0.50000000      0.41666667</v>
   <v>       0.41666667      0.50000000      0.41666667</v>
   <v>       0.50000000      0.50000000      0.41666667</v>
   <v>       0.00000000      0.50000000      0.50000000</v>
   <v>       0.08333333      0.50000000      0.50000000</v>
   <v>       0.16666667      0.50000000      0.50000000</v>
   <v>       0.25000000      0.50000000      0.50000000</v>
   <v>       0.33333333      0.50000000      0.50000000</v>
   <v>       0.41666667      0.50000000      0.50000000</v>
   <v>       0.50000000      0.50000000      0.50000000</v>
  </varray>
  <varray name="weights" >
   <v>       0.00057870</v>
   <v>       0.00115741</v>
   <v>       0.00115741</v>
   <v>       0.00115741</v>
   <v>       0.00115741</v>
   <v>       0.00115741</v>
   <v>       0.00057870</v>
   <v>       0.00231481</v>
   <v>       0.00462963</v>
   <v>       0.00462963</v>
   <v>       0.00462963</v>
   <v>       0.00462963</v>
   <v>       0.00462963</v>
   <v>       0.00231481</v>
   <v>       0.00231481</v>
   <v>       0.00462963</v>
   <v>       0.00462963</v>
   <v>       0.00462963</v>
   <v>       0.00462963</v>
   <v>       0.00462963</v>
   <v>       0.00231481</v>
   <v>       0.00231481</v>
   <v>       0.00462963</v>
   <v>       0.00462963</v>
   <v>       0.00462963</v>
   <v>       0.00462963</v>
   <v>       0.00462963</v>
   <v>       0.00231481</v>
   <v>       0.00231481</v>
   <v>       0.00462963</v>
   <v>       0.00462963</v>
   <v>       0.00462963</v>
   <v>       0.00462963</v>
   <v>       0.00462963</v>
   <v>       0.00231481</v>
   <v>       0.00231481</v>
   <v>       0.00462963</v>
   <v>       0.00462963</v>
   <v>       0.00462963</v>
   <v>       0.00462963</v>
   <v>       0.00462963</v>
   <v>       0.00231481</v>
   <v>       0.00115741</v>
   <v>       0.00231481</v>
   <v>       0.00231481</v>
   <v>       0.00231481</v>
   <v>       0.00231481</v>
   <v>       0.00231481</v>
   <v>       0.00115741</v>
   <v>       0.00231481</v>
   <v>       0.00462963</v>
   <v>       0.00462963</v>
   <v>       0.00462963</v>
   <v>       0.00462963</v>
   <v>       0.00462963</v>
   <v>       0.00231481</v>
   <v>       0.00462963</v>
   <v>       0.00925926</v>
   <v>       0.00925926</v>
   <v>       0.00925926</v>
   <v>       0.00925926</v>
   <v>       0.00925926</v>
   <v>       0.00462963</v>
   <v>       0.00462963</v>
   <v>       0.00925926</v>
   <v>       0.00925926</v>
   <v>       0.00925926</v>
   <v>       0.00925926</v>
   <v>       0.00925926</v>
   <v>       0.00462963</v>
   <v>       0.00462963</v>
   <v>       0.00925926</v>
   <v>       0.00925926</v>
   <v>       0.00925926</v>
   <v>       0.00925926</v>
   <v>       0.00925926</v>
   <v>       0.00462963</v>
   <v>       0.00462963</v>
   <v>       0.00925926</v>
   <v>       0.00925926</v>
   <v>       0.00925926</v>
   <v>       0.00925926</v>
   <v>       0.00925926</v>
   <v>       0.00462963</v>
   <v>       0.00231481</v>
   <v>       0.00462963</v>
   <v>       0.00462963</v>
   <v>       0.00462963</v>
   <v>       0.00462963</v>
   <v>       0.00462963</v>
   <v>       0.00231481</v>
   <v>       0.00231481</v>
   <v>       0.00462963</v>
   <v>       0.00462963</v>
   <v>       0.00462963</v>
   <v>       0.00462963</v>
   <v>       0.00462963</v>
   <v>       0.00231481</v>
   <v>       0.00462963</v>
   <v>       0.00925926</v>
   <v>       0.00925926</v>
   <v>       0.00925926</v>
   <v>       0.00925926</v>
   <v>       0.00925926</v>
   <v>       0.00462963</v>
   <v>       0.00462963</v>
   <v>       0.00925926</v>
   <v>       0.00925926</v>
   <v>       0.00925926</v>
   <v>       0.00925926</v>
   <v>       0.00925926</v>
   <v>       0.00462963</v>
   <v>       0.00462963</v>
   <v>       0.00925926</v>
   <v>       0.00925926</v>
   <v>       0.00925926</v>
   <v>       0.00925926</v>
   <v>       0.00925926</v>
   <v>       0.00462963</v>
   <v>       0.00231481</v>
   <v>       0.00462963</v>
   <v>       0.00462963</v>
   <v>       0.00462963</v>
   <v>       0.00462963</v>
   <v>       0.00462963</v>
   <v>       0.00231481</v>
   <v>       0.00231481</v>
   <v>       0.00462963</v>
   <v>       0.00462963</v>
   <v>       0.00462963</v>
   <v>       0.00462963</v>
   <v>       0.00462963</v>
   <v>       0.00231481</v>
   <v>       0.00462963</v>
   <v>       0.00925926</v>
   <v>       0.00925926</v>
   <v>       0.00925926</v>
   <v>       0.00925926</v>
   <v>       0.00925926</v>
   <v>       0.00462963</v>
   <v>       0.00462963</v>
   <v>       0.00925926</v>
   <v>       0.00925926</v>
   <v>       0.00925926</v>
   <v>       0.00925926</v>
   <v>       0.00925926</v>
   <v>       0.00462963</v>
   <v>       0.00231481</v>
   <v>       0.00462963</v>
   <v>       0.00462963</v>
   <v>       0.00462963</v>
   <v>       0.00462963</v>
   <v>       0.00462963</v>
   <v>       0.00231481</v>
   <v>       0.00231481</v>
   <v>       0.00462963</v>
   <v>       0.00462963</v>
   <v>       0.00462963</v>
   <v>       0.00462963</v>
   <v>       0.00462963</v>
   <v>       0.00231481</v>
   <v>       0.00462963</v>
   <v>       0.00925926</v>
   <v>       0.00925926</v>
   <v>       0.00925926</v>
   <v>       0.00925926</v>
   <v>       0.00925926</v>
   <v>       0.00462963</v>
   <v>       0.00231481</v>
   <v>       0.00462963</v>
   <v>       0.00462963</v>
   <v>       0.00462963</v>
   <v>       0.00462963</v>
   <v>       0.00462963</v>
   <v>       0.00231481</v>
   <v>       0.00231481</v>
   <v>       0.00462963</v>
   <v>       0.00462963</v>
   <v>       0.00462963</v>
   <v>       0.00462963</v>
   <v>       0.00462963</v>
   <v>       0.00231481</v>
   <v>       0.00231481</v>
   <v>       0.00462963</v>
   <v>       0.00462963</v>
   <v>       0.00462963</v>
   <v>       0.00462963</v>
   <v>       0.00462963</v>
   <v>       0.00231481</v>
   <v>       0.00057870</v>
   <v>       0.00115741</v>
   <v>       0.00115741</v>
   <v>       0.00115741</v>
   <v>       0.00115741</v>
   <v>       0.00115741</v>
   <v>       0.00057870</v>
  </varray>
 </kpoints>
 <parameters>
  <separator name="general" >
   <i type="string" name="SYSTEM">unknown system</i>
   <i type="logical" name="LCOMPAT"> F  </i>
  </separator>
  <separator name="electronic" >
   <i type="string" name="PREC">accura</i>
   <i name="ENMAX">    750.00000000</i>
   <i name="ENAUG">    356.67000000</i>
   <i name="EDIFF">      0.00000001</i>
   <i type="int" name="IALGO">    38</i>
   <i type="int" name="IWAVPR">    10</i>
   <i type="int" name="NBANDS">   211</i>
   <i name="NELECT">    352.00000000</i>
   <separator name="electronic smearing" >
    <i type="int" name="ISMEAR">     0</i>
    <i name="SIGMA">      0.01000000</i>
   </separator>
   <separator name="electronic projectors" >
    <i type="logical" name="LREAL"> F  </i>
    <v name="ROPT">      0.00000000</v>
    <i type="int" name="LMAXPAW">  -100</i>
    <i type="int" name="LMAXMIX">     2</i>
   </separator>
   <separator name="electronic startup" >
    <i type="int" name="ISTART">     0</i>
    <i type="int" name="ICHARG">     2</i>
    <i type="int" name="INIWAV">     1</i>
   </separator>
   <separator name="electronic spin" >
    <i type="int" name="ISPIN">     1</i>
    <i type="logical" name="LNONCOLLINEAR"> F  </i>
    <v name="MAGMOM">      1.00000000      1.00000000      1.00000000      1.00000000      1.00000000      1.00000000      1.00000000      1.00000000      1.00000000      1.00000000      1.00000000      1.00000000      1.00000000      1.00000000      1.00000000      1.00000000      1.00000000      1.00000000      1.00000000      1.00000000
      1.00000000      1.00000000      1.00000000      1.00000000      1.00000000      1.00000000      1.00000000      1.00000000      1.00000000      1.00000000      1.00000000      1.00000000</v>
    <i name="NUPDOWN">     -1.00000000</i>
    <i type="logical" name="LSORBIT"> F  </i>
    <v name="SAXIS">      0.00000000      0.00000000      1.00000000</v>
    <i type="logical" name="LSPIRAL"> F  </i>
    <v name="QSPIRAL">      0.00000000      0.00000000      0.00000000</v>
    <i type="logical" name="LZEROZ"> F  </i>
   </separator>
   <separator name="electronic exchange-correlation" >
    <i type="string" name="GGA">--</i>
    <i type="int" name="VOSKOWN">     0</i>
    <i type="logical" name="LASPH"> F  </i>
    <i type="logical" name="LMETAGGA"> F  </i>
    <i type="string" name="GGA2">--</i>
   </separator>
   <separator name="electronic convergence" >
    <i type="int" name="NELM">    60</i>
    <i type="int" name="NELMDL">     0</i>
    <i type="int" name="NELMIN">     2</i>
    <i name="ENINI">    750.00000000</i>
    <separator name="electronic convergence detail" >
     <i type="logical" name="LDIAG"> T  </i>
     <i name="WEIMIN">      0.00000000</i>
     <i name="EBREAK">      0.00000000</i>
     <i name="DEPER">      0.30000000</i>
     <i type="int" name="NRMM">     4</i>
     <i name="TIME">      0.10000000</i>
    </separator>
   </separator>
   <separator name="electronic mixer" >
    <i name="AMIX">      0.40000000</i>
    <i name="BMIX">      1.00000000</i>
    <i name="AMIN">      0.10000000</i>
    <i name="AMIX_MAG">      1.60000000</i>
    <i name="BMIX_MAG">      1.00000000</i>
    <separator name="electronic mixer details" >
     <i type="int" name="IMIX">     4</i>
     <i type="int" name="MAXMIX">   -45</i>
     <i name="WC">    100.00000000</i>
     <i type="int" name="INIMIX">     1</i>
     <i type="int" name="MIXPRE">     1</i>
     <i type="int" name="MREMOVE">     5</i>
    </separator>
   </separator>
   <separator name="electronic dipolcorrection" >
    <i type="int" name="IDIPOL">     0</i>
    <i type="logical" name="LDIPOL"> F  </i>
    <v name="DIPOL">   -100.00000000</v>
    <i name="EFIELD">      0.00000000</i>
   </separator>
  </separator>
  <separator name="grids" >
   <i type="int" name="NGX">    80</i>
   <i type="int" name="NGY">    80</i>
   <i type="int" name="NGZ">    80</i>
   <i type="int" name="NGXF">   160</i>
   <i type="int" name="NGYF">   160</i>
   <i type="int" name="NGZF">   160</i>
   <i type="logical" name="ADDGRID"> T  </i>
  </separator>
  <separator name="ionic" >
   <i type="int" name="NSW">     0</i>
   <i type="int" name="IBRION">    -1</i>
   <i type="int" name="ISIF">     2</i>
   <i name="PSTRESS">      0.00000000</i>
   <i name="EDIFFG">      0.00000010</i>
   <i type="int" name="NFREE">     0</i>
   <i name="POTIM">      0.50000000</i>
   <i name="SMASS">     -3.00000000</i>
  </separator>
  <separator name="ionic md" >
   <i name="TEBEG">      0.00010000</i>
   <i name="TEEND">      0.00010000</i>
   <i type="int" name="NBLOCK">     1</i>
   <i type="int" name="KBLOCK">     1</i>
   <i type="int" name="NPACO">   256</i>
   <i name="APACO">     16.00000000</i>
  </separator>
  <separator name="symmetry" >
   <i type="int" name="ISYM">     2</i>
   <i name="SYMPREC">      0.00001000</i>
  </separator>
  <separator name="dos" >
   <i type="logical" name="LORBIT"> F  </i>
   <v name="RWIGS">     -1.00000000</v>
   <i type="int" name="NEDOS">   301</i>
   <i name="EMIN">     10.00000000</i>
   <i name="EMAX">    -10.00000000</i>
  </separator>
  <separator name="writing" >
   <i type="int" name="NWRITE">     2</i>
   <i type="logical" name="LWAVE"> F  </i>
   <i type="logical" name="LCHARG"> F  </i>
   <i type="logical" name="LPARD"> F  </i>
   <i type="logical" name="LVTOT"> F  </i>
   <i type="logical" name="LELF"> F  </i>
   <i type="logical" name="LOPTICS"> F  </i>
   <i name="STM">      0.00000000</i>
  </separator>
  <separator name="performance" >
   <i type="int" name="NPAR">     8</i>
   <i type="int" name="NSIM">     4</i>
   <i type="int" name="NBLK">   256</i>
   <i type="logical" name="LPLANE"> T  </i>
   <i type="logical" name="LCRITICAL_MEM"> F  </i>
   <i type="logical" name="LSCALAPACK"> F  </i>
   <i type="logical" name="LSCALU"> F  </i>
   <i type="logical" name="LASYNC"> F  </i>
  </separator>
  <separator name="miscellaneous" >
   <i type="int" name="IDIOT">     3</i>
   <i type="logical" name="LMUSIC"> F  </i>
   <v name="POMASS">    196.96600000</v>
   <i type="logical" name="LCORR"> T  </i>
  </separator>
  <i type="logical" name="LREAL_COMPAT"> F  </i>
  <i type="logical" name="GGA_COMPAT"> T  </i>
  <i type="logical" name="LBERRY"> F  </i>
  <i type="int" name="ICORELEVEL">     0</i>
  <i type="logical" name="LDAU"> F  </i>
  <i type="int" name="I_CONSTRAINED_M">     0</i>
 </parameters>
 <atominfo>
  <atoms>      32</atoms>
  <types>       1</types>
  <array name="atoms" >
   <dimension dim="1">ion</dimension>
   <field type="string">element</field>
   <field type="int">atomtype</field>
   <set>
    <rc><c>Au</c><c>   1</c></rc>
    <rc><c>Au</c><c>   1</c></rc>
    <rc><c>Au</c><c>   1</c></rc>
    <rc><c>Au</c><c>   1</c></rc>
    <rc><c>Au</c><c>   1</c></rc>
    <rc><c>Au</c><c>   1</c></rc>
    <rc><c>Au</c><c>   1</c></rc>
    <rc><c>Au</c><c>   1</c></rc>
    <rc><c>Au</c><c>   1</c></rc>
    <rc><c>Au</c><c>   1</c></rc>
    <rc><c>Au</c><c>   1</c></rc>
    <rc><c>Au</c><c>   1</c></rc>
    <rc><c>Au</c><c>   1</c></rc>
    <rc><c>Au</c><c>   1</c></rc>
    <rc><c>Au</c><c>   1</c></rc>
    <rc><c>Au</c><c>   1</c></rc>
    <rc><c>Au</c><c>   1</c></rc>
    <rc><c>Au</c><c>   1</c></rc>
    <rc><c>Au</c><c>   1</c></rc>
    <rc><c>Au</c><c>   1</c></rc>
    <rc><c>Au</c><c>   1</c></rc>
    <rc><c>Au</c><c>   1</c></rc>
    <rc><c>Au</c><c>   1</c></rc>
    <rc><c>Au</c><c>   1</c></rc>
    <rc><c>Au</c><c>   1</c></rc>
    <rc><c>Au</c><c>   1</c></rc>
    <rc><c>Au</c><c>   1</c></rc>
    <rc><c>Au</c><c>   1</c></rc>
    <rc><c>Au</c><c>   1</c></rc>
    <rc><c>Au</c><c>   1</c></rc>
    <rc><c>Au</c><c>   1</c></rc>
    <rc><c>Au</c><c>   1</c></rc>
   </set>
  </array>
  <array name="atomtypes" >
   <dimension dim="1">type</dimension>
   <field type="int">atomspertype</field>
   <field type="string">element</field>
   <field>mass</field>
   <field>valence</field>
   <field type="string">pseudopotential</field>
   <set>
    <rc><c>  32</c><c>Au</c><c>    196.96600000</c><c>     11.00000000</c><c> PAW_PBE Au 06Sep2000                   </c></rc>
   </set>
  </array>
 </atominfo>
 <structure name="initialpos" >
  <crystal>
   <varray name="basis" >
    <v>       8.17878973      0.00000000      0.00000000</v>
    <v>       0.00000000      8.17878973      0.00000000</v>
    <v>       0.00000000      0.00000000      8.17878973</v>
   </varray>
   <i name="volume">    547.10052144</i>
   <varray name="rec_basis" >
    <v>       0.12226748      0.00000000      0.00000000</v>
    <v>       0.00000000      0.12226748      0.00000000</v>
    <v>       0.00000000      0.00000000      0.12226748</v>
   </varray>
  </crystal>
  <varray name="positions" >
   <v>       0.00122267      0.00000000      0.00000000</v>
   <v>       0.50000000      0.00000000      0.00000000</v>
   <v>       0.00000000      0.50000000      0.00000000</v>
   <v>       0.50000000      0.50000000      0.00000000</v>
   <v>       0.00000000      0.00000000      0.50000000</v>
   <v>       0.50000000      0.00000000      0.50000000</v>
   <v>       0.00000000      0.50000000      0.50000000</v>
   <v>       0.50000000      0.50000000      0.50000000</v>
   <v>       0.25000000      0.25000000      0.00000000</v>
   <v>       0.75000000      0.25000000      0.00000000</v>
   <v>       0.25000000      0.75000000      0.00000000</v>
   <v>       0.75000000      0.75000000      0.00000000</v>
   <v>       0.25000000      0.25000000      0.50000000</v>
   <v>       0.75000000      0.25000000      0.50000000</v>
   <v>       0.25000000      0.75000000      0.50000000</v>
   <v>       0.75000000      0.75000000      0.50000000</v>
   <v>       0.25000000      0.00000000      0.25000000</v>
   <v>       0.75000000      0.00000000      0.25000000</v>
   <v>       0.25000000      0.50000000      0.25000000</v>
   <v>       0.75000000      0.50000000      0.25000000</v>
   <v>       0.25000000      0.00000000      0.75000000</v>
   <v>       0.75000000      0.00000000      0.75000000</v>
   <v>       0.25000000      0.50000000      0.75000000</v>
   <v>       0.75000000      0.50000000      0.75000000</v>
   <v>       0.00000000      0.25000000      0.25000000</v>
   <v>       0.50000000      0.25000000      0.25000000</v>
   <v>       0.00000000      0.75000000      0.25000000</v>
   <v>       0.50000000      0.75000000      0.25000000</v>
   <v>       0.00000000      0.25000000      0.75000000</v>
   <v>       0.50000000      0.25000000      0.75000000</v>
   <v>       0.00000000      0.75000000      0.75000000</v>
   <v>       0.50000000      0.75000000      0.75000000</v>
  </varray>
 </structure>
 <calculation>
  <scstep>
   <time name="dav"> 3372.97 3374.74</time>
   <time name="total"> 3375.33 3377.11</time>
   <energy>
    <i name="alphaZ">   3505.33039990</i>
    <i name="ewald"> -31255.64159242</i>
    <i name="hartreedc">  -3978.00432150</i>
    <i name="XCdc">    491.39384477</i>
    <i name="pawpsdc">  23920.39735419</i>
    <i name="pawaedc"> -23172.13309131</i>
    <i name="eentropy">     -0.00053160</i>
    <i name="bandstr">   5707.28975805</i>
    <i name="atom">  29633.78979189</i>
    <i name="e_fr_energy">   4852.42161196</i>
    <i name="e_wo_entrp">   4852.42214357</i>
    <i name="e_0_energy">   4852.42187776</i>
   </energy>
  </scstep>
  <scstep>
   <time name="dav"> 3364.05 3367.13</time>
   <time name="total"> 3364.23 3367.32</time>
   <energy>
    <i name="e_fr_energy">    168.94549647</i>
    <i name="e_wo_entrp">    168.94603697</i>
    <i name="e_0_energy">    168.94576672</i>
   </energy>
  </scstep>
  <scstep>
   <time name="dav"> 3590.74 3592.64</time>
   <time name="total"> 3590.93 3592.84</time>
   <energy>
    <i name="e_fr_energy">   -102.83226619</i>
    <i name="e_wo_entrp">   -102.83176130</i>
    <i name="e_0_energy">   -102.83201375</i>
   </energy>
  </scstep>
  <scstep>
   <time name="dav"> 3547.72 3549.63</time>
   <time name="total"> 3547.90 3550.31</time>
   <energy>
    <i name="e_fr_energy">   -111.59414578</i>
    <i name="e_wo_entrp">   -111.59381177</i>
    <i name="e_0_energy">   -111.59397877</i>
   </energy>
  </scstep>
  <scstep>
   <time name="dav"> 3563.14 3565.03</time>
   <time name="total"> 3682.71 3684.67</time>
   <energy>
    <i name="e_fr_energy">   -111.73460202</i>
    <i name="e_wo_entrp">   -111.73426444</i>
    <i name="e_0_energy">   -111.73443323</i>
   </energy>
  </scstep>
  <scstep>
   <time name="dav"> 3512.97 3514.85</time>
   <time name="total"> 3634.47 3636.43</time>
   <energy>
    <i name="e_fr_energy">   -104.38430566</i>
    <i name="e_wo_entrp">   -104.38325469</i>
    <i name="e_0_energy">   -104.38378018</i>
   </energy>
  </scstep>
  <scstep>
   <time name="dav"> 3686.72 3688.65</time>
   <time name="total"> 3809.57 3811.57</time>
   <energy>
    <i name="e_fr_energy">   -103.78857405</i>
    <i name="e_wo_entrp">   -103.78739620</i>
    <i name="e_0_energy">   -103.78798513</i>
   </energy>
  </scstep>
  <scstep>
   <time name="dav"> 3468.90 3470.70</time>
   <time name="total"> 3590.26 3592.12</time>
   <energy>
    <i name="e_fr_energy">   -103.68269853</i>
    <i name="e_wo_entrp">   -103.68152076</i>
    <i name="e_0_energy">   -103.68210964</i>
   </energy>
  </scstep>
  <scstep>
   <time name="dav"> 3695.79 3697.69</time>
   <time name="total"> 3816.72 3818.69</time>
   <energy>
    <i name="e_fr_energy">   -103.68278940</i>
    <i name="e_wo_entrp">   -103.68165917</i>
    <i name="e_0_energy">   -103.68222429</i>
   </energy>
  </scstep>
  <scstep>
   <time name="dav"> 3464.64 3466.43</time>
   <time name="total"> 3586.33 3588.20</time>
   <energy>
    <i name="e_fr_energy">   -103.68280005</i>
    <i name="e_wo_entrp">   -103.68164871</i>
    <i name="e_0_energy">   -103.68222438</i>
   </energy>
  </scstep>
  <scstep>
   <time name="dav"> 3584.76 3586.60</time>
   <time name="total"> 3707.70 3709.62</time>
   <energy>
    <i name="e_fr_energy">   -103.68281087</i>
    <i name="e_wo_entrp">   -103.68165804</i>
    <i name="e_0_energy">   -103.68223445</i>
   </energy>
  </scstep>
  <scstep>
   <time name="dav"> 3539.23 3541.07</time>
   <time name="total"> 3661.09 3663.00</time>
   <energy>
    <i name="e_fr_energy">   -103.68281661</i>
    <i name="e_wo_entrp">   -103.68166398</i>
    <i name="e_0_energy">   -103.68224029</i>
   </energy>
  </scstep>
  <scstep>
   <time name="dav"> 3471.19 3472.99</time>
   <time name="total"> 3595.42 3597.30</time>
   <energy>
    <i name="e_fr_energy">   -103.68281478</i>
    <i name="e_wo_entrp">   -103.68166193</i>
    <i name="e_0_energy">   -103.68223836</i>
   </energy>
  </scstep>
  <scstep>
   <time name="dav"> 2521.49 2522.80</time>
   <time name="total"> 2644.77 2646.15</time>
   <energy>
    <i name="e_fr_energy">   -103.68281391</i>
    <i name="e_wo_entrp">   -103.68166093</i>
    <i name="e_0_energy">   -103.68223742</i>
   </energy>
  </scstep>
  <scstep>
   <time name="dav"> 2236.55 2237.82</time>
   <time name="total"> 2359.26 2360.61</time>
   <energy>
    <i name="e_fr_energy">   -103.68281387</i>
    <i name="e_wo_entrp">   -103.68166089</i>
    <i name="e_0_energy">   -103.68223738</i>
   </energy>
  </scstep>
  <scstep>
   <time name="dav"> 2221.83 2223.06</time>
   <time name="total"> 2345.23 2346.54</time>
   <energy>
    <i name="e_fr_energy">   -103.68281390</i>
    <i name="e_wo_entrp">   -103.68166092</i>
    <i name="e_0_energy">   -103.68223741</i>
   </energy>
  </scstep>
  <scstep>
   <time name="dav"> 2225.61 2226.69</time>
   <time name="total"> 2227.98 2229.07</time>
   <energy>
    <i name="alphaZ">   3505.33039990</i>
    <i name="ewald"> -31255.64159242</i>
    <i name="hartreedc">  -3631.84417280</i>
    <i name="XCdc">    475.97777367</i>
    <i name="pawpsdc">  24196.42827618</i>
    <i name="pawaedc"> -23535.60412257</i>
    <i name="eentropy">     -0.00115298</i>
    <i name="bandstr">    507.88198524</i>
    <i name="atom">  29633.78979189</i>
    <i name="e_fr_energy">   -103.68281390</i>
    <i name="e_wo_entrp">   -103.68166092</i>
    <i name="e_0_energy">   -103.68223741</i>
   </energy>
  </scstep>
  <structure>
   <crystal>
    <varray name="basis" >
     <v>       8.17878973      0.00000000      0.00000000</v>
     <v>       0.00000000      8.17878973      0.00000000</v>
     <v>       0.00000000      0.00000000      8.17878973</v>
    </varray>
    <i name="volume">    547.10052144</i>
    <varray name="rec_basis" >
     <v>       0.12226748      0.00000000      0.00000000</v>
     <v>       0.00000000      0.12226748      0.00000000</v>
     <v>       0.00000000      0.00000000      0.12226748</v>
    </varray>
   </crystal>
   <varray name="positions" >
    <v>       0.00122267      0.00000000      0.00000000</v>
    <v>       0.50000000      0.00000000      0.00000000</v>
    <v>       0.00000000      0.50000000      0.00000000</v>
    <v>       0.50000000      0.50000000      0.00000000</v>
    <v>       0.00000000      0.00000000      0.50000000</v>
    <v>       0.50000000      0.00000000      0.50000000</v>
    <v>       0.00000000      0.50000000      0.50000000</v>
    <v>       0.50000000      0.50000000      0.50000000</v>
    <v>       0.25000000      0.25000000      0.00000000</v>
    <v>       0.75000000      0.25000000      0.00000000</v>
    <v>       0.25000000      0.75000000      0.00000000</v>
    <v>       0.75000000      0.75000000      0.00000000</v>
    <v>       0.25000000      0.25000000      0.50000000</v>
    <v>       0.75000000      0.25000000      0.50000000</v>
    <v>       0.25000000      0.75000000      0.50000000</v>
    <v>       0.75000000      0.75000000      0.50000000</v>
    <v>       0.25000000      0.00000000      0.25000000</v>
    <v>       0.75000000      0.00000000      0.25000000</v>
    <v>       0.25000000      0.50000000      0.25000000</v>
    <v>       0.75000000      0.50000000      0.25000000</v>
    <v>       0.25000000      0.00000000      0.75000000</v>
    <v>       0.75000000      0.00000000      0.75000000</v>
    <v>       0.25000000      0.50000000      0.75000000</v>
    <v>       0.75000000      0.50000000      0.75000000</v>
    <v>       0.00000000      0.25000000      0.25000000</v>
    <v>       0.50000000      0.25000000      0.25000000</v>
    <v>       0.00000000      0.75000000      0.25000000</v>
    <v>       0.50000000      0.75000000      0.25000000</v>
    <v>       0.00000000      0.25000000      0.75000000</v>
    <v>       0.50000000      0.25000000      0.75000000</v>
    <v>       0.00000000      0.75000000      0.75000000</v>
    <v>       0.50000000      0.75000000      0.75000000</v>
   </varray>
  </structure>
  <varray name="forces" >
   <v>      -0.07535841      0.00000000      0.00000000</v>
   <v>       0.00585202      0.00000000     -0.00000000</v>
   <v>      -0.00114544      0.00000000      0.00000000</v>
   <v>      -0.00220507      0.00000000     -0.00000000</v>
   <v>      -0.00114544      0.00000000     -0.00000000</v>
   <v>      -0.00220507      0.00000000      0.00000000</v>
   <v>       0.00081720      0.00000000      0.00000000</v>
   <v>       0.00075679      0.00000000      0.00000000</v>
   <v>       0.01109806      0.01402577      0.00000000</v>
   <v>       0.01076036     -0.01354239     -0.00000000</v>
   <v>       0.01109806     -0.01402577      0.00000000</v>
   <v>       0.01076036      0.01354239      0.00000000</v>
   <v>      -0.00011783      0.00011610      0.00000000</v>
   <v>      -0.00011902     -0.00011505      0.00000000</v>
   <v>      -0.00011783     -0.00011610      0.00000000</v>
   <v>      -0.00011902      0.00011505      0.00000000</v>
   <v>       0.01109806      0.00000000      0.01402577</v>
   <v>       0.01076036      0.00000000     -0.01354239</v>
   <v>      -0.00011783      0.00000000      0.00011610</v>
   <v>      -0.00011902      0.00000000     -0.00011505</v>
   <v>       0.01109806      0.00000000     -0.01402577</v>
   <v>       0.01076036      0.00000000      0.01354239</v>
   <v>      -0.00011783      0.00000000     -0.00011610</v>
   <v>      -0.00011902      0.00000000      0.00011505</v>
   <v>      -0.00392333     -0.00001744     -0.00001744</v>
   <v>       0.00096011      0.00000196      0.00000196</v>
   <v>      -0.00392333      0.00001744     -0.00001744</v>
   <v>       0.00096011     -0.00000196      0.00000196</v>
   <v>      -0.00392333     -0.00001744      0.00001744</v>
   <v>       0.00096011      0.00000196     -0.00000196</v>
   <v>      -0.00392333      0.00001744      0.00001744</v>
   <v>       0.00096011     -0.00000196     -0.00000196</v>
  </varray>
  <varray name="stress" >
   <v>      99.37084960     -0.00000000      0.00000000</v>
   <v>      -0.00000000     99.37336116      0.00000000</v>
   <v>       0.00000000      0.00000000     99.37336116</v>
  </varray>
  <energy>
   <i name="e_fr_energy">   -103.68281390</i>
   <i name="e_wo_entrp">   -103.68223741</i>
   <i name="e_0_energy">     -0.00115298</i>
  </energy>
  <eigenvalues>
   <array>
    <dimension dim="1">band</dimension>
    <dimension dim="2">kpoint</dimension>
    <dimension dim="3">spin</dimension>
    <field>eigene</field>
    <field>occ</field>
    <set>
     <set comment="spin 1">
      <set comment="kpoint 1">
       <r>  -4.1078  1.0000</r>
       <r>  -1.7004  1.0000</r>
       <r>  -1.6969  1.0000</r>
       <r>  -1.6969  1.0000</r>
       <r>  -1.6969  1.0000</r>
       <r>  -1.6969  1.0000</r>
       <r>  -1.6934  1.0000</r>
       <r>  -1.6087  1.0000</r>
       <r>  -1.6087  1.0000</r>
       <r>  -1.6087  1.0000</r>
       <r>  -1.6087  1.0000</r>
       <r>  -1.3711  1.0000</r>
       <r>  -1.3711  1.0000</r>
       <r>  -1.3711  1.0000</r>
       <r>  -1.0654  1.0000</r>
       <r>  -1.0654  1.0000</r>
       <r>  -1.0654  1.0000</r>
       <r>  -0.3814  1.0000</r>
       <r>  -0.3800  1.0000</r>
       <r>  -0.3800  1.0000</r>
       <r>  -0.3780  1.0000</r>
       <r>  -0.3778  1.0000</r>
       <r>  -0.3777  1.0000</r>
       <r>  -0.3777  1.0000</r>
       <r>  -0.3777  1.0000</r>
       <r>  -0.3775  1.0000</r>
       <r>  -0.3755  1.0000</r>
       <r>  -0.3755  1.0000</r>
       <r>  -0.3741  1.0000</r>
       <r>  -0.2774  1.0000</r>
       <r>  -0.2749  1.0000</r>
       <r>  -0.2749  1.0000</r>
       <r>  -0.2749  1.0000</r>
       <r>  -0.2749  1.0000</r>
       <r>  -0.2724  1.0000</r>
       <r>  -0.1320  1.0000</r>
       <r>  -0.1295  1.0000</r>
       <r>  -0.1295  1.0000</r>
       <r>  -0.1295  1.0000</r>
       <r>  -0.1295  1.0000</r>
       <r>  -0.1270  1.0000</r>
       <r>   0.4549  1.0000</r>
       <r>   0.4581  1.0000</r>
       <r>   0.4581  1.0000</r>
       <r>   0.4595  1.0000</r>
       <r>   0.4595  1.0000</r>
       <r>   0.4595  1.0000</r>
       <r>   0.4595  1.0000</r>
       <r>   0.4595  1.0000</r>
       <r>   0.4596  1.0000</r>
       <r>   0.4608  1.0000</r>
       <r>   0.4608  1.0000</r>
       <r>   0.4638  1.0000</r>
       <r>   0.5257  1.0000</r>
       <r>   0.5257  1.0000</r>
       <r>   0.5283  1.0000</r>
       <r>   0.5283  1.0000</r>
       <r>   0.5284  1.0000</r>
       <r>   0.5284  1.0000</r>
       <r>   0.5284  1.0000</r>
       <r>   0.5285  1.0000</r>
       <r>   0.5285  1.0000</r>
       <r>   0.5287  1.0000</r>
       <r>   0.5312  1.0000</r>
       <r>   0.5312  1.0000</r>
       <r>   0.7991  1.0000</r>
       <r>   0.8034  1.0000</r>
       <r>   0.8034  1.0000</r>
       <r>   0.8034  1.0000</r>
       <r>   0.8038  1.0000</r>
       <r>   0.8038  1.0000</r>
       <r>   0.8038  1.0000</r>
       <r>   0.8038  1.0000</r>
       <r>   0.8040  1.0000</r>
       <r>   0.8041  1.0000</r>
       <r>   0.8041  1.0000</r>
       <r>   0.8083  1.0000</r>
       <r>   0.9491  1.0000</r>
       <r>   0.9492  1.0000</r>
       <r>   0.9492  1.0000</r>
       <r>   0.9492  1.0000</r>
       <r>   0.9492  1.0000</r>
       <r>   0.9492  1.0000</r>
       <r>   0.9492  1.0000</r>
       <r>   0.9493  1.0000</r>
       <r>   0.9852  1.0000</r>
       <r>   0.9852  1.0000</r>
       <r>   0.9853  1.0000</r>
       <r>   1.6908  1.0000</r>
       <r>   1.6932  1.0000</r>
       <r>   1.6933  1.0000</r>
       <r>   1.6933  1.0000</r>
       <r>   1.6933  1.0000</r>
       <r>   1.6958  1.0000</r>
       <r>   1.9005  1.0000</r>
       <r>   1.9014  1.0000</r>
       <r>   1.9027  1.0000</r>
       <r>   1.9027  1.0000</r>
       <r>   1.9035  1.0000</r>
       <r>   1.9035  1.0000</r>
       <r>   1.9035  1.0000</r>
       <r>   1.9035  1.0000</r>
       <r>   1.9042  1.0000</r>
       <r>   1.9042  1.0000</r>
       <r>   1.9057  1.0000</r>
       <r>   1.9064  1.0000</r>
       <r>   2.2125  1.0000</r>
       <r>   2.2125  1.0000</r>
       <r>   2.2156  1.0000</r>
       <r>   2.2156  1.0000</r>
       <r>   2.2158  1.0000</r>
       <r>   2.2158  1.0000</r>
       <r>   2.2159  1.0000</r>
       <r>   2.2159  1.0000</r>
       <r>   2.2161  1.0000</r>
       <r>   2.2161  1.0000</r>
       <r>   2.2190  1.0000</r>
       <r>   2.2190  1.0000</r>
       <r>   2.3568  1.0000</r>
       <r>   2.3589  1.0000</r>
       <r>   2.3589  1.0000</r>
       <r>   2.3589  1.0000</r>
       <r>   2.3589  1.0000</r>
       <r>   2.3610  1.0000</r>
       <r>   2.4857  1.0000</r>
       <r>   2.4857  1.0000</r>
       <r>   2.4887  1.0000</r>
       <r>   2.4888  1.0000</r>
       <r>   2.4892  1.0000</r>
       <r>   2.4893  1.0000</r>
       <r>   2.4893  1.0000</r>
       <r>   2.4893  1.0000</r>
       <r>   2.4894  1.0000</r>
       <r>   2.4898  1.0000</r>
       <r>   2.4930  1.0000</r>
       <r>   2.4930  1.0000</r>
       <r>   2.4962  1.0000</r>
       <r>   2.4968  1.0000</r>
       <r>   3.0459  1.0000</r>
       <r>   3.0475  1.0000</r>
       <r>   3.0475  1.0000</r>
       <r>   3.0475  1.0000</r>
       <r>   3.0475  1.0000</r>
       <r>   3.0490  1.0000</r>
       <r>   3.6468  1.0000</r>
       <r>   3.6468  1.0000</r>
       <r>   3.6469  1.0000</r>
       <r>   3.6901  1.0000</r>
       <r>   3.6901  1.0000</r>
       <r>   3.6901  1.0000</r>
       <r>   3.6901  1.0000</r>
       <r>   3.6901  1.0000</r>
       <r>   3.6901  1.0000</r>
       <r>   3.6901  1.0000</r>
       <r>   3.6901  1.0000</r>
       <r>   4.0097  1.0000</r>
       <r>   4.0100  1.0000</r>
       <r>   4.0101  1.0000</r>
       <r>   4.0101  1.0000</r>
       <r>   4.0101  1.0000</r>
       <r>   4.0101  1.0000</r>
       <r>   4.0119  1.0000</r>
       <r>   4.0120  1.0000</r>
       <r>   4.0120  1.0000</r>
       <r>   4.0120  1.0000</r>
       <r>   4.0121  1.0000</r>
       <r>   4.0124  1.0000</r>
       <r>   4.7575  1.0000</r>
       <r>   4.7575  1.0000</r>
       <r>   4.7575  1.0000</r>
       <r>   4.7575  1.0000</r>
       <r>   5.3994  1.0000</r>
       <r>   5.3999  1.0000</r>
       <r>   5.3999  1.0000</r>
       <r>   5.4007  1.0000</r>
       <r>   5.4012  1.0000</r>
       <r>   5.4013  1.0000</r>
       <r>   5.4013  1.0000</r>
       <r>   5.4013  1.0000</r>
       <r>   5.4018  1.0000</r>
       <r>   5.4026  1.0000</r>
       <r>   5.4026  1.0000</r>
       <r>   5.4031  1.0000</r>
       <r>   6.7515  0.0000</r>
       <r>   6.7515  0.0000</r>
       <r>   6.7516  0.0000</r>
       <r>   8.7846  0.0000</r>
       <r>   8.7846  0.0000</r>
       <r>   8.7846  0.0000</r>
       <r>   8.7846  0.0000</r>
       <r>  10.5267  0.0000</r>
       <r>  10.5270  0.0000</r>
       <r>  10.5270  0.0000</r>
       <r>  10.5271  0.0000</r>
       <r>  10.5271  0.0000</r>
       <r>  10.5274  0.0000</r>
       <r>  11.5067  0.0000</r>
       <r>  11.5068  0.0000</r>
       <r>  11.5068  0.0000</r>
       <r>  12.0237  0.0000</r>
       <r>  12.0237  0.0000</r>
       <r>  12.0270  0.0000</r>
       <r>  12.0270  0.0000</r>
       <r>  12.0276  0.0000</r>
       <r>  12.0276  0.0000</r>
       <r>  12.0276  0.0000</r>
       <r>  12.0277  0.0000</r>
       <r>  12.0281  0.0000</r>
       <r>  12.0281  0.0000</r>
       <r>  12.0314  0.0000</r>
       <r>  12.0314  0.0000</r>
       <r>  14.3295  0.0000</r>
       <r>  14.3301  0.0000</r>
       <r>  14.3306  0.0000</r>
       <r>  14.3313  0.0000</r>
       <r>  14.3321  0.0000</r>
      </set>
      <set comment="kpoint 2">
       <r>  -4.0875  1.0000</r>
       <r>  -1.9781  1.0000</r>
       <r>  -1.6821  1.0000</r>
       <r>  -1.6821  1.0000</r>
       <r>  -1.6821  1.0000</r>
       <r>  -1.6821  1.0000</r>
       <r>  -1.5972  1.0000</r>
       <r>  -1.5972  1.0000</r>
       <r>  -1.5972  1.0000</r>
       <r>  -1.5972  1.0000</r>
       <r>  -1.4597  1.0000</r>
       <r>  -1.3638  1.0000</r>
       <r>  -1.3574  1.0000</r>
       <r>  -1.3574  1.0000</r>
       <r>  -1.0579  1.0000</r>
       <r>  -1.0541  1.0000</r>
       <r>  -1.0541  1.0000</r>
       <r>  -0.4856  1.0000</r>
       <r>  -0.4856  1.0000</r>
       <r>  -0.4856  1.0000</r>
       <r>  -0.4856  1.0000</r>
       <r>  -0.4377  1.0000</r>
       <r>  -0.4377  1.0000</r>
       <r>  -0.4376  1.0000</r>
       <r>  -0.4376  1.0000</r>
       <r>  -0.3033  1.0000</r>
       <r>  -0.3031  1.0000</r>
       <r>  -0.2846  1.0000</r>
       <r>  -0.2846  1.0000</r>
       <r>  -0.2845  1.0000</r>
       <r>  -0.2845  1.0000</r>
       <r>  -0.2649  1.0000</r>
       <r>  -0.2649  1.0000</r>
       <r>  -0.2649  1.0000</r>
       <r>  -0.2648  1.0000</r>
       <r>  -0.2602  1.0000</r>
       <r>  -0.1231  1.0000</r>
       <r>  -0.1231  1.0000</r>
       <r>  -0.1231  1.0000</r>
       <r>  -0.1231  1.0000</r>
       <r>   0.0043  1.0000</r>
       <r>   0.2782  1.0000</r>
       <r>   0.2782  1.0000</r>
       <r>   0.4094  1.0000</r>
       <r>   0.4096  1.0000</r>
       <r>   0.4096  1.0000</r>
       <r>   0.4096  1.0000</r>
       <r>   0.4980  1.0000</r>
       <r>   0.4986  1.0000</r>
       <r>   0.4986  1.0000</r>
       <r>   0.4987  1.0000</r>
       <r>   0.5105  1.0000</r>
       <r>   0.5106  1.0000</r>
       <r>   0.5106  1.0000</r>
       <r>   0.5109  1.0000</r>
       <r>   0.5168  1.0000</r>
       <r>   0.5169  1.0000</r>
       <r>   0.5169  1.0000</r>
       <r>   0.5169  1.0000</r>
       <r>   0.5296  1.0000</r>
       <r>   0.5296  1.0000</r>
       <r>   0.5296  1.0000</r>
       <r>   0.5301  1.0000</r>
       <r>   0.7351  1.0000</r>
       <r>   0.7352  1.0000</r>
       <r>   0.7352  1.0000</r>
       <r>   0.7352  1.0000</r>
       <r>   0.7981  1.0000</r>
       <r>   0.7981  1.0000</r>
       <r>   0.8341  1.0000</r>
       <r>   0.8354  1.0000</r>
       <r>   0.8354  1.0000</r>
       <r>   0.8354  1.0000</r>
       <r>   0.8404  1.0000</r>
       <r>   0.8404  1.0000</r>
       <r>   0.8404  1.0000</r>
       <r>   0.8418  1.0000</r>
       <r>   0.9442  1.0000</r>
       <r>   0.9442  1.0000</r>
       <r>   0.9442  1.0000</r>
       <r>   0.9443  1.0000</r>
       <r>   0.9585  1.0000</r>
       <r>   0.9585  1.0000</r>
       <r>   0.9585  1.0000</r>
       <r>   0.9586  1.0000</r>
       <r>   0.9747  1.0000</r>
       <r>   0.9944  1.0000</r>
       <r>   0.9944  1.0000</r>
       <r>   1.6393  1.0000</r>
       <r>   1.6393  1.0000</r>
       <r>   1.6394  1.0000</r>
       <r>   1.6394  1.0000</r>
       <r>   1.6803  1.0000</r>
       <r>   1.7888  1.0000</r>
       <r>   1.8585  1.0000</r>
       <r>   1.8586  1.0000</r>
       <r>   1.8586  1.0000</r>
       <r>   1.8586  1.0000</r>
       <r>   1.9029  1.0000</r>
       <r>   1.9030  1.0000</r>
       <r>   1.9030  1.0000</r>
       <r>   1.9030  1.0000</r>
       <r>   1.9555  1.0000</r>
       <r>   1.9555  1.0000</r>
       <r>   1.9556  1.0000</r>
       <r>   1.9556  1.0000</r>
       <r>   2.0330  1.0000</r>
       <r>   2.0330  1.0000</r>
       <r>   2.2152  1.0000</r>
       <r>   2.2152  1.0000</r>
       <r>   2.2153  1.0000</r>
       <r>   2.2153  1.0000</r>
       <r>   2.2604  1.0000</r>
       <r>   2.2604  1.0000</r>
       <r>   2.2604  1.0000</r>
       <r>   2.2604  1.0000</r>
       <r>   2.3636  1.0000</r>
       <r>   2.3636  1.0000</r>
       <r>   2.3636  1.0000</r>
       <r>   2.3637  1.0000</r>
       <r>   2.3911  1.0000</r>
       <r>   2.3912  1.0000</r>
       <r>   2.3998  1.0000</r>
       <r>   2.3998  1.0000</r>
       <r>   2.4003  1.0000</r>
       <r>   2.4003  1.0000</r>
       <r>   2.4079  1.0000</r>
       <r>   2.4079  1.0000</r>
       <r>   2.4849  1.0000</r>
       <r>   2.5006  1.0000</r>
       <r>   2.5383  1.0000</r>
       <r>   2.5383  1.0000</r>
       <r>   2.5383  1.0000</r>
       <r>   2.5384  1.0000</r>
       <r>   2.5997  1.0000</r>
       <r>   2.5997  1.0000</r>
       <r>   2.5998  1.0000</r>
       <r>   2.5998  1.0000</r>
       <r>   2.9730  1.0000</r>
       <r>   3.0611  1.0000</r>
       <r>   3.0611  1.0000</r>
       <r>   3.0611  1.0000</r>
       <r>   3.0611  1.0000</r>
       <r>   3.1228  1.0000</r>
       <r>   3.5963  1.0000</r>
       <r>   3.5963  1.0000</r>
       <r>   3.5963  1.0000</r>
       <r>   3.5963  1.0000</r>
       <r>   3.6307  1.0000</r>
       <r>   3.6307  1.0000</r>
       <r>   3.6415  1.0000</r>
       <r>   3.6764  1.0000</r>
       <r>   3.6764  1.0000</r>
       <r>   3.6764  1.0000</r>
       <r>   3.6765  1.0000</r>
       <r>   3.9306  1.0000</r>
       <r>   3.9306  1.0000</r>
       <r>   3.9902  1.0000</r>
       <r>   3.9902  1.0000</r>
       <r>   3.9904  1.0000</r>
       <r>   3.9904  1.0000</r>
       <r>   3.9904  1.0000</r>
       <r>   3.9904  1.0000</r>
       <r>   4.0097  1.0000</r>
       <r>   4.0101  1.0000</r>
       <r>   4.0120  1.0000</r>
       <r>   4.0123  1.0000</r>
       <r>   4.8134  1.0000</r>
       <r>   4.8134  1.0000</r>
       <r>   4.8134  1.0000</r>
       <r>   4.8135  1.0000</r>
       <r>   5.1052  1.0000</r>
       <r>   5.1052  1.0000</r>
       <r>   5.1052  1.0000</r>
       <r>   5.1053  1.0000</r>
       <r>   5.3995  1.0000</r>
       <r>   5.3995  1.0000</r>
       <r>   5.3995  1.0000</r>
       <r>   5.3995  1.0000</r>
       <r>   5.7165  0.8947</r>
       <r>   5.7165  0.8947</r>
       <r>   5.7165  0.8946</r>
       <r>   5.7165  0.8944</r>
       <r>   6.5924  0.0000</r>
       <r>   6.8449  0.0000</r>
       <r>   6.8449  0.0000</r>
       <r>   8.8477  0.0000</r>
       <r>   8.8477  0.0000</r>
       <r>   8.8477  0.0000</r>
       <r>   8.8477  0.0000</r>
       <r>  10.3485  0.0000</r>
       <r>  10.3485  0.0000</r>
       <r>  10.3485  0.0000</r>
       <r>  10.3485  0.0000</r>
       <r>  10.5409  0.0000</r>
       <r>  10.5409  0.0000</r>
       <r>  11.4872  0.0000</r>
       <r>  11.4872  0.0000</r>
       <r>  11.5018  0.0000</r>
       <r>  11.5018  0.0000</r>
       <r>  11.7004  0.0000</r>
       <r>  12.0662  0.0000</r>
       <r>  12.0662  0.0000</r>
       <r>  12.0662  0.0000</r>
       <r>  12.0662  0.0000</r>
       <r>  12.1171  0.0000</r>
       <r>  12.1171  0.0000</r>
       <r>  12.1172  0.0000</r>
       <r>  12.1172  0.0000</r>
       <r>  12.5420  0.0000</r>
       <r>  12.5420  0.0000</r>
       <r>  14.0038  0.0000</r>
       <r>  14.0050  0.0000</r>
       <r>  14.0068  0.0000</r>
       <r>  14.0093  0.0000</r>
       <r>  14.0132  0.0000</r>
      </set>
      <set comment="kpoint 3">
       <r>  -4.0266  1.0000</r>
       <r>  -2.2806  1.0000</r>
       <r>  -1.6383  1.0000</r>
       <r>  -1.6383  1.0000</r>
       <r>  -1.6383  1.0000</r>
       <r>  -1.6383  1.0000</r>
       <r>  -1.5628  1.0000</r>
       <r>  -1.5628  1.0000</r>
       <r>  -1.5628  1.0000</r>
       <r>  -1.5628  1.0000</r>
       <r>  -1.3427  1.0000</r>
       <r>  -1.3168  1.0000</r>
       <r>  -1.3168  1.0000</r>
       <r>  -1.2857  1.0000</r>
       <r>  -1.0357  1.0000</r>
       <r>  -1.0203  1.0000</r>
       <r>  -1.0203  1.0000</r>
       <r>  -0.6107  1.0000</r>
       <r>  -0.6107  1.0000</r>
       <r>  -0.6107  1.0000</r>
       <r>  -0.6107  1.0000</r>
       <r>  -0.5772  1.0000</r>
       <r>  -0.5771  1.0000</r>
       <r>  -0.5771  1.0000</r>
       <r>  -0.5771  1.0000</r>
       <r>  -0.3859  1.0000</r>
       <r>  -0.3819  1.0000</r>
       <r>  -0.3819  1.0000</r>
       <r>  -0.2355  1.0000</r>
       <r>  -0.2354  1.0000</r>
       <r>  -0.2354  1.0000</r>
       <r>  -0.2354  1.0000</r>
       <r>  -0.2020  1.0000</r>
       <r>  -0.2020  1.0000</r>
       <r>  -0.2020  1.0000</r>
       <r>  -0.2019  1.0000</r>
       <r>  -0.1043  1.0000</r>
       <r>  -0.1043  1.0000</r>
       <r>  -0.1043  1.0000</r>
       <r>  -0.1042  1.0000</r>
       <r>   0.0481  1.0000</r>
       <r>   0.0481  1.0000</r>
       <r>   0.1387  1.0000</r>
       <r>   0.3505  1.0000</r>
       <r>   0.3506  1.0000</r>
       <r>   0.3506  1.0000</r>
       <r>   0.3506  1.0000</r>
       <r>   0.4837  1.0000</r>
       <r>   0.4837  1.0000</r>
       <r>   0.4837  1.0000</r>
       <r>   0.4837  1.0000</r>
       <r>   0.5256  1.0000</r>
       <r>   0.5267  1.0000</r>
       <r>   0.5267  1.0000</r>
       <r>   0.5268  1.0000</r>
       <r>   0.5328  1.0000</r>
       <r>   0.5329  1.0000</r>
       <r>   0.5329  1.0000</r>
       <r>   0.5340  1.0000</r>
       <r>   0.6019  1.0000</r>
       <r>   0.6020  1.0000</r>
       <r>   0.6020  1.0000</r>
       <r>   0.6021  1.0000</r>
       <r>   0.6392  1.0000</r>
       <r>   0.6393  1.0000</r>
       <r>   0.6393  1.0000</r>
       <r>   0.6394  1.0000</r>
       <r>   0.8563  1.0000</r>
       <r>   0.8563  1.0000</r>
       <r>   0.8564  1.0000</r>
       <r>   0.8564  1.0000</r>
       <r>   0.9296  1.0000</r>
       <r>   0.9296  1.0000</r>
       <r>   0.9296  1.0000</r>
       <r>   0.9297  1.0000</r>
       <r>   0.9433  1.0000</r>
       <r>   0.9514  1.0000</r>
       <r>   0.9514  1.0000</r>
       <r>   0.9515  1.0000</r>
       <r>   0.9515  1.0000</r>
       <r>   0.9864  1.0000</r>
       <r>   0.9865  1.0000</r>
       <r>   0.9865  1.0000</r>
       <r>   0.9865  1.0000</r>
       <r>   1.0218  1.0000</r>
       <r>   1.0218  1.0000</r>
       <r>   1.0864  1.0000</r>
       <r>   1.0864  1.0000</r>
       <r>   1.5196  1.0000</r>
       <r>   1.5196  1.0000</r>
       <r>   1.5196  1.0000</r>
       <r>   1.5196  1.0000</r>
       <r>   1.7254  1.0000</r>
       <r>   1.7542  1.0000</r>
       <r>   1.7542  1.0000</r>
       <r>   1.7542  1.0000</r>
       <r>   1.7543  1.0000</r>
       <r>   1.8610  1.0000</r>
       <r>   1.8610  1.0000</r>
       <r>   1.9513  1.0000</r>
       <r>   1.9515  1.0000</r>
       <r>   1.9516  1.0000</r>
       <r>   1.9516  1.0000</r>
       <r>   1.9880  1.0000</r>
       <r>   2.0435  1.0000</r>
       <r>   2.0435  1.0000</r>
       <r>   2.0435  1.0000</r>
       <r>   2.0436  1.0000</r>
       <r>   2.2138  1.0000</r>
       <r>   2.2138  1.0000</r>
       <r>   2.2138  1.0000</r>
       <r>   2.2138  1.0000</r>
       <r>   2.3319  1.0000</r>
       <r>   2.3319  1.0000</r>
       <r>   2.3321  1.0000</r>
       <r>   2.3321  1.0000</r>
       <r>   2.3445  1.0000</r>
       <r>   2.3446  1.0000</r>
       <r>   2.3447  1.0000</r>
       <r>   2.3447  1.0000</r>
       <r>   2.3761  1.0000</r>
       <r>   2.3762  1.0000</r>
       <r>   2.3762  1.0000</r>
       <r>   2.3762  1.0000</r>
       <r>   2.4513  1.0000</r>
       <r>   2.4816  1.0000</r>
       <r>   2.4816  1.0000</r>
       <r>   2.5143  1.0000</r>
       <r>   2.6050  1.0000</r>
       <r>   2.6050  1.0000</r>
       <r>   2.6546  1.0000</r>
       <r>   2.6546  1.0000</r>
       <r>   2.6546  1.0000</r>
       <r>   2.6547  1.0000</r>
       <r>   2.7305  1.0000</r>
       <r>   2.7305  1.0000</r>
       <r>   2.7305  1.0000</r>
       <r>   2.7305  1.0000</r>
       <r>   2.9006  1.0000</r>
       <r>   3.1094  1.0000</r>
       <r>   3.1094  1.0000</r>
       <r>   3.1094  1.0000</r>
       <r>   3.1095  1.0000</r>
       <r>   3.1976  1.0000</r>
       <r>   3.3647  1.0000</r>
       <r>   3.3647  1.0000</r>
       <r>   3.3647  1.0000</r>
       <r>   3.3647  1.0000</r>
       <r>   3.5827  1.0000</r>
       <r>   3.5827  1.0000</r>
       <r>   3.6255  1.0000</r>
       <r>   3.6358  1.0000</r>
       <r>   3.6358  1.0000</r>
       <r>   3.6358  1.0000</r>
       <r>   3.6359  1.0000</r>
       <r>   3.7192  1.0000</r>
       <r>   3.7192  1.0000</r>
       <r>   3.9274  1.0000</r>
       <r>   3.9274  1.0000</r>
       <r>   3.9274  1.0000</r>
       <r>   3.9274  1.0000</r>
       <r>   3.9317  1.0000</r>
       <r>   3.9317  1.0000</r>
       <r>   4.0098  1.0000</r>
       <r>   4.0102  1.0000</r>
       <r>   4.0119  1.0000</r>
       <r>   4.0123  1.0000</r>
       <r>   4.8230  1.0000</r>
       <r>   4.8230  1.0000</r>
       <r>   4.8230  1.0000</r>
       <r>   4.8230  1.0000</r>
       <r>   4.9346  1.0000</r>
       <r>   4.9346  1.0000</r>
       <r>   4.9346  1.0000</r>
       <r>   4.9346  1.0000</r>
       <r>   5.3939  1.0000</r>
       <r>   5.3939  1.0000</r>
       <r>   5.3939  1.0000</r>
       <r>   5.3939  1.0000</r>
       <r>   6.0574  0.0000</r>
       <r>   6.0574  0.0000</r>
       <r>   6.0574  0.0000</r>
       <r>   6.0574  0.0000</r>
       <r>   6.1774  0.0000</r>
       <r>   7.0981  0.0000</r>
       <r>   7.0981  0.0000</r>
       <r>   9.0340  0.0000</r>
       <r>   9.0340  0.0000</r>
       <r>   9.0340  0.0000</r>
       <r>   9.0340  0.0000</r>
       <r>   9.9268  0.0000</r>
       <r>   9.9268  0.0000</r>
       <r>   9.9268  0.0000</r>
       <r>   9.9268  0.0000</r>
       <r>  10.5822  0.0000</r>
       <r>  10.5822  0.0000</r>
       <r>  10.9692  0.0000</r>
       <r>  10.9692  0.0000</r>
       <r>  11.4303  0.0000</r>
       <r>  11.4303  0.0000</r>
       <r>  12.1804  0.0000</r>
       <r>  12.1804  0.0000</r>
       <r>  12.1804  0.0000</r>
       <r>  12.1804  0.0000</r>
       <r>  12.2191  0.0000</r>
       <r>  12.2921  0.0000</r>
       <r>  12.2921  0.0000</r>
       <r>  12.2922  0.0000</r>
       <r>  12.2923  0.0000</r>
       <r>  13.0403  0.0000</r>
       <r>  13.0403  0.0000</r>
       <r>  13.3899  0.0000</r>
       <r>  13.3899  0.0000</r>
       <r>  13.3899  0.0000</r>
       <r>  13.3899  0.0000</r>
       <r>  13.7159  0.0000</r>
      </set>
      <set comment="kpoint 4">
       <r>  -3.9259  1.0000</r>
       <r>  -2.5857  1.0000</r>
       <r>  -1.5666  1.0000</r>
       <r>  -1.5665  1.0000</r>
       <r>  -1.5665  1.0000</r>
       <r>  -1.5665  1.0000</r>
       <r>  -1.5057  1.0000</r>
       <r>  -1.5057  1.0000</r>
       <r>  -1.5056  1.0000</r>
       <r>  -1.5056  1.0000</r>
       <r>  -1.3092  1.0000</r>
       <r>  -1.2503  1.0000</r>
       <r>  -1.2502  1.0000</r>
       <r>  -1.1822  1.0000</r>
       <r>  -0.9989  1.0000</r>
       <r>  -0.9641  1.0000</r>
       <r>  -0.9641  1.0000</r>
       <r>  -0.7522  1.0000</r>
       <r>  -0.7522  1.0000</r>
       <r>  -0.7520  1.0000</r>
       <r>  -0.7520  1.0000</r>
       <r>  -0.7429  1.0000</r>
       <r>  -0.7429  1.0000</r>
       <r>  -0.7427  1.0000</r>
       <r>  -0.7427  1.0000</r>
       <r>  -0.5049  1.0000</r>
       <r>  -0.4976  1.0000</r>
       <r>  -0.4976  1.0000</r>
       <r>  -0.1882  1.0000</r>
       <r>  -0.1882  1.0000</r>
       <r>  -0.1882  1.0000</r>
       <r>  -0.1882  1.0000</r>
       <r>  -0.1613  1.0000</r>
       <r>  -0.1613  1.0000</r>
       <r>  -0.1271  1.0000</r>
       <r>  -0.1271  1.0000</r>
       <r>  -0.1271  1.0000</r>
       <r>  -0.1270  1.0000</r>
       <r>  -0.0734  1.0000</r>
       <r>  -0.0733  1.0000</r>
       <r>  -0.0733  1.0000</r>
       <r>  -0.0733  1.0000</r>
       <r>   0.2716  1.0000</r>
       <r>   0.2849  1.0000</r>
       <r>   0.2849  1.0000</r>
       <r>   0.2849  1.0000</r>
       <r>   0.2849  1.0000</r>
       <r>   0.4341  1.0000</r>
       <r>   0.4341  1.0000</r>
       <r>   0.4341  1.0000</r>
       <r>   0.4342  1.0000</r>
       <r>   0.5288  1.0000</r>
       <r>   0.5288  1.0000</r>
       <r>   0.5288  1.0000</r>
       <r>   0.5288  1.0000</r>
       <r>   0.5367  1.0000</r>
       <r>   0.5378  1.0000</r>
       <r>   0.5378  1.0000</r>
       <r>   0.5378  1.0000</r>
       <r>   0.5448  1.0000</r>
       <r>   0.5449  1.0000</r>
       <r>   0.5449  1.0000</r>
       <r>   0.5459  1.0000</r>
       <r>   0.6682  1.0000</r>
       <r>   0.6682  1.0000</r>
       <r>   0.6682  1.0000</r>
       <r>   0.6682  1.0000</r>
       <r>   0.8714  1.0000</r>
       <r>   0.8715  1.0000</r>
       <r>   0.8715  1.0000</r>
       <r>   0.8715  1.0000</r>
       <r>   0.8921  1.0000</r>
       <r>   0.9063  1.0000</r>
       <r>   0.9063  1.0000</r>
       <r>   0.9063  1.0000</r>
       <r>   0.9064  1.0000</r>
       <r>   1.0326  1.0000</r>
       <r>   1.0326  1.0000</r>
       <r>   1.0326  1.0000</r>
       <r>   1.0327  1.0000</r>
       <r>   1.0673  1.0000</r>
       <r>   1.0673  1.0000</r>
       <r>   1.1628  1.0000</r>
       <r>   1.1628  1.0000</r>
       <r>   1.1628  1.0000</r>
       <r>   1.1628  1.0000</r>
       <r>   1.3826  1.0000</r>
       <r>   1.3826  1.0000</r>
       <r>   1.3828  1.0000</r>
       <r>   1.3828  1.0000</r>
       <r>   1.3923  1.0000</r>
       <r>   1.3923  1.0000</r>
       <r>   1.6293  1.0000</r>
       <r>   1.6293  1.0000</r>
       <r>   1.6293  1.0000</r>
       <r>   1.6293  1.0000</r>
       <r>   1.7015  1.0000</r>
       <r>   1.7015  1.0000</r>
       <r>   1.8072  1.0000</r>
       <r>   2.0331  1.0000</r>
       <r>   2.0331  1.0000</r>
       <r>   2.0331  1.0000</r>
       <r>   2.0331  1.0000</r>
       <r>   2.1448  1.0000</r>
       <r>   2.1448  1.0000</r>
       <r>   2.1448  1.0000</r>
       <r>   2.1448  1.0000</r>
       <r>   2.2119  1.0000</r>
       <r>   2.2119  1.0000</r>
       <r>   2.2119  1.0000</r>
       <r>   2.2120  1.0000</r>
       <r>   2.2827  1.0000</r>
       <r>   2.2827  1.0000</r>
       <r>   2.2827  1.0000</r>
       <r>   2.2827  1.0000</r>
       <r>   2.2981  1.0000</r>
       <r>   2.3901  1.0000</r>
       <r>   2.3903  1.0000</r>
       <r>   2.3903  1.0000</r>
       <r>   2.3903  1.0000</r>
       <r>   2.3967  1.0000</r>
       <r>   2.4046  1.0000</r>
       <r>   2.4046  1.0000</r>
       <r>   2.4046  1.0000</r>
       <r>   2.4047  1.0000</r>
       <r>   2.5366  1.0000</r>
       <r>   2.6155  1.0000</r>
       <r>   2.6155  1.0000</r>
       <r>   2.7986  1.0000</r>
       <r>   2.7987  1.0000</r>
       <r>   2.7987  1.0000</r>
       <r>   2.7987  1.0000</r>
       <r>   2.8058  1.0000</r>
       <r>   2.8058  1.0000</r>
       <r>   2.8315  1.0000</r>
       <r>   2.8787  1.0000</r>
       <r>   2.8787  1.0000</r>
       <r>   2.8788  1.0000</r>
       <r>   2.8788  1.0000</r>
       <r>   3.0653  1.0000</r>
       <r>   3.0653  1.0000</r>
       <r>   3.0653  1.0000</r>
       <r>   3.0653  1.0000</r>
       <r>   3.2085  1.0000</r>
       <r>   3.2085  1.0000</r>
       <r>   3.2085  1.0000</r>
       <r>   3.2085  1.0000</r>
       <r>   3.2706  1.0000</r>
       <r>   3.4271  1.0000</r>
       <r>   3.4271  1.0000</r>
       <r>   3.5039  1.0000</r>
       <r>   3.5039  1.0000</r>
       <r>   3.5696  1.0000</r>
       <r>   3.5696  1.0000</r>
       <r>   3.5696  1.0000</r>
       <r>   3.5696  1.0000</r>
       <r>   3.5993  1.0000</r>
       <r>   3.8275  1.0000</r>
       <r>   3.8275  1.0000</r>
       <r>   3.8275  1.0000</r>
       <r>   3.8275  1.0000</r>
       <r>   3.8375  1.0000</r>
       <r>   3.8375  1.0000</r>
       <r>   4.0099  1.0000</r>
       <r>   4.0103  1.0000</r>
       <r>   4.0117  1.0000</r>
       <r>   4.0122  1.0000</r>
       <r>   4.5509  1.0000</r>
       <r>   4.5509  1.0000</r>
       <r>   4.5509  1.0000</r>
       <r>   4.5509  1.0000</r>
       <r>   5.0601  1.0000</r>
       <r>   5.0601  1.0000</r>
       <r>   5.0601  1.0000</r>
       <r>   5.0601  1.0000</r>
       <r>   5.3834  1.0000</r>
       <r>   5.3835  1.0000</r>
       <r>   5.3835  1.0000</r>
       <r>   5.3835  1.0000</r>
       <r>   5.6201  1.0000</r>
       <r>   6.4306  0.0000</r>
       <r>   6.4306  0.0000</r>
       <r>   6.4307  0.0000</r>
       <r>   6.4307  0.0000</r>
       <r>   7.4594  0.0000</r>
       <r>   7.4594  0.0000</r>
       <r>   9.3340  0.0000</r>
       <r>   9.3340  0.0000</r>
       <r>   9.3340  0.0000</r>
       <r>   9.3341  0.0000</r>
       <r>   9.4048  0.0000</r>
       <r>   9.4048  0.0000</r>
       <r>   9.4049  0.0000</r>
       <r>   9.4049  0.0000</r>
       <r>  10.4339  0.0000</r>
       <r>  10.4339  0.0000</r>
       <r>  10.6495  0.0000</r>
       <r>  10.6495  0.0000</r>
       <r>  11.3417  0.0000</r>
       <r>  11.3417  0.0000</r>
       <r>  12.3653  0.0000</r>
       <r>  12.3653  0.0000</r>
       <r>  12.3653  0.0000</r>
       <r>  12.3653  0.0000</r>
       <r>  12.4603  0.0000</r>
       <r>  12.4603  0.0000</r>
       <r>  12.4603  0.0000</r>
       <r>  12.4603  0.0000</r>
       <r>  12.7081  0.0000</r>
       <r>  12.7081  0.0000</r>
       <r>  12.7081  0.0000</r>
       <r>  12.7081  0.0000</r>
       <r>  12.9510  0.0000</r>
       <r>  13.4645  0.0000</r>
       <r>  13.4648  0.0000</r>
       <r>  13.4665  0.0000</r>
      </set>
      <set comment="kpoint 5">
       <r>  -3.7862  1.0000</r>
       <r>  -2.8792  1.0000</r>
       <r>  -1.4691  1.0000</r>
       <r>  -1.4690  1.0000</r>
       <r>  -1.4690  1.0000</r>
       <r>  -1.4690  1.0000</r>
       <r>  -1.4263  1.0000</r>
       <r>  -1.4263  1.0000</r>
       <r>  -1.4263  1.0000</r>
       <r>  -1.4263  1.0000</r>
       <r>  -1.2666  1.0000</r>
       <r>  -1.1597  1.0000</r>
       <r>  -1.1597  1.0000</r>
       <r>  -1.1407  1.0000</r>
       <r>  -0.9480  1.0000</r>
       <r>  -0.9094  1.0000</r>
       <r>  -0.9094  1.0000</r>
       <r>  -0.9092  1.0000</r>
       <r>  -0.9091  1.0000</r>
       <r>  -0.9043  1.0000</r>
       <r>  -0.9042  1.0000</r>
       <r>  -0.9041  1.0000</r>
       <r>  -0.9041  1.0000</r>
       <r>  -0.8854  1.0000</r>
       <r>  -0.8854  1.0000</r>
       <r>  -0.6344  1.0000</r>
       <r>  -0.6344  1.0000</r>
       <r>  -0.6154  1.0000</r>
       <r>  -0.3496  1.0000</r>
       <r>  -0.3496  1.0000</r>
       <r>  -0.1271  1.0000</r>
       <r>  -0.1270  1.0000</r>
       <r>  -0.1269  1.0000</r>
       <r>  -0.1269  1.0000</r>
       <r>  -0.0610  1.0000</r>
       <r>  -0.0610  1.0000</r>
       <r>  -0.0610  1.0000</r>
       <r>  -0.0610  1.0000</r>
       <r>  -0.0313  1.0000</r>
       <r>  -0.0313  1.0000</r>
       <r>  -0.0313  1.0000</r>
       <r>  -0.0313  1.0000</r>
       <r>   0.2158  1.0000</r>
       <r>   0.2158  1.0000</r>
       <r>   0.2158  1.0000</r>
       <r>   0.2158  1.0000</r>
       <r>   0.3760  1.0000</r>
       <r>   0.3760  1.0000</r>
       <r>   0.3760  1.0000</r>
       <r>   0.3760  1.0000</r>
       <r>   0.4003  1.0000</r>
       <r>   0.4193  1.0000</r>
       <r>   0.4193  1.0000</r>
       <r>   0.4193  1.0000</r>
       <r>   0.4194  1.0000</r>
       <r>   0.5431  1.0000</r>
       <r>   0.5438  1.0000</r>
       <r>   0.5438  1.0000</r>
       <r>   0.5439  1.0000</r>
       <r>   0.5541  1.0000</r>
       <r>   0.5542  1.0000</r>
       <r>   0.5542  1.0000</r>
       <r>   0.5550  1.0000</r>
       <r>   0.7162  1.0000</r>
       <r>   0.7162  1.0000</r>
       <r>   0.7162  1.0000</r>
       <r>   0.7162  1.0000</r>
       <r>   0.8223  1.0000</r>
       <r>   0.8757  1.0000</r>
       <r>   0.8757  1.0000</r>
       <r>   0.8757  1.0000</r>
       <r>   0.8757  1.0000</r>
       <r>   0.9016  1.0000</r>
       <r>   0.9016  1.0000</r>
       <r>   0.9016  1.0000</r>
       <r>   0.9017  1.0000</r>
       <r>   1.0964  1.0000</r>
       <r>   1.0964  1.0000</r>
       <r>   1.0964  1.0000</r>
       <r>   1.0965  1.0000</r>
       <r>   1.1308  1.0000</r>
       <r>   1.1308  1.0000</r>
       <r>   1.2502  1.0000</r>
       <r>   1.2502  1.0000</r>
       <r>   1.2502  1.0000</r>
       <r>   1.2502  1.0000</r>
       <r>   1.4344  1.0000</r>
       <r>   1.4344  1.0000</r>
       <r>   1.4344  1.0000</r>
       <r>   1.4344  1.0000</r>
       <r>   1.5025  1.0000</r>
       <r>   1.5025  1.0000</r>
       <r>   1.5025  1.0000</r>
       <r>   1.5025  1.0000</r>
       <r>   1.5557  1.0000</r>
       <r>   1.5557  1.0000</r>
       <r>   1.7136  1.0000</r>
       <r>   1.7136  1.0000</r>
       <r>   1.9095  1.0000</r>
       <r>   2.1296  1.0000</r>
       <r>   2.1296  1.0000</r>
       <r>   2.1296  1.0000</r>
       <r>   2.1296  1.0000</r>
       <r>   2.2107  1.0000</r>
       <r>   2.2107  1.0000</r>
       <r>   2.2108  1.0000</r>
       <r>   2.2108  1.0000</r>
       <r>   2.2398  1.0000</r>
       <r>   2.2398  1.0000</r>
       <r>   2.2398  1.0000</r>
       <r>   2.2398  1.0000</r>
       <r>   2.2492  1.0000</r>
       <r>   2.2492  1.0000</r>
       <r>   2.2492  1.0000</r>
       <r>   2.2492  1.0000</r>
       <r>   2.3228  1.0000</r>
       <r>   2.3987  1.0000</r>
       <r>   2.3987  1.0000</r>
       <r>   2.3988  1.0000</r>
       <r>   2.3988  1.0000</r>
       <r>   2.4149  1.0000</r>
       <r>   2.4149  1.0000</r>
       <r>   2.4149  1.0000</r>
       <r>   2.4150  1.0000</r>
       <r>   2.5675  1.0000</r>
       <r>   2.7115  1.0000</r>
       <r>   2.7366  1.0000</r>
       <r>   2.7366  1.0000</r>
       <r>   2.7366  1.0000</r>
       <r>   2.7366  1.0000</r>
       <r>   2.7662  1.0000</r>
       <r>   2.7751  1.0000</r>
       <r>   2.7752  1.0000</r>
       <r>   2.9505  1.0000</r>
       <r>   2.9505  1.0000</r>
       <r>   2.9505  1.0000</r>
       <r>   2.9506  1.0000</r>
       <r>   3.0061  1.0000</r>
       <r>   3.0061  1.0000</r>
       <r>   3.0403  1.0000</r>
       <r>   3.0403  1.0000</r>
       <r>   3.0403  1.0000</r>
       <r>   3.0404  1.0000</r>
       <r>   3.0945  1.0000</r>
       <r>   3.0945  1.0000</r>
       <r>   3.3405  1.0000</r>
       <r>   3.3633  1.0000</r>
       <r>   3.3633  1.0000</r>
       <r>   3.3633  1.0000</r>
       <r>   3.3633  1.0000</r>
       <r>   3.3963  1.0000</r>
       <r>   3.3964  1.0000</r>
       <r>   3.4798  1.0000</r>
       <r>   3.4799  1.0000</r>
       <r>   3.4799  1.0000</r>
       <r>   3.4799  1.0000</r>
       <r>   3.5634  1.0000</r>
       <r>   3.6978  1.0000</r>
       <r>   3.6978  1.0000</r>
       <r>   3.6978  1.0000</r>
       <r>   3.6978  1.0000</r>
       <r>   3.7119  1.0000</r>
       <r>   3.7119  1.0000</r>
       <r>   4.0100  1.0000</r>
       <r>   4.0105  1.0000</r>
       <r>   4.0115  1.0000</r>
       <r>   4.0121  1.0000</r>
       <r>   4.2870  1.0000</r>
       <r>   4.2870  1.0000</r>
       <r>   4.2870  1.0000</r>
       <r>   4.2871  1.0000</r>
       <r>   5.0037  1.0000</r>
       <r>   5.1648  1.0000</r>
       <r>   5.1649  1.0000</r>
       <r>   5.1649  1.0000</r>
       <r>   5.1649  1.0000</r>
       <r>   5.3664  1.0000</r>
       <r>   5.3664  1.0000</r>
       <r>   5.3664  1.0000</r>
       <r>   5.3665  1.0000</r>
       <r>   6.8414  0.0000</r>
       <r>   6.8414  0.0000</r>
       <r>   6.8414  0.0000</r>
       <r>   6.8414  0.0000</r>
       <r>   7.8879  0.0000</r>
       <r>   7.8879  0.0000</r>
       <r>   8.8533  0.0000</r>
       <r>   8.8533  0.0000</r>
       <r>   8.8533  0.0000</r>
       <r>   8.8533  0.0000</r>
       <r>   9.7342  0.0000</r>
       <r>   9.7342  0.0000</r>
       <r>   9.7342  0.0000</r>
       <r>   9.7342  0.0000</r>
       <r>   9.9003  0.0000</r>
       <r>   9.9003  0.0000</r>
       <r>  10.7402  0.0000</r>
       <r>  10.7402  0.0000</r>
       <r>  11.2294  0.0000</r>
       <r>  11.2294  0.0000</r>
       <r>  12.0305  0.0000</r>
       <r>  12.0305  0.0000</r>
       <r>  12.0306  0.0000</r>
       <r>  12.0306  0.0000</r>
       <r>  12.6084  0.0000</r>
       <r>  12.6084  0.0000</r>
       <r>  12.6085  0.0000</r>
       <r>  12.6085  0.0000</r>
       <r>  12.6138  0.0000</r>
       <r>  12.6138  0.0000</r>
       <r>  12.6138  0.0000</r>
       <r>  12.6138  0.0000</r>
       <r>  13.2469  0.0000</r>
       <r>  13.2469  0.0000</r>
       <r>  13.2469  0.0000</r>
       <r>  13.2469  0.0000</r>
      </set>
      <set comment="kpoint 6">
       <r>  -3.6089  1.0000</r>
       <r>  -3.1516  1.0000</r>
       <r>  -1.3490  1.0000</r>
       <r>  -1.3489  1.0000</r>
       <r>  -1.3489  1.0000</r>
       <r>  -1.3489  1.0000</r>
       <r>  -1.3256  1.0000</r>
       <r>  -1.3256  1.0000</r>
       <r>  -1.3256  1.0000</r>
       <r>  -1.3256  1.0000</r>
       <r>  -1.2197  1.0000</r>
       <r>  -1.1444  1.0000</r>
       <r>  -1.0649  1.0000</r>
       <r>  -1.0649  1.0000</r>
       <r>  -1.0647  1.0000</r>
       <r>  -1.0647  1.0000</r>
       <r>  -1.0601  1.0000</r>
       <r>  -1.0600  1.0000</r>
       <r>  -1.0597  1.0000</r>
       <r>  -1.0597  1.0000</r>
       <r>  -1.0477  1.0000</r>
       <r>  -1.0476  1.0000</r>
       <r>  -0.8834  1.0000</r>
       <r>  -0.7845  1.0000</r>
       <r>  -0.7845  1.0000</r>
       <r>  -0.7784  1.0000</r>
       <r>  -0.7784  1.0000</r>
       <r>  -0.7161  1.0000</r>
       <r>  -0.5164  1.0000</r>
       <r>  -0.5164  1.0000</r>
       <r>  -0.0610  1.0000</r>
       <r>  -0.0608  1.0000</r>
       <r>  -0.0608  1.0000</r>
       <r>  -0.0608  1.0000</r>
       <r>  -0.0143  1.0000</r>
       <r>  -0.0143  1.0000</r>
       <r>  -0.0143  1.0000</r>
       <r>  -0.0142  1.0000</r>
       <r>   0.0206  1.0000</r>
       <r>   0.0206  1.0000</r>
       <r>   0.0206  1.0000</r>
       <r>   0.0207  1.0000</r>
       <r>   0.1467  1.0000</r>
       <r>   0.1467  1.0000</r>
       <r>   0.1467  1.0000</r>
       <r>   0.1467  1.0000</r>
       <r>   0.3216  1.0000</r>
       <r>   0.3217  1.0000</r>
       <r>   0.3217  1.0000</r>
       <r>   0.3218  1.0000</r>
       <r>   0.3313  1.0000</r>
       <r>   0.3314  1.0000</r>
       <r>   0.3314  1.0000</r>
       <r>   0.3315  1.0000</r>
       <r>   0.5223  1.0000</r>
       <r>   0.5489  1.0000</r>
       <r>   0.5499  1.0000</r>
       <r>   0.5499  1.0000</r>
       <r>   0.5499  1.0000</r>
       <r>   0.5568  1.0000</r>
       <r>   0.5569  1.0000</r>
       <r>   0.5569  1.0000</r>
       <r>   0.5580  1.0000</r>
       <r>   0.7359  1.0000</r>
       <r>   0.7591  1.0000</r>
       <r>   0.7591  1.0000</r>
       <r>   0.7591  1.0000</r>
       <r>   0.7591  1.0000</r>
       <r>   0.8398  1.0000</r>
       <r>   0.8398  1.0000</r>
       <r>   0.8398  1.0000</r>
       <r>   0.8398  1.0000</r>
       <r>   0.9544  1.0000</r>
       <r>   0.9544  1.0000</r>
       <r>   0.9544  1.0000</r>
       <r>   0.9545  1.0000</r>
       <r>   1.1312  1.0000</r>
       <r>   1.1312  1.0000</r>
       <r>   1.1312  1.0000</r>
       <r>   1.1313  1.0000</r>
       <r>   1.1769  1.0000</r>
       <r>   1.1769  1.0000</r>
       <r>   1.1769  1.0000</r>
       <r>   1.1769  1.0000</r>
       <r>   1.2119  1.0000</r>
       <r>   1.2119  1.0000</r>
       <r>   1.3822  1.0000</r>
       <r>   1.3822  1.0000</r>
       <r>   1.3822  1.0000</r>
       <r>   1.3822  1.0000</r>
       <r>   1.4250  1.0000</r>
       <r>   1.4250  1.0000</r>
       <r>   1.7389  1.0000</r>
       <r>   1.7389  1.0000</r>
       <r>   1.7389  1.0000</r>
       <r>   1.7389  1.0000</r>
       <r>   2.0201  1.0000</r>
       <r>   2.0488  1.0000</r>
       <r>   2.0488  1.0000</r>
       <r>   2.2117  1.0000</r>
       <r>   2.2117  1.0000</r>
       <r>   2.2117  1.0000</r>
       <r>   2.2117  1.0000</r>
       <r>   2.2264  1.0000</r>
       <r>   2.2266  1.0000</r>
       <r>   2.2266  1.0000</r>
       <r>   2.2268  1.0000</r>
       <r>   2.2283  1.0000</r>
       <r>   2.2283  1.0000</r>
       <r>   2.2285  1.0000</r>
       <r>   2.2285  1.0000</r>
       <r>   2.2331  1.0000</r>
       <r>   2.3158  1.0000</r>
       <r>   2.3158  1.0000</r>
       <r>   2.3158  1.0000</r>
       <r>   2.3159  1.0000</r>
       <r>   2.3799  1.0000</r>
       <r>   2.3800  1.0000</r>
       <r>   2.3801  1.0000</r>
       <r>   2.3801  1.0000</r>
       <r>   2.3932  1.0000</r>
       <r>   2.3932  1.0000</r>
       <r>   2.3934  1.0000</r>
       <r>   2.3935  1.0000</r>
       <r>   2.3987  1.0000</r>
       <r>   2.3988  1.0000</r>
       <r>   2.3988  1.0000</r>
       <r>   2.3988  1.0000</r>
       <r>   2.6066  1.0000</r>
       <r>   2.7067  1.0000</r>
       <r>   2.7457  1.0000</r>
       <r>   2.7457  1.0000</r>
       <r>   2.9443  1.0000</r>
       <r>   2.9443  1.0000</r>
       <r>   3.1002  1.0000</r>
       <r>   3.1002  1.0000</r>
       <r>   3.1002  1.0000</r>
       <r>   3.1003  1.0000</r>
       <r>   3.2020  1.0000</r>
       <r>   3.2020  1.0000</r>
       <r>   3.2099  1.0000</r>
       <r>   3.2099  1.0000</r>
       <r>   3.2099  1.0000</r>
       <r>   3.2099  1.0000</r>
       <r>   3.2099  1.0000</r>
       <r>   3.2635  1.0000</r>
       <r>   3.2635  1.0000</r>
       <r>   3.3693  1.0000</r>
       <r>   3.3693  1.0000</r>
       <r>   3.3693  1.0000</r>
       <r>   3.3693  1.0000</r>
       <r>   3.4060  1.0000</r>
       <r>   3.5185  1.0000</r>
       <r>   3.5461  1.0000</r>
       <r>   3.5461  1.0000</r>
       <r>   3.5462  1.0000</r>
       <r>   3.5462  1.0000</r>
       <r>   3.5600  1.0000</r>
       <r>   3.5600  1.0000</r>
       <r>   3.5617  1.0000</r>
       <r>   3.5617  1.0000</r>
       <r>   3.5622  1.0000</r>
[...]
       <r>   1.9968  1.0000</r>
       <r>   1.9968  1.0000</r>
       <r>   1.9973  1.0000</r>
       <r>   1.9973  1.0000</r>
       <r>   1.9973  1.0000</r>
       <r>   1.9974  1.0000</r>
       <r>   1.9978  1.0000</r>
       <r>   1.9978  1.0000</r>
       <r>   2.3979  1.0000</r>
       <r>   2.3984  1.0000</r>
       <r>   2.3984  1.0000</r>
       <r>   2.3985  1.0000</r>
       <r>   2.4418  1.0000</r>
       <r>   2.4421  1.0000</r>
       <r>   2.4421  1.0000</r>
       <r>   2.4423  1.0000</r>
       <r>   2.4435  1.0000</r>
       <r>   2.4435  1.0000</r>
       <r>   2.4442  1.0000</r>
       <r>   2.4442  1.0000</r>
       <r>   2.4442  1.0000</r>
       <r>   2.4451  1.0000</r>
       <r>   2.4451  1.0000</r>
       <r>   2.4452  1.0000</r>
       <r>   2.7118  1.0000</r>
       <r>   2.7120  1.0000</r>
       <r>   2.7120  1.0000</r>
       <r>   2.7120  1.0000</r>
       <r>   2.7313  1.0000</r>
       <r>   2.7313  1.0000</r>
       <r>   2.7313  1.0000</r>
       <r>   2.7315  1.0000</r>
       <r>   2.9472  1.0000</r>
       <r>   2.9472  1.0000</r>
       <r>   2.9472  1.0000</r>
       <r>   2.9472  1.0000</r>
       <r>   3.7048  1.0000</r>
       <r>   3.7048  1.0000</r>
       <r>   3.7050  1.0000</r>
       <r>   3.7051  1.0000</r>
       <r>   3.7051  1.0000</r>
       <r>   3.7051  1.0000</r>
       <r>   3.7054  1.0000</r>
       <r>   3.7054  1.0000</r>
       <r>   3.7258  1.0000</r>
       <r>   3.7258  1.0000</r>
       <r>   3.7258  1.0000</r>
       <r>   3.7258  1.0000</r>
       <r>   3.7524  1.0000</r>
       <r>   3.7524  1.0000</r>
       <r>   3.7527  1.0000</r>
       <r>   3.7528  1.0000</r>
       <r>   3.7529  1.0000</r>
       <r>   3.7530  1.0000</r>
       <r>   3.7530  1.0000</r>
       <r>   3.7530  1.0000</r>
       <r>   3.7533  1.0000</r>
       <r>   3.7534  1.0000</r>
       <r>   3.7536  1.0000</r>
       <r>   3.7536  1.0000</r>
       <r>   5.5305  1.0000</r>
       <r>   5.5305  1.0000</r>
       <r>   5.5305  1.0000</r>
       <r>   5.5306  1.0000</r>
       <r>   6.2591  0.0000</r>
       <r>   6.2591  0.0000</r>
       <r>   6.2594  0.0000</r>
       <r>   6.2595  0.0000</r>
       <r>   6.2595  0.0000</r>
       <r>   6.2595  0.0000</r>
       <r>   6.2599  0.0000</r>
       <r>   6.2599  0.0000</r>
       <r>   7.2813  0.0000</r>
       <r>   7.2813  0.0000</r>
       <r>   7.2822  0.0000</r>
       <r>   7.2822  0.0000</r>
       <r>   7.2822  0.0000</r>
       <r>   7.2822  0.0000</r>
       <r>   7.2831  0.0000</r>
       <r>   7.2831  0.0000</r>
       <r>   8.0219  0.0000</r>
       <r>   8.0219  0.0000</r>
       <r>   8.0219  0.0000</r>
       <r>   8.0219  0.0000</r>
       <r>  10.1905  0.0000</r>
       <r>  10.1905  0.0000</r>
       <r>  10.1906  0.0000</r>
       <r>  10.1906  0.0000</r>
       <r>  10.1906  0.0000</r>
       <r>  10.1906  0.0000</r>
       <r>  10.1906  0.0000</r>
       <r>  10.1906  0.0000</r>
       <r>  10.5539  0.0000</r>
       <r>  10.5539  0.0000</r>
       <r>  10.5539  0.0000</r>
       <r>  10.5539  0.0000</r>
       <r>  11.9733  0.0000</r>
       <r>  11.9733  0.0000</r>
       <r>  11.9733  0.0000</r>
       <r>  11.9733  0.0000</r>
       <r>  12.2991  0.0000</r>
       <r>  12.2991  0.0000</r>
       <r>  12.2993  0.0000</r>
       <r>  12.2993  0.0000</r>
       <r>  12.2993  0.0000</r>
       <r>  12.2993  0.0000</r>
       <r>  12.2995  0.0000</r>
       <r>  12.2995  0.0000</r>
      </set>
      <set comment="kpoint 195">
       <r>  -2.4468  1.0000</r>
       <r>  -2.4467  1.0000</r>
       <r>  -2.4467  1.0000</r>
       <r>  -2.4467  1.0000</r>
       <r>  -2.1744  1.0000</r>
       <r>  -2.1744  1.0000</r>
       <r>  -2.1744  1.0000</r>
       <r>  -2.1743  1.0000</r>
       <r>  -0.7940  1.0000</r>
       <r>  -0.7938  1.0000</r>
       <r>  -0.7938  1.0000</r>
       <r>  -0.7938  1.0000</r>
       <r>  -0.7699  1.0000</r>
       <r>  -0.7699  1.0000</r>
       <r>  -0.7696  1.0000</r>
       <r>  -0.7696  1.0000</r>
       <r>  -0.7695  1.0000</r>
       <r>  -0.7694  1.0000</r>
       <r>  -0.7692  1.0000</r>
       <r>  -0.7692  1.0000</r>
       <r>  -0.7432  1.0000</r>
       <r>  -0.7427  1.0000</r>
       <r>  -0.7427  1.0000</r>
       <r>  -0.7426  1.0000</r>
       <r>  -0.7361  1.0000</r>
       <r>  -0.7361  1.0000</r>
       <r>  -0.7355  1.0000</r>
       <r>  -0.7355  1.0000</r>
       <r>  -0.7354  1.0000</r>
       <r>  -0.7349  1.0000</r>
       <r>  -0.7346  1.0000</r>
       <r>  -0.7346  1.0000</r>
       <r>   0.0179  1.0000</r>
       <r>   0.0179  1.0000</r>
       <r>   0.0185  1.0000</r>
       <r>   0.0186  1.0000</r>
       <r>   0.0186  1.0000</r>
       <r>   0.0186  1.0000</r>
       <r>   0.0193  1.0000</r>
       <r>   0.0193  1.0000</r>
       <r>   0.0519  1.0000</r>
       <r>   0.0521  1.0000</r>
       <r>   0.0521  1.0000</r>
       <r>   0.0521  1.0000</r>
       <r>   0.2506  1.0000</r>
       <r>   0.2508  1.0000</r>
       <r>   0.2508  1.0000</r>
       <r>   0.2515  1.0000</r>
       <r>   0.2515  1.0000</r>
       <r>   0.2515  1.0000</r>
       <r>   0.2515  1.0000</r>
       <r>   0.2515  1.0000</r>
       <r>   0.2516  1.0000</r>
       <r>   0.2522  1.0000</r>
       <r>   0.2522  1.0000</r>
       <r>   0.2523  1.0000</r>
       <r>   0.7976  1.0000</r>
       <r>   0.7977  1.0000</r>
       <r>   0.7977  1.0000</r>
       <r>   0.7977  1.0000</r>
       <r>   0.9246  1.0000</r>
       <r>   0.9246  1.0000</r>
       <r>   0.9246  1.0000</r>
       <r>   0.9246  1.0000</r>
       <r>   1.2361  1.0000</r>
       <r>   1.2362  1.0000</r>
       <r>   1.2362  1.0000</r>
       <r>   1.2363  1.0000</r>
       <r>   1.2527  1.0000</r>
       <r>   1.2527  1.0000</r>
       <r>   1.2527  1.0000</r>
       <r>   1.2529  1.0000</r>
       <r>   1.2619  1.0000</r>
       <r>   1.2621  1.0000</r>
       <r>   1.2621  1.0000</r>
       <r>   1.2622  1.0000</r>
       <r>   1.2795  1.0000</r>
       <r>   1.2795  1.0000</r>
       <r>   1.2798  1.0000</r>
       <r>   1.2799  1.0000</r>
       <r>   1.2815  1.0000</r>
       <r>   1.2817  1.0000</r>
       <r>   1.2819  1.0000</r>
       <r>   1.2819  1.0000</r>
       <r>   1.2983  1.0000</r>
       <r>   1.2983  1.0000</r>
       <r>   1.3001  1.0000</r>
       <r>   1.3002  1.0000</r>
       <r>   1.3002  1.0000</r>
       <r>   1.3004  1.0000</r>
       <r>   1.3022  1.0000</r>
       <r>   1.3022  1.0000</r>
       <r>   1.4028  1.0000</r>
       <r>   1.4028  1.0000</r>
       <r>   1.4043  1.0000</r>
       <r>   1.4043  1.0000</r>
       <r>   1.4043  1.0000</r>
       <r>   1.4044  1.0000</r>
       <r>   1.4059  1.0000</r>
       <r>   1.4059  1.0000</r>
       <r>   1.4703  1.0000</r>
       <r>   1.4703  1.0000</r>
       <r>   1.4703  1.0000</r>
       <r>   1.4703  1.0000</r>
       <r>   2.0287  1.0000</r>
       <r>   2.0288  1.0000</r>
       <r>   2.0288  1.0000</r>
       <r>   2.0288  1.0000</r>
       <r>   2.0702  1.0000</r>
       <r>   2.0702  1.0000</r>
       <r>   2.0708  1.0000</r>
       <r>   2.0709  1.0000</r>
       <r>   2.0709  1.0000</r>
       <r>   2.0709  1.0000</r>
       <r>   2.0715  1.0000</r>
       <r>   2.0715  1.0000</r>
       <r>   2.2892  1.0000</r>
       <r>   2.2892  1.0000</r>
       <r>   2.2899  1.0000</r>
       <r>   2.2900  1.0000</r>
       <r>   2.2900  1.0000</r>
       <r>   2.2900  1.0000</r>
       <r>   2.2908  1.0000</r>
       <r>   2.2908  1.0000</r>
       <r>   2.3054  1.0000</r>
       <r>   2.3054  1.0000</r>
       <r>   2.3054  1.0000</r>
       <r>   2.3055  1.0000</r>
       <r>   2.5271  1.0000</r>
       <r>   2.5271  1.0000</r>
       <r>   2.5271  1.0000</r>
       <r>   2.5271  1.0000</r>
       <r>   2.6634  1.0000</r>
       <r>   2.6635  1.0000</r>
       <r>   2.6635  1.0000</r>
       <r>   2.6635  1.0000</r>
       <r>   2.6922  1.0000</r>
       <r>   2.6922  1.0000</r>
       <r>   2.6922  1.0000</r>
       <r>   2.6923  1.0000</r>
       <r>   2.8052  1.0000</r>
       <r>   2.8052  1.0000</r>
       <r>   2.8052  1.0000</r>
       <r>   2.8052  1.0000</r>
       <r>   3.7503  1.0000</r>
       <r>   3.7503  1.0000</r>
       <r>   3.7504  1.0000</r>
       <r>   3.7504  1.0000</r>
       <r>   3.7504  1.0000</r>
       <r>   3.7504  1.0000</r>
       <r>   3.7506  1.0000</r>
       <r>   3.7506  1.0000</r>
       <r>   3.7609  1.0000</r>
       <r>   3.7610  1.0000</r>
       <r>   3.7610  1.0000</r>
       <r>   3.7610  1.0000</r>
       <r>   3.7765  1.0000</r>
       <r>   3.7765  1.0000</r>
       <r>   3.7765  1.0000</r>
       <r>   3.7766  1.0000</r>
       <r>   3.7817  1.0000</r>
       <r>   3.7817  1.0000</r>
       <r>   3.7818  1.0000</r>
       <r>   3.7818  1.0000</r>
       <r>   3.7819  1.0000</r>
       <r>   3.7819  1.0000</r>
       <r>   3.7821  1.0000</r>
       <r>   3.7821  1.0000</r>
       <r>   6.1129  0.0000</r>
       <r>   6.1129  0.0000</r>
       <r>   6.1129  0.0000</r>
       <r>   6.1129  0.0000</r>
       <r>   6.4787  0.0000</r>
       <r>   6.4787  0.0000</r>
       <r>   6.4792  0.0000</r>
       <r>   6.4792  0.0000</r>
       <r>   6.4792  0.0000</r>
       <r>   6.4792  0.0000</r>
       <r>   6.4797  0.0000</r>
       <r>   6.4797  0.0000</r>
       <r>   6.9973  0.0000</r>
       <r>   6.9973  0.0000</r>
       <r>   6.9980  0.0000</r>
       <r>   6.9980  0.0000</r>
       <r>   6.9980  0.0000</r>
       <r>   6.9980  0.0000</r>
       <r>   6.9988  0.0000</r>
       <r>   6.9988  0.0000</r>
       <r>   7.3686  0.0000</r>
       <r>   7.3686  0.0000</r>
       <r>   7.3687  0.0000</r>
       <r>   7.3687  0.0000</r>
       <r>  10.6672  0.0000</r>
       <r>  10.6672  0.0000</r>
       <r>  10.6672  0.0000</r>
       <r>  10.6672  0.0000</r>
       <r>  10.6672  0.0000</r>
       <r>  10.6673  0.0000</r>
       <r>  10.6673  0.0000</r>
       <r>  10.6673  0.0000</r>
       <r>  10.8413  0.0000</r>
       <r>  10.8413  0.0000</r>
       <r>  10.8413  0.0000</r>
       <r>  10.8413  0.0000</r>
       <r>  11.5605  0.0000</r>
       <r>  11.5605  0.0000</r>
       <r>  11.5605  0.0000</r>
       <r>  11.5605  0.0000</r>
       <r>  11.7266  0.0000</r>
       <r>  11.7266  0.0000</r>
       <r>  11.7267  0.0000</r>
       <r>  11.7267  0.0000</r>
       <r>  11.7267  0.0000</r>
       <r>  11.7267  0.0000</r>
       <r>  11.7269  0.0000</r>
       <r>  11.7269  0.0000</r>
      </set>
      <set comment="kpoint 196">
       <r>  -2.3232  1.0000</r>
       <r>  -2.3195  1.0000</r>
       <r>  -2.3195  1.0000</r>
       <r>  -2.3189  1.0000</r>
       <r>  -2.3186  1.0000</r>
       <r>  -2.3180  1.0000</r>
       <r>  -2.3180  1.0000</r>
       <r>  -2.3144  1.0000</r>
       <r>  -0.7613  1.0000</r>
       <r>  -0.7612  1.0000</r>
       <r>  -0.7612  1.0000</r>
       <r>  -0.7612  1.0000</r>
       <r>  -0.7604  1.0000</r>
       <r>  -0.7594  1.0000</r>
       <r>  -0.7586  1.0000</r>
       <r>  -0.7585  1.0000</r>
       <r>  -0.7585  1.0000</r>
       <r>  -0.7585  1.0000</r>
       <r>  -0.7585  1.0000</r>
       <r>  -0.7583  1.0000</r>
       <r>  -0.7582  1.0000</r>
       <r>  -0.7581  1.0000</r>
       <r>  -0.7581  1.0000</r>
       <r>  -0.7580  1.0000</r>
       <r>  -0.7580  1.0000</r>
       <r>  -0.7580  1.0000</r>
       <r>  -0.7571  1.0000</r>
       <r>  -0.7562  1.0000</r>
       <r>  -0.7554  1.0000</r>
       <r>  -0.7554  1.0000</r>
       <r>  -0.7554  1.0000</r>
       <r>  -0.7553  1.0000</r>
       <r>   0.1371  1.0000</r>
       <r>   0.1412  1.0000</r>
       <r>   0.1417  1.0000</r>
       <r>   0.1419  1.0000</r>
       <r>   0.1419  1.0000</r>
       <r>   0.1427  1.0000</r>
       <r>   0.1431  1.0000</r>
       <r>   0.1431  1.0000</r>
       <r>   0.1434  1.0000</r>
       <r>   0.1434  1.0000</r>
       <r>   0.1434  1.0000</r>
       <r>   0.1435  1.0000</r>
       <r>   0.1435  1.0000</r>
       <r>   0.1436  1.0000</r>
       <r>   0.1436  1.0000</r>
       <r>   0.1436  1.0000</r>
       <r>   0.1439  1.0000</r>
       <r>   0.1439  1.0000</r>
       <r>   0.1443  1.0000</r>
       <r>   0.1450  1.0000</r>
       <r>   0.1450  1.0000</r>
       <r>   0.1452  1.0000</r>
       <r>   0.1457  1.0000</r>
       <r>   0.1498  1.0000</r>
       <r>   0.8651  1.0000</r>
       <r>   0.8672  1.0000</r>
       <r>   0.8678  1.0000</r>
       <r>   0.8678  1.0000</r>
       <r>   0.8680  1.0000</r>
       <r>   0.8680  1.0000</r>
       <r>   0.8686  1.0000</r>
       <r>   0.8706  1.0000</r>
       <r>   1.2633  1.0000</r>
       <r>   1.2633  1.0000</r>
       <r>   1.2638  1.0000</r>
       <r>   1.2641  1.0000</r>
       <r>   1.2649  1.0000</r>
       <r>   1.2650  1.0000</r>
       <r>   1.2651  1.0000</r>
       <r>   1.2651  1.0000</r>
       <r>   1.2655  1.0000</r>
       <r>   1.2655  1.0000</r>
       <r>   1.2656  1.0000</r>
       <r>   1.2658  1.0000</r>
       <r>   1.2665  1.0000</r>
       <r>   1.2666  1.0000</r>
       <r>   1.2671  1.0000</r>
       <r>   1.2671  1.0000</r>
       <r>   1.3450  1.0000</r>
       <r>   1.3450  1.0000</r>
       <r>   1.3463  1.0000</r>
       <r>   1.3465  1.0000</r>
       <r>   1.3485  1.0000</r>
       <r>   1.3494  1.0000</r>
       <r>   1.3495  1.0000</r>
       <r>   1.3495  1.0000</r>
       <r>   1.3495  1.0000</r>
       <r>   1.3495  1.0000</r>
       <r>   1.3496  1.0000</r>
       <r>   1.3496  1.0000</r>
       <r>   1.3497  1.0000</r>
       <r>   1.3497  1.0000</r>
       <r>   1.3498  1.0000</r>
       <r>   1.3498  1.0000</r>
       <r>   1.3499  1.0000</r>
       <r>   1.3499  1.0000</r>
       <r>   1.3500  1.0000</r>
       <r>   1.3509  1.0000</r>
       <r>   1.3529  1.0000</r>
       <r>   1.3531  1.0000</r>
       <r>   1.3546  1.0000</r>
       <r>   1.3546  1.0000</r>
       <r>   2.1605  1.0000</r>
       <r>   2.1623  1.0000</r>
       <r>   2.1623  1.0000</r>
       <r>   2.1651  1.0000</r>
       <r>   2.1653  1.0000</r>
       <r>   2.1654  1.0000</r>
       <r>   2.1654  1.0000</r>
       <r>   2.1657  1.0000</r>
       <r>   2.1659  1.0000</r>
       <r>   2.1659  1.0000</r>
       <r>   2.1659  1.0000</r>
       <r>   2.1660  1.0000</r>
       <r>   2.1661  1.0000</r>
       <r>   2.1661  1.0000</r>
       <r>   2.1661  1.0000</r>
       <r>   2.1661  1.0000</r>
       <r>   2.1663  1.0000</r>
       <r>   2.1666  1.0000</r>
       <r>   2.1666  1.0000</r>
       <r>   2.1667  1.0000</r>
       <r>   2.1670  1.0000</r>
       <r>   2.1698  1.0000</r>
       <r>   2.1698  1.0000</r>
       <r>   2.1715  1.0000</r>
       <r>   2.6603  1.0000</r>
       <r>   2.6620  1.0000</r>
       <r>   2.6622  1.0000</r>
       <r>   2.6622  1.0000</r>
       <r>   2.6635  1.0000</r>
       <r>   2.6635  1.0000</r>
       <r>   2.6638  1.0000</r>
       <r>   2.6639  1.0000</r>
       <r>   2.6641  1.0000</r>
       <r>   2.6642  1.0000</r>
       <r>   2.6645  1.0000</r>
       <r>   2.6645  1.0000</r>
       <r>   2.6659  1.0000</r>
       <r>   2.6659  1.0000</r>
       <r>   2.6660  1.0000</r>
       <r>   2.6678  1.0000</r>
       <r>   3.7776  1.0000</r>
       <r>   3.7776  1.0000</r>
       <r>   3.7780  1.0000</r>
       <r>   3.7782  1.0000</r>
       <r>   3.7783  1.0000</r>
       <r>   3.7783  1.0000</r>
       <r>   3.7783  1.0000</r>
       <r>   3.7783  1.0000</r>
       <r>   3.7785  1.0000</r>
       <r>   3.7786  1.0000</r>
       <r>   3.7786  1.0000</r>
       <r>   3.7787  1.0000</r>
       <r>   3.7788  1.0000</r>
       <r>   3.7789  1.0000</r>
       <r>   3.7789  1.0000</r>
       <r>   3.7790  1.0000</r>
       <r>   3.7791  1.0000</r>
       <r>   3.7792  1.0000</r>
       <r>   3.7792  1.0000</r>
       <r>   3.7792  1.0000</r>
       <r>   3.7793  1.0000</r>
       <r>   3.7796  1.0000</r>
       <r>   3.7799  1.0000</r>
       <r>   3.7799  1.0000</r>
       <r>   6.7221  0.0000</r>
       <r>   6.7247  0.0000</r>
       <r>   6.7247  0.0000</r>
       <r>   6.7268  0.0000</r>
       <r>   6.7276  0.0000</r>
       <r>   6.7278  0.0000</r>
       <r>   6.7278  0.0000</r>
       <r>   6.7278  0.0000</r>
       <r>   6.7279  0.0000</r>
       <r>   6.7280  0.0000</r>
       <r>   6.7280  0.0000</r>
       <r>   6.7280  0.0000</r>
       <r>   6.7283  0.0000</r>
       <r>   6.7283  0.0000</r>
       <r>   6.7284  0.0000</r>
       <r>   6.7285  0.0000</r>
       <r>   6.7285  0.0000</r>
       <r>   6.7285  0.0000</r>
       <r>   6.7286  0.0000</r>
       <r>   6.7288  0.0000</r>
       <r>   6.7295  0.0000</r>
       <r>   6.7316  0.0000</r>
       <r>   6.7316  0.0000</r>
       <r>   6.7342  0.0000</r>
       <r>  11.1745  0.0000</r>
       <r>  11.1745  0.0000</r>
       <r>  11.1781  0.0000</r>
       <r>  11.1785  0.0000</r>
       <r>  11.1790  0.0000</r>
       <r>  11.1796  0.0000</r>
       <r>  11.1796  0.0000</r>
       <r>  11.1803  0.0000</r>
       <r>  11.1803  0.0000</r>
       <r>  11.1803  0.0000</r>
       <r>  11.1804  0.0000</r>
       <r>  11.1804  0.0000</r>
       <r>  11.1805  0.0000</r>
       <r>  11.1805  0.0000</r>
       <r>  11.1805  0.0000</r>
       <r>  11.1805  0.0000</r>
       <r>  11.1805  0.0000</r>
       <r>  11.1813  0.0000</r>
       <r>  11.1813  0.0000</r>
       <r>  11.1818  0.0000</r>
       <r>  11.1824  0.0000</r>
       <r>  11.1827  0.0000</r>
       <r>  11.1864  0.0000</r>
       <r>  11.1864  0.0000</r>
      </set>
     </set>
    </set>
   </array>
  </eigenvalues>
 </calculation>
 <structure name="finalpos" >
  <crystal>
   <varray name="basis" >
    <v>       8.17878973      0.00000000      0.00000000</v>
    <v>       0.00000000      8.17878973      0.00000000</v>
    <v>       0.00000000      0.00000000      8.17878973</v>
   </varray>
   <i name="volume">    547.10052144</i>
   <varray name="rec_basis" >
    <v>       0.12226748      0.00000000      0.00000000</v>
    <v>       0.00000000      0.12226748      0.00000000</v>
    <v>       0.00000000      0.00000000      0.12226748</v>
   </varray>
  </crystal>
  <varray name="positions" >
   <v>       0.00122267      0.00000000      0.00000000</v>
   <v>       0.50000000      0.00000000      0.00000000</v>
   <v>       0.00000000      0.50000000      0.00000000</v>
   <v>       0.50000000      0.50000000      0.00000000</v>
   <v>       0.00000000      0.00000000      0.50000000</v>
   <v>       0.50000000      0.00000000      0.50000000</v>
   <v>       0.00000000      0.50000000      0.50000000</v>
   <v>       0.50000000      0.50000000      0.50000000</v>
   <v>       0.25000000      0.25000000      0.00000000</v>
   <v>       0.75000000      0.25000000      0.00000000</v>
   <v>       0.25000000      0.75000000      0.00000000</v>
   <v>       0.75000000      0.75000000      0.00000000</v>
   <v>       0.25000000      0.25000000      0.50000000</v>
   <v>       0.75000000      0.25000000      0.50000000</v>
   <v>       0.25000000      0.75000000      0.50000000</v>
   <v>       0.75000000      0.75000000      0.50000000</v>
   <v>       0.25000000      0.00000000      0.25000000</v>
   <v>       0.75000000      0.00000000      0.25000000</v>
   <v>       0.25000000      0.50000000      0.25000000</v>
   <v>       0.75000000      0.50000000      0.25000000</v>
   <v>       0.25000000      0.00000000      0.75000000</v>
   <v>       0.75000000      0.00000000      0.75000000</v>
   <v>       0.25000000      0.50000000      0.75000000</v>
   <v>       0.75000000      0.50000000      0.75000000</v>
   <v>       0.00000000      0.25000000      0.25000000</v>
   <v>       0.50000000      0.25000000      0.25000000</v>
   <v>       0.00000000      0.75000000      0.25000000</v>
   <v>       0.50000000      0.75000000      0.25000000</v>
   <v>       0.00000000      0.25000000      0.75000000</v>
   <v>       0.50000000      0.25000000      0.75000000</v>
   <v>       0.00000000      0.75000000      0.75000000</v>
   <v>       0.50000000      0.75000000      0.75000000</v>
  </varray>
 </structure>
</modeling>
