 running on    4 nodes
 distr:  one band on    1 nodes,    4 groups
 vasp.4.6.28 25Jul05 complex 
 POSCAR found :  1 types and   32 ions

 ----------------------------------------------------------------------------- 
|                                                                             |
|  ADVICE TO THIS USER RUNNING 'VASP/VAMP'   (HEAR YOUR MASTER'S VOICE ...):  |
|                                                                             |
|      You have a (more or less) 'large supercell' and for larger cells       |
|      it might be more efficient to use real space projection operators      |
|      So try LREAL= Auto  in the INCAR   file.                               |
|      Mind: If you want to do an extremely accurate calculations keep the    |
|      reciprocal projection scheme          (i.e. LREAL=.FALSE.)             |
|                                                                             |
 ----------------------------------------------------------------------------- 

 LDA part: xc-table for Pade appr. of Perdew
 POSCAR, INCAR and KPOINTS ok, starting setup
 FFT: planning ...           1
 reading WAVECAR
 WARNING: random wavefunctions but no delay for mixing, default for NELMDL
 entering main loop
       N       E                     dE             d eps       ncg     rms          rms(c)
DAV:   1     0.498870216137E+04    0.49887E+04   -0.21190E+05 83104   0.228E+03
DAV:   2     0.187424642227E+03   -0.48013E+04   -0.46173E+04 83108   0.594E+02
DAV:   3    -0.984018606823E+02   -0.28583E+03   -0.26374E+03 90028   0.160E+02
DAV:   4    -0.108156688354E+03   -0.97548E+01   -0.96047E+01 89316   0.273E+01
DAV:   5    -0.108336526020E+03   -0.17984E+00   -0.17921E+00 90204   0.311E+00    0.167E+01
DAV:   6    -0.101158555532E+03    0.71780E+01   -0.16533E+01 88048   0.148E+01    0.500E+00
DAV:   7    -0.100410750840E+03    0.74780E+00   -0.17864E+00 93676   0.426E+00    0.158E+00
DAV:   8    -0.100285578715E+03    0.12517E+00   -0.81803E-02 86556   0.102E+00    0.152E-01
DAV:   9    -0.100285562813E+03    0.15902E-04   -0.54263E-03 93316   0.239E-01    0.767E-02
DAV:  10    -0.100285664489E+03   -0.10168E-03   -0.43409E-04 86692   0.601E-02    0.103E-02
DAV:  11    -0.100285677186E+03   -0.12697E-04   -0.11115E-05 93376   0.135E-02    0.224E-03
DAV:  12    -0.100285683200E+03   -0.60136E-05   -0.54357E-07 87752   0.275E-03    0.112E-03
DAV:  13    -0.100285681503E+03    0.16970E-05   -0.46353E-08 80020   0.829E-04    0.414E-04
DAV:  14    -0.100285680640E+03    0.86294E-06   -0.11892E-08 48680   0.370E-04    0.789E-05
DAV:  15    -0.100285680686E+03   -0.45911E-07   -0.15389E-09 46628   0.163E-04    0.396E-05
DAV:  16    -0.100285680697E+03   -0.11139E-07   -0.19153E-10 45936   0.644E-05    0.186E-05
DAV:  17    -0.100285680690E+03    0.66539E-08    0.33482E-11 45920   0.299E-05
   1 F= -.10028568E+03 E0= -.10028551E+03  d E =-.347350E-03
