  32  32   0   0
  0.1607136E+02  0.8011876E-09  0.8011876E-09  0.8011876E-09  0.5000000E-15
  1.000000000000000E-004
  CAR 
 unknown system                          
     16.51306962     -4.92722417  301      6.59159218      1.00000000
     -4.927  0.0000E+00  0.0000E+00
     -4.856  0.0000E+00  0.0000E+00
     -4.784  0.0000E+00  0.0000E+00
     -4.713  0.0000E+00  0.0000E+00
     -4.641  0.0000E+00  0.0000E+00
     -4.570  0.0000E+00  0.0000E+00
     -4.498  0.0000E+00  0.0000E+00
     -4.427  0.0000E+00  0.0000E+00
     -4.355  0.0000E+00  0.0000E+00
     -4.284  0.0000E+00  0.0000E+00
     -4.213  0.0000E+00  0.0000E+00
     -4.141  0.0000E+00  0.0000E+00
     -4.070  0.0000E+00  0.0000E+00
     -3.998  0.1021E-11  0.7299E-13
     -3.927  0.8934E-01  0.6385E-02
     -3.855  0.4722E+00  0.4013E-01
     -3.784  0.8210E+00  0.9917E-01
     -3.712  0.1306E+01  0.1925E+00
     -3.641  0.1358E+01  0.2895E+00
     -3.569  0.1240E+01  0.3792E+00
     -3.498  0.1812E+01  0.5087E+00
     -3.426  0.9861E+00  0.5816E+00
     -3.355  0.2111E+01  0.7324E+00
     -3.283  0.1870E+01  0.8661E+00
     -3.212  0.2565E+01  0.1049E+01
     -3.141  0.1842E+01  0.1182E+01
     -3.069  0.3062E+01  0.1401E+01
     -2.998  0.2311E+01  0.1569E+01
     -2.926  0.2137E+01  0.1725E+01
     -2.855  0.3475E+01  0.1974E+01
     -2.783  0.2435E+01  0.2151E+01
     -2.712  0.3103E+01  0.2373E+01
     -2.640  0.2805E+01  0.2574E+01
     -2.569  0.4270E+01  0.2882E+01
     -2.497  0.2631E+01  0.3071E+01
     -2.426  0.4579E+01  0.3399E+01
     -2.354  0.3236E+01  0.3638E+01
     -2.283  0.3592E+01  0.3898E+01
     -2.211  0.4618E+01  0.4228E+01
     -2.140  0.4593E+01  0.4558E+01
     -2.069  0.3485E+01  0.4807E+01
     -1.997  0.6308E+01  0.5260E+01
     -1.926  0.4853E+01  0.5611E+01
     -1.854  0.4992E+01  0.5970E+01
     -1.783  0.5560E+01  0.6367E+01
     -1.711  0.7355E+01  0.6895E+01
     -1.640  0.4788E+01  0.7243E+01
     -1.568  0.9438E+01  0.7919E+01
     -1.497  0.6313E+01  0.8370E+01
     -1.425  0.1024E+02  0.9102E+01
     -1.354  0.1302E+02  0.1004E+02
     -1.282  0.1990E+02  0.1146E+02
     -1.211  0.1877E+02  0.1281E+02
     -1.139  0.1986E+02  0.1424E+02
     -1.068  0.2127E+02  0.1577E+02
     -0.997  0.3074E+02  0.1798E+02
     -0.925  0.2808E+02  0.2000E+02
     -0.854  0.3376E+02  0.2243E+02
     -0.782  0.4034E+02  0.2532E+02
     -0.711  0.4168E+02  0.2833E+02
     -0.639  0.5062E+02  0.3197E+02
     -0.568  0.5307E+02  0.3578E+02
     -0.496  0.5769E+02  0.3993E+02
     -0.425  0.5999E+02  0.4423E+02
     -0.353  0.5018E+02  0.4784E+02
     -0.282  0.5968E+02  0.5212E+02
     -0.210  0.4655E+02  0.5546E+02
     -0.139  0.5847E+02  0.5966E+02
     -0.067  0.4062E+02  0.6260E+02
      0.004  0.5267E+02  0.6638E+02
      0.076  0.4764E+02  0.6980E+02
      0.147  0.4195E+02  0.7282E+02
      0.218  0.4434E+02  0.7600E+02
      0.290  0.3561E+02  0.7857E+02
      0.361  0.3315E+02  0.8094E+02
      0.433  0.3301E+02  0.8331E+02
      0.504  0.4615E+02  0.8663E+02
      0.576  0.4447E+02  0.8983E+02
      0.647  0.5355E+02  0.9368E+02
      0.719  0.5366E+02  0.9753E+02
      0.790  0.5151E+02  0.1013E+03
      0.862  0.5568E+02  0.1053E+03
      0.933  0.5760E+02  0.1094E+03
      1.005  0.5808E+02  0.1136E+03
      1.076  0.5400E+02  0.1174E+03
      1.148  0.5313E+02  0.1213E+03
      1.219  0.5850E+02  0.1255E+03
      1.290  0.6408E+02  0.1301E+03
      1.362  0.5315E+02  0.1339E+03
      1.433  0.6463E+02  0.1385E+03
      1.505  0.6842E+02  0.1434E+03
      1.576  0.7090E+02  0.1485E+03
      1.648  0.7895E+02  0.1542E+03
      1.719  0.8035E+02  0.1600E+03
      1.791  0.9885E+02  0.1671E+03
      1.862  0.1097E+03  0.1749E+03
      1.934  0.7790E+02  0.1805E+03
      2.005  0.5975E+02  0.1848E+03
      2.077  0.5466E+02  0.1887E+03
      2.148  0.5208E+02  0.1925E+03
      2.220  0.4674E+02  0.1959E+03
      2.291  0.5633E+02  0.1999E+03
      2.362  0.3860E+02  0.2027E+03
      2.434  0.4952E+02  0.2062E+03
      2.505  0.4687E+02  0.2096E+03
      2.577  0.4614E+02  0.2129E+03
      2.648  0.4869E+02  0.2164E+03
      2.720  0.5516E+02  0.2204E+03
      2.791  0.5835E+02  0.2246E+03
      2.863  0.5528E+02  0.2285E+03
      2.934  0.6227E+02  0.2330E+03
      3.006  0.6132E+02  0.2374E+03
      3.077  0.6531E+02  0.2421E+03
      3.149  0.5496E+02  0.2461E+03
      3.220  0.5731E+02  0.2502E+03
      3.292  0.4855E+02  0.2537E+03
      3.363  0.5513E+02  0.2576E+03
      3.434  0.4651E+02  0.2610E+03
      3.506  0.4737E+02  0.2644E+03
      3.577  0.4651E+02  0.2677E+03
      3.649  0.4641E+02  0.2710E+03
      3.720  0.4602E+02  0.2743E+03
      3.792  0.4633E+02  0.2777E+03
      3.863  0.4521E+02  0.2809E+03
      3.935  0.4683E+02  0.2843E+03
      4.006  0.4817E+02  0.2877E+03
      4.078  0.4954E+02  0.2913E+03
      4.149  0.6001E+02  0.2956E+03
      4.221  0.5599E+02  0.2996E+03
      4.292  0.6077E+02  0.3040E+03
      4.364  0.9141E+02  0.3106E+03
      4.435  0.8005E+02  0.3163E+03
      4.507  0.9169E+02  0.3229E+03
      4.578  0.5963E+02  0.3272E+03
      4.649  0.5059E+02  0.3308E+03
      4.721  0.2816E+02  0.3329E+03
      4.792  0.3878E+02  0.3356E+03
      4.864  0.2774E+02  0.3376E+03
      4.935  0.3291E+01  0.3379E+03
      5.007  0.5443E+01  0.3383E+03
      5.078  0.1032E+02  0.3390E+03
      5.150  0.1426E+02  0.3400E+03
      5.221  0.5307E+01  0.3404E+03
      5.293  0.6757E+01  0.3409E+03
      5.364  0.6563E+01  0.3414E+03
      5.436  0.1433E+02  0.3424E+03
      5.507  0.6423E+01  0.3429E+03
      5.579  0.7696E+01  0.3434E+03
      5.650  0.5687E+01  0.3438E+03
      5.721  0.1363E+02  0.3448E+03
      5.793  0.7912E+01  0.3454E+03
      5.864  0.7368E+01  0.3459E+03
      5.936  0.7855E+01  0.3465E+03
      6.007  0.8534E+01  0.3471E+03
      6.079  0.1104E+02  0.3479E+03
      6.150  0.5963E+01  0.3483E+03
      6.222  0.6278E+01  0.3488E+03
      6.293  0.1080E+02  0.3495E+03
      6.365  0.1310E+02  0.3505E+03
      6.436  0.5378E+01  0.3509E+03
      6.508  0.7187E+01  0.3514E+03
      6.579  0.7112E+01  0.3519E+03
      6.651  0.1138E+02  0.3527E+03
      6.722  0.7833E+01  0.3533E+03
      6.793  0.7017E+01  0.3538E+03
      6.865  0.9740E+01  0.3545E+03
      6.936  0.6707E+01  0.3549E+03
      7.008  0.1140E+02  0.3558E+03
      7.079  0.9622E+01  0.3564E+03
      7.151  0.6599E+01  0.3569E+03
      7.222  0.9322E+01  0.3576E+03
      7.294  0.5665E+01  0.3580E+03
      7.365  0.7426E+01  0.3585E+03
      7.437  0.1131E+02  0.3593E+03
      7.508  0.1048E+02  0.3601E+03
      7.580  0.7978E+01  0.3607E+03
      7.651  0.5190E+01  0.3610E+03
      7.723  0.9430E+01  0.3617E+03
      7.794  0.1009E+02  0.3624E+03
      7.865  0.8320E+01  0.3630E+03
      7.937  0.6984E+01  0.3635E+03
      8.008  0.7196E+01  0.3641E+03
      8.080  0.9623E+01  0.3647E+03
      8.151  0.8594E+01  0.3654E+03
      8.223  0.8490E+01  0.3660E+03
      8.294  0.7309E+01  0.3665E+03
      8.366  0.7361E+01  0.3670E+03
      8.437  0.8641E+01  0.3677E+03
      8.509  0.7708E+01  0.3682E+03
      8.580  0.6002E+01  0.3686E+03
      8.652  0.7735E+01  0.3692E+03
      8.723  0.9137E+01  0.3699E+03
      8.795  0.8001E+01  0.3704E+03
      8.866  0.6763E+01  0.3709E+03
      8.937  0.7031E+01  0.3714E+03
      9.009  0.5087E+01  0.3718E+03
      9.080  0.9674E+01  0.3725E+03
      9.152  0.7116E+01  0.3730E+03
      9.223  0.5891E+01  0.3734E+03
      9.295  0.7091E+01  0.3739E+03
      9.366  0.8973E+01  0.3746E+03
      9.438  0.5617E+01  0.3750E+03
      9.509  0.7210E+01  0.3755E+03
      9.581  0.4224E+01  0.3758E+03
      9.652  0.7945E+01  0.3764E+03
      9.724  0.9163E+01  0.3770E+03
      9.795  0.5259E+01  0.3774E+03
      9.867  0.4336E+01  0.3777E+03
      9.938  0.1245E+02  0.3786E+03
     10.010  0.2228E+02  0.3802E+03
     10.081  0.1249E+02  0.3811E+03
     10.152  0.9557E+01  0.3818E+03
     10.224  0.1377E+02  0.3828E+03
     10.295  0.1475E+02  0.3839E+03
     10.367  0.7382E+01  0.3844E+03
     10.438  0.1023E+02  0.3851E+03
     10.510  0.9135E+01  0.3858E+03
     10.581  0.8389E+01  0.3864E+03
     10.653  0.1360E+02  0.3874E+03
     10.724  0.9029E+01  0.3880E+03
     10.796  0.5051E+01  0.3884E+03
     10.867  0.9110E+01  0.3890E+03
     10.939  0.1040E+02  0.3898E+03
     11.010  0.1005E+02  0.3905E+03
     11.082  0.6517E+01  0.3910E+03
     11.153  0.7792E+01  0.3915E+03
     11.224  0.5028E+01  0.3919E+03
     11.296  0.1123E+02  0.3927E+03
     11.367  0.1108E+02  0.3935E+03
     11.439  0.1120E+02  0.3943E+03
     11.510  0.7599E+01  0.3949E+03
     11.582  0.6343E+01  0.3953E+03
     11.653  0.1139E+02  0.3961E+03
     11.725  0.9267E+01  0.3968E+03
     11.796  0.1004E+02  0.3975E+03
     11.868  0.8845E+01  0.3982E+03
     11.939  0.1025E+02  0.3989E+03
     12.011  0.1210E+02  0.3998E+03
     12.082  0.7135E+01  0.4003E+03
     12.154  0.1014E+02  0.4010E+03
     12.225  0.1301E+02  0.4019E+03
     12.296  0.1051E+02  0.4027E+03
     12.368  0.1139E+02  0.4035E+03
     12.439  0.1265E+02  0.4044E+03
     12.511  0.8998E+01  0.4051E+03
     12.582  0.1094E+02  0.4059E+03
     12.654  0.7360E+01  0.4064E+03
     12.725  0.1131E+02  0.4072E+03
     12.797  0.1377E+02  0.4082E+03
     12.868  0.1490E+02  0.4093E+03
     12.940  0.6475E+01  0.4097E+03
     13.011  0.6334E+01  0.4102E+03
     13.083  0.9607E+01  0.4109E+03
     13.154  0.1347E+02  0.4119E+03
     13.226  0.8060E+01  0.4124E+03
     13.297  0.5170E+01  0.4128E+03
     13.368  0.9948E+01  0.4135E+03
     13.440  0.6127E+01  0.4140E+03
     13.511  0.1375E+02  0.4150E+03
     13.583  0.6778E+01  0.4154E+03
     13.654  0.9115E+01  0.4161E+03
     13.726  0.4466E+01  0.4164E+03
     13.797  0.7088E+01  0.4169E+03
     13.869  0.1044E+02  0.4177E+03
     13.940  0.8960E+01  0.4183E+03
     14.012  0.8403E+01  0.4189E+03
     14.083  0.7933E+01  0.4195E+03
     14.155  0.8591E+01  0.4201E+03
     14.226  0.1172E+02  0.4210E+03
     14.298  0.7050E+01  0.4215E+03
     14.369  0.6038E+01  0.4219E+03
     14.441  0.4287E+01  0.4222E+03
     14.512  0.6945E+01  0.4227E+03
     14.583  0.7056E+01  0.4232E+03
     14.655  0.4119E+01  0.4235E+03
     14.726  0.2184E+01  0.4237E+03
     14.798  0.1015E+01  0.4237E+03
     14.869  0.1121E+01  0.4238E+03
     14.941  0.1546E+01  0.4239E+03
     15.012  0.7553E+00  0.4240E+03
     15.084  0.1943E+00  0.4240E+03
     15.155  0.1690E-15  0.4240E+03
     15.227  0.9585E-01  0.4240E+03
     15.298  0.0000E+00  0.4240E+03
     15.370  0.0000E+00  0.4240E+03
     15.441  0.0000E+00  0.4240E+03
     15.513  0.1924E-05  0.4240E+03
     15.584  0.1619E-01  0.4240E+03
     15.655  0.0000E+00  0.4240E+03
     15.727  0.0000E+00  0.4240E+03
     15.798  0.0000E+00  0.4240E+03
     15.870  0.0000E+00  0.4240E+03
     15.941  0.0000E+00  0.4240E+03
     16.013  0.0000E+00  0.4240E+03
     16.084  0.0000E+00  0.4240E+03
     16.156  0.0000E+00  0.4240E+03
     16.227  0.0000E+00  0.4240E+03
     16.299  0.0000E+00  0.4240E+03
     16.370  0.0000E+00  0.4240E+03
     16.442  0.0000E+00  0.4240E+03
     16.513  0.0000E+00  0.4240E+03
