   32   32    1    1
  0.1607136E+02  0.8011876E-09  0.8011876E-09  0.8011876E-09  0.5000000E-15
  1.000000000000000E-004
  CAR 
 unknown system                          
  352  196  212
 
  0.0000000E+00  0.0000000E+00  0.0000000E+00  0.5787037E-03
   1       -3.9527
   2       -1.4283
   3       -1.4245
   4       -1.4245
   5       -1.4245
   6       -1.4245
   7       -1.4208
   8       -1.3711
   9       -1.3711
  10       -1.3711
  11       -1.3711
  12       -1.1483
  13       -1.1483
  14       -1.1483
  15       -0.8088
  16       -0.8088
  17       -0.8088
  18       -0.0335
  19       -0.0320
  20       -0.0320
  21       -0.0299
  22       -0.0296
  23       -0.0296
  24       -0.0296
  25       -0.0296
  26       -0.0293
  27       -0.0272
  28       -0.0272
  29       -0.0257
  30        0.0402
  31        0.0429
  32        0.0429
  33        0.0429
  34        0.0430
  35        0.0457
  36        0.2180
  37        0.2208
  38        0.2208
  39        0.2209
  40        0.2209
  41        0.2237
  42        0.8615
  43        0.8651
  44        0.8651
  45        0.8666
  46        0.8667
  47        0.8667
  48        0.8667
  49        0.8667
  50        0.8667
  51        0.8681
  52        0.8681
  53        0.8715
  54        0.9384
  55        0.9384
  56        0.9412
  57        0.9412
  58        0.9413
  59        0.9413
  60        0.9413
  61        0.9414
  62        0.9414
  63        0.9417
  64        0.9444
  65        0.9444
  66        1.2268
  67        1.2316
  68        1.2316
  69        1.2317
  70        1.2320
  71        1.2320
  72        1.2320
  73        1.2320
  74        1.2323
  75        1.2324
  76        1.2324
  77        1.2371
  78        1.4187
  79        1.4188
  80        1.4188
  81        1.4188
  82        1.4188
  83        1.4188
  84        1.4188
  85        1.4189
  86        1.4636
  87        1.4636
  88        1.4636
  89        2.2257
  90        2.2284
  91        2.2285
  92        2.2285
  93        2.2285
  94        2.2313
  95        2.4696
  96        2.4706
  97        2.4721
  98        2.4721
  99        2.4730
 100        2.4730
 101        2.4730
 102        2.4730
 103        2.4738
 104        2.4738
 105        2.4755
 106        2.4763
 107        2.8204
 108        2.8204
 109        2.8238
 110        2.8238
 111        2.8241
 112        2.8241
 113        2.8242
 114        2.8242
 115        2.8244
 116        2.8244
 117        2.8278
 118        2.8278
 119        2.9726
 120        2.9750
 121        2.9750
 122        2.9750
 123        2.9750
 124        2.9774
 125        3.1268
 126        3.1268
 127        3.1302
 128        3.1306
 129        3.1307
 130        3.1308
 131        3.1308
 132        3.1308
 133        3.1310
 134        3.1315
 135        3.1350
 136        3.1350
 137        3.1484
 138        3.1487
 139        3.7602
 140        3.7619
 141        3.7619
 142        3.7619
 143        3.7619
 144        3.7636
 145        4.4332
 146        4.4332
 147        4.4332
 148        4.4791
 149        4.4791
 150        4.4791
 151        4.4791
 152        4.4791
 153        4.4791
 154        4.4791
 155        4.4792
 156        4.8373
 157        4.8377
 158        4.8377
 159        4.8377
 160        4.8377
 161        4.8377
 162        4.8398
 163        4.8399
 164        4.8399
 165        4.8400
 166        4.8400
 167        4.8404
 168        5.2928
 169        5.2929
 170        5.2929
 171        5.2929
 172        6.2958
 173        6.2961
 174        6.2961
 175        6.2970
 176        6.2976
 177        6.2976
 178        6.2976
 179        6.2976
 180        6.2983
 181        6.2992
 182        6.2992
 183        6.2995
 184        7.4093
 185        7.4093
 186        7.4094
 187        9.9630
 188        9.9630
 189        9.9630
 190        9.9631
 191       11.7180
 192       11.7183
 193       11.7184
 194       11.7184
 195       11.7184
 196       11.7188
 197       12.8598
 198       12.8599
 199       12.8599
 200       13.0782
 201       13.0782
 202       13.0818
 203       13.0818
 204       13.0824
 205       13.0824
 206       13.0824
 207       13.0826
 208       13.0831
 209       13.0831
 210       13.0866
 211       13.0866
 212       15.5385
 
  0.8333333E-01  0.0000000E+00  0.0000000E+00  0.1157407E-02
   1       -3.9312
   2       -1.7143
   3       -1.4089
   4       -1.4088
   5       -1.4088
   6       -1.4088
   7       -1.3586
   8       -1.3586
   9       -1.3586
  10       -1.3586
  11       -1.1830
  12       -1.1401
  13       -1.1335
  14       -1.1335
  15       -0.8007
  16       -0.7964
  17       -0.7964
  18       -0.1430
  19       -0.1430
  20       -0.1430
  21       -0.1429
  22       -0.0955
  23       -0.0955
  24       -0.0955
  25       -0.0955
  26        0.0121
  27        0.0123
  28        0.0540
  29        0.0540
  30        0.0540
  31        0.0541
  32        0.0684
  33        0.0684
  34        0.0684
  35        0.0685
  36        0.0764
  37        0.2278
  38        0.2278
  39        0.2278
  40        0.2278
  41        0.3689
  42        0.6668
  43        0.6668
  44        0.8119
  45        0.8121
  46        0.8121
  47        0.8122
  48        0.9087
  49        0.9094
  50        0.9094
  51        0.9094
  52        0.9237
  53        0.9239
  54        0.9239
  55        0.9242
  56        0.9286
  57        0.9288
  58        0.9288
  59        0.9288
  60        0.9426
  61        0.9427
  62        0.9427
  63        0.9433
  64        1.1541
  65        1.1542
  66        1.1542
  67        1.1542
  68        1.2371
  69        1.2371
  70        1.2645
  71        1.2653
  72        1.2653
  73        1.2653
  74        1.2760
  75        1.2761
  76        1.2761
  77        1.2770
  78        1.4131
  79        1.4131
  80        1.4131
  81        1.4131
  82        1.4290
  83        1.4291
  84        1.4291
  85        1.4291
  86        1.4518
  87        1.4737
  88        1.4737
  89        2.1707
  90        2.1707
  91        2.1707
  92        2.1707
  93        2.2190
  94        2.3266
  95        2.4233
  96        2.4235
  97        2.4235
  98        2.4235
  99        2.4721
 100        2.4721
 101        2.4721
 102        2.4721
 103        2.5300
 104        2.5300
 105        2.5301
 106        2.5301
 107        2.6214
 108        2.6214
 109        2.8235
 110        2.8235
 111        2.8235
 112        2.8236
 113        2.8712
 114        2.8712
 115        2.8712
 116        2.8712
 117        2.9803
 118        2.9804
 119        2.9804
 120        2.9804
 121        3.0110
 122        3.0112
 123        3.0307
 124        3.0307
 125        3.0315
 126        3.0315
 127        3.0377
 128        3.0377
 129        3.1355
 130        3.1532
 131        3.1851
 132        3.1852
 133        3.1852
 134        3.1854
 135        3.2539
 136        3.2539
 137        3.2540
 138        3.2540
 139        3.6788
 140        3.7768
 141        3.7768
 142        3.7768
 143        3.7769
 144        3.8460
 145        4.3446
 146        4.3446
 147        4.3446
 148        4.3446
 149        4.4147
 150        4.4147
 151        4.4272
 152        4.4636
 153        4.4636
 154        4.4636
 155        4.4636
 156        4.7406
 157        4.7406
 158        4.8150
 159        4.8150
 160        4.8154
 161        4.8154
 162        4.8154
 163        4.8154
 164        4.8373
 165        4.8377
 166        4.8399
 167        4.8403
 168        5.3930
 169        5.3930
 170        5.3930
 171        5.3930
 172        5.9856
 173        5.9856
 174        5.9856
 175        5.9856
 176        6.2945
 177        6.2945
 178        6.2945
 179        6.2945
 180        6.6271
 181        6.6271
 182        6.6271
 183        6.6271
 184        7.2558
 185        7.5205
 186        7.5205
 187       10.0229
 188       10.0229
 189       10.0229
 190       10.0229
 191       11.5083
 192       11.5084
 193       11.5084
 194       11.5084
 195       11.7337
 196       11.7337
 197       12.5368
 198       12.5368
 199       12.8357
 200       12.8357
 201       13.0489
 202       13.1246
 203       13.1247
 204       13.1247
 205       13.1247
 206       13.2020
 207       13.2020
 208       13.2021
 209       13.2022
 210       13.6129
 211       13.6129
 212       15.2103
 
  0.1666667E+00  0.0000000E+00  0.0000000E+00  0.1157407E-02
   1       -3.8667
   2       -2.0288
   3       -1.3623
   4       -1.3623
   5       -1.3623
   6       -1.3623
   7       -1.3211
   8       -1.3211
   9       -1.3211
  10       -1.3211
  11       -1.1164
  12       -1.0894
  13       -1.0894
  14       -1.0091
  15       -0.7763
  16       -0.7593
  17       -0.7593
  18       -0.2747
  19       -0.2747
  20       -0.2746
  21       -0.2746
  22       -0.2482
  23       -0.2482
  24       -0.2481
  25       -0.2481
  26       -0.0734
  27       -0.0734
  28       -0.0624
  29        0.0865
  30        0.0866
  31        0.0866
  32        0.0866
  33        0.1553
  34        0.1553
  35        0.1553
  36        0.1554
  37        0.2485
  38        0.2485
  39        0.2485
  40        0.2486
  41        0.4144
  42        0.4144
  43        0.5180
  44        0.7475
  45        0.7476
  46        0.7476
  47        0.7476
  48        0.8924
  49        0.8924
  50        0.8924
  51        0.8924
  52        0.9387
  53        0.9400
  54        0.9400
  55        0.9401
  56        0.9462
  57        0.9463
  58        0.9463
  59        0.9476
  60        1.0258
  61        1.0261
  62        1.0261
  63        1.0262
  64        1.0474
  65        1.0474
  66        1.0474
  67        1.0476
  68        1.2978
  69        1.2978
  70        1.2979
  71        1.2979
  72        1.3894
  73        1.3894
  74        1.3895
  75        1.3896
  76        1.3962
  77        1.3963
  78        1.3963
  79        1.3963
  80        1.4165
  81        1.4598
  82        1.4599
  83        1.4599
  84        1.4599
  85        1.5039
  86        1.5039
  87        1.5534
  88        1.5534
  89        2.0409
  90        2.0409
  91        2.0409
  92        2.0409
  93        2.2726
  94        2.3081
  95        2.3082
  96        2.3082
  97        2.3082
  98        2.4308
  99        2.4308
 100        2.5239
 101        2.5251
 102        2.5252
 103        2.5252
 104        2.5358
 105        2.6266
 106        2.6266
 107        2.6266
 108        2.6267
 109        2.8219
 110        2.8219
 111        2.8219
 112        2.8219
 113        2.9548
 114        2.9548
 115        2.9553
 116        2.9554
 117        2.9611
 118        2.9613
 119        2.9616
 120        2.9616
 121        2.9945
 122        2.9946
 123        2.9946
 124        2.9946
 125        3.0974
 126        3.1124
 127        3.1124
 128        3.1684
 129        3.2568
 130        3.2568
 131        3.3147
 132        3.3147
 133        3.3147
 134        3.3147
 135        3.3997
 136        3.3997
 137        3.3997
 138        3.3997
 139        3.5980
 140        3.8297
 141        3.8297
 142        3.8297
 143        3.8297
 144        3.9296
 145        4.0507
 146        4.0507
 147        4.0507
 148        4.0507
 149        4.3598
 150        4.3598
 151        4.4092
 152        4.4176
 153        4.4176
 154        4.4176
 155        4.4177
 156        4.4886
 157        4.4886
 158        4.7437
 159        4.7437
 160        4.7437
 161        4.7437
 162        4.7484
 163        4.7484
 164        4.8374
 165        4.8378
 166        4.8398
 167        4.8403
 168        5.5856
 169        5.5857
 170        5.5857
 171        5.5857
 172        5.6854
 173        5.6854
 174        5.6854
 175        5.6854
 176        6.2847
 177        6.2847
 178        6.2847
 179        6.2847
 180        6.8484
 181        6.9809
 182        6.9809
 183        6.9809
 184        6.9809
 185        7.8143
 186        7.8143
 187       10.2008
 188       10.2008
 189       10.2008
 190       10.2008
 191       11.0368
 192       11.0368
 193       11.0368
 194       11.0368
 195       11.7793
 196       11.7793
 197       11.9807
 198       11.9807
 199       12.7658
 200       12.7658
 201       13.2493
 202       13.2493
 203       13.2493
 204       13.2493
 205       13.4208
 206       13.4208
 207       13.4208
 208       13.4209
 209       13.5631
 210       14.1232
 211       14.1232
 212       14.5880
 
  0.2500000E+00  0.0000000E+00  0.0000000E+00  0.1157407E-02
   1       -3.7600
   2       -2.3475
   3       -1.2862
   4       -1.2862
   5       -1.2862
   6       -1.2861
   7       -1.2590
   8       -1.2590
   9       -1.2590
  10       -1.2590
  11       -1.0786
  12       -1.0172
  13       -1.0171
  14       -0.9093
  15       -0.7360
  16       -0.6974
  17       -0.6974
  18       -0.4293
  19       -0.4293
  20       -0.4291
  21       -0.4290
  22       -0.4236
  23       -0.4235
  24       -0.4233
  25       -0.4233
  26       -0.1992
  27       -0.1992
  28       -0.1934
  29        0.1389
  30        0.1390
  31        0.1390
  32        0.1390
  33        0.1846
  34        0.1846
  35        0.2342
  36        0.2342
  37        0.2342
  38        0.2342
  39        0.2825
  40        0.2826
  41        0.2826
  42        0.2826
  43        0.6655
  44        0.6757
  45        0.6757
  46        0.6757
  47        0.6757
  48        0.8380
  49        0.8381
  50        0.8381
  51        0.8381
  52        0.9255
  53        0.9255
  54        0.9255
  55        0.9255
  56        0.9505
  57        0.9516
  58        0.9516
  59        0.9517
  60        0.9597
  61        0.9598
  62        0.9598
  63        0.9609
  64        1.0993
  65        1.0993
  66        1.0993
  67        1.0993
  68        1.3184
  69        1.3184
  70        1.3185
  71        1.3185
  72        1.3589
  73        1.3693
  74        1.3693
  75        1.3693
  76        1.3694
  77        1.5108
  78        1.5108
  79        1.5108
  80        1.5109
  81        1.5541
  82        1.5541
  83        1.6184
  84        1.6184
  85        1.6184
  86        1.6184
  87        1.8881
  88        1.8881
  89        1.8911
  90        1.8912
  91        1.8920
  92        1.8920
  93        2.1700
  94        2.1700
  95        2.1700
  96        2.1701
  97        2.2543
  98        2.2543
  99        2.3665
 100        2.6148
 101        2.6149
 102        2.6149
 103        2.6149
 104        2.7383
 105        2.7383
 106        2.7383
 107        2.7383
 108        2.8199
 109        2.8199
 110        2.8199
 111        2.8199
 112        2.8595
 113        2.9000
 114        2.9000
 115        2.9000
 116        2.9001
 117        3.0104
 118        3.0106
 119        3.0106
 120        3.0106
 121        3.0262
 122        3.0262
 123        3.0262
 124        3.0263
 125        3.0355
 126        3.1932
 127        3.2626
 128        3.2627
 129        3.4755
 130        3.4756
 131        3.4756
 132        3.4756
 133        3.4807
 134        3.4807
 135        3.5210
 136        3.5651
 137        3.5651
 138        3.5651
 139        3.5651
 140        3.7008
 141        3.7009
 142        3.7009
 143        3.7009
 144        3.9372
 145        3.9372
 146        3.9372
 147        3.9372
 148        4.0113
 149        4.1503
 150        4.1503
 151        4.2697
 152        4.2697
 153        4.3427
 154        4.3427
 155        4.3427
 156        4.3427
 157        4.3798
 158        4.6305
 159        4.6305
 160        4.6305
 161        4.6305
 162        4.6413
 163        4.6413
 164        4.8375
 165        4.8380
 166        4.8396
 167        4.8401
 168        5.3935
 169        5.3935
 170        5.3935
 171        5.3935
 172        5.7730
 173        5.7730
 174        5.7730
 175        5.7730
 176        6.2662
 177        6.2668
 178        6.2668
 179        6.2668
 180        6.2909
 181        7.3666
 182        7.3666
 183        7.3666
 184        7.3666
 185        8.2219
 186        8.2219
 187       10.4726
 188       10.4726
 189       10.4728
 190       10.4729
 191       10.4908
 192       10.4908
 193       10.4911
 194       10.4911
 195       11.4188
 196       11.4188
 197       11.8541
 198       11.8541
 199       12.6578
 200       12.6578
 201       13.4507
 202       13.4507
 203       13.4507
 204       13.4507
 205       13.6185
 206       13.6185
 207       13.6185
 208       13.6185
 209       13.8918
 210       13.8918
 211       13.8918
 212       13.8918
 
  0.3333333E+00  0.0000000E+00  0.0000000E+00  0.1157407E-02
   1       -3.6122
   2       -2.6556
   3       -1.1827
   4       -1.1827
   5       -1.1827
   6       -1.1826
   7       -1.1727
   8       -1.1727
   9       -1.1726
  10       -1.1726
  11       -1.0303
  12       -0.9188
  13       -0.9188
  14       -0.8741
  15       -0.6802
  16       -0.6120
  17       -0.6120
  18       -0.6100
  19       -0.6100
  20       -0.6090
  21       -0.6090
  22       -0.5844
  23       -0.5844
  24       -0.5844
  25       -0.5844
  26       -0.3480
  27       -0.3480
  28       -0.3151
  29       -0.0221
  30       -0.0221
  31        0.2072
  32        0.2073
  33        0.2073
  34        0.2073
  35        0.3031
  36        0.3031
  37        0.3031
  38        0.3031
  39        0.3288
  40        0.3288
  41        0.3288
  42        0.3288
  43        0.6000
  44        0.6000
  45        0.6000
  46        0.6000
  47        0.7739
  48        0.7740
  49        0.7740
  50        0.7740
  51        0.8057
  52        0.8057
  53        0.8057
  54        0.8058
  55        0.8089
  56        0.9574
  57        0.9583
  58        0.9583
  59        0.9584
  60        0.9699
  61        0.9699
  62        0.9699
  63        0.9708
  64        1.1527
  65        1.1527
  66        1.1527
  67        1.1527
  68        1.2806
  69        1.3341
  70        1.3341
  71        1.3341
  72        1.3342
  73        1.3548
  74        1.3549
  75        1.3549
  76        1.3550
  77        1.5811
  78        1.5812
  79        1.5812
  80        1.5812
  81        1.6241
  82        1.6241
  83        1.7451
  84        1.7451
  85        1.7451
  86        1.7451
  87        1.9126
  88        1.9126
  89        1.9126
  90        1.9126
  91        2.0298
  92        2.0298
  93        2.0298
  94        2.0298
  95        2.0932
  96        2.0932
  97        2.2423
  98        2.2423
  99        2.4829
 100        2.7215
 101        2.7216
 102        2.7216
 103        2.7216
 104        2.8187
 105        2.8187
 106        2.8187
 107        2.8188
 108        2.8435
 109        2.8436
 110        2.8436
 111        2.8436
 112        2.8624
 113        2.8624
 114        2.8624
 115        2.8624
 116        2.9517
 117        3.0202
 118        3.0203
 119        3.0203
 120        3.0203
 121        3.0376
 122        3.0376
 123        3.0376
 124        3.0377
 125        3.2276
 126        3.2915
 127        3.3319
 128        3.3319
 129        3.3319
 130        3.3319
 131        3.4420
 132        3.4423
 133        3.4489
 134        3.6456
 135        3.6456
 136        3.6456
 137        3.6457
 138        3.7046
 139        3.7046
 140        3.7455
 141        3.7455
 142        3.7456
 143        3.7456
 144        3.7733
 145        3.7733
 146        4.0895
 147        4.1050
 148        4.1050
 149        4.1050
 150        4.1050
 151        4.1470
 152        4.1471
 153        4.2412
 154        4.2413
 155        4.2413
 156        4.2413
 157        4.3394
 158        4.4838
 159        4.4838
 160        4.4838
 161        4.4838
 162        4.4989
 163        4.4989
 164        4.8376
 165        4.8382
 166        4.8394
 167        4.8400
 168        5.1087
 169        5.1087
 170        5.1087
 171        5.1087
 172        5.6638
 173        5.9278
 174        5.9278
 175        5.9278
 176        5.9278
 177        6.2383
 178        6.2383
 179        6.2383
 180        6.2383
 181        7.7906
 182        7.7906
 183        7.7906
 184        7.7906
 185        8.6952
 186        8.6952
 187        9.8872
 188        9.8872
 189        9.8872
 190        9.8873
 191       10.8553
 192       10.8553
 193       10.8832
 194       10.8832
 195       10.8833
 196       10.8833
 197       11.9559
 198       11.9559
 199       12.5228
 200       12.5228
 201       13.1996
 202       13.1996
 203       13.1996
 204       13.1996
 205       13.7205
 206       13.7205
 207       13.7205
 208       13.7205
 209       13.7833
 210       13.7833
 211       13.7833
 212       13.7833
 
  0.4166667E+00  0.0000000E+00  0.0000000E+00  0.1157407E-02
   1       -3.4248
   2       -2.9422
   3       -1.0632
   4       -1.0632
   5       -1.0631
   6       -1.0631
   7       -1.0553
   8       -1.0552
   9       -1.0551
  10       -1.0551
  11       -0.9763
  12       -0.8854
  13       -0.7974
  14       -0.7973
  15       -0.7793
  16       -0.7793
  17       -0.7793
  18       -0.7793
  19       -0.7490
  20       -0.7490
  21       -0.7490
  22       -0.7489
  23       -0.6094
  24       -0.5045
  25       -0.5045
  26       -0.5000
  27       -0.5000
  28       -0.4258
  29       -0.2053
  30       -0.2053
  31        0.2825
  32        0.2827
  33        0.2827
  34        0.2827
  35        0.3489
  36        0.3489
  37        0.3489
  38        0.3490
  39        0.3858
  40        0.3858
  41        0.3858
  42        0.3859
  43        0.5242
  44        0.5242
  45        0.5242
  46        0.5242
  47        0.7106
  48        0.7114
  49        0.7114
  50        0.7119
  51        0.7129
  52        0.7134
  53        0.7134
  54        0.7142
  55        0.9448
  56        0.9638
  57        0.9650
  58        0.9650
  59        0.9651
  60        0.9727
  61        0.9728
  62        0.9728
  63        0.9742
  64        1.1838
  65        1.2010
  66        1.2010
  67        1.2010
  68        1.2010
  69        1.2929
  70        1.2929
  71        1.2929
  72        1.2929
  73        1.4155
  74        1.4155
  75        1.4155
  76        1.4156
  77        1.6133
  78        1.6134
  79        1.6134
  80        1.6135
  81        1.6700
  82        1.6700
  83        1.6700
  84        1.6700
  85        1.7136
  86        1.7136
  87        1.8968
  88        1.8968
  89        1.8968
  90        1.8968
  91        1.9488
  92        1.9488
  93        2.2424
  94        2.2424
  95        2.2424
  96        2.2424
  97        2.6084
  98        2.6113
  99        2.6113
 100        2.8199
 101        2.8199
 102        2.8199
 103        2.8200
 104        2.8292
 105        2.8293
 106        2.8293
 107        2.8293
 108        2.8388
 109        2.8389
 110        2.8389
 111        2.8389
 112        2.8496
 113        2.9281
 114        2.9281
 115        2.9281
 116        2.9281
 117        2.9597
 118        2.9598
 119        2.9598
 120        2.9599
 121        2.9993
 122        2.9993
 123        2.9994
 124        2.9994
 125        3.0145
 126        3.0145
 127        3.0146
 128        3.0146
 129        3.2709
 130        3.3822
 131        3.3829
 132        3.3829
 133        3.6335
 134        3.6335
 135        3.8108
 136        3.8136
 137        3.8136
 138        3.8136
 139        3.8136
 140        3.9241
 141        3.9241
 142        3.9352
 143        3.9352
 144        3.9352
 145        3.9352
 146        3.9957
 147        3.9957
 148        4.1165
 149        4.1165
 150        4.1165
 151        4.1165
 152        4.1629
 153        4.2891
 154        4.3125
 155        4.3125
 156        4.3128
 157        4.3128
 158        4.3205
 159        4.3206
 160        4.3207
 161        4.3207
 162        4.3276
 163        4.3276
 164        4.8320
 165        4.8320
 166        4.8320
 167        4.8320
 168        4.8377
 169        4.8385
 170        4.8391
 171        4.8399
 172        5.0209
 173        6.0465
 174        6.0465
 175        6.0466
 176        6.0466
 177        6.1956
 178        6.1956
 179        6.1956
 180        6.1956
 181        8.2569
 182        8.2569
 183        8.2569
 184        8.2569
 185        9.2074
 186        9.2074
 187        9.3123
 188        9.3123
 189        9.3124
 190        9.3124
 191       10.2954
 192       10.2954
 193       11.3646
 194       11.3646
 195       11.3646
 196       11.3646
 197       12.0807
 198       12.0807
 199       12.3737
 200       12.3737
 201       12.5372
 202       12.5372
 203       12.5372
 204       12.5372
 205       13.9323
 206       13.9323
 207       13.9324
 208       13.9328
 209       14.0492
 210       14.0492
 211       14.0525
 212       14.0698
 
  0.5000000E+00  0.0000000E+00  0.0000000E+00  0.5787037E-03
   1       -3.2023
   2       -3.1984
   3       -0.9335
   4       -0.9335
   5       -0.9330
   6       -0.9326
   7       -0.9303
   8       -0.9301
   9       -0.9293
  10       -0.9293
  11       -0.9256
  12       -0.9232
  13       -0.9122
  14       -0.9098
  15       -0.9093
  16       -0.9093
  17       -0.9077
  18       -0.9077
  19       -0.9073
  20       -0.9043
  21       -0.6595
  22       -0.6583
  23       -0.6560
  24       -0.6547
  25       -0.5259
  26       -0.5226
  27       -0.3664
  28       -0.3664
  29       -0.3629
  30       -0.3629
  31        0.3388
  32        0.3423
  33        0.3423
  34        0.3423
  35        0.3424
  36        0.3425
  37        0.3425
  38        0.3459
  39        0.4495
  40        0.4501
  41        0.4501
  42        0.4514
  43        0.4523
  44        0.4536
  45        0.4536
  46        0.4542
  47        0.6780
  48        0.6787
  49        0.6787
  50        0.6796
  51        0.6798
  52        0.6807
  53        0.6807
  54        0.6814
  55        0.9669
  56        0.9696
  57        0.9696
  58        0.9701
  59        0.9708
  60        0.9713
  61        0.9713
  62        0.9738
  63        1.0705
  64        1.0716
  65        1.2469
  66        1.2474
  67        1.2474
  68        1.2475
  69        1.2484
  70        1.2484
  71        1.2484
  72        1.2489
  73        1.5007
  74        1.5007
  75        1.5009
  76        1.5019
  77        1.5027
  78        1.5036
  79        1.5039
  80        1.5039
  81        1.7729
  82        1.7737
  83        1.7737
  84        1.7755
  85        1.7763
  86        1.7780
  87        1.7780
  88        1.7788
  89        1.8204
  90        1.8204
  91        1.8236
  92        1.8236
  93        2.5927
  94        2.5933
  95        2.5938
  96        2.5938
  97        2.5946
  98        2.5946
  99        2.5950
 100        2.5956
 101        2.7321
 102        2.7341
 103        2.8249
 104        2.8249
 105        2.8254
 106        2.8257
 107        2.8259
 108        2.8262
 109        2.8266
 110        2.8266
 111        2.9235
 112        2.9250
 113        2.9250
 114        2.9252
 115        2.9262
 116        2.9265
 117        2.9265
 118        2.9280
 119        2.9836
 120        2.9840
 121        2.9847
 122        2.9847
 123        2.9853
 124        2.9853
 125        2.9864
 126        2.9869
 127        2.9921
 128        2.9921
 129        2.9944
 130        2.9944
 131        3.3213
 132        3.3241
 133        3.8213
 134        3.8214
 135        3.8220
 136        3.8221
 137        3.9706
 138        3.9714
 139        3.9714
 140        3.9718
 141        3.9730
 142        3.9734
 143        3.9734
 144        3.9743
 145        4.1246
 146        4.1246
 147        4.1265
 148        4.1266
 149        4.1273
 150        4.1274
 151        4.1288
 152        4.1288
 153        4.1334
 154        4.1334
 155        4.1347
 156        4.1347
 157        4.2296
 158        4.2300
 159        4.3943
 160        4.3955
 161        4.5653
 162        4.5662
 163        4.5662
 164        4.5667
 165        4.5671
 166        4.5676
 167        4.5676
 168        4.5685
 169        4.8378
 170        4.8388
 171        4.8388
 172        4.8399
 173        6.1320
 174        6.1323
 175        6.1330
 176        6.1330
 177        6.1344
 178        6.1344
 179        6.1351
 180        6.1354
 181        8.7628
 182        8.7628
 183        8.7648
 184        8.7651
 185        8.7662
 186        8.7664
 187        8.7684
 188        8.7684
 189        9.7422
 190        9.7422
 191        9.7456
 192        9.7456
 193       11.9176
 194       11.9176
 195       11.9197
 196       11.9201
 197       11.9215
 198       11.9218
 199       11.9240
 200       11.9240
 201       12.2225
 202       12.2227
 203       12.2228
 204       12.2230
 205       14.0820
 206       14.0822
 207       14.0822
 208       14.0825
 209       14.0834
 210       14.0837
 211       14.0838
 212       14.0839
 
  0.0000000E+00  0.8333333E-01  0.0000000E+00  0.2314815E-02
   1       -3.9312
   2       -1.7143
   3       -1.4117
   4       -1.4088
   5       -1.4088
   6       -1.4061
   7       -1.3587
   8       -1.3586
   9       -1.3586
  10       -1.3585
  11       -1.1830
  12       -1.1402
  13       -1.1335
  14       -1.1335
  15       -0.8007
  16       -0.7964
  17       -0.7964
  18       -0.1454
  19       -0.1430
  20       -0.1429
  21       -0.1406
  22       -0.0967
  23       -0.0956
  24       -0.0954
  25       -0.0942
  26        0.0122
  27        0.0123
  28        0.0520
  29        0.0539
  30        0.0540
  31        0.0559
  32        0.0664
  33        0.0684
  34        0.0684
  35        0.0705
  36        0.0764
  37        0.2255
  38        0.2278
  39        0.2278
  40        0.2301
  41        0.3688
  42        0.6668
  43        0.6669
  44        0.8100
  45        0.8122
  46        0.8122
  47        0.8143
  48        0.9068
  49        0.9093
  50        0.9094
  51        0.9113
  52        0.9222
  53        0.9224
  54        0.9246
  55        0.9251
  56        0.9272
  57        0.9287
  58        0.9298