 vasp.4.6.28 25Jul05 complex 
 executed on             LinuxIFC date 2017.01.10  08:54:07
 running on    4 nodes
 distr:  one band on    1 nodes,    4 groups


--------------------------------------------------------------------------------------------------------


 INCAR:
 POTCAR:   PAW_PBE Au 06Sep2000                   
 POTCAR:   PAW_PBE Au 06Sep2000                   
   VRHFIN =Au: s1d10                                                            
   LEXCH  = PE                                                                  
   EATOM  =   926.0567 eV,   68.0632 Ry                                         
                                                                                
   TITEL  = PAW_PBE Au 06Sep2000                                                
   LULTRA =        F    use ultrasoft PP ?                                      
   IUNSCR =        1    unscreen: 0-lin 1-nonlin 2-no                           
   RPACOR =    2.330    partial core radius                                     
   POMASS =  196.966; ZVAL   =   11.000    mass and valenz                      
   RCORE  =    2.500    outmost cutoff radius                                   
   RWIGS  =    2.840; RWIGS  =    1.503    wigner-seitz radius (au A)           
   ENMAX  =  229.948; ENMIN  =  172.461 eV                                      
   RCLOC  =    1.964    cutoff for local pot                                    
   LCOR   =        T    correct aug charges                                     
   LPAW   =        T    paw PP                                                  
   EAUG   =  356.670                                                            
   DEXC   =    -.025                                                            
   RMAX   =    3.041    core radius for proj-oper                               
   RAUG   =    1.300    factor for augmentation sphere                          
   RDEP   =    2.598    radius for radial grids                                 
   QCUT   =   -4.111; QGAM   =    8.222    optimization parameters              
                                                                                
   Description                                                                  
     l     E      TYP  RCUT    TYP  RCUT                                        
     2   .000     23  2.500                                                     
     2   .000     23  2.500                                                     
     0   .000     23  2.500                                                     
     0   .000     23  2.500                                                     
     1  -.200     23  2.500                                                     
     1   .000     23  2.500                                                     
     3   .000      7   .000                                                     
  local pseudopotential read in
  partial core-charges read in
  atomic valenz-charges read in
  non local Contribution for L=           2  read in
    real space projection operators read in
  non local Contribution for L=           2  read in
    real space projection operators read in
  non local Contribution for L=           0  read in
    real space projection operators read in
  non local Contribution for L=           0  read in
    real space projection operators read in
  non local Contribution for L=           1  read in
    real space projection operators read in
  non local Contribution for L=           1  read in
    real space projection operators read in
    PAW grid and wavefunctions read in
 
   number of l-projection  operators is LMAX  =           6
   number of lm-projection operators is LMMAX =          18
 

 ----------------------------------------------------------------------------- 
|                                                                             |
|  ADVICE TO THIS USER RUNNING 'VASP/VAMP'   (HEAR YOUR MASTER'S VOICE ...):  |
|                                                                             |
|      You have a (more or less) 'large supercell' and for larger cells       |
|      it might be more efficient to use real space projection operators      |
|      So try LREAL= Auto  in the INCAR   file.                               |
|      Mind: If you want to do an extremely accurate calculations keep the    |
|      reciprocal projection scheme          (i.e. LREAL=.FALSE.)             |
|                                                                             |
 ----------------------------------------------------------------------------- 

 PAW_PBE Au 06Sep2000                   :
 energy of atom  1       EATOM= -926.0567
 kinetic energy error for atom=    0.0008 (will be added to EATOM!!)
 
 EXHCAR: internal setup
 exchange correlation table for  LEXCH =        8
   RHO(1)=    0.500       N(1)  =     2000
   RHO(2)=  100.500       N(2)  =     4000
 
 POSCAR: Au                                      
  positions in direct lattice
  No initial velocities read in
 


--------------------------------------------------------------------------------------------------------


 ion  position               nearest neighbor table
   1  0.001  0.000  0.000-   9 2.83  11 2.83  17 2.83  21 2.83  25 2.83  27 2.83  29 2.83  31 2.83
                            10 2.84  18 2.84  12 2.84  22 2.84
   2  0.500  0.000  0.000-   9 2.83  10 2.83  11 2.83  12 2.83  17 2.83  18 2.83  21 2.83  22 2.83
                            26 2.83  28 2.83  30 2.83  32 2.83
   3  0.000  0.500  0.000-   9 2.83  10 2.83  11 2.83  12 2.83  19 2.83  20 2.83  23 2.83  24 2.83
                            25 2.83  27 2.83  29 2.83  31 2.83
   4  0.500  0.500  0.000-   9 2.83  10 2.83  11 2.83  12 2.83  19 2.83  20 2.83  23 2.83  24 2.83
                            26 2.83  28 2.83  30 2.83  32 2.83
   5  0.000  0.000  0.500-  13 2.83  14 2.83  15 2.83  16 2.83  17 2.83  18 2.83  21 2.83  22 2.83
                            25 2.83  27 2.83  29 2.83  31 2.83
   6  0.500  0.000  0.500-  13 2.83  14 2.83  15 2.83  16 2.83  17 2.83  18 2.83  21 2.83  22 2.83
                            26 2.83  28 2.83  30 2.83  32 2.83
   7  0.000  0.500  0.500-  13 2.83  14 2.83  15 2.83  16 2.83  19 2.83  20 2.83  23 2.83  24 2.83
                            25 2.83  27 2.83  29 2.83  31 2.83
   8  0.500  0.500  0.500-  13 2.83  14 2.83  15 2.83  16 2.83  19 2.83  20 2.83  23 2.83  24 2.83
                            26 2.83  28 2.83  30 2.83  32 2.83
   9  0.250  0.250  0.000-   1 2.83   2 2.83   3 2.83   4 2.83  17 2.83  19 2.83  21 2.83  23 2.83
                            25 2.83  26 2.83  29 2.83  30 2.83
  10  0.750  0.250  0.000-   2 2.83   3 2.83   4 2.83  18 2.83  20 2.83  22 2.83  24 2.83  25 2.83
                            26 2.83  29 2.83  30 2.83   1 2.84
  11  0.250  0.750  0.000-   1 2.83   2 2.83   3 2.83   4 2.83  17 2.83  19 2.83  21 2.83  23 2.83
                            27 2.83  28 2.83  31 2.83  32 2.83
  12  0.750  0.750  0.000-   2 2.83   3 2.83   4 2.83  18 2.83  20 2.83  22 2.83  24 2.83  27 2.83
                            28 2.83  31 2.83  32 2.83   1 2.84
  13  0.250  0.250  0.500-   5 2.83   6 2.83   7 2.83   8 2.83  17 2.83  19 2.83  21 2.83  23 2.83
                            25 2.83  26 2.83  29 2.83  30 2.83
  14  0.750  0.250  0.500-   5 2.83   6 2.83   7 2.83   8 2.83  18 2.83  20 2.83  22 2.83  24 2.83
                            25 2.83  26 2.83  29 2.83  30 2.83
  15  0.250  0.750  0.500-   5 2.83   6 2.83   7 2.83   8 2.83  17 2.83  19 2.83  21 2.83  23 2.83
                            27 2.83  28 2.83  31 2.83  32 2.83
  16  0.750  0.750  0.500-   5 2.83   6 2.83   7 2.83   8 2.83  18 2.83  20 2.83  22 2.83  24 2.83
                            27 2.83  28 2.83  31 2.83  32 2.83
  17  0.250  0.000  0.250-   1 2.83   2 2.83   5 2.83   6 2.83   9 2.83  11 2.83  13 2.83  15 2.83
                            25 2.83  26 2.83  27 2.83  28 2.83
  18  0.750  0.000  0.250-   2 2.83   5 2.83   6 2.83  10 2.83  12 2.83  14 2.83  16 2.83  25 2.83
                            26 2.83  27 2.83  28 2.83   1 2.84
  19  0.250  0.500  0.250-   3 2.83   4 2.83   7 2.83   8 2.83   9 2.83  11 2.83  13 2.83  15 2.83
                            25 2.83  26 2.83  27 2.83  28 2.83
  20  0.750  0.500  0.250-   3 2.83   4 2.83   7 2.83   8 2.83  10 2.83  12 2.83  14 2.83  16 2.83
                            25 2.83  26 2.83  27 2.83  28 2.83
  21  0.250  0.000  0.750-   1 2.83   2 2.83   5 2.83   6 2.83   9 2.83  11 2.83  13 2.83  15 2.83
                            29 2.83  30 2.83  31 2.83  32 2.83
  22  0.750  0.000  0.750-   2 2.83   5 2.83   6 2.83  10 2.83  12 2.83  14 2.83  16 2.83  29 2.83
                            30 2.83  31 2.83  32 2.83   1 2.84
  23  0.250  0.500  0.750-   3 2.83   4 2.83   7 2.83   8 2.83   9 2.83  11 2.83  13 2.83  15 2.83
                            29 2.83  30 2.83  31 2.83  32 2.83
  24  0.750  0.500  0.750-   3 2.83   4 2.83   7 2.83   8 2.83  10 2.83  12 2.83  14 2.83  16 2.83
                            29 2.83  30 2.83  31 2.83  32 2.83
  25  0.000  0.250  0.250-   3 2.83   5 2.83   7 2.83   9 2.83  10 2.83  13 2.83  14 2.83  17 2.83
                            18 2.83  19 2.83  20 2.83   1 2.83
  26  0.500  0.250  0.250-   2 2.83   4 2.83   6 2.83   8 2.83   9 2.83  10 2.83  13 2.83  14 2.83
                            17 2.83  18 2.83  19 2.83  20 2.83
  27  0.000  0.750  0.250-   3 2.83   5 2.83   7 2.83  11 2.83  12 2.83  15 2.83  16 2.83  17 2.83
                            18 2.83  19 2.83  20 2.83   1 2.83
  28  0.500  0.750  0.250-   2 2.83   4 2.83   6 2.83   8 2.83  11 2.83  12 2.83  15 2.83  16 2.83
                            17 2.83  18 2.83  19 2.83  20 2.83
  29  0.000  0.250  0.750-   3 2.83   5 2.83   7 2.83   9 2.83  10 2.83  13 2.83  14 2.83  21 2.83
                            22 2.83  23 2.83  24 2.83   1 2.83
  30  0.500  0.250  0.750-   2 2.83   4 2.83   6 2.83   8 2.83   9 2.83  10 2.83  13 2.83  14 2.83
                            21 2.83  22 2.83  23 2.83  24 2.83
  31  0.000  0.750  0.750-   3 2.83   5 2.83   7 2.83  11 2.83  12 2.83  15 2.83  16 2.83  21 2.83
                            22 2.83  23 2.83  24 2.83   1 2.83
  32  0.500  0.750  0.750-   2 2.83   4 2.83   6 2.83   8 2.83  11 2.83  12 2.83  15 2.83  16 2.83
                            21 2.83  22 2.83  23 2.83  24 2.83
 
  LATTYP: Found a simple cubic cell.
 ALAT       =     8.0118756524
  
  Lattice vectors:
  
 A1 = (   8.0118756524,   0.0000000000,   0.0000000000)
 A2 = (   0.0000000000,   8.0118756524,   0.0000000000)
 A3 = (   0.0000000000,   0.0000000000,   8.0118756524)
 Subroutine PRICEL returns:
 Original cell was already a primitive cell.
 

Analysis of symmetry for initial positions (statically):

 Routine SETGRP: Setting up the symmetry group for a 
 simple cubic supercell.


 Subroutine GETGRP returns: Found  8 space group operations
 (whereof  8 operations were pure point group operations)
 out of a pool of 48 trial point group operations.


The static configuration has the point symmetry C_4v.

Analysis of symmetry for dynamics (positions and initial velocities):

 Subroutine DYNSYM returns: Found  8 space group operations
 (whereof  8 operations were pure point group operations)
 out of a pool of  8 trial space group operations
 (whereof  8 operations were pure point group operations)
 and found also     1 'primitive' translations


The dynamic configuration has the point symmetry C_4v.
 
 
 KPOINTS: Automatic mesh                          

Automatic generation of k-mesh.
 
 Subroutine IBZKPT returns following result:
 ===========================================
 
 Found    196 irreducible k-points:
 
 Following reciprocal coordinates:
            Coordinates               Weight
  0.000000  0.000000  0.000000      1.000000
  0.083333  0.000000  0.000000      2.000000
  0.166667  0.000000  0.000000      2.000000
  0.250000  0.000000  0.000000      2.000000
  0.333333  0.000000  0.000000      2.000000
  0.416667  0.000000  0.000000      2.000000
  0.500000  0.000000  0.000000      1.000000
  0.000000  0.083333  0.000000      4.000000
  0.083333  0.083333  0.000000      8.000000
  0.166667  0.083333  0.000000      8.000000
  0.250000  0.083333  0.000000      8.000000
  0.333333  0.083333  0.000000      8.000000
  0.416667  0.083333  0.000000      8.000000
  0.500000  0.083333  0.000000      4.000000
  0.000000  0.166667  0.000000      4.000000
  0.083333  0.166667  0.000000      8.000000
  0.166667  0.166667  0.000000      8.000000
  0.250000  0.166667  0.000000      8.000000
  0.333333  0.166667  0.000000      8.000000
  0.416667  0.166667  0.000000      8.000000
  0.500000  0.166667  0.000000      4.000000
  0.000000  0.250000  0.000000      4.000000
  0.083333  0.250000  0.000000      8.000000
  0.166667  0.250000  0.000000      8.000000
  0.250000  0.250000  0.000000      8.000000
  0.333333  0.250000  0.000000      8.000000
  0.416667  0.250000  0.000000      8.000000
  0.500000  0.250000  0.000000      4.000000
  0.000000  0.333333  0.000000      4.000000
  0.083333  0.333333  0.000000      8.000000
  0.166667  0.333333  0.000000      8.000000
  0.250000  0.333333  0.000000      8.000000
  0.333333  0.333333  0.000000      8.000000
  0.416667  0.333333  0.000000      8.000000
  0.500000  0.333333  0.000000      4.000000
  0.000000  0.416667  0.000000      4.000000
  0.083333  0.416667  0.000000      8.000000
  0.166667  0.416667  0.000000      8.000000
  0.250000  0.416667  0.000000      8.000000
  0.333333  0.416667  0.000000      8.000000
  0.416667  0.416667  0.000000      8.000000
  0.500000  0.416667  0.000000      4.000000
  0.000000  0.500000  0.000000      2.000000
  0.083333  0.500000  0.000000      4.000000
  0.166667  0.500000  0.000000      4.000000
  0.250000  0.500000  0.000000      4.000000
  0.333333  0.500000  0.000000      4.000000
  0.416667  0.500000  0.000000      4.000000
  0.500000  0.500000  0.000000      2.000000
  0.000000  0.083333  0.083333      4.000000
  0.083333  0.083333  0.083333      8.000000
  0.166667  0.083333  0.083333      8.000000
  0.250000  0.083333  0.083333      8.000000
  0.333333  0.083333  0.083333      8.000000
  0.416667  0.083333  0.083333      8.000000
  0.500000  0.083333  0.083333      4.000000
  0.000000  0.166667  0.083333      8.000000
  0.083333  0.166667  0.083333     16.000000
  0.166667  0.166667  0.083333     16.000000
  0.250000  0.166667  0.083333     16.000000
  0.333333  0.166667  0.083333     16.000000
  0.416667  0.166667  0.083333     16.000000
  0.500000  0.166667  0.083333      8.000000
  0.000000  0.250000  0.083333      8.000000
  0.083333  0.250000  0.083333     16.000000
  0.166667  0.250000  0.083333     16.000000
  0.250000  0.250000  0.083333     16.000000
  0.333333  0.250000  0.083333     16.000000
  0.416667  0.250000  0.083333     16.000000
  0.500000  0.250000  0.083333      8.000000
  0.000000  0.333333  0.083333      8.000000
  0.083333  0.333333  0.083333     16.000000
  0.166667  0.333333  0.083333     16.000000
  0.250000  0.333333  0.083333     16.000000
  0.333333  0.333333  0.083333     16.000000
  0.416667  0.333333  0.083333     16.000000
  0.500000  0.333333  0.083333      8.000000
  0.000000  0.416667  0.083333      8.000000
  0.083333  0.416667  0.083333     16.000000
  0.166667  0.416667  0.083333     16.000000
  0.250000  0.416667  0.083333     16.000000
  0.333333  0.416667  0.083333     16.000000
  0.416667  0.416667  0.083333     16.000000
  0.500000  0.416667  0.083333      8.000000
  0.000000  0.500000  0.083333      4.000000
  0.083333  0.500000  0.083333      8.000000
  0.166667  0.500000  0.083333      8.000000
  0.250000  0.500000  0.083333      8.000000
  0.333333  0.500000  0.083333      8.000000
  0.416667  0.500000  0.083333      8.000000
  0.500000  0.500000  0.083333      4.000000
  0.000000  0.166667  0.166667      4.000000
  0.083333  0.166667  0.166667      8.000000
  0.166667  0.166667  0.166667      8.000000
  0.250000  0.166667  0.166667      8.000000
  0.333333  0.166667  0.166667      8.000000
  0.416667  0.166667  0.166667      8.000000
  0.500000  0.166667  0.166667      4.000000
  0.000000  0.250000  0.166667      8.000000
  0.083333  0.250000  0.166667     16.000000
  0.166667  0.250000  0.166667     16.000000
  0.250000  0.250000  0.166667     16.000000
  0.333333  0.250000  0.166667     16.000000
  0.416667  0.250000  0.166667     16.000000
  0.500000  0.250000  0.166667      8.000000
  0.000000  0.333333  0.166667      8.000000
  0.083333  0.333333  0.166667     16.000000
  0.166667  0.333333  0.166667     16.000000
  0.250000  0.333333  0.166667     16.000000
  0.333333  0.333333  0.166667     16.000000
  0.416667  0.333333  0.166667     16.000000
  0.500000  0.333333  0.166667      8.000000
  0.000000  0.416667  0.166667      8.000000
  0.083333  0.416667  0.166667     16.000000
  0.166667  0.416667  0.166667     16.000000
  0.250000  0.416667  0.166667     16.000000
  0.333333  0.416667  0.166667     16.000000
  0.416667  0.416667  0.166667     16.000000
  0.500000  0.416667  0.166667      8.000000
  0.000000  0.500000  0.166667      4.000000
  0.083333  0.500000  0.166667      8.000000
  0.166667  0.500000  0.166667      8.000000
  0.250000  0.500000  0.166667      8.000000
  0.333333  0.500000  0.166667      8.000000
  0.416667  0.500000  0.166667      8.000000
  0.500000  0.500000  0.166667      4.000000
  0.000000  0.250000  0.250000      4.000000
  0.083333  0.250000  0.250000      8.000000
  0.166667  0.250000  0.250000      8.000000
  0.250000  0.250000  0.250000      8.000000
  0.333333  0.250000  0.250000      8.000000
  0.416667  0.250000  0.250000      8.000000
  0.500000  0.250000  0.250000      4.000000
  0.000000  0.333333  0.250000      8.000000
  0.083333  0.333333  0.250000     16.000000
  0.166667  0.333333  0.250000     16.000000
  0.250000  0.333333  0.250000     16.000000
  0.333333  0.333333  0.250000     16.000000
  0.416667  0.333333  0.250000     16.000000
  0.500000  0.333333  0.250000      8.000000
  0.000000  0.416667  0.250000      8.000000
  0.083333  0.416667  0.250000     16.000000
  0.166667  0.416667  0.250000     16.000000
  0.250000  0.416667  0.250000     16.000000
  0.333333  0.416667  0.250000     16.000000
  0.416667  0.416667  0.250000     16.000000
  0.500000  0.416667  0.250000      8.000000
  0.000000  0.500000  0.250000      4.000000
  0.083333  0.500000  0.250000      8.000000
  0.166667  0.500000  0.250000      8.000000
  0.250000  0.500000  0.250000      8.000000
  0.333333  0.500000  0.250000      8.000000
  0.416667  0.500000  0.250000      8.000000
  0.500000  0.500000  0.250000      4.000000
  0.000000  0.333333  0.333333      4.000000
  0.083333  0.333333  0.333333      8.000000
  0.166667  0.333333  0.333333      8.000000
  0.250000  0.333333  0.333333      8.000000
  0.333333  0.333333  0.333333      8.000000
  0.416667  0.333333  0.333333      8.000000
  0.500000  0.333333  0.333333      4.000000
  0.000000  0.416667  0.333333      8.000000
  0.083333  0.416667  0.333333     16.000000
  0.166667  0.416667  0.333333     16.000000
  0.250000  0.416667  0.333333     16.000000
  0.333333  0.416667  0.333333     16.000000
  0.416667  0.416667  0.333333     16.000000
  0.500000  0.416667  0.333333      8.000000
  0.000000  0.500000  0.333333      4.000000
  0.083333  0.500000  0.333333      8.000000
  0.166667  0.500000  0.333333      8.000000
  0.250000  0.500000  0.333333      8.000000
  0.333333  0.500000  0.333333      8.000000
  0.416667  0.500000  0.333333      8.000000
  0.500000  0.500000  0.333333      4.000000
  0.000000  0.416667  0.416667      4.000000
  0.083333  0.416667  0.416667      8.000000
  0.166667  0.416667  0.416667      8.000000
  0.250000  0.416667  0.416667      8.000000
  0.333333  0.416667  0.416667      8.000000
  0.416667  0.416667  0.416667      8.000000
  0.500000  0.416667  0.416667      4.000000
  0.000000  0.500000  0.416667      4.000000
  0.083333  0.500000  0.416667      8.000000
  0.166667  0.500000  0.416667      8.000000
  0.250000  0.500000  0.416667      8.000000
  0.333333  0.500000  0.416667      8.000000
  0.416667  0.500000  0.416667      8.000000
  0.500000  0.500000  0.416667      4.000000
  0.000000  0.500000  0.500000      1.000000
  0.083333  0.500000  0.500000      2.000000
  0.166667  0.500000  0.500000      2.000000
  0.250000  0.500000  0.500000      2.000000
  0.333333  0.500000  0.500000      2.000000
  0.416667  0.500000  0.500000      2.000000
  0.500000  0.500000  0.500000      1.000000
 
 Following cartesian coordinates:
            Coordinates               Weight
  0.000000  0.000000  0.000000      1.000000
  0.010401  0.000000  0.000000      2.000000
  0.020802  0.000000  0.000000      2.000000
  0.031204  0.000000  0.000000      2.000000
  0.041605  0.000000  0.000000      2.000000
  0.052006  0.000000  0.000000      2.000000
  0.062407  0.000000  0.000000      1.000000
  0.000000  0.010401  0.000000      4.000000
  0.010401  0.010401  0.000000      8.000000
  0.020802  0.010401  0.000000      8.000000
  0.031204  0.010401  0.000000      8.000000
  0.041605  0.010401  0.000000      8.000000
  0.052006  0.010401  0.000000      8.000000
  0.062407  0.010401  0.000000      4.000000
  0.000000  0.020802  0.000000      4.000000
  0.010401  0.020802  0.000000      8.000000
  0.020802  0.020802  0.000000      8.000000
  0.031204  0.020802  0.000000      8.000000
  0.041605  0.020802  0.000000      8.000000
  0.052006  0.020802  0.000000      8.000000
  0.062407  0.020802  0.000000      4.000000
  0.000000  0.031204  0.000000      4.000000
  0.010401  0.031204  0.000000      8.000000
  0.020802  0.031204  0.000000      8.000000
  0.031204  0.031204  0.000000      8.000000
  0.041605  0.031204  0.000000      8.000000
  0.052006  0.031204  0.000000      8.000000
  0.062407  0.031204  0.000000      4.000000
  0.000000  0.041605  0.000000      4.000000
  0.010401  0.041605  0.000000      8.000000
  0.020802  0.041605  0.000000      8.000000
  0.031204  0.041605  0.000000      8.000000
  0.041605  0.041605  0.000000      8.000000
  0.052006  0.041605  0.000000      8.000000
  0.062407  0.041605  0.000000      4.000000
  0.000000  0.052006  0.000000      4.000000
  0.010401  0.052006  0.000000      8.000000
  0.020802  0.052006  0.000000      8.000000
  0.031204  0.052006  0.000000      8.000000
  0.041605  0.052006  0.000000      8.000000
  0.052006  0.052006  0.000000      8.000000
  0.062407  0.052006  0.000000      4.000000
  0.000000  0.062407  0.000000      2.000000
  0.010401  0.062407  0.000000      4.000000
  0.020802  0.062407  0.000000      4.000000
  0.031204  0.062407  0.000000      4.000000
  0.041605  0.062407  0.000000      4.000000
  0.052006  0.062407  0.000000      4.000000
  0.062407  0.062407  0.000000      2.000000
  0.000000  0.010401  0.010401      4.000000
  0.010401  0.010401  0.010401      8.000000
  0.020802  0.010401  0.010401      8.000000
  0.031204  0.010401  0.010401      8.000000
  0.041605  0.010401  0.010401      8.000000
  0.052006  0.010401  0.010401      8.000000
  0.062407  0.010401  0.010401      4.000000
  0.000000  0.020802  0.010401      8.000000
  0.010401  0.020802  0.010401     16.000000
  0.020802  0.020802  0.010401     16.000000
  0.031204  0.020802  0.010401     16.000000
  0.041605  0.020802  0.010401     16.000000
  0.052006  0.020802  0.010401     16.000000
  0.062407  0.020802  0.010401      8.000000
  0.000000  0.031204  0.010401      8.000000
  0.010401  0.031204  0.010401     16.000000
  0.020802  0.031204  0.010401     16.000000
  0.031204  0.031204  0.010401     16.000000
  0.041605  0.031204  0.010401     16.000000
  0.052006  0.031204  0.010401     16.000000
  0.062407  0.031204  0.010401      8.000000
  0.000000  0.041605  0.010401      8.000000
  0.010401  0.041605  0.010401     16.000000
  0.020802  0.041605  0.010401     16.000000
  0.031204  0.041605  0.010401     16.000000
  0.041605  0.041605  0.010401     16.000000
  0.052006  0.041605  0.010401     16.000000
  0.062407  0.041605  0.010401      8.000000
  0.000000  0.052006  0.010401      8.000000
  0.010401  0.052006  0.010401     16.000000
  0.020802  0.052006  0.010401     16.000000
  0.031204  0.052006  0.010401     16.000000
  0.041605  0.052006  0.010401     16.000000
  0.052006  0.052006  0.010401     16.000000
  0.062407  0.052006  0.010401      8.000000
  0.000000  0.062407  0.010401      4.000000
  0.010401  0.062407  0.010401      8.000000
  0.020802  0.062407  0.010401      8.000000
  0.031204  0.062407  0.010401      8.000000
  0.041605  0.062407  0.010401      8.000000
  0.052006  0.062407  0.010401      8.000000
  0.062407  0.062407  0.010401      4.000000
  0.000000  0.020802  0.020802      4.000000
  0.010401  0.020802  0.020802      8.000000
  0.020802  0.020802  0.020802      8.000000
  0.031204  0.020802  0.020802      8.000000
  0.041605  0.020802  0.020802      8.000000
  0.052006  0.020802  0.020802      8.000000
  0.062407  0.020802  0.020802      4.000000
  0.000000  0.031204  0.020802      8.000000
  0.010401  0.031204  0.020802     16.000000
  0.020802  0.031204  0.020802     16.000000
  0.031204  0.031204  0.020802     16.000000
  0.041605  0.031204  0.020802     16.000000
  0.052006  0.031204  0.020802     16.000000
  0.062407  0.031204  0.020802      8.000000
  0.000000  0.041605  0.020802      8.000000
  0.010401  0.041605  0.020802     16.000000
  0.020802  0.041605  0.020802     16.000000
  0.031204  0.041605  0.020802     16.000000
  0.041605  0.041605  0.020802     16.000000
  0.052006  0.041605  0.020802     16.000000
  0.062407  0.041605  0.020802      8.000000
  0.000000  0.052006  0.020802      8.000000
  0.010401  0.052006  0.020802     16.000000
  0.020802  0.052006  0.020802     16.000000
  0.031204  0.052006  0.020802     16.000000
  0.041605  0.052006  0.020802     16.000000
  0.052006  0.052006  0.020802     16.000000
  0.062407  0.052006  0.020802      8.000000
  0.000000  0.062407  0.020802      4.000000
  0.010401  0.062407  0.020802      8.000000
  0.020802  0.062407  0.020802      8.000000
  0.031204  0.062407  0.020802      8.000000
  0.041605  0.062407  0.020802      8.000000
  0.052006  0.062407  0.020802      8.000000
  0.062407  0.062407  0.020802      4.000000
  0.000000  0.031204  0.031204      4.000000
  0.010401  0.031204  0.031204      8.000000
  0.020802  0.031204  0.031204      8.000000
  0.031204  0.031204  0.031204      8.000000
  0.041605  0.031204  0.031204      8.000000
  0.052006  0.031204  0.031204      8.000000
  0.062407  0.031204  0.031204      4.000000
  0.000000  0.041605  0.031204      8.000000
  0.010401  0.041605  0.031204     16.000000
  0.020802  0.041605  0.031204     16.000000
  0.031204  0.041605  0.031204     16.000000
  0.041605  0.041605  0.031204     16.000000
  0.052006  0.041605  0.031204     16.000000
  0.062407  0.041605  0.031204      8.000000
  0.000000  0.052006  0.031204      8.000000
  0.010401  0.052006  0.031204     16.000000
  0.020802  0.052006  0.031204     16.000000
  0.031204  0.052006  0.031204     16.000000
  0.041605  0.052006  0.031204     16.000000
  0.052006  0.052006  0.031204     16.000000
  0.062407  0.052006  0.031204      8.000000
  0.000000  0.062407  0.031204      4.000000
  0.010401  0.062407  0.031204      8.000000
  0.020802  0.062407  0.031204      8.000000
  0.031204  0.062407  0.031204      8.000000
  0.041605  0.062407  0.031204      8.000000
  0.052006  0.062407  0.031204      8.000000
  0.062407  0.062407  0.031204      4.000000
  0.000000  0.041605  0.041605      4.000000
  0.010401  0.041605  0.041605      8.000000
  0.020802  0.041605  0.041605      8.000000
  0.031204  0.041605  0.041605      8.000000
  0.041605  0.041605  0.041605      8.000000
  0.052006  0.041605  0.041605      8.000000
  0.062407  0.041605  0.041605      4.000000
  0.000000  0.052006  0.041605      8.000000
  0.010401  0.052006  0.041605     16.000000
  0.020802  0.052006  0.041605     16.000000
  0.031204  0.052006  0.041605     16.000000
  0.041605  0.052006  0.041605     16.000000
  0.052006  0.052006  0.041605     16.000000
  0.062407  0.052006  0.041605      8.000000
  0.000000  0.062407  0.041605      4.000000
  0.010401  0.062407  0.041605      8.000000
  0.020802  0.062407  0.041605      8.000000
  0.031204  0.062407  0.041605      8.000000
  0.041605  0.062407  0.041605      8.000000
  0.052006  0.062407  0.041605      8.000000
  0.062407  0.062407  0.041605      4.000000
  0.000000  0.052006  0.052006      4.000000
  0.010401  0.052006  0.052006      8.000000
  0.020802  0.052006  0.052006      8.000000
  0.031204  0.052006  0.052006      8.000000
  0.041605  0.052006  0.052006      8.000000
  0.052006  0.052006  0.052006      8.000000
  0.062407  0.052006  0.052006      4.000000
  0.000000  0.062407  0.052006      4.000000
  0.010401  0.062407  0.052006      8.000000
  0.020802  0.062407  0.052006      8.000000
  0.031204  0.062407  0.052006      8.000000
  0.041605  0.062407  0.052006      8.000000
  0.052006  0.062407  0.052006      8.000000
  0.062407  0.062407  0.052006      4.000000
  0.000000  0.062407  0.062407      1.000000
  0.010401  0.062407  0.062407      2.000000
  0.020802  0.062407  0.062407      2.000000
  0.031204  0.062407  0.062407      2.000000
  0.041605  0.062407  0.062407      2.000000
  0.052006  0.062407  0.062407      2.000000
  0.062407  0.062407  0.062407      1.000000
 


--------------------------------------------------------------------------------------------------------




 Dimension of arrays:
   k-Points           NKPTS =    196   number of bands    NBANDS=    212
   number of dos      NEDOS =    301   number of ions     NIONS =     32
   non local maximal  LDIM  =      6   non local SUM 2l+1 LMDIM =     18
   total plane-waves  NPLWV = 373248
   max r-space proj   IRMAX =      1   max aug-charges    IRDMAX= 355220
   dimension x,y,z NGX =    72 NGY =   72 NGZ =   72
   dimension x,y,z NGXF=   144 NGYF=  144 NGZF=  144
   support grid    NGXF=   288 NGYF=  288 NGZF=  288
   ions per type =              32
 NGX,Y,Z   is equivalent  to a cutoff of  14.94, 14.94, 14.94 a.u.
 NGXF,Y,Z  is equivalent  to a cutoff of  29.88, 29.88, 29.88 a.u.


 I would recommend the setting:
   dimension x,y,z NGX =    72 NGY =   72 NGZ =   72
 SYSTEM =  unknown system                          
 POSCAR =  Au                                      

 Startparameter for this run:
   NWRITE =      2    write-flag & timer
   PREC   = accura    medium, high low
   ISTART =      0    job   : 0-new  1-cont  2-samecut
   ICHARG =      2    charge: 1-file 2-atom 10-const
   ISPIN  =      1    spin polarized calculation?
   LNONCOLLINEAR =      F non collinear calculations
   LSORBIT =      F    spin-orbit coupling
   INIWAV =      1    electr: 0-lowe 1-rand  2-diag
   LASPH  =      F    aspherical Exc in radial PAW
   METAGGA=      F    non-selfconsistent MetaGGA calc.

 Electronic Relaxation 1
   ENCUT  =  750.0 eV  55.12 Ry    7.42 a.u.  17.89 17.89 17.89*2*pi/ulx,y,z
   ENINI  =  750.0     initial cutoff
   ENAUG  =  356.7 eV  augmentation charge cutoff
   NELM   =     60;   NELMIN=  2; NELMDL=  0     # of ELM steps 
   EDIFF  = 0.1E-07   stopping-criterion for ELM
   LREAL  =      F    real-space projection
   LCOMPAT=      F    compatible to vasp.4.4
   LREAL_COMPAT= F    compatible to vasp.4.5.1-3
   GGA_COMPAT  = T    GGA compatible to vasp.4.4-vasp.4.6
   LMAXPAW     = -100 max onsite density
   LMAXMIX     =    2 max onsite mixed and CHGCAR
   VOSKOWN=      0    Vosko Wilk Nusair interpolation
   ROPT   =    0.00000
 Ionic relaxation
   EDIFFG = 0.1E-06   stopping-criterion for IOM
   NSW    =      0    number of steps for IOM
   NBLOCK =      1;   KBLOCK =      1    inner block; outer block 
   IBRION =     -1    ionic relax: 0-MD 1-quasi-New 2-CG
   NFREE  =      0    steps in history (QN), initial steepest desc. (CG)
   ISIF   =      2    stress and relaxation
   IWAVPR =     10    prediction:  0-non 1-charg 2-wave 3-comb
   ISYM   =      2    0-nonsym 1-usesym 2-fastsym
   LCORR  =      T    Harris-Foulkes like correction to forces

   POTIM  =   0.50    time-step for ionic-motion
   TEIN   =    0.0    initial temperature
   TEBEG  =    0.0;   TEEND  =   0.0 temperature during run
   SMASS  =  -3.00    Nose mass-parameter (am)
   estimated Nose-frequenzy (Omega)   =  0.10E-29 period in steps =****** mass=  -0.147E-26a.u.
   NPACO  =    256;   APACO  = 16.0  distance and # of slots for P.C.
   PSTRESS=    0.0 pullay stress

  Mass of Ions in am
   POMASS = 196.97
  Ionic Valenz
   ZVAL   =  11.00
  Atomic Wigner-Seitz radii
   RWIGS  =  -1.00
   NELECT =     352.0000    total number of electrons
   NUPDOWN=      -1.0000    fix difference up-down

 DOS related values:
   EMIN   =  10.00;   EMAX   =-10.00  energy-range for DOS
   ISMEAR =     0;   SIGMA  =   0.01  broadening in eV -4-tet -1-fermi 0-gaus

 Electronic relaxation 2 (details)
   IALGO  =     38    algorithm
   LDIAG  =      T    sub-space diagonalisation
   IMIX   =      4    mixing-type and parameters
     AMIX     =   0.40;   BMIX     =  1.00
     AMIX_MAG =   1.60;   BMIX_MAG =  1.00
     AMIN     =   0.10
     WC   =   100.;   INIMIX=   1;  MIXPRE=   1

 Intra band minimization:
   WEIMIN = 0.0000     energy-eigenvalue tresh-hold
   EBREAK =  0.12E-10  absolut break condition
   DEPER  =   0.30     relativ break condition  

   TIME   =   0.10     timestep for ELM

  volume/ion in A,a.u.               =      16.07       108.45
  Fermi-wavevector in a.u.,eV,Ry     =   1.442740 28.320524  2.081500

 Second variation
   LSECVAR=     F    do a second variation
 
 Write flags
   LWAVE  =      F    write WAVECAR
   LCHARG =      F    write CHGCAR
   LVTOT  =      F    write LOCPOT, local potential
   LELF   =      F    write electronic localiz. function (ELF)
   LORBIT =      0    0 simple, 1 ext, 2 COOP (PROOUT)


 Dipole corrections
   IDIPOL =      0    1-x, 2-y, 3-z
   LDIPOL =      F    correct potential



--------------------------------------------------------------------------------------------------------


 Static calculation
 charge density will be updated during run
 non-spin polarized calculation
 Variant of blocked Davidson
 Davidson routine will perform the subspace rotation
 performe sub-space diagonalisation
    after iterative eigenvector-optimisation
 modified Broyden-mixing scheme, WC =      100.0
 initial mixing is a Kerker type mixing with AMIX =  0.4000 and BMIX =      1.0000
 Hartree-type preconditioning will be used
 using additional bands           36
 reciprocal scheme for non local part
 use partial core corrections
 calculate Harris-corrections to forces 
   (improved forces if not selfconsistent)
 use gradient corrections 
 use of overlap-Matrix (Vanderbilt PP)
 Gauss-broadening in eV      SIGMA  =   0.01


--------------------------------------------------------------------------------------------------------


  energy-cutoff  :      750.00
  volume of cell :      514.28
      direct lattice vectors                 reciprocal lattice vectors
     8.011875652  0.000000000  0.000000000     0.124814718  0.000000000  0.000000000
     0.000000000  8.011875652  0.000000000     0.000000000  0.124814718  0.000000000
     0.000000000  0.000000000  8.011875652     0.000000000  0.000000000  0.124814718

  length of vectors
     8.011875652  8.011875652  8.011875652     0.124814718  0.124814718  0.124814718


 
 k-points in units of 2pi/SCALE and weight: Automatic mesh                          
   0.00000000  0.00000000  0.00000000       0.001
   0.01040123  0.00000000  0.00000000       0.001
   0.02080245  0.00000000  0.00000000       0.001
   0.03120368  0.00000000  0.00000000       0.001
   0.04160491  0.00000000  0.00000000       0.001
   0.05200613  0.00000000  0.00000000       0.001
   0.06240736  0.00000000  0.00000000       0.001
   0.00000000  0.01040123  0.00000000       0.002
   0.01040123  0.01040123  0.00000000       0.005
   0.02080245  0.01040123  0.00000000       0.005
   0.03120368  0.01040123  0.00000000       0.005
   0.04160491  0.01040123  0.00000000       0.005
   0.05200613  0.01040123  0.00000000       0.005
   0.06240736  0.01040123  0.00000000       0.002
   0.00000000  0.02080245  0.00000000       0.002
   0.01040123  0.02080245  0.00000000       0.005
   0.02080245  0.02080245  0.00000000       0.005
   0.03120368  0.02080245  0.00000000       0.005
   0.04160491  0.02080245  0.00000000       0.005
   0.05200613  0.02080245  0.00000000       0.005
   0.06240736  0.02080245  0.00000000       0.002
   0.00000000  0.03120368  0.00000000       0.002
   0.01040123  0.03120368  0.00000000       0.005
   0.02080245  0.03120368  0.00000000       0.005
   0.03120368  0.03120368  0.00000000       0.005
   0.04160491  0.03120368  0.00000000       0.005
   0.05200613  0.03120368  0.00000000       0.005
   0.06240736  0.03120368  0.00000000       0.002
   0.00000000  0.04160491  0.00000000       0.002
   0.01040123  0.04160491  0.00000000       0.005
   0.02080245  0.04160491  0.00000000       0.005
   0.03120368  0.04160491  0.00000000       0.005
   0.04160491  0.04160491  0.00000000       0.005
   0.05200613  0.04160491  0.00000000       0.005
   0.06240736  0.04160491  0.00000000       0.002
   0.00000000  0.05200613  0.00000000       0.002
   0.01040123  0.05200613  0.00000000       0.005
   0.02080245  0.05200613  0.00000000       0.005
   0.03120368  0.05200613  0.00000000       0.005
   0.04160491  0.05200613  0.00000000       0.005
   0.05200613  0.05200613  0.00000000       0.005
   0.06240736  0.05200613  0.00000000       0.002
   0.00000000  0.06240736  0.00000000       0.001
   0.01040123  0.06240736  0.00000000       0.002
   0.02080245  0.06240736  0.00000000       0.002
   0.03120368  0.06240736  0.00000000       0.002
   0.04160491  0.06240736  0.00000000       0.002
   0.05200613  0.06240736  0.00000000       0.002
   0.06240736  0.06240736  0.00000000       0.001
   0.00000000  0.01040123  0.01040123       0.002
   0.01040123  0.01040123  0.01040123       0.005
   0.02080245  0.01040123  0.01040123       0.005
   0.03120368  0.01040123  0.01040123       0.005
   0.04160491  0.01040123  0.01040123       0.005
   0.05200613  0.01040123  0.01040123       0.005
   0.06240736  0.01040123  0.01040123       0.002
   0.00000000  0.02080245  0.01040123       0.005
   0.01040123  0.02080245  0.01040123       0.009
   0.02080245  0.02080245  0.01040123       0.009
   0.03120368  0.02080245  0.01040123       0.009
   0.04160491  0.02080245  0.01040123       0.009
   0.05200613  0.02080245  0.01040123       0.009
   0.06240736  0.02080245  0.01040123       0.005
   0.00000000  0.03120368  0.01040123       0.005
   0.01040123  0.03120368  0.01040123       0.009
   0.02080245  0.03120368  0.01040123       0.009
   0.03120368  0.03120368  0.01040123       0.009
   0.04160491  0.03120368  0.01040123       0.009
   0.05200613  0.03120368  0.01040123       0.009
   0.06240736  0.03120368  0.01040123       0.005
   0.00000000  0.04160491  0.01040123       0.005
   0.01040123  0.04160491  0.01040123       0.009
   0.02080245  0.04160491  0.01040123       0.009
   0.03120368  0.04160491  0.01040123       0.009
   0.04160491  0.04160491  0.01040123       0.009
   0.05200613  0.04160491  0.01040123       0.009
   0.06240736  0.04160491  0.01040123       0.005
   0.00000000  0.05200613  0.01040123       0.005
   0.01040123  0.05200613  0.01040123       0.009
   0.02080245  0.05200613  0.01040123       0.009
   0.03120368  0.05200613  0.01040123       0.009
   0.04160491  0.05200613  0.01040123       0.009
   0.05200613  0.05200613  0.01040123       0.009
   0.06240736  0.05200613  0.01040123       0.005
   0.00000000  0.06240736  0.01040123       0.002
   0.01040123  0.06240736  0.01040123       0.005
   0.02080245  0.06240736  0.01040123       0.005
   0.03120368  0.06240736  0.01040123       0.005
   0.04160491  0.06240736  0.01040123       0.005
   0.05200613  0.06240736  0.01040123       0.005
   0.06240736  0.06240736  0.01040123       0.002
   0.00000000  0.02080245  0.02080245       0.002
   0.01040123  0.02080245  0.02080245       0.005
   0.02080245  0.02080245  0.02080245       0.005
   0.03120368  0.02080245  0.02080245       0.005
   0.04160491  0.02080245  0.02080245       0.005
   0.05200613  0.02080245  0.02080245       0.005
   0.06240736  0.02080245  0.02080245       0.002
   0.00000000  0.03120368  0.02080245       0.005
   0.01040123  0.03120368  0.02080245       0.009
   0.02080245  0.03120368  0.02080245       0.009
   0.03120368  0.03120368  0.02080245       0.009
   0.04160491  0.03120368  0.02080245       0.009
   0.05200613  0.03120368  0.02080245       0.009
   0.06240736  0.03120368  0.02080245       0.005
   0.00000000  0.04160491  0.02080245       0.005
   0.01040123  0.04160491  0.02080245       0.009
   0.02080245  0.04160491  0.02080245       0.009
   0.03120368  0.04160491  0.02080245       0.009
   0.04160491  0.04160491  0.02080245       0.009
   0.05200613  0.04160491  0.02080245       0.009
   0.06240736  0.04160491  0.02080245       0.005
   0.00000000  0.05200613  0.02080245       0.005
   0.01040123  0.05200613  0.02080245       0.009
   0.02080245  0.05200613  0.02080245       0.009
   0.03120368  0.05200613  0.02080245       0.009
   0.04160491  0.05200613  0.02080245       0.009
   0.05200613  0.05200613  0.02080245       0.009
   0.06240736  0.05200613  0.02080245       0.005
   0.00000000  0.06240736  0.02080245       0.002
   0.01040123  0.06240736  0.02080245       0.005
   0.02080245  0.06240736  0.02080245       0.005
   0.03120368  0.06240736  0.02080245       0.005
   0.04160491  0.06240736  0.02080245       0.005
   0.05200613  0.06240736  0.02080245       0.005
   0.06240736  0.06240736  0.02080245       0.002
   0.00000000  0.03120368  0.03120368       0.002
   0.01040123  0.03120368  0.03120368       0.005
   0.02080245  0.03120368  0.03120368       0.005
   0.03120368  0.03120368  0.03120368       0.005
   0.04160491  0.03120368  0.03120368       0.005
   0.05200613  0.03120368  0.03120368       0.005
   0.06240736  0.03120368  0.03120368       0.002
   0.00000000  0.04160491  0.03120368       0.005
   0.01040123  0.04160491  0.03120368       0.009
   0.02080245  0.04160491  0.03120368       0.009
   0.03120368  0.04160491  0.03120368       0.009
   0.04160491  0.04160491  0.03120368       0.009
   0.05200613  0.04160491  0.03120368       0.009
   0.06240736  0.04160491  0.03120368       0.005
   0.00000000  0.05200613  0.03120368       0.005
   0.01040123  0.05200613  0.03120368       0.009
   0.02080245  0.05200613  0.03120368       0.009
   0.03120368  0.05200613  0.03120368       0.009
   0.04160491  0.05200613  0.03120368       0.009
   0.05200613  0.05200613  0.03120368       0.009
   0.06240736  0.05200613  0.03120368       0.005
   0.00000000  0.06240736  0.03120368       0.002
   0.01040123  0.06240736  0.03120368       0.005
   0.02080245  0.06240736  0.03120368       0.005
   0.03120368  0.06240736  0.03120368       0.005
   0.04160491  0.06240736  0.03120368       0.005
   0.05200613  0.06240736  0.03120368       0.005
   0.06240736  0.06240736  0.03120368       0.002
   0.00000000  0.04160491  0.04160491       0.002
   0.01040123  0.04160491  0.04160491       0.005
   0.02080245  0.04160491  0.04160491       0.005
   0.03120368  0.04160491  0.04160491       0.005
   0.04160491  0.04160491  0.04160491       0.005
   0.05200613  0.04160491  0.04160491       0.005
   0.06240736  0.04160491  0.04160491       0.002
   0.00000000  0.05200613  0.04160491       0.005
   0.01040123  0.05200613  0.04160491       0.009
   0.02080245  0.05200613  0.04160491       0.009
   0.03120368  0.05200613  0.04160491       0.009
   0.04160491  0.05200613  0.04160491       0.009
   0.05200613  0.05200613  0.04160491       0.009
   0.06240736  0.05200613  0.04160491       0.005
   0.00000000  0.06240736  0.04160491       0.002
   0.01040123  0.06240736  0.04160491       0.005
   0.02080245  0.06240736  0.04160491       0.005
   0.03120368  0.06240736  0.04160491       0.005
   0.04160491  0.06240736  0.04160491       0.005
   0.05200613  0.06240736  0.04160491       0.005
   0.06240736  0.06240736  0.04160491       0.002
   0.00000000  0.05200613  0.05200613       0.002
   0.01040123  0.05200613  0.05200613       0.005
   0.02080245  0.05200613  0.05200613       0.005
   0.03120368  0.05200613  0.05200613       0.005
   0.04160491  0.05200613  0.05200613       0.005
   0.05200613  0.05200613  0.05200613       0.005
   0.06240736  0.05200613  0.05200613       0.002
   0.00000000  0.06240736  0.05200613       0.002
   0.01040123  0.06240736  0.05200613       0.005
   0.02080245  0.06240736  0.05200613       0.005
   0.03120368  0.06240736  0.05200613       0.005
   0.04160491  0.06240736  0.05200613       0.005
   0.05200613  0.06240736  0.05200613       0.005
   0.06240736  0.06240736  0.05200613       0.002
   0.00000000  0.06240736  0.06240736       0.001
   0.01040123  0.06240736  0.06240736       0.001
   0.02080245  0.06240736  0.06240736       0.001
   0.03120368  0.06240736  0.06240736       0.001
   0.04160491  0.06240736  0.06240736       0.001
   0.05200613  0.06240736  0.06240736       0.001
   0.06240736  0.06240736  0.06240736       0.001
 
 k-points in reciprocal lattice and weights: Automatic mesh                          
   0.00000000  0.00000000  0.00000000       0.001
   0.08333333  0.00000000  0.00000000       0.001
   0.16666667  0.00000000  0.00000000       0.001
   0.25000000  0.00000000  0.00000000       0.001
   0.33333333  0.00000000  0.00000000       0.001
   0.41666667  0.00000000  0.00000000       0.001
   0.50000000  0.00000000  0.00000000       0.001
   0.00000000  0.08333333  0.00000000       0.002
   0.08333333  0.08333333  0.00000000       0.005
   0.16666667  0.08333333  0.00000000       0.005
   0.25000000  0.08333333  0.00000000       0.005
   0.33333333  0.08333333  0.00000000       0.005
   0.41666667  0.08333333  0.00000000       0.005
   0.50000000  0.08333333  0.00000000       0.002
   0.00000000  0.16666667  0.00000000       0.002
   0.08333333  0.16666667  0.00000000       0.005
   0.16666667  0.16666667  0.00000000       0.005
   0.25000000  0.16666667  0.00000000       0.005
   0.33333333  0.16666667  0.00000000       0.005
   0.41666667  0.16666667  0.00000000       0.005
   0.50000000  0.16666667  0.00000000       0.002
   0.00000000  0.25000000  0.00000000       0.002
   0.08333333  0.25000000  0.00000000       0.005
   0.16666667  0.25000000  0.00000000       0.005
   0.25000000  0.25000000  0.00000000       0.005
   0.33333333  0.25000000  0.00000000       0.005
   0.41666667  0.25000000  0.00000000       0.005
   0.50000000  0.25000000  0.00000000       0.002
   0.00000000  0.33333333  0.00000000       0.002
   0.08333333  0.33333333  0.00000000       0.005
   0.16666667  0.33333333  0.00000000       0.005
   0.25000000  0.33333333  0.00000000       0.005
   0.33333333  0.33333333  0.00000000       0.005
   0.41666667  0.33333333  0.00000000       0.005
   0.50000000  0.33333333  0.00000000       0.002
   0.00000000  0.41666667  0.00000000       0.002
   0.08333333  0.41666667  0.00000000       0.005
   0.16666667  0.41666667  0.00000000       0.005
   0.25000000  0.41666667  0.00000000       0.005
   0.33333333  0.41666667  0.00000000       0.005
   0.41666667  0.41666667  0.00000000       0.005
   0.50000000  0.41666667  0.00000000       0.002
   0.00000000  0.50000000  0.00000000       0.001
   0.08333333  0.50000000  0.00000000       0.002
   0.16666667  0.50000000  0.00000000       0.002
   0.25000000  0.50000000  0.00000000       0.002
   0.33333333  0.50000000  0.00000000       0.002
   0.41666667  0.50000000  0.00000000       0.002
   0.50000000  0.50000000  0.00000000       0.001
   0.00000000  0.08333333  0.08333333       0.002
   0.08333333  0.08333333  0.08333333       0.005
   0.16666667  0.08333333  0.08333333       0.005
   0.25000000  0.08333333  0.08333333       0.005
   0.33333333  0.08333333  0.08333333       0.005
   0.41666667  0.08333333  0.08333333       0.005
   0.50000000  0.08333333  0.08333333       0.002
   0.00000000  0.16666667  0.08333333       0.005
   0.08333333  0.16666667  0.08333333       0.009
   0.16666667  0.16666667  0.08333333       0.009
   0.25000000  0.16666667  0.08333333       0.009
   0.33333333  0.16666667  0.08333333       0.009
   0.41666667  0.16666667  0.08333333       0.009
   0.50000000  0.16666667  0.08333333       0.005
   0.00000000  0.25000000  0.08333333       0.005
   0.08333333  0.25000000  0.08333333       0.009
   0.16666667  0.25000000  0.08333333       0.009
   0.25000000  0.25000000  0.08333333       0.009
   0.33333333  0.25000000  0.08333333       0.009
   0.41666667  0.25000000  0.08333333       0.009
   0.50000000  0.25000000  0.08333333       0.005
   0.00000000  0.33333333  0.08333333       0.005
   0.08333333  0.33333333  0.08333333       0.009
   0.16666667  0.33333333  0.08333333       0.009
   0.25000000  0.33333333  0.08333333       0.009
   0.33333333  0.33333333  0.08333333       0.009
   0.41666667  0.33333333  0.08333333       0.009
   0.50000000  0.33333333  0.08333333       0.005
   0.00000000  0.41666667  0.08333333       0.005
   0.08333333  0.41666667  0.08333333       0.009
   0.16666667  0.41666667  0.08333333       0.009
   0.25000000  0.41666667  0.08333333       0.009
   0.33333333  0.41666667  0.08333333       0.009
   0.41666667  0.41666667  0.08333333       0.009
   0.50000000  0.41666667  0.08333333       0.005
   0.00000000  0.50000000  0.08333333       0.002
   0.08333333  0.50000000  0.08333333       0.005
   0.16666667  0.50000000  0.08333333       0.005
   0.25000000  0.50000000  0.08333333       0.005
   0.33333333  0.50000000  0.08333333       0.005
   0.41666667  0.50000000  0.08333333       0.005
   0.50000000  0.50000000  0.08333333       0.002
   0.00000000  0.16666667  0.16666667       0.002
   0.08333333  0.16666667  0.16666667       0.005
   0.16666667  0.16666667  0.16666667       0.005
   0.25000000  0.16666667  0.16666667       0.005
   0.33333333  0.16666667  0.16666667       0.005
   0.41666667  0.16666667  0.16666667       0.005
   0.50000000  0.16666667  0.16666667       0.002
   0.00000000  0.25000000  0.16666667       0.005
   0.08333333  0.25000000  0.16666667       0.009
   0.16666667  0.25000000  0.16666667       0.009
   0.25000000  0.25000000  0.16666667       0.009
   0.33333333  0.25000000  0.16666667       0.009
   0.41666667  0.25000000  0.16666667       0.009
   0.50000000  0.25000000  0.16666667       0.005
   0.00000000  0.33333333  0.16666667       0.005
   0.08333333  0.33333333  0.16666667       0.009
   0.16666667  0.33333333  0.16666667       0.009
   0.25000000  0.33333333  0.16666667       0.009
   0.33333333  0.33333333  0.16666667       0.009
   0.41666667  0.33333333  0.16666667       0.009
   0.50000000  0.33333333  0.16666667       0.005
   0.00000000  0.41666667  0.16666667       0.005
   0.08333333  0.41666667  0.16666667       0.009
   0.16666667  0.41666667  0.16666667       0.009
   0.25000000  0.41666667  0.16666667       0.009
   0.33333333  0.41666667  0.16666667       0.009
   0.41666667  0.41666667  0.16666667       0.009
   0.50000000  0.41666667  0.16666667       0.005
   0.00000000  0.50000000  0.16666667       0.002
   0.08333333  0.50000000  0.16666667       0.005
   0.16666667  0.50000000  0.16666667       0.005
   0.25000000  0.50000000  0.16666667       0.005
   0.33333333  0.50000000  0.16666667       0.005
   0.41666667  0.50000000  0.16666667       0.005
   0.50000000  0.50000000  0.16666667       0.002
   0.00000000  0.25000000  0.25000000       0.002
   0.08333333  0.25000000  0.25000000       0.005
   0.16666667  0.25000000  0.25000000       0.005
   0.25000000  0.25000000  0.25000000       0.005
   0.33333333  0.25000000  0.25000000       0.005
   0.41666667  0.25000000  0.25000000       0.005
   0.50000000  0.25000000  0.25000000       0.002
   0.00000000  0.33333333  0.25000000       0.005
   0.08333333  0.33333333  0.25000000       0.009
   0.16666667  0.33333333  0.25000000       0.009
   0.25000000  0.33333333  0.25000000       0.009
   0.33333333  0.33333333  0.25000000       0.009
   0.41666667  0.33333333  0.25000000       0.009
   0.50000000  0.33333333  0.25000000       0.005
   0.00000000  0.41666667  0.25000000       0.005
   0.08333333  0.41666667  0.25000000       0.009
   0.16666667  0.41666667  0.25000000       0.009
   0.25000000  0.41666667  0.25000000       0.009
   0.33333333  0.41666667  0.25000000       0.009
   0.41666667  0.41666667  0.25000000       0.009
   0.50000000  0.41666667  0.25000000       0.005
   0.00000000  0.50000000  0.25000000       0.002
   0.08333333  0.50000000  0.25000000       0.005
   0.16666667  0.50000000  0.25000000       0.005
   0.25000000  0.50000000  0.25000000       0.005
   0.33333333  0.50000000  0.25000000       0.005
   0.41666667  0.50000000  0.25000000       0.005
   0.50000000  0.50000000  0.25000000       0.002
   0.00000000  0.33333333  0.33333333       0.002
   0.08333333  0.33333333  0.33333333       0.005
   0.16666667  0.33333333  0.33333333       0.005
   0.25000000  0.33333333  0.33333333       0.005
   0.33333333  0.33333333  0.33333333       0.005
   0.41666667  0.33333333  0.33333333       0.005
   0.50000000  0.33333333  0.33333333       0.002
   0.00000000  0.41666667  0.33333333       0.005
   0.08333333  0.41666667  0.33333333       0.009
   0.16666667  0.41666667  0.33333333       0.009
   0.25000000  0.41666667  0.33333333       0.009
   0.33333333  0.41666667  0.33333333       0.009
   0.41666667  0.41666667  0.33333333       0.009
   0.50000000  0.41666667  0.33333333       0.005
   0.00000000  0.50000000  0.33333333       0.002
   0.08333333  0.50000000  0.33333333       0.005
   0.16666667  0.50000000  0.33333333       0.005
   0.25000000  0.50000000  0.33333333       0.005
   0.33333333  0.50000000  0.33333333       0.005
   0.41666667  0.50000000  0.33333333       0.005
   0.50000000  0.50000000  0.33333333       0.002
   0.00000000  0.41666667  0.41666667       0.002
   0.08333333  0.41666667  0.41666667       0.005
   0.16666667  0.41666667  0.41666667       0.005
   0.25000000  0.41666667  0.41666667       0.005
   0.33333333  0.41666667  0.41666667       0.005
   0.41666667  0.41666667  0.41666667       0.005
   0.50000000  0.41666667  0.41666667       0.002
   0.00000000  0.50000000  0.41666667       0.002
   0.08333333  0.50000000  0.41666667       0.005
   0.16666667  0.50000000  0.41666667       0.005
   0.25000000  0.50000000  0.41666667       0.005
   0.33333333  0.50000000  0.41666667       0.005
   0.41666667  0.50000000  0.41666667       0.005
   0.50000000  0.50000000  0.41666667       0.002
   0.00000000  0.50000000  0.50000000       0.001
   0.08333333  0.50000000  0.50000000       0.001
   0.16666667  0.50000000  0.50000000       0.001
   0.25000000  0.50000000  0.50000000       0.001
   0.33333333  0.50000000  0.50000000       0.001
   0.41666667  0.50000000  0.50000000       0.001
   0.50000000  0.50000000  0.50000000       0.001
 
 position of ions in fractional coordinates (direct lattice) 
   0.00124815  0.00000000  0.00000000
   0.50000000  0.00000000  0.00000000
   0.00000000  0.50000000  0.00000000
   0.50000000  0.50000000  0.00000000
   0.00000000  0.00000000  0.50000000
   0.50000000  0.00000000  0.50000000
   0.00000000  0.50000000  0.50000000
   0.50000000  0.50000000  0.50000000
   0.25000000  0.25000000  0.00000000
   0.75000000  0.25000000  0.00000000
   0.25000000  0.75000000  0.00000000
   0.75000000  0.75000000  0.00000000
   0.25000000  0.25000000  0.50000000
   0.75000000  0.25000000  0.50000000
   0.25000000  0.75000000  0.50000000
   0.75000000  0.75000000  0.50000000
   0.25000000  0.00000000  0.25000000
   0.75000000  0.00000000  0.25000000
   0.25000000  0.50000000  0.25000000
   0.75000000  0.50000000  0.25000000
   0.25000000  0.00000000  0.75000000
   0.75000000  0.00000000  0.75000000
   0.25000000  0.50000000  0.75000000
   0.75000000  0.50000000  0.75000000
   0.00000000  0.25000000  0.25000000
   0.50000000  0.25000000  0.25000000
   0.00000000  0.75000000  0.25000000
   0.50000000  0.75000000  0.25000000
   0.00000000  0.25000000  0.75000000
   0.50000000  0.25000000  0.75000000
   0.00000000  0.75000000  0.75000000
   0.50000000  0.75000000  0.75000000
 
 position of ions in cartesian coordinates  (Angst):
   0.01000000  0.00000000  0.00000000
   4.00593783  0.00000000  0.00000000
   0.00000000  4.00593783  0.00000000
   4.00593783  4.00593783  0.00000000
   0.00000000  0.00000000  4.00593783
   4.00593783  0.00000000  4.00593783
   0.00000000  4.00593783  4.00593783
   4.00593783  4.00593783  4.00593783
   2.00296891  2.00296891  0.00000000
   6.00890674  2.00296891  0.00000000
   2.00296891  6.00890674  0.00000000
   6.00890674  6.00890674  0.00000000
   2.00296891  2.00296891  4.00593783
   6.00890674  2.00296891  4.00593783
   2.00296891  6.00890674  4.00593783
   6.00890674  6.00890674  4.00593783
   2.00296891  0.00000000  2.00296891
   6.00890674  0.00000000  2.00296891
   2.00296891  4.00593783  2.00296891
   6.00890674  4.00593783  2.00296891
   2.00296891  0.00000000  6.00890674
   6.00890674  0.00000000  6.00890674
   2.00296891  4.00593783  6.00890674
   6.00890674  4.00593783  6.00890674
   0.00000000  2.00296891  2.00296891
   4.00593783  2.00296891  2.00296891
   0.00000000  6.00890674  2.00296891
   4.00593783  6.00890674  2.00296891
   0.00000000  2.00296891  6.00890674
   4.00593783  2.00296891  6.00890674
   0.00000000  6.00890674  6.00890674
   4.00593783  6.00890674  6.00890674
 


--------------------------------------------------------------------------------------------------------


 k-point  1 :  0.00000.00000.0000  plane waves:  23871
 k-point  2 :  0.08330.00000.0000  plane waves:  23943
 k-point  3 :  0.16670.00000.0000  plane waves:  23980
 k-point  4 :  0.25000.00000.0000  plane waves:  24020
 k-point  5 :  0.33330.00000.0000  plane waves:  23988
 k-point  6 :  0.41670.00000.0000  plane waves:  24004
 k-point  7 :  0.50000.00000.0000  plane waves:  23980
 k-point  8 :  0.00000.08330.0000  plane waves:  23943
 k-point  9 :  0.08330.08330.0000  plane waves:  23953
 k-point 10 :  0.16670.08330.0000  plane waves:  23981
 k-point 11 :  0.25000.08330.0000  plane waves:  23956
 k-point 12 :  0.33330.08330.0000  plane waves:  23983
 k-point 13 :  0.41670.08330.0000  plane waves:  23989
 k-point 14 :  0.50000.08330.0000  plane waves:  23992
 k-point 15 :  0.00000.16670.0000  plane waves:  23980
 k-point 16 :  0.08330.16670.0000  plane waves:  23981
 k-point 17 :  0.16670.16670.0000  plane waves:  23953
 k-point 18 :  0.25000.16670.0000  plane waves:  23982
 k-point 19 :  0.33330.16670.0000  plane waves:  23976
 k-point 20 :  0.41670.16670.0000  plane waves:  23981
 k-point 21 :  0.50000.16670.0000  plane waves:  23966
 k-point 22 :  0.00000.25000.0000  plane waves:  24020
 k-point 23 :  0.08330.25000.0000  plane waves:  23956
 k-point 24 :  0.16670.25000.0000  plane waves:  23982
 k-point 25 :  0.25000.25000.0000  plane waves:  23983
 k-point 26 :  0.33330.25000.0000  plane waves:  23989
 k-point 27 :  0.41670.25000.0000  plane waves:  23979
 k-point 28 :  0.50000.25000.0000  plane waves:  23980
 k-point 29 :  0.00000.33330.0000  plane waves:  23988
 k-point 30 :  0.08330.33330.0000  plane waves:  23983
 k-point 31 :  0.16670.33330.0000  plane waves:  23976
 k-point 32 :  0.25000.33330.0000  plane waves:  23989
 k-point 33 :  0.33330.33330.0000  plane waves:  23941
 k-point 34 :  0.41670.33330.0000  plane waves:  23980
 k-point 35 :  0.50000.33330.0000  plane waves:  23994
 k-point 36 :  0.00000.41670.0000  plane waves:  24004
 k-point 37 :  0.08330.41670.0000  plane waves:  23989
 k-point 38 :  0.16670.41670.0000  plane waves:  23981
 k-point 39 :  0.25000.41670.0000  plane waves:  23979
 k-point 40 :  0.33330.41670.0000  plane waves:  23980
 k-point 41 :  0.41670.41670.0000  plane waves:  23982
 k-point 42 :  0.50000.41670.0000  plane waves:  23994
 k-point 43 :  0.00000.50000.0000  plane waves:  23980
 k-point 44 :  0.08330.50000.0000  plane waves:  23992
 k-point 45 :  0.16670.50000.0000  plane waves:  23966
 k-point 46 :  0.25000.50000.0000  plane waves:  23980
 k-point 47 :  0.33330.50000.0000  plane waves:  23994
 k-point 48 :  0.41670.50000.0000  plane waves:  23994
 k-point 49 :  0.50000.50000.0000  plane waves:  23980
 k-point 50 :  0.00000.08330.0833  plane waves:  23953
 k-point 51 :  0.08330.08330.0833  plane waves:  23949
 k-point 52 :  0.16670.08330.0833  plane waves:  23978
 k-point 53 :  0.25000.08330.0833  plane waves:  23959
 k-point 54 :  0.33330.08330.0833  plane waves:  23985
 k-point 55 :  0.41670.08330.0833  plane waves:  23986
 k-point 56 :  0.50000.08330.0833  plane waves:  23968
 k-point 57 :  0.00000.16670.0833  plane waves:  23981
 k-point 58 :  0.08330.16670.0833  plane waves:  23978
 k-point 59 :  0.16670.16670.0833  plane waves:  23980
 k-point 60 :  0.25000.16670.0833  plane waves:  23974
 k-point 61 :  0.33330.16670.0833  plane waves:  23973
 k-point 62 :  0.41670.16670.0833  plane waves:  23990
 k-point 63 :  0.50000.16670.0833  plane waves:  23968
 k-point 64 :  0.00000.25000.0833  plane waves:  23956
 k-point 65 :  0.08330.25000.0833  plane waves:  23959
 k-point 66 :  0.16670.25000.0833  plane waves:  23974
 k-point 67 :  0.25000.25000.0833  plane waves:  23997
 k-point 68 :  0.33330.25000.0833  plane waves:  23984
 k-point 69 :  0.41670.25000.0833  plane waves:  23974
 k-point 70 :  0.50000.25000.0833  plane waves:  23970
 k-point 71 :  0.00000.33330.0833  plane waves:  23983
 k-point 72 :  0.08330.33330.0833  plane waves:  23985
 k-point 73 :  0.16670.33330.0833  plane waves:  23973
 k-point 74 :  0.25000.33330.0833  plane waves:  23984
 k-point 75 :  0.33330.33330.0833  plane waves:  23995
 k-point 76 :  0.41670.33330.0833  plane waves:  23984
 k-point 77 :  0.50000.33330.0833  plane waves:  23986
 k-point 78 :  0.00000.41670.0833  plane waves:  23989
 k-point 79 :  0.08330.41670.0833  plane waves:  23986
 k-point 80 :  0.16670.41670.0833  plane waves:  23990
 k-point 81 :  0.25000.41670.0833  plane waves:  23974
 k-point 82 :  0.33330.41670.0833  plane waves:  23984
 k-point 83 :  0.41670.41670.0833  plane waves:  23994
 k-point 84 :  0.50000.41670.0833  plane waves:  23982
 k-point 85 :  0.00000.50000.0833  plane waves:  23992
 k-point 86 :  0.08330.50000.0833  plane waves:  23968
 k-point 87 :  0.16670.50000.0833  plane waves:  23968
 k-point 88 :  0.25000.50000.0833  plane waves:  23970
 k-point 89 :  0.33330.50000.0833  plane waves:  23986
 k-point 90 :  0.41670.50000.0833  plane waves:  23982
 k-point 91 :  0.50000.50000.0833  plane waves:  24000
 k-point 92 :  0.00000.16670.1667  plane waves:  23953
 k-point 93 :  0.08330.16670.1667  plane waves:  23980
 k-point 94 :  0.16670.16670.1667  plane waves:  23955
 k-point 95 :  0.25000.16670.1667  plane waves:  23988
 k-point 96 :  0.33330.16670.1667  plane waves:  24001
 k-point 97 :  0.41670.16670.1667  plane waves:  24004
 k-point 98 :  0.50000.16670.1667  plane waves:  23984
 k-point 99 :  0.00000.25000.1667  plane waves:  23982
 k-point ** :  0.08330.25000.1667  plane waves:  23974
 k-point ** :  0.16670.25000.1667  plane waves:  23988
 k-point ** :  0.25000.25000.1667  plane waves:  23997
 k-point ** :  0.33330.25000.1667  plane waves:  23995
 k-point ** :  0.41670.25000.1667  plane waves:  23971
 k-point ** :  0.50000.25000.1667  plane waves:  23974
 k-point ** :  0.00000.33330.1667  plane waves:  23976
 k-point ** :  0.08330.33330.1667  plane waves:  23973
 k-point ** :  0.16670.33330.1667  plane waves:  24001
 k-point ** :  0.25000.33330.1667  plane waves:  23995
 k-point ** :  0.33330.33330.1667  plane waves:  23980
 k-point ** :  0.41670.33330.1667  plane waves:  23968
 k-point ** :  0.50000.33330.1667  plane waves:  23988
 k-point ** :  0.00000.41670.1667  plane waves:  23981
 k-point ** :  0.08330.41670.1667  plane waves:  23990
 k-point ** :  0.16670.41670.1667  plane waves:  24004
 k-point ** :  0.25000.41670.1667  plane waves:  23971
 k-point ** :  0.33330.41670.1667  plane waves:  23968
 k-point ** :  0.41670.41670.1667  plane waves:  23998
 k-point ** :  0.50000.41670.1667  plane waves:  23988
 k-point ** :  0.00000.50000.1667  plane waves:  23966
 k-point ** :  0.08330.50000.1667  plane waves:  23968
 k-point ** :  0.16670.50000.1667  plane waves:  23984
 k-point ** :  0.25000.50000.1667  plane waves:  23974
 k-point ** :  0.33330.50000.1667  plane waves:  23988
 k-point ** :  0.41670.50000.1667  plane waves:  23988
 k-point ** :  0.50000.50000.1667  plane waves:  24016
 k-point ** :  0.00000.25000.2500  plane waves:  23983
 k-point ** :  0.08330.25000.2500  plane waves:  23997
 k-point ** :  0.16670.25000.2500  plane waves:  23997
 k-point ** :  0.25000.25000.2500  plane waves:  23976
 k-point ** :  0.33330.25000.2500  plane waves:  23985
 k-point ** :  0.41670.25000.2500  plane waves:  23973
 k-point ** :  0.50000.25000.2500  plane waves:  23954
 k-point ** :  0.00000.33330.2500  plane waves:  23989
 k-point ** :  0.08330.33330.2500  plane waves:  23984
 k-point ** :  0.16670.33330.2500  plane waves:  23995
 k-point ** :  0.25000.33330.2500  plane waves:  23985
 k-point ** :  0.33330.33330.2500  plane waves:  23981
 k-point ** :  0.41670.33330.2500  plane waves:  23995
 k-point ** :  0.50000.33330.2500  plane waves:  23998
 k-point ** :  0.00000.41670.2500  plane waves:  23979
 k-point ** :  0.08330.41670.2500  plane waves:  23974
 k-point ** :  0.16670.41670.2500  plane waves:  23971
 k-point ** :  0.25000.41670.2500  plane waves:  23973
 k-point ** :  0.33330.41670.2500  plane waves:  23995
 k-point ** :  0.41670.41670.2500  plane waves:  23994
 k-point ** :  0.50000.41670.2500  plane waves:  24006
 k-point ** :  0.00000.50000.2500  plane waves:  23980
 k-point ** :  0.08330.50000.2500  plane waves:  23970
 k-point ** :  0.16670.50000.2500  plane waves:  23974
 k-point ** :  0.25000.50000.2500  plane waves:  23954
 k-point ** :  0.33330.50000.2500  plane waves:  23998
 k-point ** :  0.41670.50000.2500  plane waves:  24006
 k-point ** :  0.50000.50000.2500  plane waves:  24056
 k-point ** :  0.00000.33330.3333  plane waves:  23941
 k-point ** :  0.08330.33330.3333  plane waves:  23995
 k-point ** :  0.16670.33330.3333  plane waves:  23980
 k-point ** :  0.25000.33330.3333  plane waves:  23981
 k-point ** :  0.33330.33330.3333  plane waves:  23984
 k-point ** :  0.41670.33330.3333  plane waves:  24025
 k-point ** :  0.50000.33330.3333  plane waves:  24002
 k-point ** :  0.00000.41670.3333  plane waves:  23980
 k-point ** :  0.08330.41670.3333  plane waves:  23984
 k-point ** :  0.16670.41670.3333  plane waves:  23968
 k-point ** :  0.25000.41670.3333  plane waves:  23995
 k-point ** :  0.33330.41670.3333  plane waves:  24025
 k-point ** :  0.41670.41670.3333  plane waves:  24026
 k-point ** :  0.50000.41670.3333  plane waves:  24034
 k-point ** :  0.00000.50000.3333  plane waves:  23994
 k-point ** :  0.08330.50000.3333  plane waves:  23986
 k-point ** :  0.16670.50000.3333  plane waves:  23988
 k-point ** :  0.25000.50000.3333  plane waves:  23998
 k-point ** :  0.33330.50000.3333  plane waves:  24002
 k-point ** :  0.41670.50000.3333  plane waves:  24034
 k-point ** :  0.50000.50000.3333  plane waves:  24048
 k-point ** :  0.00000.41670.4167  plane waves:  23982
 k-point ** :  0.08330.41670.4167  plane waves:  23994
 k-point ** :  0.16670.41670.4167  plane waves:  23998
 k-point ** :  0.25000.41670.4167  plane waves:  23994
 k-point ** :  0.33330.41670.4167  plane waves:  24026
 k-point ** :  0.41670.41670.4167  plane waves:  24035
 k-point ** :  0.50000.41670.4167  plane waves:  24040
 k-point ** :  0.00000.50000.4167  plane waves:  23994
 k-point ** :  0.08330.50000.4167  plane waves:  23982
 k-point ** :  0.16670.50000.4167  plane waves:  23988
 k-point ** :  0.25000.50000.4167  plane waves:  24006
 k-point ** :  0.33330.50000.4167  plane waves:  24034
 k-point ** :  0.41670.50000.4167  plane waves:  24040
 k-point ** :  0.50000.50000.4167  plane waves:  24008
 k-point ** :  0.00000.50000.5000  plane waves:  23980
 k-point ** :  0.08330.50000.5000  plane waves:  24000
 k-point ** :  0.16670.50000.5000  plane waves:  24016
 k-point ** :  0.25000.50000.5000  plane waves:  24056
 k-point ** :  0.33330.50000.5000  plane waves:  24048
 k-point ** :  0.41670.50000.5000  plane waves:  24008
 k-point ** :  0.50000.50000.5000  plane waves:  23984

 maximum and minimum number of plane-waves per node :  24056 23871

 maximum number of plane-waves:  24056
 maximal index in each direction: 
   IXMAX= 17   IYMAX= 17   IZMAX= 17
   IXMIN=-18   IYMIN=-18   IZMIN=-18

 NGX is ok and might be reduce to  72
 NGY is ok and might be reduce to  72
 NGZ is ok and might be reduce to  72

 parallel 3dFFT wavefunction:
    minimum data exchange during FFTs selected (reduces bandwidth)
 parallel 3dFFT charge:
    minimum data exchange during FFTs selected (reduces bandwidth)

 For storing wavefunctions ******* MBYTES are necessary
 For predicting wavefunctions  174.75 MBYTES are necessary
Broyden mixing: mesh for mixing (old mesh)
   NGX = 35   NGY = 35   NGZ = 35
  (NGX  =144   NGY  =144   NGZ  =144)
 gives a total of  42875 points
 initial charge density was supplied:
 charge density of overlapping atoms calculated
 number of electron  352.0000000 magnetization 
 keeping initial charge density in first step


--------------------------------------------------------------------------------------------------------


 Maximum index for augmentation-charges        86233 (set IRDMAX)


--------------------------------------------------------------------------------------------------------


 First call to EWALD:  gamma=   0.221
 Maximum number of real-space cells 3x 3x 3
 Maximum number of reciprocal cells 3x 3x 3

    FEWALD:  VPU time    0.00: CPU time    0.00


----------------------------------------- Iteration    1(   1)  ---------------------------------------


    POTLOK:  VPU time    1.03: CPU time    1.69
    SETDIJ:  VPU time    1.68: CPU time    2.54
    EDDAV :  VPU time 2084.82: CPU time 2110.89
    DOS   :  VPU time    0.00: CPU time   -0.03
    ------------------------------------------
      LOOP:  VPU time 2087.80: CPU time 2116.01

 eigenvalue-minimisations  : 83104
 total energy-change (2. order) : 0.4988702E+04  (-0.2118997E+05)
 number of electron  352.0000000 magnetization 
 augmentation part   352.0000000 magnetization 

 Free energy of the ion-electron system (eV)
  ---------------------------------------------------
  alpha Z        PSCENC =      3729.00947824
  Ewald energy   TEWEN  =    -31906.79990361
  -1/2 Hartree   DENC   =     -3726.53406491
  -V(xc)+E(xc)   XCENC  =       498.84440510
  PAW double counting   =     23920.39735419   -23172.13309131
  entropy T*S    EENTRO =        -0.00049900
  eigenvalues    EBANDS =      6012.12869076
  atomic energy  EATOM  =     29633.78979189
  ---------------------------------------------------
  free energy    TOTEN  =      4988.70216137 eV

  energy without entropy =     4988.70266037  energy(sigma->0) =     4988.70241087


--------------------------------------------------------------------------------------------------------




----------------------------------------- Iteration    1(   2)  ---------------------------------------


    EDDAV :  VPU time 1449.97: CPU time 1517.64
    DOS   :  VPU time   -0.00: CPU time   -0.07
    ------------------------------------------
      LOOP:  VPU time 1450.20: CPU time 1518.10

 eigenvalue-minimisations  : 83108
 total energy-change (2. order) :-0.4801278E+04  (-0.4617294E+04)
 number of electron  352.0000000 magnetization 
 augmentation part   352.0000000 magnetization 

 Free energy of the ion-electron system (eV)
  ---------------------------------------------------
  alpha Z        PSCENC =      3729.00947824
  Ewald energy   TEWEN  =    -31906.79990361
  -1/2 Hartree   DENC   =     -3726.53406491
  -V(xc)+E(xc)   XCENC  =       498.84440510
  PAW double counting   =     23920.39735419   -23172.13309131
  entropy T*S    EENTRO =        -0.00056555
  eigenvalues    EBANDS =      1210.85123818
  atomic energy  EATOM  =     29633.78979189
  ---------------------------------------------------
  free energy    TOTEN  =       187.42464223 eV

  energy without entropy =      187.42520778  energy(sigma->0) =      187.42492500


--------------------------------------------------------------------------------------------------------




----------------------------------------- Iteration    1(   3)  ---------------------------------------


    EDDAV :  VPU time 1384.43: CPU time 1402.32
    DOS   :  VPU time    0.00: CPU time   -0.00
    ------------------------------------------
      LOOP:  VPU time 1384.66: CPU time 1402.55

 eigenvalue-minimisations  : 90028
 total energy-change (2. order) :-0.2858265E+03  (-0.2637380E+03)
 number of electron  352.0000000 magnetization 
 augmentation part   352.0000000 magnetization 

 Free energy of the ion-electron system (eV)
  ---------------------------------------------------
  alpha Z        PSCENC =      3729.00947824
  Ewald energy   TEWEN  =    -31906.79990361
  -1/2 Hartree   DENC   =     -3726.53406491
  -V(xc)+E(xc)   XCENC  =       498.84440510
  PAW double counting   =     23920.39735419   -23172.13309131
  entropy T*S    EENTRO =        -0.00048142
  eigenvalues    EBANDS =       925.02465114
  atomic energy  EATOM  =     29633.78979189
  ---------------------------------------------------
  free energy    TOTEN  =       -98.40186068 eV

  energy without entropy =      -98.40137926  energy(sigma->0) =      -98.40161997


--------------------------------------------------------------------------------------------------------




----------------------------------------- Iteration    1(   4)  ---------------------------------------


    EDDAV :  VPU time 4979.15: CPU time 9380.56
    DOS   :  VPU time   -0.00: CPU time   -0.35
    ------------------------------------------
      LOOP:  VPU time 4983.49: CPU time 9414.02

 eigenvalue-minimisations  : 89316
 total energy-change (2. order) :-0.9754828E+01  (-0.9604719E+01)
 number of electron  352.0000000 magnetization 
 augmentation part   352.0000000 magnetization 

 Free energy of the ion-electron system (eV)
  ---------------------------------------------------
  alpha Z        PSCENC =      3729.00947824
  Ewald energy   TEWEN  =    -31906.79990361
  -1/2 Hartree   DENC   =     -3726.53406491
  -V(xc)+E(xc)   XCENC  =       498.84440510
  PAW double counting   =     23920.39735419   -23172.13309131
  entropy T*S    EENTRO =        -0.00094662
  eigenvalues    EBANDS =       915.27028867
  atomic energy  EATOM  =     29633.78979189
  ---------------------------------------------------
  free energy    TOTEN  =      -108.15668835 eV

  energy without entropy =     -108.15574173  energy(sigma->0) =     -108.15621504


--------------------------------------------------------------------------------------------------------




----------------------------------------- Iteration    1(   5)  ---------------------------------------


    EDDAV :  VPU time 3669.19: CPU time 6117.04
    DOS   :  VPU time   -0.00: CPU time   -0.00
    CHARGE:  VPU time  316.07: CPU time  819.37
    MIXING:  VPU time    0.14: CPU time    0.48
    ------------------------------------------
      LOOP:  VPU time 3989.82: CPU time 6943.05

 eigenvalue-minimisations  : 90204
 total energy-change (2. order) :-0.1798377E+00  (-0.1792051E+00)
 number of electron  352.0000007 magnetization 
 augmentation part   123.7616269 magnetization 

 Broyden mixing:
  rms(total) = 0.16678E+01    rms(broyden)= 0.16678E+01
  rms(prec ) = 0.25582E+01
  weight for this iteration     100.00

 Free energy of the ion-electron system (eV)
  ---------------------------------------------------
  alpha Z        PSCENC =      3729.00947824
  Ewald energy   TEWEN  =    -31906.79990361
  -1/2 Hartree   DENC   =     -3726.53406491
  -V(xc)+E(xc)   XCENC  =       498.84440510
  PAW double counting   =     23920.39735419   -23172.13309131
  entropy T*S    EENTRO =        -0.00097038
  eigenvalues    EBANDS =       915.09047476
  atomic energy  EATOM  =     29633.78979189
  ---------------------------------------------------
  free energy    TOTEN  =      -108.33652602 eV

  energy without entropy =     -108.33555564  energy(sigma->0) =     -108.33604083


--------------------------------------------------------------------------------------------------------




----------------------------------------- Iteration    1(   6)  ---------------------------------------


    POTLOK:  VPU time    9.35: CPU time  137.97
    SETDIJ:  VPU time    6.25: CPU time   27.96
    EDDAV :  VPU time 2368.52: CPU time 3460.83
    DOS   :  VPU time    0.00: CPU time   -0.00
    CHARGE:  VPU time   83.19: CPU time   94.98
    MIXING:  VPU time    0.04: CPU time    0.66
    ------------------------------------------
      LOOP:  VPU time 2467.57: CPU time 3722.62

 eigenvalue-minimisations  : 88048
 total energy-change (2. order) : 0.7177970E+01  (-0.1653257E+01)
 number of electron  352.0000007 magnetization 
 augmentation part   127.4445175 magnetization 

 Broyden mixing:
  rms(total) = 0.50016E+00    rms(broyden)= 0.50016E+00
  rms(prec ) = 0.76216E+00
  weight for this iteration     100.00

 eigenvalues of (default mixing * dielectric matrix)
  average eigenvalue GAMMA=   1.3293
  1.3293

 Free energy of the ion-electron system (eV)
  ---------------------------------------------------
  alpha Z        PSCENC =      3729.00947824
  Ewald energy   TEWEN  =    -31906.79990361
  -1/2 Hartree   DENC   =     -3496.63054895
  -V(xc)+E(xc)   XCENC  =       488.79795558
  PAW double counting   =     23961.89789588   -23258.76314114
  entropy T*S    EENTRO =        -0.00065132
  eigenvalues    EBANDS =       747.54056789
  atomic energy  EATOM  =     29633.78979189
  ---------------------------------------------------
  free energy    TOTEN  =      -101.15855553 eV

  energy without entropy =     -101.15790422  energy(sigma->0) =     -101.15822987


--------------------------------------------------------------------------------------------------------




----------------------------------------- Iteration    1(   7)  ---------------------------------------


    POTLOK:  VPU time    0.59: CPU time    0.59
    SETDIJ:  VPU time    6.94: CPU time    8.87
    EDDAV :  VPU time 3631.86: CPU time 6946.03
    DOS   :  VPU time    0.00: CPU time   -0.00
    CHARGE:  VPU time   93.99: CPU time  256.02
    MIXING:  VPU time    0.03: CPU time    0.54
    ------------------------------------------
      LOOP:  VPU time 3733.64: CPU time 7212.41

 eigenvalue-minimisations  : 93676
 total energy-change (2. order) : 0.7478047E+00  (-0.1786392E+00)
 number of electron  352.0000007 magnetization 
 augmentation part   128.6558220 magnetization 

 Broyden mixing:
  rms(total) = 0.15802E+00    rms(broyden)= 0.15802E+00
  rms(prec ) = 0.18761E+00
  weight for this iteration     100.00

 eigenvalues of (default mixing * dielectric matrix)
  average eigenvalue GAMMA=   1.8578
  1.2814  2.4342

 Free energy of the ion-electron system (eV)
  ---------------------------------------------------
  alpha Z        PSCENC =      3729.00947824
  Ewald energy   TEWEN  =    -31906.79990361
  -1/2 Hartree   DENC   =     -3406.48705618
  -V(xc)+E(xc)   XCENC  =       484.82329121
  PAW double counting   =     24191.21139974   -23519.98287503
  entropy T*S    EENTRO =        -0.00033227
  eigenvalues    EBANDS =       694.02545517
  atomic energy  EATOM  =     29633.78979189
[...]
     68       1.7701      2.00000
     69       1.7710      2.00000
     70       1.7711      2.00000
     71       1.7712      2.00000
     72       1.7712      2.00000
     73       1.7717      2.00000
     74       1.7717      2.00000
     75       1.7718      2.00000
     76       1.7720      2.00000
     77       1.7727      2.00000
     78       1.7729      2.00000
     79       1.7734      2.00000
     80       1.7734      2.00000
     81       1.8382      2.00000
     82       1.8382      2.00000
     83       1.8398      2.00000
     84       1.8399      2.00000
     85       1.8421      2.00000
     86       1.8430      2.00000
     87       1.8431      2.00000
     88       1.8431      2.00000
     89       1.8432      2.00000
     90       1.8432      2.00000
     91       1.8433      2.00000
     92       1.8433      2.00000
     93       1.8435      2.00000
     94       1.8435      2.00000
     95       1.8435      2.00000
     96       1.8435      2.00000
     97       1.8436      2.00000
     98       1.8436      2.00000
     99       1.8438      2.00000
    100       1.8448      2.00000
    101       1.8470      2.00000
    102       1.8471      2.00000
    103       1.8489      2.00000
    104       1.8489      2.00000
    105       2.7606      2.00000
    106       2.7626      2.00000
    107       2.7626      2.00000
    108       2.7658      2.00000
    109       2.7660      2.00000
    110       2.7661      2.00000
    111       2.7661      2.00000
    112       2.7665      2.00000
    113       2.7668      2.00000
    114       2.7668      2.00000
    115       2.7668      2.00000
    116       2.7668      2.00000
    117       2.7669      2.00000
    118       2.7669      2.00000
    119       2.7669      2.00000
    120       2.7669      2.00000
    121       2.7672      2.00000
    122       2.7676      2.00000
    123       2.7676      2.00000
    124       2.7677      2.00000
    125       2.7679      2.00000
    126       2.7711      2.00000
    127       2.7711      2.00000
    128       2.7730      2.00000
    129       3.3237      2.00000
    130       3.3257      2.00000
    131       3.3259      2.00000
    132       3.3259      2.00000
    133       3.3274      2.00000
    134       3.3274      2.00000
    135       3.3276      2.00000
    136       3.3279      2.00000
    137       3.3280      2.00000
    138       3.3282      2.00000
    139       3.3285      2.00000
    140       3.3285      2.00000
    141       3.3300      2.00000
    142       3.3300      2.00000
    143       3.3302      2.00000
    144       3.3322      2.00000
    145       4.5776      2.00000
    146       4.5776      2.00000
    147       4.5780      2.00000
    148       4.5783      2.00000
    149       4.5784      2.00000
    150       4.5784      2.00000
    151       4.5784      2.00000
    152       4.5784      2.00000
    153       4.5786      2.00000
    154       4.5787      2.00000
    155       4.5787      2.00000
    156       4.5788      2.00000
    157       4.5790      2.00000
    158       4.5791      2.00000
    159       4.5791      2.00000
    160       4.5792      2.00000
    161       4.5793      2.00000
    162       4.5794      2.00000
    163       4.5794      2.00000
    164       4.5794      2.00000
    165       4.5795      2.00000
    166       4.5798      2.00000
    167       4.5802      2.00000
    168       4.5802      2.00000
    169       7.6407      0.00000
    170       7.6430      0.00000
    171       7.6430      0.00000
    172       7.6453      0.00000
    173       7.6463      0.00000
    174       7.6463      0.00000
    175       7.6464      0.00000
    176       7.6464      0.00000
    177       7.6465      0.00000
    178       7.6466      0.00000
    179       7.6467      0.00000
    180       7.6467      0.00000
    181       7.6470      0.00000
    182       7.6470      0.00000
    183       7.6471      0.00000
    184       7.6472      0.00000
    185       7.6473      0.00000
    186       7.6473      0.00000
    187       7.6474      0.00000
    188       7.6475      0.00000
    189       7.6484      0.00000
    190       7.6507      0.00000
    191       7.6507      0.00000
    192       7.6531      0.00000
    193      12.2442      0.00000
    194      12.2445      0.00000
    195      12.2481      0.00000
    196      12.2485      0.00000
    197      12.2492      0.00000
    198      12.2497      0.00000
    199      12.2499      0.00000
    200      12.2503      0.00000
    201      12.2505      0.00000
    202      12.2505      0.00000
    203      12.2505      0.00000
    204      12.2506      0.00000
    205      12.2507      0.00000
    206      12.2509      0.00000
    207      12.2510      0.00000
    208      12.2515      0.00000
    209      12.2517      0.00000
    210      12.2521      0.00000
    211      12.2530      0.00000
    212      12.2538      0.00000


--------------------------------------------------------------------------------------------------------


 soft charge-density along one line, spin component           1
         0         1         2         3         4         5         6         7         8         9
 total charge-density along one line
 
 pseudopotential strength for first ion, spin component:           1
 -9.544   0.000  -0.000  -0.000  -0.000  -0.141   0.000   0.000
  0.000  -9.544   0.000   0.000   0.000   0.000  -0.141  -0.000
 -0.000   0.000  -9.528   0.000  -0.000   0.000  -0.000  -0.143
 -0.000   0.000   0.000  -9.544  -0.000   0.000  -0.000  -0.000
 -0.000   0.000  -0.000  -0.000  -9.528   0.000  -0.000   0.000
 -0.141   0.000   0.000   0.000   0.000   0.290  -0.000  -0.000
  0.000  -0.141  -0.000  -0.000  -0.000  -0.000   0.290   0.000
  0.000  -0.000  -0.143  -0.000   0.000  -0.000   0.000   0.290
  0.000  -0.000  -0.000  -0.141   0.000  -0.000   0.000   0.000
  0.000  -0.000   0.000   0.000  -0.143  -0.000   0.000  -0.000
 -0.000   0.000   0.000   0.000  -0.000  -0.000   0.000  -0.000
  0.000  -0.000  -0.000  -0.000   0.000  -0.000   0.000   0.000
  0.000  -0.000   0.000  -0.000  -0.000   0.000   0.000  -0.000
 -0.000  -0.000   0.000   0.000  -0.000   0.000   0.000   0.000
 -0.000  -0.000  -0.000  -0.000   0.000   0.000   0.000  -0.000
  0.000   0.000  -0.000   0.000   0.000  -0.000  -0.000   0.000
  0.000   0.000  -0.000   0.000   0.000  -0.000  -0.000   0.000
  0.000   0.000  -0.000   0.000   0.000  -0.000  -0.000   0.000
 total augmentation occupancy for first ion, spin component:           1
  1.901  -0.001  -0.004  -0.001  -0.001  -0.009   0.000   0.001   0.001   0.001   0.007   0.001   0.001   0.000  -0.000   0.000
 -0.001   1.908  -0.001  -0.002  -0.003   0.000  -0.017   0.002   0.002   0.001   0.006   0.001   0.000   0.000  -0.000  -0.000
 -0.004  -0.001   1.964  -0.000  -0.004   0.001   0.002  -0.073   0.001   0.004   0.013   0.005   0.000  -0.000  -0.000  -0.000
 -0.001  -0.002  -0.000   1.916   0.001   0.001   0.002   0.001  -0.025   0.001   0.005   0.000   0.000   0.000  -0.000  -0.000
 -0.001  -0.003  -0.004   0.001   1.949   0.001   0.001   0.004   0.001  -0.061   0.008   0.003   0.000   0.000   0.000   0.000
 -0.009   0.000   0.001   0.001   0.001   0.261   0.000   0.002  -0.001  -0.001  -0.003   0.002   0.002  -0.000   0.000  -0.000
  0.000  -0.017   0.002   0.002   0.001   0.000   0.269  -0.004  -0.001   0.002  -0.002   0.002  -0.000  -0.000   0.000   0.000
  0.001   0.002  -0.073   0.001   0.004   0.002  -0.004   0.217  -0.003  -0.002  -0.011  -0.002   0.000   0.000  -0.001   0.000
  0.001   0.002   0.001  -0.025   0.001  -0.001  -0.001  -0.003   0.276  -0.004  -0.001   0.002  -0.000   0.002   0.000   0.000
  0.001   0.001   0.004   0.001  -0.061  -0.001   0.002  -0.002  -0.004   0.209  -0.006  -0.001  -0.000  -0.000   0.001   0.000
  0.007   0.006   0.013   0.005   0.008  -0.003  -0.002  -0.011  -0.001  -0.006   1.112  -0.438   0.000  -0.000   0.003   0.000
  0.001   0.001   0.005   0.000   0.003   0.002   0.002  -0.002   0.002  -0.001  -0.438   0.306   0.000   0.000  -0.002   0.000
  0.001   0.000   0.000   0.000   0.000   0.002  -0.000   0.000  -0.000  -0.000   0.000   0.000   0.189   0.001   0.001  -0.014
  0.000   0.000  -0.000   0.000   0.000  -0.000  -0.000   0.000   0.002  -0.000  -0.000   0.000   0.001   0.189  -0.000  -0.000
 -0.000  -0.000  -0.000  -0.000   0.000   0.000   0.000  -0.001   0.000   0.001   0.003  -0.002   0.001  -0.000   0.189  -0.000
  0.000  -0.000  -0.000  -0.000   0.000  -0.000   0.000   0.000   0.000   0.000   0.000   0.000  -0.014  -0.000  -0.000   0.001
 -0.000  -0.000   0.000   0.000   0.000   0.000   0.000  -0.000  -0.000  -0.000   0.000   0.000  -0.000  -0.014  -0.000   0.000
  0.000  -0.000  -0.000   0.000   0.000  -0.000  -0.000   0.000  -0.000  -0.000  -0.000   0.000  -0.000  -0.000  -0.014   0.000


------------------------ aborting loop because EDIFF is reached ----------------------------------------




--------------------------------------------------------------------------------------------------------


    CHARGE:  VPU time  124.44: CPU time  373.65
    FORLOC:  VPU time    8.33: CPU time    8.33
    FORNL :  VPU time  744.74: CPU time  811.00
    STRESS:  VPU time 1137.75: CPU time 1154.57
    FORCOR:  VPU time    1.31: CPU time    6.54
    FORHAR:  VPU time    0.25: CPU time    0.34
    MIXING:  VPU time    0.36: CPU time    0.86


--------------------------------------------------------------------------------------------------------



  FREE ENERGIE OF THE ION-ELECTRON SYSTEM (eV)
  ---------------------------------------------------
  free  energy   TOTEN  =      -100.285681 eV

  energy  without entropy=     -100.285333  energy(sigma->0) =     -100.285507
 

  FORCE on cell =-STRESS in cart. coord.  units (eV/reduce length):
  Direction    X        Y        Z        XY       YZ       ZX
  --------------------------------------------------------------------------------------
  Alpha Z   3729.01   3729.01   3729.01
  Ewald   -10635.67 -10635.63 -10635.63      0.00     -0.00      0.00
  Hartree   1126.97   1127.00   1127.00     -0.00     -0.00     -0.00
  E(xc)    -1600.01  -1600.01  -1600.01      0.00     -0.00      0.00
  Local     2686.93   2686.86   2686.86      0.00     -0.00      0.00
  n-local  -1520.84  -1526.87  -1514.81      4.44      3.76      3.08
  augment   1370.33   1370.33   1370.33     -0.00     -0.00     -0.00
  Kinetic   4920.55   4914.83   4926.27      0.73     -0.68     -2.09
  -------------------------------------------------------------------------------------
  Total       77.27     77.27     77.27     -0.00      0.00      0.00
  in kB      240.72    240.72    240.72     -0.00      0.00      0.00
  external pressure =      240.72 kB  Pullay stress =        0.00 kB


 VOLUME and BASIS-vectors are now :
 -----------------------------------------------------------------------------
  energy-cutoff  :      750.00
  volume of cell :      514.28
      direct lattice vectors                 reciprocal lattice vectors
     8.011875652  0.000000000  0.000000000     0.124814718  0.000000000  0.000000000
     0.000000000  8.011875652  0.000000000     0.000000000  0.124814718  0.000000000
     0.000000000  0.000000000  8.011875652     0.000000000  0.000000000  0.124814718

  length of vectors
     8.011875652  8.011875652  8.011875652     0.124814718  0.124814718  0.124814718


 FORCES acting on ions
    electron-ion (+dipol)            ewald-force                    non-local-force                 convergence-correction
 -----------------------------------------------------------------------------------------------
   0.433E+01 -.909E-13 0.221E-07   -.440E+01 0.462E-13 -.107E-12   -.368E-01 -.320E-19 0.361E-19   -.248E-04 0.725E-13 -.860E-13
   -.115E+01 -.589E-13 -.222E-07   0.116E+01 0.284E-13 0.284E-13   -.884E-02 0.186E-19 0.331E-20   0.142E-05 0.789E-13 -.137E-12
   0.364E+00 0.355E-12 -.151E-11   -.368E+00 -.142E-13 -.124E-12   0.218E-02 0.158E-19 -.473E-20   -.394E-05 -.761E-13 -.704E-13
   -.294E+00 0.319E-11 -.198E-11   0.289E+00 0.000E+00 -.853E-13   0.384E-02 -.311E-21 -.221E-21   0.495E-05 -.763E-13 -.101E-12
   0.364E+00 -.840E-13 0.826E-11   -.368E+00 0.142E-13 -.131E-12   0.218E-02 0.270E-20 -.258E-20   -.359E-05 0.527E-13 0.314E-13
   -.294E+00 -.934E-13 0.932E-11   0.289E+00 0.000E+00 -.568E-13   0.384E-02 -.580E-21 0.335E-20   0.486E-05 0.526E-13 0.653E-13
   0.153E+00 0.349E-12 -.101E-10   -.152E+00 -.213E-13 0.391E-13   -.686E-03 -.783E-21 0.995E-22   -.299E-05 -.569E-13 -.510E-14
   -.142E+00 -.249E-11 -.891E-11   0.142E+00 -.284E-13 0.568E-13   -.698E-04 -.962E-20 0.441E-20   0.215E-05 -.500E-13 0.811E-14
   -.547E+00 -.105E+01 0.531E-11   0.558E+00 0.107E+01 0.711E-13   0.457E-02 0.925E-03 -.132E-20   0.402E-05 0.434E-05 -.115E-12
   -.550E+00 0.105E+01 0.662E-11   0.561E+00 -.106E+01 -.426E-13   0.443E-02 -.809E-03 0.169E-19   0.356E-05 -.314E-05 -.837E-13
   -.547E+00 0.105E+01 0.536E-11   0.558E+00 -.107E+01 -.284E-13   0.457E-02 -.925E-03 -.169E-19   0.402E-05 -.434E-05 -.114E-12
   -.550E+00 -.105E+01 0.664E-11   0.561E+00 0.106E+01 -.853E-13   0.443E-02 0.809E-03 -.122E-19   0.356E-05 0.314E-05 -.882E-13
   -.161E-01 -.877E-01 0.967E-11   0.170E-01 0.881E-01 -.675E-13   -.822E-03 -.264E-03 -.376E-20   -.106E-05 0.100E-05 0.306E-13
   -.179E-01 0.875E-01 0.669E-11   0.187E-01 -.880E-01 -.675E-13   -.834E-03 0.266E-03 0.235E-21   -.257E-06 -.715E-06 0.937E-14
   -.161E-01 0.877E-01 0.967E-11   0.170E-01 -.881E-01 0.284E-13   -.822E-03 0.264E-03 0.765E-21   -.106E-05 -.100E-05 0.388E-13
   -.179E-01 -.875E-01 0.648E-11   0.187E-01 0.880E-01 0.853E-13   -.834E-03 -.266E-03 0.512E-20   -.257E-06 0.715E-06 0.689E-14
   -.547E+00 -.780E-13 -.105E+01   0.558E+00 0.711E-14 0.107E+01   0.457E-02 0.103E-21 0.925E-03   0.394E-05 0.575E-13 0.441E-05
   -.550E+00 -.121E-12 0.105E+01   0.561E+00 0.711E-14 -.106E+01   0.443E-02 -.207E-19 -.809E-03   0.349E-05 0.737E-13 -.321E-05
   -.161E-01 0.339E-12 -.877E-01   0.170E-01 -.213E-13 0.881E-01   -.822E-03 -.587E-20 -.264E-03   -.103E-05 -.547E-13 0.107E-05
   -.179E-01 -.375E-11 0.875E-01   0.187E-01 -.213E-13 -.880E-01   -.834E-03 0.318E-20 0.266E-03   -.234E-06 -.795E-13 -.787E-06
   -.547E+00 -.890E-13 0.105E+01   0.558E+00 0.000E+00 -.107E+01   0.457E-02 0.125E-20 -.925E-03   0.394E-05 0.538E-13 -.441E-05
   -.550E+00 -.100E-12 -.105E+01   0.561E+00 0.000E+00 0.106E+01   0.443E-02 -.556E-20 0.809E-03   0.349E-05 0.734E-13 0.321E-05
   -.161E-01 0.351E-12 0.877E-01   0.170E-01 -.284E-13 -.881E-01   -.822E-03 -.671E-20 0.264E-03   -.103E-05 -.500E-13 -.107E-05
   -.179E-01 -.395E-11 -.875E-01   0.187E-01 -.284E-13 0.880E-01   -.834E-03 0.646E-20 -.266E-03   -.234E-06 -.773E-13 0.787E-06
   0.684E+00 0.268E-02 0.268E-02   -.694E+00 -.272E-02 -.272E-02   0.407E-02 0.135E-04 0.135E-04   -.410E-05 0.647E-06 0.646E-06
   -.387E+00 -.799E-03 -.799E-03   0.390E+00 0.815E-03 0.815E-03   -.282E-02 -.162E-04 -.162E-04   0.330E-05 0.858E-07 0.860E-07
   0.684E+00 -.268E-02 0.268E-02   -.694E+00 0.272E-02 -.272E-02   0.407E-02 -.135E-04 0.135E-04   -.410E-05 -.647E-06 0.646E-06
   -.387E+00 0.799E-03 -.799E-03   0.390E+00 -.815E-03 0.815E-03   -.282E-02 0.162E-04 -.162E-04   0.330E-05 -.858E-07 0.860E-07
   0.684E+00 0.268E-02 -.268E-02   -.694E+00 -.272E-02 0.272E-02   0.407E-02 0.135E-04 -.135E-04   -.410E-05 0.647E-06 -.646E-06
   -.387E+00 -.799E-03 0.799E-03   0.390E+00 0.815E-03 -.815E-03   -.282E-02 -.162E-04 0.162E-04   0.330E-05 0.858E-07 -.860E-07
   0.684E+00 -.268E-02 -.268E-02   -.694E+00 0.272E-02 0.272E-02   0.407E-02 -.135E-04 -.135E-04   -.410E-05 -.647E-06 -.646E-06
   -.387E+00 0.799E-03 0.799E-03   0.390E+00 -.815E-03 -.815E-03   -.282E-02 0.162E-04 0.162E-04   0.330E-05 -.858E-07 -.860E-07
 -----------------------------------------------------------------------------------------------
   -.231E-05 -.138E-10 -.134E-09   -.360E-13 0.180E-12 -.970E-13   0.207E-05 -.271E-18 -.115E-18   -.186E-06 -.151E-12 -.876E-12
 
 
 POSITION                                       TOTAL-FORCE (eV/Angst)
 -----------------------------------------------------------------------------------
      0.01000      0.00000      0.00000        -0.106691      0.000000     -0.000000
      4.00594      0.00000      0.00000         0.005814      0.000000     -0.000000
      0.00000      4.00594      0.00000        -0.001023      0.000000     -0.000000
      4.00594      4.00594      0.00000        -0.001832     -0.000000     -0.000000
      0.00000      0.00000      4.00594        -0.001023      0.000000      0.000000
      4.00594      0.00000      4.00594        -0.001832     -0.000000     -0.000000
      0.00000      4.00594      4.00594         0.000136      0.000000     -0.000000
      4.00594      4.00594      4.00594         0.000105      0.000000      0.000000
      2.00297      2.00297      0.00000         0.015768      0.019431     -0.000000
      6.00891      2.00297      0.00000         0.015339     -0.018808     -0.000000
      2.00297      6.00891      0.00000         0.015768     -0.019431      0.000000
      6.00891      6.00891      0.00000         0.015339      0.018808     -0.000000
      2.00297      2.00297      4.00594         0.000043      0.000208     -0.000000
      6.00891      2.00297      4.00594         0.000042     -0.000205     -0.000000
      2.00297      6.00891      4.00594         0.000043     -0.000208     -0.000000
      6.00891      6.00891      4.00594         0.000042      0.000205      0.000000
      2.00297      0.00000      2.00297         0.015768      0.000000      0.019431
      6.00891      0.00000      2.00297         0.015339      0.000000     -0.018808
      2.00297      4.00594      2.00297         0.000043     -0.000000      0.000208
      6.00891      4.00594      2.00297         0.000042     -0.000000     -0.000205
      2.00297      0.00000      6.00891         0.015768     -0.000000     -0.019431
      6.00891      0.00000      6.00891         0.015339      0.000000      0.018808
      2.00297      4.00594      6.00891         0.000043      0.000000     -0.000208
      6.00891      4.00594      6.00891         0.000042     -0.000000      0.000205
      0.00000      2.00297      2.00297        -0.005257     -0.000030     -0.000030
      4.00594      2.00297      2.00297         0.000652      0.000000      0.000000
      0.00000      6.00891      2.00297        -0.005257      0.000030     -0.000030
      4.00594      6.00891      2.00297         0.000652     -0.000000      0.000000
      0.00000      2.00297      6.00891        -0.005257     -0.000030      0.000030
      4.00594      2.00297      6.00891         0.000652      0.000000     -0.000000
      0.00000      6.00891      6.00891        -0.005257      0.000030      0.000030
      4.00594      6.00891      6.00891         0.000652     -0.000000     -0.000000
 -----------------------------------------------------------------------------------
    total drift:                               -0.000000     -0.000000     -0.000000


--------------------------------------------------------------------------------------------------------



 mean value of Nose-termostat <S>:     1.000 mean value of <T> :     0.000
 mean temperature <T/S>/<1/S>  :     0.000

     LOOP+:  VPU time45217.59: CPU time62150.81
  
  
 General timing and accounting informations for this job:
 ========================================================
  
                  Total CPU time used (sec):    45573.771
                            User time (sec):    36489.963
                          System time (sec):     9083.808
                         Elapsed time (sec):    63191.353
  
                   Maximum memory used (kb):     7469612.
                   Average memory used (kb):           0.
  
                          Minor page faults:      6245271
                          Major page faults:       478367
                 Voluntary context switches:       665984
