 vasp.4.6.28 25Jul05 complex 
 executed on             LinuxIFC date 2016.11.16  11:18:06
 running on    8 nodes
 distr:  one band on    1 nodes,    8 groups


--------------------------------------------------------------------------------------------------------


 INCAR:
 POTCAR:   PAW_PBE Ti_pv 07Sep2000                
 POTCAR:   PAW_PBE Ti_pv 07Sep2000                
   VRHFIN =Ti: d3 s1                                                            
   LEXCH  = PE                                                                  
   EATOM  =  1042.3781 eV,   76.6126 Ry                                         
                                                                                
   TITEL  = PAW_PBE Ti_pv 07Sep2000                                             
   LULTRA =        F    use ultrasoft PP ?                                      
   IUNSCR =        1    unscreen: 0-lin 1-nonlin 2-no                           
   RPACOR =    2.200    partial core radius                                     
   POMASS =   47.880; ZVAL   =   10.000    mass and valenz                      
   RCORE  =    2.500    outmost cutoff radius                                   
   RWIGS  =    2.500; RWIGS  =    1.323    wigner-seitz radius (au A)           
   ENMAX  =  222.338; ENMIN  =  166.753 eV                                      
   RCLOC  =    1.701    cutoff for local pot                                    
   LCOR   =        T    correct aug charges                                     
   LPAW   =        T    paw PP                                                  
   EAUG   =  482.848                                                            
   DEXC   =    -.008                                                            
   RMAX   =    3.092    core radius for proj-oper                               
   RAUG   =    1.300    factor for augmentation sphere                          
   RDEP   =    2.538    radius for radial grids                                 
   QCUT   =   -4.042; QGAM   =    8.085    optimization parameters              
                                                                                
   Description                                                                  
     l     E      TYP  RCUT    TYP  RCUT                                        
     1   .000     23  2.300                                                     
     1  -.100     23  2.300                                                     
     2   .000     23  2.500                                                     
     2   .000     23  2.500                                                     
     0   .000     23  2.500                                                     
     0  1.500     23  2.500                                                     
     3   .000      7   .000                                                     
  local pseudopotential read in
  partial core-charges read in
  atomic valenz-charges read in
  non local Contribution for L=           1  read in
    real space projection operators read in
  non local Contribution for L=           1  read in
    real space projection operators read in
  non local Contribution for L=           2  read in
    real space projection operators read in
  non local Contribution for L=           2  read in
    real space projection operators read in
  non local Contribution for L=           0  read in
    real space projection operators read in
  non local Contribution for L=           0  read in
    real space projection operators read in
    PAW grid and wavefunctions read in
 
   number of l-projection  operators is LMAX  =           6
   number of lm-projection operators is LMMAX =          18
 

 ----------------------------------------------------------------------------- 
|                                                                             |
|  ADVICE TO THIS USER RUNNING 'VASP/VAMP'   (HEAR YOUR MASTER'S VOICE ...):  |
|                                                                             |
|      You have a (more or less) 'large supercell' and for larger cells       |
|      it might be more efficient to use real space projection operators      |
|      So try LREAL= Auto  in the INCAR   file.                               |
|      Mind: If you want to do an extremely accurate calculations keep the    |
|      reciprocal projection scheme          (i.e. LREAL=.FALSE.)             |
|                                                                             |
 ----------------------------------------------------------------------------- 

 PAW_PBE Ti_pv 07Sep2000                :
 energy of atom  1       EATOM=-1042.3781
 kinetic energy error for atom=    0.0024 (will be added to EATOM!!)
 
 EXHCAR: internal setup
 exchange correlation table for  LEXCH =        8
   RHO(1)=    0.500       N(1)  =     2000
   RHO(2)=  100.500       N(2)  =     4000
 
 POSCAR: Ti                                      
  positions in direct lattice
  No initial velocities read in
 


--------------------------------------------------------------------------------------------------------


 ion  position               nearest neighbor table
   1  0.112  0.223  0.126-  22 2.85  19 2.86  21 2.86  31 2.87  28 2.87  30 2.87   2 2.93   7 2.94
                             4 2.94   3 2.95   5 2.95   9 2.96
   2  0.444  0.223  0.125-  19 2.86  28 2.86  23 2.86  32 2.86  29 2.87  20 2.87   1 2.93   3 2.94
                             8 2.94   5 2.94   7 2.95   6 2.95
   3  0.777  0.223  0.125-  20 2.86  29 2.86  24 2.86  33 2.86  30 2.87  21 2.87   2 2.94   9 2.94
                             6 2.94   1 2.95   8 2.95   4 2.95
   4  0.111  0.556  0.125-  24 2.86  33 2.86  25 2.86  34 2.86  22 2.87  31 2.87   6 2.94   5 2.94
                             7 2.94   1 2.94   3 2.95   8 2.95
   5  0.444  0.556  0.125-  22 2.86  31 2.86  26 2.86  35 2.86  32 2.87  23 2.87   4 2.94   6 2.94
                             2 2.94   8 2.94   1 2.95   9 2.95
   6  0.777  0.556  0.125-  23 2.86  32 2.86  27 2.86  36 2.86  33 2.87  24 2.87   4 2.94   5 2.94
                             3 2.94   9 2.94   7 2.95   2 2.95
   7  0.111  0.889  0.125-  27 2.86  36 2.86  28 2.86  19 2.86  34 2.87  25 2.87   1 2.94   9 2.94
                             8 2.94   4 2.94   2 2.95   6 2.95
   8  0.444  0.889  0.125-  25 2.86  34 2.86  29 2.86  20 2.86  26 2.87  35 2.87   7 2.94   9 2.94
                             2 2.94   5 2.94   3 2.95   4 2.95
   9  0.777  0.889  0.125-  26 2.86  35 2.86  30 2.86  21 2.86  27 2.87  36 2.87   7 2.94   8 2.94
                             3 2.94   6 2.94   5 2.95   1 2.96
  10  0.111  0.223  0.625-  21 2.86  30 2.86  22 2.86  31 2.86  19 2.87  28 2.87  12 2.94  11 2.94
                            16 2.94  13 2.94  18 2.95  14 2.95
  11  0.444  0.223  0.625-  19 2.86  28 2.86  23 2.86  32 2.86  29 2.87  20 2.87  10 2.94  12 2.94
                            17 2.94  14 2.94  16 2.95  15 2.95
  12  0.777  0.223  0.625-  20 2.86  29 2.86  24 2.86  33 2.86  30 2.87  21 2.87  10 2.94  11 2.94
                            18 2.94  15 2.94  17 2.95  13 2.95
  13  0.111  0.556  0.625-  24 2.86  33 2.86  25 2.86  34 2.86  22 2.87  31 2.87  15 2.94  14 2.94
                            10 2.94  16 2.94  12 2.95  17 2.95
  14  0.444  0.556  0.625-  22 2.86  31 2.86  26 2.86  35 2.86  32 2.87  23 2.87  13 2.94  15 2.94
                            11 2.94  17 2.94  10 2.95  18 2.95
  15  0.777  0.556  0.625-  23 2.86  32 2.86  27 2.86  36 2.86  33 2.87  24 2.87  13 2.94  14 2.94
                            12 2.94  18 2.94  16 2.95  11 2.95
  16  0.111  0.889  0.625-  27 2.86  36 2.86  28 2.86  19 2.86  34 2.87  25 2.87  18 2.94  17 2.94
                            10 2.94  13 2.94  11 2.95  15 2.95
  17  0.444  0.889  0.625-  25 2.86  34 2.86  29 2.86  20 2.86  26 2.87  35 2.87  16 2.94  18 2.94
                            11 2.94  14 2.94  12 2.95  13 2.95
  18  0.777  0.889  0.625-  26 2.86  35 2.86  30 2.86  21 2.86  27 2.87  36 2.87  16 2.94  17 2.94
                            12 2.94  15 2.94  10 2.95  14 2.95
  19  0.223  0.111  0.375-   1 2.86   2 2.86  11 2.86   7 2.86  16 2.86  10 2.87  21 2.94  20 2.94
                            25 2.94  22 2.94  27 2.95  23 2.95
  20  0.556  0.111  0.375-   3 2.86  12 2.86   8 2.86  17 2.86   2 2.87  11 2.87  19 2.94  21 2.94
                            26 2.94  23 2.94  25 2.95  24 2.95
  21  0.889  0.111  0.375-   1 2.86  10 2.86   9 2.86  18 2.86  12 2.87   3 2.87  19 2.94  20 2.94
                            27 2.94  24 2.94  26 2.95  22 2.95
  22  0.223  0.444  0.375-   1 2.85   5 2.86  14 2.86  10 2.86  13 2.87   4 2.87  24 2.94  23 2.94
                            19 2.94  25 2.94  21 2.95  26 2.95
  23  0.556  0.444  0.375-   6 2.86  15 2.86  11 2.86   2 2.86  14 2.87   5 2.87  22 2.94  24 2.94
                            20 2.94  26 2.94  19 2.95  27 2.95
  24  0.889  0.444  0.375-   4 2.86  13 2.86  12 2.86   3 2.86   6 2.87  15 2.87  22 2.94  23 2.94
                            21 2.94  27 2.94  25 2.95  20 2.95
  25  0.223  0.777  0.375-   8 2.86  17 2.86  13 2.86   4 2.86  16 2.87   7 2.87  27 2.94  26 2.94
                            19 2.94  22 2.94  20 2.95  24 2.95
  26  0.556  0.777  0.375-   9 2.86  18 2.86  14 2.86   5 2.86  17 2.87   8 2.87  25 2.94  27 2.94
                            20 2.94  23 2.94  21 2.95  22 2.95
  27  0.889  0.777  0.375-   7 2.86  16 2.86  15 2.86   6 2.86   9 2.87  18 2.87  25 2.94  26 2.94
                            21 2.94  24 2.94  19 2.95  23 2.95
  28  0.223  0.111  0.875-   2 2.86  11 2.86   7 2.86  16 2.86  10 2.87   1 2.87  30 2.94  29 2.94
                            34 2.94  31 2.94  36 2.95  32 2.95
  29  0.556  0.111  0.875-   3 2.86  12 2.86   8 2.86  17 2.86   2 2.87  11 2.87  28 2.94  30 2.94
                            35 2.94  32 2.94  34 2.95  33 2.95
  30  0.889  0.111  0.875-  10 2.86   9 2.86  18 2.86  12 2.87   3 2.87   1 2.87  28 2.94  29 2.94
                            36 2.94  33 2.94  35 2.95  31 2.95
  31  0.223  0.444  0.875-   5 2.86  14 2.86  10 2.86  13 2.87   4 2.87   1 2.87  33 2.94  32 2.94
                            28 2.94  34 2.94  30 2.95  35 2.95
  32  0.556  0.444  0.875-   6 2.86  15 2.86  11 2.86   2 2.86  14 2.87   5 2.87  31 2.94  33 2.94
                            29 2.94  35 2.94  28 2.95  36 2.95
  33  0.889  0.444  0.875-   4 2.86  13 2.86  12 2.86   3 2.86   6 2.87  15 2.87  31 2.94  32 2.94
                            30 2.94  36 2.94  34 2.95  29 2.95
  34  0.223  0.777  0.875-   8 2.86  17 2.86  13 2.86   4 2.86  16 2.87   7 2.87  36 2.94  35 2.94
                            28 2.94  31 2.94  29 2.95  33 2.95
  35  0.556  0.777  0.875-   9 2.86  18 2.86  14 2.86   5 2.86  17 2.87   8 2.87  34 2.94  36 2.94
                            29 2.94  32 2.94  30 2.95  31 2.95
  36  0.889  0.777  0.875-   7 2.86  16 2.86  15 2.86   6 2.86   9 2.87  18 2.87  34 2.94  35 2.94
                            30 2.94  33 2.94  28 2.95  32 2.95
 
  LATTYP: Found a base centered orthorhombic cell.
 ALAT       =     8.8635622795
 B/A-ratio  =     1.7208744689
 C/A-ratio  =     1.0388006735
  
  Lattice vectors:
  
 A1 = (   8.8206670999,   0.0247654402,   0.0000000000)
 A2 = (  -4.3888858705,   7.6513046101,   0.0000000000)
 A3 = (   0.0000000000,   0.0000000000,   9.2074744653)
 Subroutine PRICEL returns:
 Original cell was already a primitive cell.
 

Analysis of symmetry for initial positions (statically):

 Routine SETGRP: Setting up the symmetry group for a 
 base centered orthorhombic supercell.


 Subroutine GETGRP returns: Found  1 space group operations
 (whereof  1 operations were pure point group operations)
 out of a pool of  8 trial point group operations.


The static configuration has the point symmetry C_1 .

Analysis of symmetry for dynamics (positions and initial velocities):

 Subroutine DYNSYM returns: Found  1 space group operations
 (whereof  1 operations were pure point group operations)
 out of a pool of  1 trial space group operations
 (whereof  1 operations were pure point group operations)
 and found also     1 'primitive' translations


The dynamic configuration has the point symmetry C_1 .
 
 
 KPOINTS: Automatic mesh                          

Automatic generation of k-mesh.
 generate k-points for:   7   7   5
 
 Subroutine IBZKPT returns following result:
 ===========================================
 
 Found    123 irreducible k-points:
 
 Following reciprocal coordinates:
            Coordinates               Weight
  0.000000  0.000000  0.000000      1.000000
  0.142857 -0.000000  0.000000      2.000000
  0.285714 -0.000000  0.000000      2.000000
  0.428571  0.000000  0.000000      2.000000
 -0.000000  0.142857  0.000000      2.000000
  0.142857  0.142857  0.000000      2.000000
  0.285714  0.142857  0.000000      2.000000
  0.428571  0.142857  0.000000      2.000000
 -0.428571  0.142857  0.000000      2.000000
 -0.285714  0.142857  0.000000      2.000000
 -0.142857  0.142857  0.000000      2.000000
 -0.000000  0.285714  0.000000      2.000000
  0.142857  0.285714  0.000000      2.000000
  0.285714  0.285714  0.000000      2.000000
  0.428571  0.285714  0.000000      2.000000
 -0.428571  0.285714  0.000000      2.000000
 -0.285714  0.285714  0.000000      2.000000
 -0.142857  0.285714  0.000000      2.000000
  0.000000  0.428571  0.000000      2.000000
  0.142857  0.428571  0.000000      2.000000
  0.285714  0.428571  0.000000      2.000000
  0.428571  0.428571  0.000000      2.000000
 -0.428571  0.428571  0.000000      2.000000
 -0.285714  0.428571  0.000000      2.000000
 -0.142857  0.428571  0.000000      2.000000
  0.000000  0.000000  0.200000      2.000000
  0.142857 -0.000000  0.200000      2.000000
  0.285714 -0.000000  0.200000      2.000000
  0.428571  0.000000  0.200000      2.000000
 -0.428571  0.000000  0.200000      2.000000
 -0.285714  0.000000  0.200000      2.000000
 -0.142857  0.000000  0.200000      2.000000
 -0.000000  0.142857  0.200000      2.000000
  0.142857  0.142857  0.200000      2.000000
  0.285714  0.142857  0.200000      2.000000
  0.428571  0.142857  0.200000      2.000000
 -0.428571  0.142857  0.200000      2.000000
 -0.285714  0.142857  0.200000      2.000000
 -0.142857  0.142857  0.200000      2.000000
 -0.000000  0.285714  0.200000      2.000000
  0.142857  0.285714  0.200000      2.000000
  0.285714  0.285714  0.200000      2.000000
  0.428571  0.285714  0.200000      2.000000
 -0.428571  0.285714  0.200000      2.000000
 -0.285714  0.285714  0.200000      2.000000
 -0.142857  0.285714  0.200000      2.000000
  0.000000  0.428571  0.200000      2.000000
  0.142857  0.428571  0.200000      2.000000
  0.285714  0.428571  0.200000      2.000000
  0.428571  0.428571  0.200000      2.000000
 -0.428571  0.428571  0.200000      2.000000
 -0.285714  0.428571  0.200000      2.000000
 -0.142857  0.428571  0.200000      2.000000
  0.000000 -0.428571  0.200000      2.000000
  0.142857 -0.428571  0.200000      2.000000
  0.285714 -0.428571  0.200000      2.000000
  0.428571 -0.428571  0.200000      2.000000
 -0.428571 -0.428571  0.200000      2.000000
 -0.285714 -0.428571  0.200000      2.000000
 -0.142857 -0.428571  0.200000      2.000000
  0.000000 -0.285714  0.200000      2.000000
  0.142857 -0.285714  0.200000      2.000000
  0.285714 -0.285714  0.200000      2.000000
  0.428571 -0.285714  0.200000      2.000000
 -0.428571 -0.285714  0.200000      2.000000
 -0.285714 -0.285714  0.200000      2.000000
 -0.142857 -0.285714  0.200000      2.000000
  0.000000 -0.142857  0.200000      2.000000
  0.142857 -0.142857  0.200000      2.000000
  0.285714 -0.142857  0.200000      2.000000
  0.428571 -0.142857  0.200000      2.000000
 -0.428571 -0.142857  0.200000      2.000000
 -0.285714 -0.142857  0.200000      2.000000
 -0.142857 -0.142857  0.200000      2.000000
  0.000000  0.000000  0.400000      2.000000
  0.142857 -0.000000  0.400000      2.000000
  0.285714 -0.000000  0.400000      2.000000
  0.428571  0.000000  0.400000      2.000000
 -0.428571  0.000000  0.400000      2.000000
 -0.285714  0.000000  0.400000      2.000000
 -0.142857  0.000000  0.400000      2.000000
 -0.000000  0.142857  0.400000      2.000000
  0.142857  0.142857  0.400000      2.000000
  0.285714  0.142857  0.400000      2.000000
  0.428571  0.142857  0.400000      2.000000
 -0.428571  0.142857  0.400000      2.000000
 -0.285714  0.142857  0.400000      2.000000
 -0.142857  0.142857  0.400000      2.000000
 -0.000000  0.285714  0.400000      2.000000
  0.142857  0.285714  0.400000      2.000000
  0.285714  0.285714  0.400000      2.000000
  0.428571  0.285714  0.400000      2.000000
 -0.428571  0.285714  0.400000      2.000000
 -0.285714  0.285714  0.400000      2.000000
 -0.142857  0.285714  0.400000      2.000000
  0.000000  0.428571  0.400000      2.000000
  0.142857  0.428571  0.400000      2.000000
  0.285714  0.428571  0.400000      2.000000
  0.428571  0.428571  0.400000      2.000000
 -0.428571  0.428571  0.400000      2.000000
 -0.285714  0.428571  0.400000      2.000000
 -0.142857  0.428571  0.400000      2.000000
  0.000000 -0.428571  0.400000      2.000000
  0.142857 -0.428571  0.400000      2.000000
  0.285714 -0.428571  0.400000      2.000000
  0.428571 -0.428571  0.400000      2.000000
 -0.428571 -0.428571  0.400000      2.000000
 -0.285714 -0.428571  0.400000      2.000000
 -0.142857 -0.428571  0.400000      2.000000
  0.000000 -0.285714  0.400000      2.000000
  0.142857 -0.285714  0.400000      2.000000
  0.285714 -0.285714  0.400000      2.000000
  0.428571 -0.285714  0.400000      2.000000
 -0.428571 -0.285714  0.400000      2.000000
 -0.285714 -0.285714  0.400000      2.000000
 -0.142857 -0.285714  0.400000      2.000000
  0.000000 -0.142857  0.400000      2.000000
  0.142857 -0.142857  0.400000      2.000000
  0.285714 -0.142857  0.400000      2.000000
  0.428571 -0.142857  0.400000      2.000000
 -0.428571 -0.142857  0.400000      2.000000
 -0.285714 -0.142857  0.400000      2.000000
 -0.142857 -0.142857  0.400000      2.000000
 
 Following cartesian coordinates:
            Coordinates               Weight
  0.000000  0.000000  0.000000      1.000000
  0.016170  0.009275  0.000000      2.000000
  0.032339  0.018550  0.000000      2.000000
  0.048509  0.027825  0.000000      2.000000
 -0.000052  0.018641  0.000000      2.000000
  0.016117  0.027916  0.000000      2.000000
  0.032287  0.037191  0.000000      2.000000
  0.048457  0.046466  0.000000      2.000000
 -0.048561 -0.009184  0.000000      2.000000
 -0.032392  0.000091  0.000000      2.000000
 -0.016222  0.009366  0.000000      2.000000
 -0.000105  0.037282  0.000000      2.000000
  0.016065  0.046557  0.000000      2.000000
  0.032235  0.055832  0.000000      2.000000
  0.048404  0.065107  0.000000      2.000000
 -0.048614  0.009456  0.000000      2.000000
 -0.032444  0.018732  0.000000      2.000000
 -0.016274  0.028007  0.000000      2.000000
 -0.000157  0.055923  0.000000      2.000000
  0.016013  0.065198  0.000000      2.000000
  0.032182  0.074473  0.000000      2.000000
  0.048352  0.083748  0.000000      2.000000
 -0.048666  0.028097  0.000000      2.000000
 -0.032496  0.037373  0.000000      2.000000
 -0.016327  0.046648  0.000000      2.000000
  0.000000  0.000000  0.021721      2.000000
  0.016170  0.009275  0.021721      2.000000
  0.032339  0.018550  0.021721      2.000000
  0.048509  0.027825  0.021721      2.000000
 -0.048509 -0.027825  0.021721      2.000000
 -0.032339 -0.018550  0.021721      2.000000
 -0.016170 -0.009275  0.021721      2.000000
 -0.000052  0.018641  0.021721      2.000000
  0.016117  0.027916  0.021721      2.000000
  0.032287  0.037191  0.021721      2.000000
  0.048457  0.046466  0.021721      2.000000
 -0.048561 -0.009184  0.021721      2.000000
 -0.032392  0.000091  0.021721      2.000000
 -0.016222  0.009366  0.021721      2.000000
 -0.000105  0.037282  0.021721      2.000000
  0.016065  0.046557  0.021721      2.000000
  0.032235  0.055832  0.021721      2.000000
  0.048404  0.065107  0.021721      2.000000
 -0.048614  0.009456  0.021721      2.000000
 -0.032444  0.018732  0.021721      2.000000
 -0.016274  0.028007  0.021721      2.000000
 -0.000157  0.055923  0.021721      2.000000
  0.016013  0.065198  0.021721      2.000000
  0.032182  0.074473  0.021721      2.000000
  0.048352  0.083748  0.021721      2.000000
 -0.048666  0.028097  0.021721      2.000000
 -0.032496  0.037373  0.021721      2.000000
 -0.016327  0.046648  0.021721      2.000000
  0.000157 -0.055923  0.021721      2.000000
  0.016327 -0.046648  0.021721      2.000000
  0.032496 -0.037373  0.021721      2.000000
  0.048666 -0.028097  0.021721      2.000000
 -0.048352 -0.083748  0.021721      2.000000
 -0.032182 -0.074473  0.021721      2.000000
 -0.016013 -0.065198  0.021721      2.000000
  0.000105 -0.037282  0.021721      2.000000
  0.016274 -0.028007  0.021721      2.000000
  0.032444 -0.018732  0.021721      2.000000
  0.048614 -0.009456  0.021721      2.000000
 -0.048404 -0.065107  0.021721      2.000000
 -0.032235 -0.055832  0.021721      2.000000
 -0.016065 -0.046557  0.021721      2.000000
  0.000052 -0.018641  0.021721      2.000000
  0.016222 -0.009366  0.021721      2.000000
  0.032392 -0.000091  0.021721      2.000000
  0.048561  0.009184  0.021721      2.000000
 -0.048457 -0.046466  0.021721      2.000000
 -0.032287 -0.037191  0.021721      2.000000
 -0.016117 -0.027916  0.021721      2.000000
  0.000000  0.000000  0.043443      2.000000
  0.016170  0.009275  0.043443      2.000000
  0.032339  0.018550  0.043443      2.000000
  0.048509  0.027825  0.043443      2.000000
 -0.048509 -0.027825  0.043443      2.000000
 -0.032339 -0.018550  0.043443      2.000000
 -0.016170 -0.009275  0.043443      2.000000
 -0.000052  0.018641  0.043443      2.000000
  0.016117  0.027916  0.043443      2.000000
  0.032287  0.037191  0.043443      2.000000
  0.048457  0.046466  0.043443      2.000000
 -0.048561 -0.009184  0.043443      2.000000
 -0.032392  0.000091  0.043443      2.000000
 -0.016222  0.009366  0.043443      2.000000
 -0.000105  0.037282  0.043443      2.000000
  0.016065  0.046557  0.043443      2.000000
  0.032235  0.055832  0.043443      2.000000
  0.048404  0.065107  0.043443      2.000000
 -0.048614  0.009456  0.043443      2.000000
 -0.032444  0.018732  0.043443      2.000000
 -0.016274  0.028007  0.043443      2.000000
 -0.000157  0.055923  0.043443      2.000000
  0.016013  0.065198  0.043443      2.000000
  0.032182  0.074473  0.043443      2.000000
  0.048352  0.083748  0.043443      2.000000
 -0.048666  0.028097  0.043443      2.000000
 -0.032496  0.037373  0.043443      2.000000
 -0.016327  0.046648  0.043443      2.000000
  0.000157 -0.055923  0.043443      2.000000
  0.016327 -0.046648  0.043443      2.000000
  0.032496 -0.037373  0.043443      2.000000
  0.048666 -0.028097  0.043443      2.000000
 -0.048352 -0.083748  0.043443      2.000000
 -0.032182 -0.074473  0.043443      2.000000
 -0.016013 -0.065198  0.043443      2.000000
  0.000105 -0.037282  0.043443      2.000000
  0.016274 -0.028007  0.043443      2.000000
  0.032444 -0.018732  0.043443      2.000000
  0.048614 -0.009456  0.043443      2.000000
 -0.048404 -0.065107  0.043443      2.000000
 -0.032235 -0.055832  0.043443      2.000000
 -0.016065 -0.046557  0.043443      2.000000
  0.000052 -0.018641  0.043443      2.000000
  0.016222 -0.009366  0.043443      2.000000
  0.032392 -0.000091  0.043443      2.000000
  0.048561  0.009184  0.043443      2.000000
 -0.048457 -0.046466  0.043443      2.000000
 -0.032287 -0.037191  0.043443      2.000000
 -0.016117 -0.027916  0.043443      2.000000
 


--------------------------------------------------------------------------------------------------------




 Dimension of arrays:
   k-Points           NKPTS =    123   number of bands    NBANDS=    216
   number of dos      NEDOS =    301   number of ions     NIONS =     36
   non local maximal  LDIM  =      6   non local SUM 2l+1 LMDIM =     18
   total plane-waves  NPLWV = 286720
   max r-space proj   IRMAX =      1   max aug-charges    IRDMAX=  18082
   dimension x,y,z NGX =    64 NGY =   64 NGZ =   70
   dimension x,y,z NGXF=   128 NGYF=  128 NGZF=  140
   support grid    NGXF=   128 NGYF=  128 NGZF=  140
   ions per type =              36
 NGX,Y,Z   is equivalent  to a cutoff of  12.06, 12.06, 12.64 a.u.
 NGXF,Y,Z  is equivalent  to a cutoff of  24.12, 24.12, 25.28 a.u.


 I would recommend the setting:
   dimension x,y,z NGX =    64 NGY =   64 NGZ =   67
 SYSTEM =  unknown system                          
 POSCAR =  Ti                                      

 Startparameter for this run:
   NWRITE =      2    write-flag & timer
   PREC   = accura    medium, high low
   ISTART =      0    job   : 0-new  1-cont  2-samecut
   ICHARG =      2    charge: 1-file 2-atom 10-const
   ISPIN  =      1    spin polarized calculation?
   LNONCOLLINEAR =      F non collinear calculations
   LSORBIT =      F    spin-orbit coupling
   INIWAV =      1    electr: 0-lowe 1-rand  2-diag
   LASPH  =      F    aspherical Exc in radial PAW
   METAGGA=      F    non-selfconsistent MetaGGA calc.

 Electronic Relaxation 1
   ENCUT  =  500.0 eV  36.75 Ry    6.06 a.u.  16.08 16.08 16.79*2*pi/ulx,y,z
   ENINI  =  500.0     initial cutoff
   ENAUG  =  482.8 eV  augmentation charge cutoff
   NELM   =     60;   NELMIN=  2; NELMDL= -5     # of ELM steps 
   EDIFF  = 0.1E-07   stopping-criterion for ELM
   LREAL  =      F    real-space projection
   LCOMPAT=      F    compatible to vasp.4.4
   LREAL_COMPAT= F    compatible to vasp.4.5.1-3
   GGA_COMPAT  = T    GGA compatible to vasp.4.4-vasp.4.6
   LMAXPAW     = -100 max onsite density
   LMAXMIX     =    2 max onsite mixed and CHGCAR
   VOSKOWN=      0    Vosko Wilk Nusair interpolation
   ROPT   =    0.00000
 Ionic relaxation
   EDIFFG = 0.1E-06   stopping-criterion for IOM
   NSW    =      0    number of steps for IOM
   NBLOCK =      1;   KBLOCK =      1    inner block; outer block 
   IBRION =     -1    ionic relax: 0-MD 1-quasi-New 2-CG
   NFREE  =      0    steps in history (QN), initial steepest desc. (CG)
   ISIF   =      2    stress and relaxation
   IWAVPR =     10    prediction:  0-non 1-charg 2-wave 3-comb
   ISYM   =      2    0-nonsym 1-usesym 2-fastsym
   LCORR  =      T    Harris-Foulkes like correction to forces

   POTIM  =   0.50    time-step for ionic-motion
   TEIN   =    0.0    initial temperature
   TEBEG  =    0.0;   TEEND  =   0.0 temperature during run
   SMASS  =  -3.00    Nose mass-parameter (am)
   estimated Nose-frequenzy (Omega)   =  0.10E-29 period in steps =****** mass=  -0.178E-26a.u.
   NPACO  =    256;   APACO  = 16.0  distance and # of slots for P.C.
   PSTRESS=    0.0 pullay stress

  Mass of Ions in am
   POMASS =  47.88
  Ionic Valenz
   ZVAL   =  10.00
  Atomic Wigner-Seitz radii
   RWIGS  =  -1.00
   NELECT =     360.0000    total number of electrons
   NUPDOWN=      -1.0000    fix difference up-down

 DOS related values:
   EMIN   =  10.00;   EMAX   =-10.00  energy-range for DOS
   ISMEAR =     0;   SIGMA  =   0.01  broadening in eV -4-tet -1-fermi 0-gaus

 Electronic relaxation 2 (details)
   IALGO  =     38    algorithm
   LDIAG  =      T    sub-space diagonalisation
   IMIX   =      4    mixing-type and parameters
     AMIX     =   0.40;   BMIX     =  1.00
     AMIX_MAG =   1.60;   BMIX_MAG =  1.00
     AMIN     =   0.10
     WC   =   100.;   INIMIX=   1;  MIXPRE=   1

 Intra band minimization:
   WEIMIN = 0.0000     energy-eigenvalue tresh-hold
   EBREAK =  0.12E-10  absolut break condition
   DEPER  =   0.30     relativ break condition  

   TIME   =   0.10     timestep for ELM

  volume/ion in A,a.u.               =      17.29       116.67
  Fermi-wavevector in a.u.,eV,Ry     =   1.364008 25.313879  1.860518

 Second variation
   LSECVAR=     F    do a second variation
 
 Write flags
   LWAVE  =      F    write WAVECAR
   LCHARG =      F    write CHGCAR
   LVTOT  =      F    write LOCPOT, local potential
   LELF   =      F    write electronic localiz. function (ELF)
   LORBIT =      0    0 simple, 1 ext, 2 COOP (PROOUT)


 Dipole corrections
   IDIPOL =      0    1-x, 2-y, 3-z
   LDIPOL =      F    correct potential



--------------------------------------------------------------------------------------------------------


 Static calculation
 charge density will be updated during run
 non-spin polarized calculation
 Variant of blocked Davidson
 Davidson routine will perform the subspace rotation
 performe sub-space diagonalisation
    after iterative eigenvector-optimisation
 modified Broyden-mixing scheme, WC =      100.0
 initial mixing is a Kerker type mixing with AMIX =  0.4000 and BMIX =      1.0000
 Hartree-type preconditioning will be used
 using additional bands           36
 reciprocal scheme for non local part
 use partial core corrections
 calculate Harris-corrections to forces 
   (improved forces if not selfconsistent)
 use gradient corrections 
 use of overlap-Matrix (Vanderbilt PP)
 Gauss-broadening in eV      SIGMA  =   0.01


--------------------------------------------------------------------------------------------------------


  energy-cutoff  :      500.00
  volume of cell :      622.41
      direct lattice vectors                 reciprocal lattice vectors
     8.820667100  0.024765440  0.000000000     0.113187820  0.064925977  0.000000000
    -4.388885871  7.651304610  0.000000000    -0.000366362  0.130486516  0.000000000
     0.000000000  0.000000000  9.207474465     0.000000000  0.000000000  0.108607415

  length of vectors
     8.820701866  8.820701867  9.207474465     0.130487030  0.130487030  0.108607415


 
 k-points in units of 2pi/SCALE and weight: Automatic mesh                          
   0.00000000  0.00000000  0.00000000       0.004
   0.01616969  0.00927514  0.00000000       0.008
   0.03233938  0.01855028  0.00000000       0.008
   0.04850907  0.02782542  0.00000000       0.008
  -0.00005234  0.01864093  0.00000000       0.008
   0.01611735  0.02791607  0.00000000       0.008
   0.03228704  0.03719121  0.00000000       0.008
   0.04845673  0.04646635  0.00000000       0.008
  -0.04856140 -0.00918449  0.00000000       0.008
  -0.03239171  0.00009065  0.00000000       0.008
  -0.01622203  0.00936579  0.00000000       0.008
  -0.00010467  0.03728186  0.00000000       0.008
   0.01606501  0.04655700  0.00000000       0.008
   0.03223470  0.05583214  0.00000000       0.008
   0.04840439  0.06510728  0.00000000       0.008
  -0.04861374  0.00945644  0.00000000       0.008
  -0.03244405  0.01873158  0.00000000       0.008
  -0.01627436  0.02800672  0.00000000       0.008
  -0.00015701  0.05592279  0.00000000       0.008
   0.01601268  0.06519793  0.00000000       0.008
   0.03218236  0.07447307  0.00000000       0.008
   0.04835205  0.08374821  0.00000000       0.008
  -0.04866608  0.02809737  0.00000000       0.008
  -0.03249639  0.03737251  0.00000000       0.008
  -0.01632670  0.04664765  0.00000000       0.008
   0.00000000  0.00000000  0.02172148       0.008
   0.01616969  0.00927514  0.02172148       0.008
   0.03233938  0.01855028  0.02172148       0.008
   0.04850907  0.02782542  0.02172148       0.008
  -0.04850907 -0.02782542  0.02172148       0.008
  -0.03233938 -0.01855028  0.02172148       0.008
  -0.01616969 -0.00927514  0.02172148       0.008
  -0.00005234  0.01864093  0.02172148       0.008
   0.01611735  0.02791607  0.02172148       0.008
   0.03228704  0.03719121  0.02172148       0.008
   0.04845673  0.04646635  0.02172148       0.008
  -0.04856140 -0.00918449  0.02172148       0.008
  -0.03239171  0.00009065  0.02172148       0.008
  -0.01622203  0.00936579  0.02172148       0.008
  -0.00010467  0.03728186  0.02172148       0.008
   0.01606501  0.04655700  0.02172148       0.008
   0.03223470  0.05583214  0.02172148       0.008
   0.04840439  0.06510728  0.02172148       0.008
  -0.04861374  0.00945644  0.02172148       0.008
  -0.03244405  0.01873158  0.02172148       0.008
  -0.01627436  0.02800672  0.02172148       0.008
  -0.00015701  0.05592279  0.02172148       0.008
   0.01601268  0.06519793  0.02172148       0.008
   0.03218236  0.07447307  0.02172148       0.008
   0.04835205  0.08374821  0.02172148       0.008
  -0.04866608  0.02809737  0.02172148       0.008
  -0.03249639  0.03737251  0.02172148       0.008
  -0.01632670  0.04664765  0.02172148       0.008
   0.00015701 -0.05592279  0.02172148       0.008
   0.01632670 -0.04664765  0.02172148       0.008
   0.03249639 -0.03737251  0.02172148       0.008
   0.04866608 -0.02809737  0.02172148       0.008
  -0.04835205 -0.08374821  0.02172148       0.008
  -0.03218236 -0.07447307  0.02172148       0.008
  -0.01601268 -0.06519793  0.02172148       0.008
   0.00010467 -0.03728186  0.02172148       0.008
   0.01627436 -0.02800672  0.02172148       0.008
   0.03244405 -0.01873158  0.02172148       0.008
   0.04861374 -0.00945644  0.02172148       0.008
  -0.04840439 -0.06510728  0.02172148       0.008
  -0.03223470 -0.05583214  0.02172148       0.008
  -0.01606501 -0.04655700  0.02172148       0.008
   0.00005234 -0.01864093  0.02172148       0.008
   0.01622203 -0.00936579  0.02172148       0.008
   0.03239171 -0.00009065  0.02172148       0.008
   0.04856140  0.00918449  0.02172148       0.008
  -0.04845673 -0.04646635  0.02172148       0.008
  -0.03228704 -0.03719121  0.02172148       0.008
  -0.01611735 -0.02791607  0.02172148       0.008
   0.00000000  0.00000000  0.04344297       0.008
   0.01616969  0.00927514  0.04344297       0.008
   0.03233938  0.01855028  0.04344297       0.008
   0.04850907  0.02782542  0.04344297       0.008
  -0.04850907 -0.02782542  0.04344297       0.008
  -0.03233938 -0.01855028  0.04344297       0.008
  -0.01616969 -0.00927514  0.04344297       0.008
  -0.00005234  0.01864093  0.04344297       0.008
   0.01611735  0.02791607  0.04344297       0.008
   0.03228704  0.03719121  0.04344297       0.008
   0.04845673  0.04646635  0.04344297       0.008
  -0.04856140 -0.00918449  0.04344297       0.008
  -0.03239171  0.00009065  0.04344297       0.008
  -0.01622203  0.00936579  0.04344297       0.008
  -0.00010467  0.03728186  0.04344297       0.008
   0.01606501  0.04655700  0.04344297       0.008
   0.03223470  0.05583214  0.04344297       0.008
   0.04840439  0.06510728  0.04344297       0.008
  -0.04861374  0.00945644  0.04344297       0.008
  -0.03244405  0.01873158  0.04344297       0.008
  -0.01627436  0.02800672  0.04344297       0.008
  -0.00015701  0.05592279  0.04344297       0.008
   0.01601268  0.06519793  0.04344297       0.008
   0.03218236  0.07447307  0.04344297       0.008
   0.04835205  0.08374821  0.04344297       0.008
  -0.04866608  0.02809737  0.04344297       0.008
  -0.03249639  0.03737251  0.04344297       0.008
  -0.01632670  0.04664765  0.04344297       0.008
   0.00015701 -0.05592279  0.04344297       0.008
   0.01632670 -0.04664765  0.04344297       0.008
   0.03249639 -0.03737251  0.04344297       0.008
   0.04866608 -0.02809737  0.04344297       0.008
  -0.04835205 -0.08374821  0.04344297       0.008
  -0.03218236 -0.07447307  0.04344297       0.008
  -0.01601268 -0.06519793  0.04344297       0.008
   0.00010467 -0.03728186  0.04344297       0.008
   0.01627436 -0.02800672  0.04344297       0.008
   0.03244405 -0.01873158  0.04344297       0.008
   0.04861374 -0.00945644  0.04344297       0.008
  -0.04840439 -0.06510728  0.04344297       0.008
  -0.03223470 -0.05583214  0.04344297       0.008
  -0.01606501 -0.04655700  0.04344297       0.008
   0.00005234 -0.01864093  0.04344297       0.008
   0.01622203 -0.00936579  0.04344297       0.008
   0.03239171 -0.00009065  0.04344297       0.008
   0.04856140  0.00918449  0.04344297       0.008
  -0.04845673 -0.04646635  0.04344297       0.008
  -0.03228704 -0.03719121  0.04344297       0.008
  -0.01611735 -0.02791607  0.04344297       0.008
 
 k-points in reciprocal lattice and weights: Automatic mesh                          
   0.00000000  0.00000000  0.00000000       0.004
   0.14285714 -0.00000000  0.00000000       0.008
   0.28571429 -0.00000000  0.00000000       0.008
   0.42857143  0.00000000  0.00000000       0.008
  -0.00000000  0.14285714  0.00000000       0.008
   0.14285714  0.14285714  0.00000000       0.008
   0.28571429  0.14285714  0.00000000       0.008
   0.42857143  0.14285714  0.00000000       0.008
  -0.42857143  0.14285714  0.00000000       0.008
  -0.28571429  0.14285714  0.00000000       0.008
  -0.14285714  0.14285714  0.00000000       0.008
  -0.00000000  0.28571429  0.00000000       0.008
   0.14285714  0.28571429  0.00000000       0.008
   0.28571429  0.28571429  0.00000000       0.008
   0.42857143  0.28571429  0.00000000       0.008
  -0.42857143  0.28571429  0.00000000       0.008
  -0.28571429  0.28571429  0.00000000       0.008
  -0.14285714  0.28571429  0.00000000       0.008
   0.00000000  0.42857143  0.00000000       0.008
   0.14285714  0.42857143  0.00000000       0.008
   0.28571429  0.42857143  0.00000000       0.008
   0.42857143  0.42857143  0.00000000       0.008
  -0.42857143  0.42857143  0.00000000       0.008
  -0.28571429  0.42857143  0.00000000       0.008
  -0.14285714  0.42857143  0.00000000       0.008
   0.00000000  0.00000000  0.20000000       0.008
   0.14285714 -0.00000000  0.20000000       0.008
   0.28571429 -0.00000000  0.20000000       0.008
   0.42857143  0.00000000  0.20000000       0.008
  -0.42857143  0.00000000  0.20000000       0.008
  -0.28571429  0.00000000  0.20000000       0.008
  -0.14285714  0.00000000  0.20000000       0.008
  -0.00000000  0.14285714  0.20000000       0.008
   0.14285714  0.14285714  0.20000000       0.008
   0.28571429  0.14285714  0.20000000       0.008
   0.42857143  0.14285714  0.20000000       0.008
  -0.42857143  0.14285714  0.20000000       0.008
  -0.28571429  0.14285714  0.20000000       0.008
  -0.14285714  0.14285714  0.20000000       0.008
  -0.00000000  0.28571429  0.20000000       0.008
   0.14285714  0.28571429  0.20000000       0.008
   0.28571429  0.28571429  0.20000000       0.008
   0.42857143  0.28571429  0.20000000       0.008
  -0.42857143  0.28571429  0.20000000       0.008
  -0.28571429  0.28571429  0.20000000       0.008
  -0.14285714  0.28571429  0.20000000       0.008
   0.00000000  0.42857143  0.20000000       0.008
   0.14285714  0.42857143  0.20000000       0.008
   0.28571429  0.42857143  0.20000000       0.008
   0.42857143  0.42857143  0.20000000       0.008
  -0.42857143  0.42857143  0.20000000       0.008
  -0.28571429  0.42857143  0.20000000       0.008
  -0.14285714  0.42857143  0.20000000       0.008
   0.00000000 -0.42857143  0.20000000       0.008
   0.14285714 -0.42857143  0.20000000       0.008
   0.28571429 -0.42857143  0.20000000       0.008
   0.42857143 -0.42857143  0.20000000       0.008
  -0.42857143 -0.42857143  0.20000000       0.008
  -0.28571429 -0.42857143  0.20000000       0.008
  -0.14285714 -0.42857143  0.20000000       0.008
   0.00000000 -0.28571429  0.20000000       0.008
   0.14285714 -0.28571429  0.20000000       0.008
   0.28571429 -0.28571429  0.20000000       0.008
   0.42857143 -0.28571429  0.20000000       0.008
  -0.42857143 -0.28571429  0.20000000       0.008
  -0.28571429 -0.28571429  0.20000000       0.008
  -0.14285714 -0.28571429  0.20000000       0.008
   0.00000000 -0.14285714  0.20000000       0.008
   0.14285714 -0.14285714  0.20000000       0.008
   0.28571429 -0.14285714  0.20000000       0.008
   0.42857143 -0.14285714  0.20000000       0.008
  -0.42857143 -0.14285714  0.20000000       0.008
  -0.28571429 -0.14285714  0.20000000       0.008
  -0.14285714 -0.14285714  0.20000000       0.008
   0.00000000  0.00000000  0.40000000       0.008
   0.14285714 -0.00000000  0.40000000       0.008
   0.28571429 -0.00000000  0.40000000       0.008
   0.42857143  0.00000000  0.40000000       0.008
  -0.42857143  0.00000000  0.40000000       0.008
  -0.28571429  0.00000000  0.40000000       0.008
  -0.14285714  0.00000000  0.40000000       0.008
  -0.00000000  0.14285714  0.40000000       0.008
   0.14285714  0.14285714  0.40000000       0.008
   0.28571429  0.14285714  0.40000000       0.008
   0.42857143  0.14285714  0.40000000       0.008
  -0.42857143  0.14285714  0.40000000       0.008
  -0.28571429  0.14285714  0.40000000       0.008
  -0.14285714  0.14285714  0.40000000       0.008
  -0.00000000  0.28571429  0.40000000       0.008
   0.14285714  0.28571429  0.40000000       0.008
   0.28571429  0.28571429  0.40000000       0.008
   0.42857143  0.28571429  0.40000000       0.008
  -0.42857143  0.28571429  0.40000000       0.008
  -0.28571429  0.28571429  0.40000000       0.008
  -0.14285714  0.28571429  0.40000000       0.008
   0.00000000  0.42857143  0.40000000       0.008
   0.14285714  0.42857143  0.40000000       0.008
   0.28571429  0.42857143  0.40000000       0.008
   0.42857143  0.42857143  0.40000000       0.008
  -0.42857143  0.42857143  0.40000000       0.008
  -0.28571429  0.42857143  0.40000000       0.008
  -0.14285714  0.42857143  0.40000000       0.008
   0.00000000 -0.42857143  0.40000000       0.008
   0.14285714 -0.42857143  0.40000000       0.008
   0.28571429 -0.42857143  0.40000000       0.008
   0.42857143 -0.42857143  0.40000000       0.008
  -0.42857143 -0.42857143  0.40000000       0.008
  -0.28571429 -0.42857143  0.40000000       0.008
  -0.14285714 -0.42857143  0.40000000       0.008
   0.00000000 -0.28571429  0.40000000       0.008
   0.14285714 -0.28571429  0.40000000       0.008
   0.28571429 -0.28571429  0.40000000       0.008
   0.42857143 -0.28571429  0.40000000       0.008
  -0.42857143 -0.28571429  0.40000000       0.008
  -0.28571429 -0.28571429  0.40000000       0.008
  -0.14285714 -0.28571429  0.40000000       0.008
   0.00000000 -0.14285714  0.40000000       0.008
   0.14285714 -0.14285714  0.40000000       0.008
   0.28571429 -0.14285714  0.40000000       0.008
   0.42857143 -0.14285714  0.40000000       0.008
  -0.42857143 -0.14285714  0.40000000       0.008
  -0.28571429 -0.14285714  0.40000000       0.008
  -0.14285714 -0.14285714  0.40000000       0.008
 
 position of ions in fractional coordinates (direct lattice) 
   0.11152766  0.22258994  0.12578427
   0.44407673  0.22258994  0.12500000
   0.77741006  0.22258994  0.12500000
   0.11074339  0.55592327  0.12500000
   0.44407673  0.55592327  0.12500000
   0.77741006  0.55592327  0.12500000
   0.11074339  0.88925661  0.12500000
   0.44407673  0.88925661  0.12500000
   0.77741006  0.88925661  0.12500000
   0.11074339  0.22258994  0.62500000
   0.44407673  0.22258994  0.62500000
   0.77741006  0.22258994  0.62500000
   0.11074339  0.55592327  0.62500000
   0.44407673  0.55592327  0.62500000
   0.77741006  0.55592327  0.62500000
   0.11074339  0.88925661  0.62500000
   0.44407673  0.88925661  0.62500000
   0.77741006  0.88925661  0.62500000
   0.22258994  0.11074339  0.37500000
   0.55592327  0.11074339  0.37500000
   0.88925661  0.11074339  0.37500000
   0.22258994  0.44407673  0.37500000
   0.55592327  0.44407673  0.37500000
   0.88925661  0.44407673  0.37500000
   0.22258994  0.77741006  0.37500000
   0.55592327  0.77741006  0.37500000
   0.88925661  0.77741006  0.37500000
   0.22258994  0.11074339  0.87500000
   0.55592327  0.11074339  0.87500000
   0.88925661  0.11074339  0.87500000
   0.22258994  0.44407673  0.87500000
   0.55592327  0.44407673  0.87500000
   0.88925661  0.44407673  0.87500000
   0.22258994  0.77741006  0.87500000
   0.55592327  0.77741006  0.87500000
   0.88925661  0.77741006  0.87500000
 
 position of ions in cartesian coordinates  (Angst):
   0.00682653  1.70586546  1.15815542
   2.94013115  1.71410118  1.15093431
   5.88035352  1.72235633  1.15093431
  -1.46305318  4.25628090  1.15093431
   1.47716919  4.26453605  1.15093431
   4.41739156  4.27279120  1.15093431
  -2.92601513  6.80671577  1.15093431
   0.01420723  6.81497092  1.15093431
   2.95442960  6.82322607  1.15093431
  -0.00009122  1.70584603  5.75467154
   2.94013115  1.71410118  5.75467154
   5.88035352  1.72235633  5.75467154
  -1.46305318  4.25628090  5.75467154
   1.47716919  4.26453605  5.75467154
   4.41739156  4.27279120  5.75467154
  -2.92601513  6.80671577  5.75467154
   0.01420723  6.81497092  5.75467154
   2.95442960  6.82322607  5.75467154
   1.47735163  0.85284398  3.45280292
   4.41757399  0.86109913  3.45280292
   7.35779636  0.86935428  3.45280292
   0.01438967  3.40327885  3.45280292
   2.95461204  3.41153400  3.45280292
   5.89483440  3.41978915  3.45280292
  -1.44857229  5.95371372  3.45280292
   1.49165008  5.96196887  3.45280292
   4.43187245  5.97022402  3.45280292
   1.47735163  0.85284398  8.05654016
   4.41757399  0.86109913  8.05654016
   7.35779636  0.86935428  8.05654016
   0.01438967  3.40327885  8.05654016
   2.95461204  3.41153400  8.05654016
   5.89483440  3.41978915  8.05654016
  -1.44857229  5.95371372  8.05654016
   1.49165008  5.96196887  8.05654016
   4.43187245  5.97022402  8.05654016
 


--------------------------------------------------------------------------------------------------------


 k-point  1 :  0.00000.00000.0000  plane waves:  15799
 k-point  2 :  0.1429-.00000.0000  plane waves:  15803
 k-point  3 :  0.2857-.00000.0000  plane waves:  15775
 k-point  4 :  0.42860.00000.0000  plane waves:  15802
 k-point  5 :  -.00000.14290.0000  plane waves:  15803
 k-point  6 :  0.14290.14290.0000  plane waves:  15788
 k-point  7 :  0.28570.14290.0000  plane waves:  15800
 k-point  8 :  0.42860.14290.0000  plane waves:  15810
 k-point  9 :  -.42860.14290.0000  plane waves:  15792
 k-point 10 :  -.28570.14290.0000  plane waves:  15784
 k-point 11 :  -.14290.14290.0000  plane waves:  15786
 k-point 12 :  -.00000.28570.0000  plane waves:  15775
 k-point 13 :  0.14290.28570.0000  plane waves:  15800
 k-point 14 :  0.28570.28570.0000  plane waves:  15828
 k-point 15 :  0.42860.28570.0000  plane waves:  15815
 k-point 16 :  -.42860.28570.0000  plane waves:  15819
 k-point 17 :  -.28570.28570.0000  plane waves:  15792
 k-point 18 :  -.14290.28570.0000  plane waves:  15784
 k-point 19 :  0.00000.42860.0000  plane waves:  15802
 k-point 20 :  0.14290.42860.0000  plane waves:  15810
 k-point 21 :  0.28570.42860.0000  plane waves:  15815
 k-point 22 :  0.42860.42860.0000  plane waves:  15832
 k-point 23 :  -.42860.42860.0000  plane waves:  15834
 k-point 24 :  -.28570.42860.0000  plane waves:  15819
 k-point 25 :  -.14290.42860.0000  plane waves:  15792
 k-point 26 :  0.00000.00000.2000  plane waves:  15799
 k-point 27 :  0.1429-.00000.2000  plane waves:  15778
 k-point 28 :  0.2857-.00000.2000  plane waves:  15796
 k-point 29 :  0.42860.00000.2000  plane waves:  15788
 k-point 30 :  -.42860.00000.2000  plane waves:  15788
 k-point 31 :  -.28570.00000.2000  plane waves:  15796
 k-point 32 :  -.14290.00000.2000  plane waves:  15778
 k-point 33 :  -.00000.14290.2000  plane waves:  15778
 k-point 34 :  0.14290.14290.2000  plane waves:  15800
 k-point 35 :  0.28570.14290.2000  plane waves:  15800
 k-point 36 :  0.42860.14290.2000  plane waves:  15804
 k-point 37 :  -.42860.14290.2000  plane waves:  15812
 k-point 38 :  -.28570.14290.2000  plane waves:  15788
 k-point 39 :  -.14290.14290.2000  plane waves:  15778
 k-point 40 :  -.00000.28570.2000  plane waves:  15796
 k-point 41 :  0.14290.28570.2000  plane waves:  15800
 k-point 42 :  0.28570.28570.2000  plane waves:  15811
 k-point 43 :  0.42860.28570.2000  plane waves:  15794
 k-point 44 :  -.42860.28570.2000  plane waves:  15808
 k-point 45 :  -.28570.28570.2000  plane waves:  15808
 k-point 46 :  -.14290.28570.2000  plane waves:  15788
 k-point 47 :  0.00000.42860.2000  plane waves:  15788
 k-point 48 :  0.14290.42860.2000  plane waves:  15804
 k-point 49 :  0.28570.42860.2000  plane waves:  15794
 k-point 50 :  0.42860.42860.2000  plane waves:  15786
 k-point 51 :  -.42860.42860.2000  plane waves:  15811
 k-point 52 :  -.28570.42860.2000  plane waves:  15808
 k-point 53 :  -.14290.42860.2000  plane waves:  15812
 k-point 54 :  0.0000-.42860.2000  plane waves:  15788
 k-point 55 :  0.1429-.42860.2000  plane waves:  15812
 k-point 56 :  0.2857-.42860.2000  plane waves:  15808
 k-point 57 :  0.4286-.42860.2000  plane waves:  15811
 k-point 58 :  -.4286-.42860.2000  plane waves:  15786
 k-point 59 :  -.2857-.42860.2000  plane waves:  15794
 k-point 60 :  -.1429-.42860.2000  plane waves:  15804
 k-point 61 :  0.0000-.28570.2000  plane waves:  15796
 k-point 62 :  0.1429-.28570.2000  plane waves:  15788
 k-point 63 :  0.2857-.28570.2000  plane waves:  15808
 k-point 64 :  0.4286-.28570.2000  plane waves:  15808
 k-point 65 :  -.4286-.28570.2000  plane waves:  15794
 k-point 66 :  -.2857-.28570.2000  plane waves:  15811
 k-point 67 :  -.1429-.28570.2000  plane waves:  15800
 k-point 68 :  0.0000-.14290.2000  plane waves:  15778
 k-point 69 :  0.1429-.14290.2000  plane waves:  15778
 k-point 70 :  0.2857-.14290.2000  plane waves:  15788
 k-point 71 :  0.4286-.14290.2000  plane waves:  15812
 k-point 72 :  -.4286-.14290.2000  plane waves:  15804
 k-point 73 :  -.2857-.14290.2000  plane waves:  15800
 k-point 74 :  -.1429-.14290.2000  plane waves:  15800
 k-point 75 :  0.00000.00000.4000  plane waves:  15742
 k-point 76 :  0.1429-.00000.4000  plane waves:  15789
 k-point 77 :  0.2857-.00000.4000  plane waves:  15806
 k-point 78 :  0.42860.00000.4000  plane waves:  15812
 k-point 79 :  -.42860.00000.4000  plane waves:  15812
 k-point 80 :  -.28570.00000.4000  plane waves:  15806
 k-point 81 :  -.14290.00000.4000  plane waves:  15789
 k-point 82 :  -.00000.14290.4000  plane waves:  15789
 k-point 83 :  0.14290.14290.4000  plane waves:  15816
 k-point 84 :  0.28570.14290.4000  plane waves:  15819
 k-point 85 :  0.42860.14290.4000  plane waves:  15793
 k-point 86 :  -.42860.14290.4000  plane waves:  15808
 k-point 87 :  -.28570.14290.4000  plane waves:  15801
 k-point 88 :  -.14290.14290.4000  plane waves:  15793
 k-point 89 :  -.00000.28570.4000  plane waves:  15806
 k-point 90 :  0.14290.28570.4000  plane waves:  15819
 k-point 91 :  0.28570.28570.4000  plane waves:  15813
 k-point 92 :  0.42860.28570.4000  plane waves:  15804
 k-point 93 :  -.42860.28570.4000  plane waves:  15817
 k-point 94 :  -.28570.28570.4000  plane waves:  15803
 k-point 95 :  -.14290.28570.4000  plane waves:  15801
 k-point 96 :  0.00000.42860.4000  plane waves:  15812
 k-point 97 :  0.14290.42860.4000  plane waves:  15793
 k-point 98 :  0.28570.42860.4000  plane waves:  15804
 k-point 99 :  0.42860.42860.4000  plane waves:  15811
 k-point ** :  -.42860.42860.4000  plane waves:  15809
 k-point ** :  -.28570.42860.4000  plane waves:  15817
 k-point ** :  -.14290.42860.4000  plane waves:  15808
 k-point ** :  0.0000-.42860.4000  plane waves:  15812
 k-point ** :  0.1429-.42860.4000  plane waves:  15808
 k-point ** :  0.2857-.42860.4000  plane waves:  15817
 k-point ** :  0.4286-.42860.4000  plane waves:  15809
 k-point ** :  -.4286-.42860.4000  plane waves:  15811
 k-point ** :  -.2857-.42860.4000  plane waves:  15804
 k-point ** :  -.1429-.42860.4000  plane waves:  15793
 k-point ** :  0.0000-.28570.4000  plane waves:  15806
 k-point ** :  0.1429-.28570.4000  plane waves:  15801
 k-point ** :  0.2857-.28570.4000  plane waves:  15803
 k-point ** :  0.4286-.28570.4000  plane waves:  15817
 k-point ** :  -.4286-.28570.4000  plane waves:  15804
 k-point ** :  -.2857-.28570.4000  plane waves:  15813
 k-point ** :  -.1429-.28570.4000  plane waves:  15819
 k-point ** :  0.0000-.14290.4000  plane waves:  15789
 k-point ** :  0.1429-.14290.4000  plane waves:  15793
 k-point ** :  0.2857-.14290.4000  plane waves:  15801
 k-point ** :  0.4286-.14290.4000  plane waves:  15808
 k-point ** :  -.4286-.14290.4000  plane waves:  15793
 k-point ** :  -.2857-.14290.4000  plane waves:  15819
 k-point ** :  -.1429-.14290.4000  plane waves:  15816

 maximum and minimum number of plane-waves per node :  15834 15742

 maximum number of plane-waves:  15834
 maximal index in each direction: 
   IXMAX= 16   IYMAX= 16   IZMAX= 16
   IXMIN=-16   IYMIN=-16   IZMIN=-17

 WARNING: wrap around error must be expected set NGX to  66
 WARNING: wrap around error must be expected set NGY to  66
 NGZ is ok and might be reduce to  68

 parallel 3dFFT wavefunction:
    minimum data exchange during FFTs selected (reduces bandwidth)
 parallel 3dFFT charge:
    minimum data exchange during FFTs selected (reduces bandwidth)

 For storing wavefunctions 6716.90 MBYTES are necessary
 For predicting wavefunctions  117.32 MBYTES are necessary
Broyden mixing: mesh for mixing (old mesh)
   NGX = 33   NGY = 33   NGZ = 33
  (NGX  =128   NGY  =128   NGZ  =140)
 gives a total of  35937 points
 initial charge density was supplied:
 charge density of overlapping atoms calculated
 number of electron  360.0000000 magnetization 
 keeping initial charge density in first step


--------------------------------------------------------------------------------------------------------


 Maximum index for augmentation-charges         2196 (set IRDMAX)


--------------------------------------------------------------------------------------------------------


 First call to EWALD:  gamma=   0.208
 Maximum number of real-space cells 3x 3x 3
 Maximum number of reciprocal cells 3x 3x 3

    FEWALD:  VPU time    0.01: CPU time    0.01


----------------------------------------- Iteration    1(   1)  ---------------------------------------


    POTLOK:  VPU time    0.22: CPU time    0.22
    SETDIJ:  VPU time    0.02: CPU time    0.02
    EDDAV :  VPU time  379.54: CPU time  379.56
    DOS   :  VPU time    0.00: CPU time   -0.00
    ------------------------------------------
      LOOP:  VPU time  379.88: CPU time  379.90

 eigenvalue-minimisations  : 53832
 total energy-change (2. order) : 0.4993579E+04  (-0.1718835E+05)
 number of electron  360.0000000 magnetization 
 augmentation part   360.0000000 magnetization 

 Free energy of the ion-electron system (eV)
  ---------------------------------------------------
  alpha Z        PSCENC =      2270.51201468
  Ewald energy   TEWEN  =    -28942.78869846
  -1/2 Hartree   DENC   =     -7971.32034904
  -V(xc)+E(xc)   XCENC  =      1293.32570351
  PAW double counting   =     25711.31321228   -25685.71707589
  entropy T*S    EENTRO =        -0.00099410
  eigenvalues    EBANDS =       792.73098335
  atomic energy  EATOM  =     37525.52423787
  ---------------------------------------------------
  free energy    TOTEN  =      4993.57903421 eV

  energy without entropy =     4993.58002831  energy(sigma->0) =     4993.57953126


--------------------------------------------------------------------------------------------------------




----------------------------------------- Iteration    1(   2)  ---------------------------------------


    EDDAV :  VPU time  374.20: CPU time  374.21
    DOS   :  VPU time    0.00: CPU time   -0.00
    ------------------------------------------
      LOOP:  VPU time  374.30: CPU time  374.31

 eigenvalue-minimisations  : 53136
 total energy-change (2. order) :-0.4902479E+04  (-0.4826417E+04)
 number of electron  360.0000000 magnetization 
 augmentation part   360.0000000 magnetization 

 Free energy of the ion-electron system (eV)
  ---------------------------------------------------
  alpha Z        PSCENC =      2270.51201468
  Ewald energy   TEWEN  =    -28942.78869846
  -1/2 Hartree   DENC   =     -7971.32034904
  -V(xc)+E(xc)   XCENC  =      1293.32570351
  PAW double counting   =     25711.31321228   -25685.71707589
  entropy T*S    EENTRO =        -0.00170106
  eigenvalues    EBANDS =     -4109.74736277
  atomic energy  EATOM  =     37525.52423787
  ---------------------------------------------------
  free energy    TOTEN  =        91.09998113 eV

  energy without entropy =       91.10168219  energy(sigma->0) =       91.10083166


--------------------------------------------------------------------------------------------------------




----------------------------------------- Iteration    1(   3)  ---------------------------------------


    EDDAV :  VPU time  507.69: CPU time  507.93
    DOS   :  VPU time    0.00: CPU time   -0.00
    ------------------------------------------
      LOOP:  VPU time  507.79: CPU time  508.03

 eigenvalue-minimisations  : 77584
 total energy-change (2. order) :-0.3831878E+03  (-0.3604260E+03)
 number of electron  360.0000000 magnetization 
 augmentation part   360.0000000 magnetization 

 Free energy of the ion-electron system (eV)
  ---------------------------------------------------
  alpha Z        PSCENC =      2270.51201468
  Ewald energy   TEWEN  =    -28942.78869846
  -1/2 Hartree   DENC   =     -7971.32034904
  -V(xc)+E(xc)   XCENC  =      1293.32570351
  PAW double counting   =     25711.31321228   -25685.71707589
  entropy T*S    EENTRO =        -0.00118584
  eigenvalues    EBANDS =     -4492.93569251
  atomic energy  EATOM  =     37525.52423787
  ---------------------------------------------------
  free energy    TOTEN  =      -292.08783339 eV

  energy without entropy =     -292.08664755  energy(sigma->0) =     -292.08724047


--------------------------------------------------------------------------------------------------------




----------------------------------------- Iteration    1(   4)  ---------------------------------------


    EDDAV :  VPU time  484.74: CPU time  484.76
    DOS   :  VPU time    0.00: CPU time   -0.00
    ------------------------------------------
      LOOP:  VPU time  484.83: CPU time  484.86

 eigenvalue-minimisations  : 72704
 total energy-change (2. order) :-0.3145268E+02  (-0.3057324E+02)
 number of electron  360.0000000 magnetization 
 augmentation part   360.0000000 magnetization 

 Free energy of the ion-electron system (eV)
  ---------------------------------------------------
  alpha Z        PSCENC =      2270.51201468
  Ewald energy   TEWEN  =    -28942.78869846
  -1/2 Hartree   DENC   =     -7971.32034904
  -V(xc)+E(xc)   XCENC  =      1293.32570351
  PAW double counting   =     25711.31321228   -25685.71707589
  entropy T*S    EENTRO =        -0.00082552
  eigenvalues    EBANDS =     -4524.38873535
  atomic energy  EATOM  =     37525.52423787
  ---------------------------------------------------
  free energy    TOTEN  =      -323.54051591 eV

  energy without entropy =     -323.53969039  energy(sigma->0) =     -323.54010315


--------------------------------------------------------------------------------------------------------




----------------------------------------- Iteration    1(   5)  ---------------------------------------


    EDDAV :  VPU time  472.53: CPU time  472.56
    DOS   :  VPU time   -0.00: CPU time   -0.00
    CHARGE:  VPU time   16.85: CPU time   16.85
    MIXING:  VPU time    0.00: CPU time    0.01
    ------------------------------------------
      LOOP:  VPU time  489.48: CPU time  489.52

 eigenvalue-minimisations  : 69536
 total energy-change (2. order) :-0.9287496E+00  (-0.9080564E+00)
 number of electron  360.0000133 magnetization 
 augmentation part   157.2814783 magnetization 

 Broyden mixing:
  rms(total) = 0.35752E+01    rms(broyden)= 0.35752E+01
  rms(prec ) = 0.50986E+01
  weight for this iteration     100.00

 Free energy of the ion-electron system (eV)
  ---------------------------------------------------
  alpha Z        PSCENC =      2270.51201468
  Ewald energy   TEWEN  =    -28942.78869846
  -1/2 Hartree   DENC   =     -7971.32034904
  -V(xc)+E(xc)   XCENC  =      1293.32570351
  PAW double counting   =     25711.31321228   -25685.71707589
  entropy T*S    EENTRO =        -0.00094629
  eigenvalues    EBANDS =     -4525.31736414
  atomic energy  EATOM  =     37525.52423787
  ---------------------------------------------------
  free energy    TOTEN  =      -324.46926547 eV

  energy without entropy =     -324.46831918  energy(sigma->0) =     -324.46879233


--------------------------------------------------------------------------------------------------------




----------------------------------------- Iteration    1(   6)  ---------------------------------------


    POTLOK:  VPU time    0.20: CPU time    0.20
    SETDIJ:  VPU time    0.02: CPU time    0.02
    EDDAV :  VPU time  403.89: CPU time  403.84
    DOS   :  VPU time    0.00: CPU time   -0.00
    CHARGE:  VPU time   16.65: CPU time   16.65
    MIXING:  VPU time    0.01: CPU time    0.00
    ------------------------------------------
      LOOP:  VPU time  420.87: CPU time  420.82

 eigenvalue-minimisations  : 57960
 total energy-change (2. order) : 0.3835320E+02  (-0.1192442E+02)
 number of electron  360.0000142 magnetization 
 augmentation part   166.6224337 magnetization 

 Broyden mixing:
  rms(total) = 0.91122E+00    rms(broyden)= 0.91118E+00
  rms(prec ) = 0.13155E+01
  weight for this iteration     100.00

 eigenvalues of (default mixing * dielectric matrix)
  average eigenvalue GAMMA=   1.2659
  1.2659

 Free energy of the ion-electron system (eV)
  ---------------------------------------------------
  alpha Z        PSCENC =      2270.51201468
  Ewald energy   TEWEN  =    -28942.78869846
  -1/2 Hartree   DENC   =     -7263.69257412
  -V(xc)+E(xc)   XCENC  =      1255.81010652
  PAW double counting   =     24933.52422986   -24976.05007428
  entropy T*S    EENTRO =        -0.00229895
  eigenvalues    EBANDS =     -5088.95300593
  atomic energy  EATOM  =     37525.52423787
  ---------------------------------------------------
  free energy    TOTEN  =      -286.11606279 eV

  energy without entropy =     -286.11376384  energy(sigma->0) =     -286.11491332


--------------------------------------------------------------------------------------------------------




----------------------------------------- Iteration    1(   7)  ---------------------------------------


    POTLOK:  VPU time    0.19: CPU time    0.19
    SETDIJ:  VPU time    0.02: CPU time    0.02
    EDDAV :  VPU time  480.98: CPU time  499.14
    DOS   :  VPU time    0.00: CPU time   -0.00
    CHARGE:  VPU time   16.10: CPU time   20.76
    MIXING:  VPU time    0.06: CPU time    1.48
    ------------------------------------------
      LOOP:  VPU time  497.89: CPU time  522.20

 eigenvalue-minimisations  : 70120
 total energy-change (2. order) : 0.1912533E+01  (-0.1546948E+01)
 number of electron  360.0000146 magnetization 
 augmentation part   169.9909134 magnetization 

 Broyden mixing:
  rms(total) = 0.35308E+00    rms(broyden)= 0.35306E+00
  rms(prec ) = 0.42271E+00
  weight for this iteration     100.00

 eigenvalues of (default mixing * dielectric matrix)
  average eigenvalue GAMMA=   1.8557
  1.4066  2.3048

 Free energy of the ion-electron system (eV)
  ---------------------------------------------------
  alpha Z        PSCENC =      2270.51201468
  Ewald energy   TEWEN  =    -28942.78869846
  -1/2 Hartree   DENC   =     -7053.38971812
  -V(xc)+E(xc)   XCENC  =      1245.39577076
  PAW double counting   =     25078.11770838   -25159.72157914
  entropy T*S    EENTRO =        -0.00177497
  eigenvalues    EBANDS =     -5247.85149118
  atomic energy  EATOM  =     37525.52423787
  ---------------------------------------------------
  free energy    TOTEN  =      -284.20353018 eV

  energy without entropy =     -284.20175520  energy(sigma->0) =     -284.20264269


--------------------------------------------------------------------------------------------------------




----------------------------------------- Iteration    1(   8)  ---------------------------------------


    POTLOK:  VPU time    0.57: CPU time    1.85
    SETDIJ:  VPU time    0.02: CPU time    0.02
    EDDAV :  VPU time 1345.59: CPU time 2110.29
    DOS   :  VPU time   -0.00: CPU time   -0.12
    CHARGE:  VPU time   19.67: CPU time  122.26
    MIXING:  VPU time    1.11: CPU time    2.17
    ------------------------------------------
      LOOP:  VPU time 1367.18: CPU time 2243.83

 eigenvalue-minimisations  : 70688
 total energy-change (2. order) :-0.8567060E-01  (-0.2832676E+00)
 number of electron  360.0000145 magnetization 
 augmentation part   169.0228325 magnetization 

 Broyden mixing:
  rms(total) = 0.38472E+00    rms(broyden)= 0.38472E+00
  rms(prec ) = 0.84518E+00
  weight for this iteration     100.00

 eigenvalues of (default mixing * dielectric matrix)
  average eigenvalue GAMMA=   1.3743
  2.5155  1.3661  0.2414

 Free energy of the ion-electron system (eV)
  ---------------------------------------------------
  alpha Z        PSCENC =      2270.51201468
  Ewald energy   TEWEN  =    -28942.78869846
  -1/2 Hartree   DENC   =     -7091.54994861
  -V(xc)+E(xc)   XCENC  =      1248.43349911
  PAW double counting   =     25603.49441035   -25701.45419995
  entropy T*S    EENTRO =        -0.00197721
  eigenvalues    EBANDS =     -5196.45853855
  atomic energy  EATOM  =     37525.52423787
  ---------------------------------------------------
  free energy    TOTEN  =      -284.28920077 eV

  energy without entropy =     -284.28722356  energy(sigma->0) =     -284.28821217


--------------------------------------------------------------------------------------------------------




----------------------------------------- Iteration    1(   9)  ---------------------------------------


    POTLOK:  VPU time    3.68: CPU time    7.06
    SETDIJ:  VPU time    0.23: CPU time    0.36
    EDDAV :  VPU time  661.40: CPU time  713.87
    DOS   :  VPU time    0.00: CPU time   -0.00
    CHARGE:  VPU time   21.67: CPU time   22.98
    MIXING:  VPU time    0.62: CPU time    1.17
    ------------------------------------------
      LOOP:  VPU time  687.74: CPU time  745.98

 eigenvalue-minimisations  : 74744
 total energy-change (2. order) : 0.1801773E+00  (-0.1025460E+00)
 number of electron  360.0000145 magnetization 
 augmentation part   168.9625956 magnetization 

 Broyden mixing:
  rms(total) = 0.17440E+00    rms(broyden)= 0.17439E+00
  rms(prec ) = 0.25263E+00
  weight for this iteration     100.00

 eigenvalues of (default mixing * dielectric matrix)
  average eigenvalue GAMMA=   1.1645
  2.5618  1.2907  0.5811  0.2246

 Free energy of the ion-electron system (eV)
  ---------------------------------------------------
  alpha Z        PSCENC =      2270.51201468
  Ewald energy   TEWEN  =    -28942.78869846
  -1/2 Hartree   DENC   =     -7089.49163753
  -V(xc)+E(xc)   XCENC  =      1248.61309786
  PAW double counting   =     25725.50325748   -25828.52541734
  entropy T*S    EENTRO =        -0.00228197
  eigenvalues    EBANDS =     -5193.45359611
  atomic energy  EATOM  =     37525.52423787
  ---------------------------------------------------
  free energy    TOTEN  =      -284.10902351 eV

  energy without entropy =     -284.10674154  energy(sigma->0) =     -284.10788253


--------------------------------------------------------------------------------------------------------




----------------------------------------- Iteration    1(  10)  ---------------------------------------


    POTLOK:  VPU time    5.29: CPU time    8.14
    SETDIJ:  VPU time    0.09: CPU time    0.09
    EDDAV :  VPU time  594.47: CPU time  615.63
    DOS   :  VPU time   -0.01: CPU time   -0.12
    CHARGE:  VPU time   21.27: CPU time   21.75
    MIXING:  VPU time    0.57: CPU time    1.11
    ------------------------------------------
      LOOP:  VPU time  621.80: CPU time  646.94

 eigenvalue-minimisations  : 71296
 total energy-change (2. order) : 0.6333096E-01  (-0.1591788E-01)
 number of electron  360.0000145 magnetization 
 augmentation part   169.2279249 magnetization 

 Broyden mixing:
  rms(total) = 0.98699E-01    rms(broyden)= 0.98698E-01
  rms(prec ) = 0.14397E+00
  weight for this iteration     100.00

 eigenvalues of (default mixing * dielectric matrix)
  average eigenvalue GAMMA=   1.0868
  2.5958  1.1837  1.1837  0.2353  0.2353

 Free energy of the ion-electron system (eV)
  ---------------------------------------------------
  alpha Z        PSCENC =      2270.51201468
  Ewald energy   TEWEN  =    -28942.78869846
  -1/2 Hartree   DENC   =     -7072.68179449
  -V(xc)+E(xc)   XCENC  =      1247.71457842
  PAW double counting   =     25696.84339189   -25800.45030937
  entropy T*S    EENTRO =        -0.00231406
  eigenvalues    EBANDS =     -5208.71679906
  atomic energy  EATOM  =     37525.52423787
  ---------------------------------------------------
  free energy    TOTEN  =      -284.04569256 eV

  energy without entropy =     -284.04337849  energy(sigma->0) =     -284.04453553


--------------------------------------------------------------------------------------------------------




----------------------------------------- Iteration    1(  11)  ---------------------------------------


    POTLOK:  VPU time    1.71: CPU time    2.24
    SETDIJ:  VPU time    0.39: CPU time    0.39
    EDDAV :  VPU time  562.01: CPU time  576.51
    DOS   :  VPU time    0.00: CPU time   -0.00
    CHARGE:  VPU time   19.82: CPU time   19.82
    MIXING:  VPU time    0.04: CPU time    0.40
    ------------------------------------------
      LOOP:  VPU time  584.07: CPU time  599.54

 eigenvalue-minimisations  : 62880
 total energy-change (2. order) : 0.2917681E-01  (-0.2088755E-01)
 number of electron  360.0000146 magnetization 
 augmentation part   169.6391303 magnetization 

 Broyden mixing:
  rms(total) = 0.24710E-01    rms(broyden)= 0.24708E-01
  rms(prec ) = 0.38415E-01
  weight for this iteration     100.00

 eigenvalues of (default mixing * dielectric matrix)
  average eigenvalue GAMMA=   1.0023
  2.5890  1.2594  1.2594  0.4307  0.2216  0.2537

 Free energy of the ion-electron system (eV)
  ---------------------------------------------------
  alpha Z        PSCENC =      2270.51201468
  Ewald energy   TEWEN  =    -28942.78869846
  -1/2 Hartree   DENC   =     -7049.91167057
  -V(xc)+E(xc)   XCENC  =      1246.48089331
  PAW double counting   =     25651.87400730   -25755.64851072
  entropy T*S    EENTRO =        -0.00200951
  eigenvalues    EBANDS =     -5230.05677967
  atomic energy  EATOM  =     37525.52423787
  ---------------------------------------------------
  free energy    TOTEN  =      -284.01651575 eV

  energy without entropy =     -284.01450624  energy(sigma->0) =     -284.01551099


--------------------------------------------------------------------------------------------------------




----------------------------------------- Iteration    1(  12)  ---------------------------------------


    POTLOK:  VPU time    0.39: CPU time    0.39
    SETDIJ:  VPU time    0.04: CPU time    0.04
    EDDAV :  VPU time  673.57: CPU time  679.54
    DOS   :  VPU time    0.00: CPU time   -0.00
    CHARGE:  VPU time   26.83: CPU time   26.87
    MIXING:  VPU time    0.03: CPU time    0.08
    ------------------------------------------
      LOOP:  VPU time  701.03: CPU time  707.20

 eigenvalue-minimisations  : 71856
 total energy-change (2. order) :-0.7608513E-03  (-0.9832693E-03)
 number of electron  360.0000146 magnetization 
 augmentation part   169.6644326 magnetization 

 Broyden mixing:
  rms(total) = 0.26021E-01    rms(broyden)= 0.26020E-01
  rms(prec ) = 0.36544E-01
  weight for this iteration     100.00

 eigenvalues of (default mixing * dielectric matrix)
  average eigenvalue GAMMA=   1.0220
  2.5498  1.7612  1.2051  0.8953  0.2193  0.2618  0.2618

 Free energy of the ion-electron system (eV)
  ---------------------------------------------------
  alpha Z        PSCENC =      2270.51201468
  Ewald energy   TEWEN  =    -28942.78869846
  -1/2 Hartree   DENC   =     -7049.47959885
  -V(xc)+E(xc)   XCENC  =      1246.45570010
  PAW double counting   =     25650.39395431   -25753.64849376
  entropy T*S    EENTRO =        -0.00199072
  eigenvalues    EBANDS =     -5230.98440177
  atomic energy  EATOM  =     37525.52423787
  ---------------------------------------------------
  free energy    TOTEN  =      -284.01727660 eV

  energy without entropy =     -284.01528588  energy(sigma->0) =     -284.01628124


--------------------------------------------------------------------------------------------------------




----------------------------------------- Iteration    1(  13)  ---------------------------------------


    POTLOK:  VPU time    0.47: CPU time    0.49
    SETDIJ:  VPU time    0.07: CPU time    0.13
    EDDAV :  VPU time  633.98: CPU time  635.29
    DOS   :  VPU time    0.00: CPU time   -0.00
    CHARGE:  VPU time   25.68: CPU time   25.68
    MIXING:  VPU time    0.02: CPU time    0.07
    ------------------------------------------
      LOOP:  VPU time  660.32: CPU time  661.83

 eigenvalue-minimisations  : 67576
 total energy-change (2. order) : 0.1298942E-02  (-0.3944248E-03)
 number of electron  360.0000146 magnetization 
 augmentation part   169.6158074 magnetization 

 Broyden mixing:
  rms(total) = 0.10226E-01    rms(broyden)= 0.10226E-01
  rms(prec ) = 0.15685E-01
  weight for this iteration     100.00

 eigenvalues of (default mixing * dielectric matrix)
  average eigenvalue GAMMA=   0.9720
  2.5465  1.9846  1.1548  0.9328  0.4247  0.2199  0.2563  0.2563

 Free energy of the ion-electron system (eV)
  ---------------------------------------------------
  alpha Z        PSCENC =      2270.51201468
  Ewald energy   TEWEN  =    -28942.78869846
  -1/2 Hartree   DENC   =     -7053.54202364
  -V(xc)+E(xc)   XCENC  =      1246.67406523
  PAW double counting   =     25657.38903874   -25759.35091958
  entropy T*S    EENTRO =        -0.00203481
  eigenvalues    EBANDS =     -5228.43165771
  atomic energy  EATOM  =     37525.52423787
  ---------------------------------------------------
  free energy    TOTEN  =      -284.01597766 eV

  energy without entropy =     -284.01394285  energy(sigma->0) =     -284.01496025


--------------------------------------------------------------------------------------------------------




----------------------------------------- Iteration    1(  14)  ---------------------------------------


    POTLOK:  VPU time    0.32: CPU time    0.32
    SETDIJ:  VPU time    0.07: CPU time    0.07
    EDDAV :  VPU time  678.59: CPU time  681.99
    DOS   :  VPU time    0.00: CPU time   -0.00
    CHARGE:  VPU time   28.07: CPU time   28.07
    MIXING:  VPU time    0.03: CPU time    0.06
    ------------------------------------------
      LOOP:  VPU time  707.17: CPU time  710.62

 eigenvalue-minimisations  : 71120
 total energy-change (2. order) : 0.1774933E-03  (-0.6556490E-04)
 number of electron  360.0000146 magnetization 
 augmentation part   169.6016768 magnetization 

 Broyden mixing:
  rms(total) = 0.53286E-02    rms(broyden)= 0.53285E-02
  rms(prec ) = 0.84266E-02
  weight for this iteration     100.00

 eigenvalues of (default mixing * dielectric matrix)
  average eigenvalue GAMMA=   0.9776
  2.6060  2.0169  1.2602  0.9592  0.9592  0.2192  0.2626  0.2626  0.2528

 Free energy of the ion-electron system (eV)
  ---------------------------------------------------
  alpha Z        PSCENC =      2270.51201468
  Ewald energy   TEWEN  =    -28942.78869846
  -1/2 Hartree   DENC   =     -7054.70789255
  -V(xc)+E(xc)   XCENC  =      1246.73836102
  PAW double counting   =     25659.84095710   -25761.37555597
  entropy T*S    EENTRO =        -0.00204701
  eigenvalues    EBANDS =     -5227.75717686
  atomic energy  EATOM  =     37525.52423787
  ---------------------------------------------------
  free energy    TOTEN  =      -284.01580016 eV

  energy without entropy =     -284.01375315  energy(sigma->0) =     -284.01477666


--------------------------------------------------------------------------------------------------------




----------------------------------------- Iteration    1(  15)  ---------------------------------------


    POTLOK:  VPU time    0.42: CPU time    0.42
    SETDIJ:  VPU time    0.04: CPU time    0.04
    EDDAV :  VPU time  677.33: CPU time  678.57
    DOS   :  VPU time   -0.00: CPU time   -0.00
    CHARGE:  VPU time   25.47: CPU time   25.47
    MIXING:  VPU time    0.02: CPU time    0.08
    ------------------------------------------
      LOOP:  VPU time  703.38: CPU time  704.71

 eigenvalue-minimisations  : 72744
 total energy-change (2. order) : 0.4448215E-04  (-0.1254950E-04)
 number of electron  360.0000146 magnetization 
 augmentation part   169.6002081 magnetization 

 Broyden mixing:
  rms(total) = 0.34811E-02    rms(broyden)= 0.34811E-02
  rms(prec ) = 0.57406E-02
  weight for this iteration     100.00

 eigenvalues of (default mixing * dielectric matrix)
  average eigenvalue GAMMA=   0.9226
  2.6166  2.0244  1.3004  1.0009  1.0009  0.2923  0.2923  0.2193  0.2396  0.2396

 Free energy of the ion-electron system (eV)
  ---------------------------------------------------
  alpha Z        PSCENC =      2270.51201468
  Ewald energy   TEWEN  =    -28942.78869846
  -1/2 Hartree   DENC   =     -7054.99423380
  -V(xc)+E(xc)   XCENC  =      1246.75693433
  PAW double counting   =     25661.14188113   -25762.44669144
  entropy T*S    EENTRO =        -0.00204836
  eigenvalues    EBANDS =     -5227.71915165
  atomic energy  EATOM  =     37525.52423787
  ---------------------------------------------------
  free energy    TOTEN  =      -284.01575568 eV

  energy without entropy =     -284.01370732  energy(sigma->0) =     -284.01473150


--------------------------------------------------------------------------------------------------------




----------------------------------------- Iteration    1(  16)  ---------------------------------------


    POTLOK:  VPU time    0.36: CPU time    0.36
    SETDIJ:  VPU time    0.07: CPU time    0.07
    EDDAV :  VPU time  693.01: CPU time  696.33
    DOS   :  VPU time    0.00: CPU time   -0.00
    CHARGE:  VPU time   26.84: CPU time   26.85
    MIXING:  VPU time    0.02: CPU time    0.10
    ------------------------------------------
      LOOP:  VPU time  720.41: CPU time  723.88

 eigenvalue-minimisations  : 73456
 total energy-change (2. order) : 0.2001128E-04  (-0.4076611E-05)
 number of electron  360.0000146 magnetization 
 augmentation part   169.5991204 magnetization 

 Broyden mixing:
  rms(total) = 0.25356E-02    rms(broyden)= 0.25355E-02
  rms(prec ) = 0.35912E-02
  weight for this iteration     100.00

 eigenvalues of (default mixing * dielectric matrix)
  average eigenvalue GAMMA=   0.9618
  2.6192  2.1247  1.5848  1.1103  1.1103  0.8129  0.2726  0.2566  0.2566  0.2182
  0.2138

 Free energy of the ion-electron system (eV)
  ---------------------------------------------------
  alpha Z        PSCENC =      2270.51201468
  Ewald energy   TEWEN  =    -28942.78869846
  -1/2 Hartree   DENC   =     -7055.11545857
  -V(xc)+E(xc)   XCENC  =      1246.76432326
  PAW double counting   =     25661.49347238   -25762.71851454
  entropy T*S    EENTRO =        -0.00204928
  eigenvalues    EBANDS =     -5227.68506303
  atomic energy  EATOM  =     37525.52423787
  ---------------------------------------------------
  free energy    TOTEN  =      -284.01573567 eV

  energy without entropy =     -284.01368639  energy(sigma->0) =     -284.01471103


--------------------------------------------------------------------------------------------------------




----------------------------------------- Iteration    1(  17)  ---------------------------------------


    POTLOK:  VPU time    0.43: CPU time    0.45
    SETDIJ:  VPU time    0.06: CPU time    0.06
    EDDAV :  VPU time  639.47: CPU time  642.77
    DOS   :  VPU time    0.00: CPU time   -0.00
    CHARGE:  VPU time   26.47: CPU time   26.63
    MIXING:  VPU time    0.02: CPU time    0.09
    ------------------------------------------
      LOOP:  VPU time  666.55: CPU time  670.10

 eigenvalue-minimisations  : 68400
 total energy-change (2. order) : 0.3515909E-04  (-0.3172313E-05)
 number of electron  360.0000146 magnetization 
 augmentation part   169.5946863 magnetization 

 Broyden mixing:
[...]
     97     -26.8161      2.00000
     98     -26.8160      2.00000
     99     -26.8097      2.00000
    100     -26.8096      2.00000
    101     -26.7972      2.00000
    102     -26.7970      2.00000
    103     -26.7808      2.00000
    104     -26.7807      2.00000
    105     -26.7691      2.00000
    106     -26.7574      2.00000
    107     -26.7554      2.00000
    108     -26.7428      2.00000
    109       0.3122      2.00000
    110       0.7125      2.00000
    111       1.7995      2.00000
    112       1.8000      2.00000
    113       2.0962      2.00000
    114       2.0966      2.00000
    115       2.6610      2.00000
    116       2.6612      2.00000
    117       2.8449      2.00000
    118       2.8450      2.00000
    119       2.9430      2.00000
    120       3.1010      2.00000
    121       3.1012      2.00000
    122       3.1407      2.00000
    123       3.1408      2.00000
    124       3.2533      2.00000
    125       3.8312      2.00000
    126       3.8320      2.00000
    127       3.8813      2.00000
    128       3.8821      2.00000
    129       3.9692      2.00000
    130       3.9700      2.00000
    131       3.9970      2.00000
    132       3.9978      2.00000
    133       4.0380      2.00000
    134       4.0437      2.00000
    135       4.1864      2.00000
    136       4.1869      2.00000
    137       4.2112      2.00000
    138       4.2326      2.00000
    139       4.2334      2.00000
    140       4.2421      2.00000
    141       4.2570      2.00000
    142       4.2724      2.00000
    143       4.4654      2.00000
    144       4.4922      2.00000
    145       4.5492      2.00000
    146       4.5496      2.00000
    147       4.5789      2.00000
    148       4.5793      2.00000
    149       4.6797      2.00000
    150       4.6835      2.00000
    151       4.7537      2.00000
    152       4.7541      2.00000
    153       4.7825      2.00000
    154       4.7849      2.00000
    155       4.7855      2.00000
    156       4.7984      2.00000
    157       4.7990      2.00000
    158       4.8170      2.00000
    159       4.8798      2.00000
    160       4.8878      2.00000
    161       4.8884      2.00000
    162       4.8947      2.00000
    163       4.9864      2.00000
    164       5.1256      2.00000
    165       5.1851      2.00000
    166       5.1859      2.00000
    167       5.2894      2.00000
    168       5.2907      2.00000
    169       5.3114      2.00000
    170       5.3129      2.00000
    171       5.4306      2.00000
    172       5.4321      2.00000
    173       5.5137      2.00000
    174       5.5146      2.00000
    175       5.6053      2.00000
    176       5.6061      2.00000
    177       5.7938      2.00000
    178       5.8720      2.00000
    179       5.8927      2.00000
    180       6.0153      0.00000
    181       6.0237      0.00000
    182       6.0560      0.00000
    183       6.1082      0.00000
    184       6.1232      0.00000
    185       6.1487      0.00000
    186       6.2416      0.00000
    187       6.2431      0.00000
    188       6.2546      0.00000
    189       6.2552      0.00000
    190       6.2762      0.00000
    191       6.3414      0.00000
    192       6.3419      0.00000
    193       6.3473      0.00000
    194       6.3481      0.00000
    195       6.4122      0.00000
    196       6.4134      0.00000
    197       6.4837      0.00000
    198       6.5425      0.00000
    199       6.5430      0.00000
    200       6.5494      0.00000
    201       6.5498      0.00000
    202       6.6417      0.00000
    203       6.7038      0.00000
    204       6.7046      0.00000
    205       6.7064      0.00000
    206       6.7344      0.00000
    207       6.7700      0.00000
    208       6.7708      0.00000
    209       6.7915      0.00000
    210       6.7923      0.00000
    211       6.8123      0.00000
    212       6.8133      0.00000
    213       6.8928      0.00000
    214       6.8989      0.00000
    215       6.9313      0.00000
    216       6.9428      0.00000


--------------------------------------------------------------------------------------------------------


 soft charge-density along one line, spin component           1
         0         1         2         3         4         5         6         7         8         9
 total charge-density along one line
 
 pseudopotential strength for first ion, spin component:           1
-28.982  -0.000  -0.001  12.932   0.000   0.001  -0.000  -0.001
 -0.000 -29.037   0.000   0.000  12.973  -0.000  -0.000  -0.000
 -0.001   0.000 -28.981   0.001  -0.000  12.932   0.005  -0.000
 12.932   0.000   0.001  -0.821  -0.000  -0.000   0.000   0.001
  0.000  12.973  -0.000  -0.000  -0.847   0.000   0.000   0.000
  0.001  -0.000  12.932  -0.000   0.000  -0.821  -0.003   0.000
 -0.000  -0.000   0.005   0.000   0.000  -0.003  -2.851   0.000
 -0.001  -0.000  -0.000   0.001   0.000   0.000   0.000  -2.879
  0.000  -0.001   0.000  -0.000   0.001  -0.000   0.000  -0.000
 -0.000  -0.000  -0.001   0.000   0.000   0.001   0.000  -0.000
  0.006   0.000  -0.000  -0.003  -0.000   0.000  -0.000   0.000
 -0.000  -0.000   0.001   0.000   0.000  -0.001   0.530   0.000
 -0.000  -0.000  -0.000   0.000   0.000   0.000   0.000   0.524
  0.000  -0.000   0.000  -0.000   0.000  -0.000   0.000  -0.000
 -0.000  -0.000  -0.000   0.000   0.000   0.000   0.000  -0.000
  0.001   0.000  -0.000  -0.001  -0.000   0.000  -0.000   0.000
  0.000   0.001   0.000  -0.000  -0.000  -0.000   0.000   0.000
 -0.000  -0.000  -0.000   0.000   0.000   0.000  -0.000  -0.000
 total augmentation occupancy for first ion, spin component:           1
  1.977   0.000  -0.000   0.005   0.000  -0.000   0.000   0.000  -0.000  -0.000  -0.016  -0.000  -0.000  -0.000  -0.000   0.007
  0.000   1.977   0.000   0.000   0.002  -0.000  -0.000   0.000   0.001   0.000   0.000  -0.000   0.000  -0.000  -0.000   0.000
 -0.000   0.000   1.977  -0.000  -0.000   0.005  -0.016  -0.000  -0.000   0.000   0.000   0.007  -0.000   0.000  -0.000  -0.000
  0.005   0.000  -0.000   0.190   0.000  -0.000   0.001   0.001  -0.000  -0.000  -0.068  -0.001  -0.001   0.000   0.000   0.020
  0.000   0.002  -0.000   0.000   0.171  -0.000  -0.000  -0.000   0.001   0.001   0.000   0.000  -0.000  -0.001  -0.001  -0.000
 -0.000  -0.000   0.005  -0.000  -0.000   0.190  -0.068  -0.000  -0.000   0.001   0.001   0.020   0.000   0.000  -0.001  -0.001
  0.000  -0.000  -0.016   0.001  -0.000  -0.068   0.594   0.000   0.001   0.000  -0.000  -0.276  -0.000  -0.000  -0.000   0.001
  0.000   0.000  -0.000   0.001  -0.000  -0.000   0.000   0.480  -0.000  -0.002   0.000  -0.000  -0.247   0.000   0.001  -0.000
 -0.000   0.001  -0.000  -0.000   0.001  -0.000   0.001  -0.000   0.647  -0.000  -0.000  -0.000   0.000  -0.291   0.000  -0.000
 -0.000   0.000   0.000  -0.000   0.001   0.001   0.000  -0.002  -0.000   0.482   0.000  -0.000   0.001   0.000  -0.248  -0.000
 -0.016   0.000   0.000  -0.068   0.000   0.001  -0.000   0.000  -0.000   0.000   0.593   0.001  -0.000  -0.000  -0.000  -0.275
 -0.000  -0.000   0.007  -0.001   0.000   0.020  -0.276  -0.000  -0.000  -0.000   0.001   0.148   0.000   0.000   0.000  -0.001
 -0.000   0.000  -0.000  -0.001  -0.000   0.000  -0.000  -0.247   0.000   0.001  -0.000   0.000   0.144  -0.000  -0.001   0.000
 -0.000  -0.000   0.000   0.000  -0.001   0.000  -0.000   0.000  -0.291   0.000  -0.000   0.000  -0.000   0.152  -0.000   0.000
 -0.000  -0.000  -0.000   0.000  -0.001  -0.001  -0.000   0.001   0.000  -0.248  -0.000   0.000  -0.001  -0.000   0.145   0.000
  0.007   0.000  -0.000   0.020  -0.000  -0.001   0.001  -0.000  -0.000  -0.000  -0.275  -0.001   0.000   0.000   0.000   0.148
 -0.000   0.001   0.001  -0.001   0.002   0.004  -0.003  -0.000   0.051   0.000   0.001   0.001   0.000  -0.026   0.000  -0.000
  0.000   0.001  -0.000  -0.000  -0.000  -0.000   0.000   0.000   0.014   0.000  -0.000  -0.000  -0.000  -0.006  -0.000   0.000


------------------------ aborting loop because EDIFF is reached ----------------------------------------




--------------------------------------------------------------------------------------------------------


    CHARGE:  VPU time   29.48: CPU time   32.45
    FORLOC:  VPU time    0.13: CPU time    0.13
    FORNL :  VPU time  181.75: CPU time  181.75
    STRESS:  VPU time  369.72: CPU time  369.78
    FORCOR:  VPU time    1.05: CPU time    1.15
    FORHAR:  VPU time    0.14: CPU time    0.14
    MIXING:  VPU time    0.02: CPU time    0.08


--------------------------------------------------------------------------------------------------------



  FREE ENERGIE OF THE ION-ELECTRON SYSTEM (eV)
  ---------------------------------------------------
  free  energy   TOTEN  =      -284.015678 eV

  energy  without entropy=     -284.013621  energy(sigma->0) =     -284.014649
 

  FORCE on cell =-STRESS in cart. coord.  units (eV/reduce length):
  Direction    X        Y        Z        XY       YZ       ZX
  --------------------------------------------------------------------------------------
  Alpha Z   2270.51   2270.51   2270.51
  Ewald    -9811.77  -9823.62  -9307.50    -10.77     -0.00     -0.01
  Hartree   2283.06   2277.52   2495.13     -5.04     -0.00     -0.01
  E(xc)    -1695.89  -1695.89  -1695.39     -0.00     -0.00     -0.00
  Local     2619.52   2636.88   1965.08     15.77      0.00      0.01
  n-local   -862.36   -862.17   -845.91      0.16     -0.00      0.00
  augment   1839.66   1839.36   1811.91     -0.27     -0.00      0.00
  Kinetic   3357.96   3357.16   3311.16     -0.69     -0.00      0.00
  -------------------------------------------------------------------------------------
  Total        0.71     -0.24      4.99     -0.84     -0.00      0.00
  in kB        1.84     -0.62     12.85     -2.17     -0.00      0.00
  external pressure =        4.69 kB  Pullay stress =        0.00 kB


 VOLUME and BASIS-vectors are now :
 -----------------------------------------------------------------------------
  energy-cutoff  :      500.00
  volume of cell :      622.41
      direct lattice vectors                 reciprocal lattice vectors
     8.820667100  0.024765440  0.000000000     0.113187820  0.064925977  0.000000000
    -4.388885871  7.651304610  0.000000000    -0.000366362  0.130486516  0.000000000
     0.000000000  0.000000000  9.207474465     0.000000000  0.000000000  0.108607415

  length of vectors
     8.820701866  8.820701867  9.207474465     0.130487030  0.130487030  0.108607415


 FORCES acting on ions
    electron-ion (+dipol)            ewald-force                    non-local-force                 convergence-correction
 -----------------------------------------------------------------------------------------------
   0.240E+01 -.909E-01 0.254E+01   -.240E+01 0.682E-01 -.260E+01   -.454E-01 0.235E-01 0.812E-02   0.339E-04 0.224E-05 0.115E-04
   -.740E+00 -.101E+00 0.402E+00   0.784E+00 0.721E-01 -.399E+00   -.355E-01 0.253E-01 -.104E-02   -.177E-04 -.527E-05 -.483E-05
   -.739E+00 -.903E-01 0.397E+00   0.782E+00 0.721E-01 -.394E+00   -.348E-01 0.226E-01 -.113E-02   -.159E-04 0.129E-04 -.773E-05
   0.179E+00 0.432E+00 0.398E+00   -.139E+00 -.459E+00 -.395E+00   -.385E-01 0.193E-01 -.113E-02   -.575E-06 0.939E-05 -.666E-05
   0.174E+00 -.612E+00 0.395E+00   -.134E+00 0.592E+00 -.392E+00   -.376E-01 0.278E-01 -.118E-02   0.182E-05 -.119E-04 -.783E-05
   -.656E-02 -.931E-01 0.139E+00   0.486E-01 0.697E-01 -.142E+00   -.410E-01 0.238E-01 0.337E-02   -.104E-05 0.131E-05 -.147E-04
   0.186E+00 0.435E+00 0.401E+00   -.143E+00 -.457E+00 -.398E+00   -.417E-01 0.228E-01 -.103E-02   0.667E-05 0.110E-04 -.230E-05
   -.614E-02 -.920E-01 0.141E+00   0.486E-01 0.686E-01 -.142E+00   -.412E-01 0.241E-01 0.110E-02   -.179E-04 -.241E-05 -.142E-04
   0.174E+00 -.619E+00 0.392E+00   -.130E+00 0.594E+00 -.389E+00   -.407E-01 0.254E-01 -.116E-02   0.114E-04 -.175E-04 -.615E-05
   0.279E+00 -.924E-01 -.448E+00   -.242E+00 0.689E-01 0.464E+00   -.413E-01 0.234E-01 -.227E-02   0.124E-04 0.342E-05 -.117E-04
   0.103E+00 -.913E-01 -.199E+00   -.607E-01 0.697E-01 0.200E+00   -.412E-01 0.232E-01 -.117E-02   -.574E-05 -.389E-05 0.476E-05
   0.103E+00 -.948E-01 -.197E+00   -.609E-01 0.697E-01 0.198E+00   -.412E-01 0.247E-01 -.114E-02   -.628E-05 0.104E-04 0.749E-05
   0.183E+00 -.453E-01 -.198E+00   -.143E+00 0.230E-01 0.199E+00   -.417E-01 0.227E-01 -.115E-02   -.338E-05 -.641E-06 0.654E-05
   0.182E+00 -.140E+00 -.197E+00   -.141E+00 0.116E+00 0.198E+00   -.409E-01 0.244E-01 -.126E-02   -.277E-05 -.115E-05 0.770E-05
   0.116E+00 -.931E-01 -.123E+00   -.767E-01 0.697E-01 0.119E+00   -.405E-01 0.237E-01 0.239E-02   0.632E-05 -.595E-07 0.147E-04
   0.183E+00 -.481E-01 -.198E+00   -.142E+00 0.226E-01 0.199E+00   -.416E-01 0.245E-01 -.117E-02   0.128E-05 0.282E-05 0.225E-05
   0.116E+00 -.928E-01 -.119E+00   -.767E-01 0.694E-01 0.119E+00   -.406E-01 0.240E-01 -.112E-02   -.351E-05 -.221E-05 0.142E-04
   0.182E+00 -.137E+00 -.196E+00   -.141E+00 0.116E+00 0.197E+00   -.410E-01 0.232E-01 -.126E-02   0.252E-05 -.903E-05 0.601E-05
   -.655E+00 0.590E+00 -.995E+00   0.625E+00 -.573E+00 0.998E+00   0.432E-01 -.248E-01 0.957E-02   0.159E-05 0.326E-05 -.129E-04
   -.380E+00 0.112E+00 -.177E-01   0.340E+00 -.883E-01 0.179E-01   0.399E-01 -.238E-01 -.433E-03   -.217E-04 0.231E-05 -.196E-05
   0.388E+00 0.203E+00 0.124E-01   -.430E+00 -.181E+00 -.998E-02   0.407E-01 -.246E-01 -.382E-02   0.198E-04 0.506E-05 0.618E-05
   0.200E+00 -.514E+00 -.499E+00   -.241E+00 0.544E+00 0.502E+00   0.419E-01 -.224E-01 0.277E-02   0.838E-05 -.779E-05 -.302E-05
   -.443E+00 -.104E+00 -.171E+00   0.404E+00 0.128E+00 0.175E+00   0.363E-01 -.256E-01 -.643E-02   -.130E-04 -.119E-04 -.102E-04
   -.166E+00 0.131E+00 0.848E-01   0.128E+00 -.109E+00 -.861E-01   0.388E-01 -.227E-01 0.203E-02   0.455E-05 0.790E-05 0.389E-05
   -.204E+00 0.192E+00 -.331E-01   0.164E+00 -.169E+00 0.345E-01   0.411E-01 -.231E-01 -.151E-02   -.956E-05 0.532E-05 -.522E-05
   -.173E+00 -.265E-01 -.265E-02   0.133E+00 0.503E-01 0.210E-02   0.416E-01 -.246E-01 0.340E-03   -.311E-05 -.116E-04 -.266E-06
   -.101E+00 0.249E+00 -.426E-01   0.610E-01 -.226E+00 0.443E-01   0.399E-01 -.225E-01 -.208E-02   0.122E-04 0.834E-05 -.419E-05
   0.385E+00 -.133E-01 0.961E-02   -.427E+00 0.372E-01 -.778E-02   0.401E-01 -.230E-01 -.356E-02   0.175E-04 -.341E-05 0.129E-04
   -.379E+00 0.719E-01 -.184E-01   0.340E+00 -.484E-01 0.189E-01   0.400E-01 -.240E-01 -.578E-03   -.169E-04 0.232E-05 0.204E-05
   -.647E+00 -.404E+00 -.993E+00   0.617E+00 0.433E+00 0.995E+00   0.434E-01 -.231E-01 0.977E-02   -.132E-05 -.315E-05 -.598E-05
   0.205E+00 0.690E+00 -.488E+00   -.246E+00 -.673E+00 0.491E+00   0.419E-01 -.254E-01 0.305E-02   0.731E-05 0.129E-04 0.320E-05
   -.171E+00 0.545E-01 0.816E-01   0.133E+00 -.299E-01 -.831E-01   0.384E-01 -.243E-01 0.212E-02   0.274E-05 -.939E-06 0.103E-04
   -.445E+00 0.292E+00 -.177E+00   0.406E+00 -.269E+00 0.181E+00   0.370E-01 -.217E-01 -.597E-02   -.105E-04 0.140E-04 -.375E-05
   -.170E+00 0.212E+00 -.303E-02   0.129E+00 -.189E+00 0.236E-02   0.412E-01 -.231E-01 0.483E-03   -.507E-05 0.225E-05 0.528E-05
   -.205E+00 -.715E-02 -.325E-01   0.165E+00 0.308E-01 0.338E-01   0.413E-01 -.245E-01 -.149E-02   -.370E-05 -.114E-04 0.321E-06
   -.103E+00 -.629E-01 -.456E-01   0.626E-01 0.863E-01 0.473E-01   0.398E-01 -.250E-01 -.224E-02   0.855E-05 -.122E-04 0.429E-05
 -----------------------------------------------------------------------------------------------
   0.412E-04 -.122E-03 -.179E-04   -.152E-12 0.786E-12 -.260E-12   -.119E-03 0.127E-03 -.233E-03   -.698E-06 0.586E-06 0.559E-07
 
 
 POSITION                                       TOTAL-FORCE (eV/Angst)
 -----------------------------------------------------------------------------------
      0.00683      1.70587      1.15816        -0.045218      0.000735     -0.049947
      2.94013      1.71410      1.15093         0.008740     -0.003457      0.001630
      5.88035      1.72236      1.15093         0.008567      0.004393      0.001633
     -1.46305      4.25628      1.15093         0.001980     -0.007560      0.001621
      1.47717      4.26454      1.15093         0.002612      0.007819      0.001383
      4.41739      4.27279      1.15093         0.000982      0.000396      0.000773
     -2.92602      6.80672      1.15093         0.001856      0.000856      0.001615
      0.01421      6.81497      1.15093         0.001236      0.000728      0.000772
      2.95443      6.82323      1.15093         0.002511     -0.000162      0.001386
     -0.00009      1.70585      5.75467        -0.003417     -0.000149      0.013294
      2.94013      1.71410      5.75467         0.000613      0.001571     -0.000203
      5.88035      1.72236      5.75467         0.000635     -0.000431     -0.000190
     -1.46305      4.25628      5.75467        -0.000731      0.000492     -0.000199
      1.47717      4.26454      5.75467         0.000092     -0.000007     -0.000331
      4.41739      4.27279      5.75467        -0.001556      0.000320     -0.000985
     -2.92602      6.80672      5.75467        -0.000824     -0.000937     -0.000203
      0.01421      6.81497      5.75467        -0.001298      0.000669     -0.000985
      2.95443      6.82323      5.75467        -0.000029      0.002049     -0.000327
      1.47735      0.85284      3.45280         0.012878     -0.007656      0.012445
      4.41757      0.86110      3.45280         0.000236     -0.000553     -0.000178
      7.35780      0.86935      3.45280        -0.001516     -0.002209     -0.001428
      0.01439      3.40328      3.45280         0.000981      0.008124      0.005760
      2.95461      3.41153      3.45280        -0.002146     -0.001134     -0.001521
      5.89483      3.41979      3.45280         0.000184     -0.000449      0.000732
     -1.44857      5.95371      3.45280         0.000625     -0.000070     -0.000156
      1.49165      5.96197      3.45280         0.001200     -0.000798     -0.000205
      4.43187      5.97022      3.45280        -0.000539      0.000988     -0.000402
      1.47735      0.85284      8.05654        -0.001877      0.000891     -0.001713
      4.41757      0.86110      8.05654         0.000259     -0.000488     -0.000151
      7.35780      0.86935      8.05654         0.012900      0.006178      0.012351
      0.01439      3.40328      8.05654         0.000947     -0.008726      0.005446
      2.95461      3.41153      8.05654         0.000058      0.000256      0.000597
      5.89483      3.41979      8.05654        -0.002080      0.000858     -0.001429
     -1.44857      5.95371      8.05654         0.000591     -0.000127     -0.000174
      1.49165      5.96197      8.05654         0.001190     -0.000800     -0.000192
      4.43187      5.97022      8.05654        -0.000644     -0.001612     -0.000519
 -----------------------------------------------------------------------------------
    total drift:                               -0.000079      0.000005     -0.000251


--------------------------------------------------------------------------------------------------------



 mean value of Nose-termostat <S>:     1.000 mean value of <T> :     0.000
 mean temperature <T/S>/<1/S>  :     0.000

     LOOP+:  VPU time16850.67: CPU time17893.20
  
  
 General timing and accounting informations for this job:
 ========================================================
  
                  Total CPU time used (sec):    16948.744
                            User time (sec):    15502.192
                          System time (sec):     1446.552
                         Elapsed time (sec):    17991.451
  
                   Maximum memory used (kb):     8080156.
                   Average memory used (kb):           0.
  
                          Minor page faults:      3132463
                          Major page faults:        57291
                 Voluntary context switches:        88706
