  32  32   0   0
  0.1097175E+02  0.7054647E-09  0.7054647E-09  0.7054647E-09  0.5000000E-15
  1.000000000000000E-004
  CAR 
 unknown system                          
     15.14808060     -6.45598357  301      4.48538929      1.00000000
     -6.456  0.0000E+00  0.0000E+00
     -6.384  0.0000E+00  0.0000E+00
     -6.312  0.0000E+00  0.0000E+00
     -6.240  0.0000E+00  0.0000E+00
     -6.168  0.0000E+00  0.0000E+00
     -6.096  0.0000E+00  0.0000E+00
     -6.024  0.0000E+00  0.0000E+00
     -5.952  0.0000E+00  0.0000E+00
     -5.880  0.0000E+00  0.0000E+00
     -5.808  0.0000E+00  0.0000E+00
     -5.736  0.0000E+00  0.0000E+00
     -5.664  0.0000E+00  0.0000E+00
     -5.592  0.0000E+00  0.0000E+00
     -5.520  0.7328E-12  0.5277E-13
     -5.448  0.8534E-01  0.6146E-02
     -5.376  0.4476E+00  0.3838E-01
     -5.304  0.7864E+00  0.9570E-01
     -5.232  0.1184E+01  0.1810E+00
     -5.160  0.1301E+01  0.2747E+00
     -5.088  0.1055E+01  0.3507E+00
     -5.016  0.1491E+01  0.4624E+00
     -4.944  0.1210E+01  0.5498E+00
     -4.872  0.2248E+01  0.7117E+00
     -4.800  0.1968E+01  0.8544E+00
     -4.728  0.1419E+01  0.9575E+00
     -4.656  0.1952E+01  0.1098E+01
     -4.584  0.1917E+01  0.1239E+01
     -4.512  0.2563E+01  0.1424E+01
     -4.440  0.2062E+01  0.1572E+01
     -4.368  0.2689E+01  0.1766E+01
     -4.296  0.3340E+01  0.2007E+01
     -4.224  0.1667E+01  0.2137E+01
     -4.152  0.2505E+01  0.2318E+01
     -4.080  0.2179E+01  0.2480E+01
     -4.008  0.3655E+01  0.2743E+01
     -3.936  0.2539E+01  0.2927E+01
     -3.863  0.3939E+01  0.3211E+01
     -3.791  0.2697E+01  0.3409E+01
     -3.719  0.3055E+01  0.3629E+01
     -3.647  0.3834E+01  0.3907E+01
     -3.575  0.4146E+01  0.4206E+01
     -3.503  0.2798E+01  0.4411E+01
     -3.431  0.2262E+01  0.4577E+01
     -3.359  0.4967E+01  0.4935E+01
     -3.287  0.3801E+01  0.5211E+01
     -3.215  0.4075E+01  0.5506E+01
     -3.143  0.3126E+01  0.5733E+01
     -3.071  0.4699E+01  0.6071E+01
     -2.999  0.4048E+01  0.6363E+01
     -2.927  0.4662E+01  0.6699E+01
     -2.855  0.4436E+01  0.7023E+01
     -2.783  0.5894E+01  0.7447E+01
     -2.711  0.4011E+01  0.7742E+01
     -2.639  0.5150E+01  0.8113E+01
     -2.567  0.3186E+01  0.8343E+01
     -2.495  0.6508E+01  0.8811E+01
     -2.423  0.6629E+01  0.9289E+01
     -2.351  0.4297E+01  0.9600E+01
     -2.279  0.6754E+01  0.1009E+02
     -2.207  0.4836E+01  0.1044E+02
     -2.135  0.6542E+01  0.1092E+02
     -2.063  0.7411E+01  0.1145E+02
     -1.991  0.5680E+01  0.1187E+02
     -1.919  0.7478E+01  0.1241E+02
     -1.847  0.7183E+01  0.1293E+02
     -1.775  0.6998E+01  0.1343E+02
     -1.703  0.8441E+01  0.1405E+02
     -1.631  0.6709E+01  0.1453E+02
     -1.559  0.1107E+02  0.1533E+02
     -1.487  0.8703E+01  0.1596E+02
     -1.415  0.9546E+01  0.1665E+02
     -1.343  0.1149E+02  0.1748E+02
     -1.271  0.1253E+02  0.1839E+02
     -1.199  0.1438E+02  0.1943E+02
     -1.127  0.1170E+02  0.2029E+02
     -1.055  0.2152E+02  0.2184E+02
     -0.983  0.2359E+02  0.2355E+02
     -0.911  0.2402E+02  0.2529E+02
     -0.839  0.3370E+02  0.2773E+02
     -0.767  0.3381E+02  0.3019E+02
     -0.695  0.3614E+02  0.3280E+02
     -0.623  0.3688E+02  0.3547E+02
     -0.551  0.3566E+02  0.3806E+02
     -0.479  0.3865E+02  0.4087E+02
     -0.407  0.3748E+02  0.4360E+02
     -0.335  0.4706E+02  0.4700E+02
     -0.263  0.5257E+02  0.5081E+02
     -0.191  0.5846E+02  0.5504E+02
     -0.119  0.6680E+02  0.5987E+02
     -0.047  0.6801E+02  0.6480E+02
      0.025  0.6935E+02  0.6982E+02
      0.097  0.6955E+02  0.7486E+02
      0.169  0.6143E+02  0.7929E+02
      0.241  0.5881E+02  0.8354E+02
      0.313  0.6246E+02  0.8807E+02
      0.385  0.5814E+02  0.9228E+02
      0.457  0.6104E+02  0.9670E+02
      0.529  0.5606E+02  0.1008E+03
      0.601  0.6635E+02  0.1055E+03
      0.673  0.7601E+02  0.1111E+03
      0.745  0.7155E+02  0.1163E+03
      0.817  0.9165E+02  0.1229E+03
      0.889  0.8435E+02  0.1290E+03
      0.961  0.9572E+02  0.1359E+03
      1.033  0.9063E+02  0.1425E+03
      1.105  0.1136E+03  0.1507E+03
      1.177  0.1108E+03  0.1588E+03
      1.249  0.1088E+03  0.1667E+03
      1.321  0.1226E+03  0.1755E+03
      1.393  0.1438E+03  0.1860E+03
      1.466  0.9746E+02  0.1930E+03
      1.538  0.8500E+02  0.1992E+03
      1.610  0.8048E+02  0.2050E+03
      1.682  0.6997E+02  0.2101E+03
      1.754  0.7038E+02  0.2152E+03
      1.826  0.8099E+02  0.2211E+03
      1.898  0.9632E+02  0.2281E+03
      1.970  0.1010E+03  0.2354E+03
      2.042  0.1110E+03  0.2434E+03
      2.114  0.1069E+03  0.2512E+03
      2.186  0.9411E+02  0.2580E+03
      2.258  0.9134E+02  0.2647E+03
      2.330  0.8706E+02  0.2710E+03
      2.402  0.9048E+02  0.2775E+03
      2.474  0.9671E+02  0.2845E+03
      2.546  0.9809E+02  0.2916E+03
      2.618  0.1247E+03  0.3006E+03
      2.690  0.1731E+03  0.3132E+03
      2.762  0.1628E+03  0.3250E+03
      2.834  0.9716E+02  0.3320E+03
      2.906  0.4567E+02  0.3354E+03
      2.978  0.8286E+01  0.3360E+03
      3.050  0.1974E+02  0.3374E+03
      3.122  0.7670E+01  0.3379E+03
      3.194  0.1262E+02  0.3389E+03
      3.266  0.1326E+02  0.3398E+03
      3.338  0.8956E+01  0.3405E+03
      3.410  0.1432E+02  0.3415E+03
      3.482  0.8188E+01  0.3421E+03
      3.554  0.1175E+02  0.3430E+03
      3.626  0.1039E+02  0.3437E+03
      3.698  0.1276E+02  0.3446E+03
      3.770  0.7508E+01  0.3452E+03
      3.842  0.9927E+01  0.3459E+03
      3.914  0.9667E+01  0.3466E+03
      3.986  0.1149E+02  0.3474E+03
      4.058  0.8732E+01  0.3480E+03
      4.130  0.9520E+01  0.3487E+03
      4.202  0.1209E+02  0.3496E+03
      4.274  0.7970E+01  0.3502E+03
      4.346  0.7545E+01  0.3508E+03
      4.418  0.9433E+01  0.3514E+03
      4.490  0.8795E+01  0.3521E+03
      4.562  0.1110E+02  0.3529E+03
      4.634  0.9914E+01  0.3536E+03
      4.706  0.7075E+01  0.3541E+03
      4.778  0.7665E+01  0.3547E+03
      4.850  0.6302E+01  0.3551E+03
      4.922  0.1254E+02  0.3560E+03
      4.994  0.9731E+01  0.3567E+03
      5.066  0.7198E+01  0.3573E+03
      5.138  0.7380E+01  0.3578E+03
      5.210  0.7817E+01  0.3584E+03
      5.282  0.9411E+01  0.3590E+03
      5.354  0.9664E+01  0.3597E+03
      5.426  0.5321E+01  0.3601E+03
      5.498  0.1113E+02  0.3609E+03
      5.570  0.5671E+01  0.3614E+03
      5.642  0.7599E+01  0.3619E+03
      5.714  0.7661E+01  0.3625E+03
      5.786  0.1050E+02  0.3632E+03
      5.858  0.7920E+01  0.3638E+03
      5.930  0.8353E+01  0.3644E+03
      6.002  0.5346E+01  0.3648E+03
      6.074  0.8436E+01  0.3654E+03
      6.146  0.7223E+01  0.3659E+03
      6.218  0.8381E+01  0.3665E+03
      6.290  0.8288E+01  0.3671E+03
      6.362  0.9994E+01  0.3678E+03
      6.434  0.6579E+01  0.3683E+03
      6.506  0.7464E+01  0.3689E+03
      6.578  0.3254E+01  0.3691E+03
      6.650  0.7973E+01  0.3697E+03
      6.722  0.8640E+01  0.3703E+03
      6.795  0.8196E+01  0.3709E+03
      6.867  0.6945E+01  0.3714E+03
      6.939  0.6491E+01  0.3719E+03
      7.011  0.4875E+01  0.3722E+03
      7.083  0.9245E+01  0.3729E+03
      7.155  0.4089E+01  0.3732E+03
      7.227  0.4759E+01  0.3735E+03
      7.299  0.5272E+01  0.3739E+03
      7.371  0.1060E+02  0.3747E+03
      7.443  0.4886E+01  0.3750E+03
      7.515  0.4091E+01  0.3753E+03
      7.587  0.7389E+01  0.3759E+03
      7.659  0.4161E+01  0.3762E+03
      7.731  0.5133E+01  0.3765E+03
      7.803  0.5894E+01  0.3770E+03
      7.875  0.4463E+01  0.3773E+03
      7.947  0.3535E+01  0.3775E+03
      8.019  0.7912E+01  0.3781E+03
      8.091  0.6424E+01  0.3786E+03
      8.163  0.2270E+01  0.3788E+03
      8.235  0.4689E+01  0.3791E+03
      8.307  0.4189E+01  0.3794E+03
      8.379  0.1519E+01  0.3795E+03
      8.451  0.5036E+01  0.3799E+03
      8.523  0.6541E+01  0.3803E+03
      8.595  0.3892E+01  0.3806E+03
      8.667  0.6146E+01  0.3811E+03
      8.739  0.6550E+01  0.3815E+03
      8.811  0.9563E+01  0.3822E+03
      8.883  0.6746E+01  0.3827E+03
      8.955  0.7525E+01  0.3833E+03
      9.027  0.9744E+01  0.3840E+03
      9.099  0.9890E+01  0.3847E+03
      9.171  0.6854E+01  0.3852E+03
      9.243  0.1241E+02  0.3861E+03
      9.315  0.7306E+01  0.3866E+03
      9.387  0.6201E+01  0.3871E+03
      9.459  0.1084E+02  0.3878E+03
      9.531  0.1075E+02  0.3886E+03
      9.603  0.6807E+01  0.3891E+03
      9.675  0.8475E+01  0.3897E+03
      9.747  0.8686E+01  0.3904E+03
      9.819  0.1169E+02  0.3912E+03
      9.891  0.7620E+01  0.3918E+03
      9.963  0.8996E+01  0.3924E+03
     10.035  0.9647E+01  0.3931E+03
     10.107  0.9007E+01  0.3938E+03
     10.179  0.8631E+01  0.3944E+03
     10.251  0.7142E+01  0.3949E+03
     10.323  0.6998E+01  0.3954E+03
     10.395  0.1038E+02  0.3962E+03
     10.467  0.8423E+01  0.3968E+03
     10.539  0.7061E+01  0.3973E+03
     10.611  0.7857E+01  0.3979E+03
     10.683  0.8849E+01  0.3985E+03
     10.755  0.8289E+01  0.3991E+03
     10.827  0.5967E+01  0.3995E+03
     10.899  0.9459E+01  0.4002E+03
     10.971  0.7504E+01  0.4008E+03
     11.043  0.6520E+01  0.4012E+03
     11.115  0.6829E+01  0.4017E+03
     11.187  0.6478E+01  0.4022E+03
     11.259  0.7944E+01  0.4028E+03
     11.331  0.8104E+01  0.4034E+03
     11.403  0.8347E+01  0.4040E+03
     11.475  0.7620E+01  0.4045E+03
     11.547  0.4986E+01  0.4049E+03
     11.619  0.7027E+01  0.4054E+03
     11.691  0.6928E+01  0.4059E+03
     11.763  0.6919E+01  0.4064E+03
     11.835  0.6587E+01  0.4069E+03
     11.907  0.7030E+01  0.4074E+03
     11.979  0.6521E+01  0.4079E+03
     12.051  0.8351E+01  0.4085E+03
     12.124  0.6536E+01  0.4089E+03
     12.196  0.6445E+01  0.4094E+03
     12.268  0.1031E+02  0.4102E+03
     12.340  0.8436E+01  0.4108E+03
     12.412  0.1247E+02  0.4117E+03
     12.484  0.9445E+01  0.4124E+03
     12.556  0.8232E+01  0.4130E+03
     12.628  0.1047E+02  0.4137E+03
     12.700  0.5310E+01  0.4141E+03
     12.772  0.8152E+01  0.4147E+03
     12.844  0.9542E+01  0.4154E+03
     12.916  0.5447E+01  0.4158E+03
     12.988  0.1273E+02  0.4167E+03
     13.060  0.1430E+02  0.4177E+03
     13.132  0.8711E+01  0.4184E+03
     13.204  0.1460E+02  0.4194E+03
     13.276  0.7285E+01  0.4199E+03
     13.348  0.8200E+01  0.4205E+03
     13.420  0.6086E+01  0.4210E+03
     13.492  0.7991E+01  0.4216E+03
     13.564  0.6913E+01  0.4221E+03
     13.636  0.7827E+01  0.4226E+03
     13.708  0.5547E+01  0.4230E+03
     13.780  0.6371E+01  0.4235E+03
     13.852  0.3261E+01  0.4237E+03
     13.924  0.8073E+00  0.4238E+03
     13.996  0.3051E+00  0.4238E+03
     14.068  0.1800E+01  0.4240E+03
     14.140  0.1928E+00  0.4240E+03
     14.212  0.3960E+00  0.4240E+03
     14.284  0.0000E+00  0.4240E+03
     14.356  0.0000E+00  0.4240E+03
     14.428  0.0000E+00  0.4240E+03
     14.500  0.0000E+00  0.4240E+03
     14.572  0.0000E+00  0.4240E+03
     14.644  0.0000E+00  0.4240E+03
     14.716  0.0000E+00  0.4240E+03
     14.788  0.0000E+00  0.4240E+03
     14.860  0.0000E+00  0.4240E+03
     14.932  0.0000E+00  0.4240E+03
     15.004  0.0000E+00  0.4240E+03
     15.076  0.0000E+00  0.4240E+03
     15.148  0.0000E+00  0.4240E+03
