   32   32    1    1
  0.1097175E+02  0.7054647E-09  0.7054647E-09  0.7054647E-09  0.5000000E-15
  1.000000000000000E-004
  CAR 
 unknown system                          
  352  196  212
 
  0.0000000E+00  0.0000000E+00  0.0000000E+00  0.5787037E-03
   1       -5.4740
   2       -2.5889
   3       -2.5856
   4       -2.5856
   5       -2.5856
   6       -2.5856
   7       -2.5822
   8       -1.0755
   9       -1.0755
  10       -1.0755
  11       -1.0755
  12       -0.9011
  13       -0.9011
  14       -0.9011
  15       -0.6301
  16       -0.6279
  17       -0.6279
  18       -0.6267
  19       -0.6264
  20       -0.6264
  21       -0.6264
  22       -0.6264
  23       -0.6261
  24       -0.6249
  25       -0.6249
  26       -0.6227
  27       -0.3991
  28       -0.3991
  29       -0.3991
  30       -0.0946
  31       -0.0923
  32       -0.0923
  33       -0.0923
  34       -0.0923
  35       -0.0901
  36        0.3550
  37        0.3571
  38        0.3571
  39        0.3571
  40        0.3571
  41        0.3591
  42        0.5879
  43        0.5882
  44        0.5882
  45        0.5905
  46        0.5905
  47        0.5906
  48        0.5906
  49        0.5907
  50        0.5908
  51        0.5908
  52        0.5922
  53        0.5922
  54        0.5934
  55        0.5948
  56        0.5948
  57        0.5953
  58        0.5953
  59        0.5953
  60        0.5953
  61        0.5954
  62        0.5954
  63        0.5968
  64        0.5968
  65        0.6000
  66        0.8201
  67        0.8230
  68        0.8230
  69        0.8233
  70        0.8236
  71        0.8236
  72        0.8236
  73        0.8237
  74        0.8239
  75        0.8243
  76        0.8243
  77        0.8271
  78        1.1252
  79        1.1252
  80        1.1252
  81        1.1252
  82        1.1252
  83        1.1252
  84        1.1252
  85        1.1252
  86        1.1610
  87        1.1610
  88        1.1610
  89        1.5757
  90        1.5776
  91        1.5777
  92        1.5777
  93        1.5777
  94        1.5796
  95        1.7191
  96        1.7197
  97        1.7206
  98        1.7206
  99        1.7212
 100        1.7212
 101        1.7212
 102        1.7212
 103        1.7218
 104        1.7218
 105        1.7228
 106        1.7232
 107        1.8973
 108        1.8973
 109        1.8994
 110        1.8994
 111        1.8996
 112        1.8996
 113        1.8996
 114        1.8996
 115        1.8999
 116        1.8999
 117        1.9018
 118        1.9018
 119        2.0399
 120        2.0412
 121        2.0412
 122        2.0412
 123        2.0413
 124        2.0425
 125        2.0781
 126        2.0781
 127        2.0798
 128        2.0802
 129        2.0802
 130        2.0803
 131        2.0803
 132        2.0803
 133        2.0804
 134        2.0809
 135        2.0827
 136        2.0827
 137        2.0892
 138        2.0894
 139        2.3924
 140        2.3934
 141        2.3934
 142        2.3934
 143        2.3934
 144        2.3945
 145        2.7048
 146        2.7048
 147        2.7048
 148        2.7206
 149        2.7206
 150        2.7206
 151        2.7206
 152        2.7206
 153        2.7206
 154        2.7206
 155        2.7206
 156        2.8773
 157        2.8778
 158        2.8778
 159        2.8778
 160        2.8778
 161        2.8778
 162        2.8786
 163        2.8787
 164        2.8787
 165        2.8787
 166        2.8787
 167        2.8792
 168        3.2344
 169        3.2345
 170        3.2345
 171        3.2345
 172        4.1605
 173        4.1606
 174        4.1606
 175        4.1617
 176        4.1620
 177        4.1620
 178        4.1620
 179        4.1620
 180        4.1623
 181        4.1634
 182        4.1634
 183        4.1635
 184        5.9109
 185        5.9109
 186        5.9110
 187        8.5887
 188        8.5887
 189        8.5887
 190        8.5887
 191       10.9552
 192       10.9552
 193       10.9589
 194       10.9589
 195       10.9594
 196       10.9594
 197       10.9594
 198       10.9595
 199       10.9599
 200       10.9599
 201       10.9636
 202       10.9636
 203       12.1022
 204       12.1022
 205       12.1022
 206       13.1408
 207       13.1437
 208       13.1437
 209       13.1437
 210       13.1437
 211       13.1465
 212       14.0090
 
  0.8333333E-01  0.0000000E+00  0.0000000E+00  0.1157407E-02
   1       -5.4517
   2       -2.9855
   3       -2.5676
   4       -2.5676
   5       -2.5676
   6       -2.5676
   7       -2.1932
   8       -1.0700
   9       -1.0700
  10       -1.0700
  11       -1.0700
  12       -0.9005
  13       -0.8903
  14       -0.8902
  15       -0.8440
  16       -0.8440
  17       -0.8440
  18       -0.8439
  19       -0.6384
  20       -0.6383
  21       -0.6383
  22       -0.6383
  23       -0.4286
  24       -0.4286
  25       -0.4286
  26       -0.4286
  27       -0.3928
  28       -0.3924
  29       -0.3924
  30       -0.1111
  31       -0.1109
  32       -0.0837
  33       -0.0837
  34       -0.0837
  35       -0.0836
  36        0.2557
  37        0.3597
  38        0.3598
  39        0.3598
  40        0.3598
  41        0.4293
  42        0.4293
  43        0.4592
  44        0.5762
  45        0.5768
  46        0.5768
  47        0.5769
  48        0.5817
  49        0.5817
  50        0.5817
  51        0.5817
  52        0.5915
  53        0.5916
  54        0.5916
  55        0.5916
  56        0.6090
  57        0.6090
  58        0.6090
  59        0.6093
  60        0.6205
  61        0.6206
  62        0.6206
  63        0.6210
  64        0.7417
  65        0.7417
  66        0.7417
  67        0.7417
  68        0.7666
  69        0.7666
  70        0.8298
  71        0.8298
  72        0.8298
  73        0.8298
  74        0.8914
  75        0.8914
  76        0.8914
  77        0.8915
  78        1.1205
  79        1.1205
  80        1.1205
  81        1.1205
  82        1.1313
  83        1.1313
  84        1.1313
  85        1.1313
  86        1.1539
  87        1.1666
  88        1.1666
  89        1.5440
  90        1.5440
  91        1.5440
  92        1.5440
  93        1.5860
  94        1.6151
  95        1.6948
  96        1.6949
  97        1.6949
  98        1.6949
  99        1.7192
 100        1.7192
 101        1.7192
 102        1.7192
 103        1.7487
 104        1.7487
 105        1.7488
 106        1.7488
 107        1.7922
 108        1.7922
 109        1.8995
 110        1.8995
 111        1.8995
 112        1.8996
 113        1.9283
 114        1.9283
 115        1.9283
 116        1.9283
 117        2.0108
 118        2.0108
 119        2.0292
 120        2.0292
 121        2.0292
 122        2.0292
 123        2.0412
 124        2.0413
 125        2.0414
 126        2.0414
 127        2.0575
 128        2.0576
 129        2.0828
 130        2.0917
 131        2.1073
 132        2.1074
 133        2.1074
 134        2.1075
 135        2.1420
 136        2.1420
 137        2.1421
 138        2.1421
 139        2.3533
 140        2.4004
 141        2.4004
 142        2.4004
 143        2.4004
 144        2.4337
 145        2.6067
 146        2.6068
 147        2.6068
 148        2.6068
 149        2.6965
 150        2.6965
 151        2.7021
 152        2.7137
 153        2.7137
 154        2.7137
 155        2.7138
 156        2.8322
 157        2.8322
 158        2.8680
 159        2.8680
 160        2.8680
 161        2.8680
 162        2.8680
 163        2.8680
 164        2.8773
 165        2.8778
 166        2.8787
 167        2.8792
 168        3.3272
 169        3.3272
 170        3.3272
 171        3.3272
 172        3.8727
 173        3.8727
 174        3.8727
 175        3.8727
 176        4.1582
 177        4.1582
 178        4.1582
 179        4.1582
 180        4.4977
 181        4.4977
 182        4.4977
 183        4.4977
 184        5.7699
 185        5.9761
 186        5.9761
 187        8.6480
 188        8.6480
 189        8.6480
 190        8.6480
 191       10.3494
 192       10.3494
 193       10.6439
 194       10.6439
 195       10.6439
 196       10.6439
 197       10.9899
 198       10.9899
 199       10.9899
 200       10.9899
 201       11.5894
 202       11.5894
 203       12.1095
 204       12.1095
 205       12.2859
 206       13.0746
 207       13.0746
 208       13.3373
 209       13.3373
 210       13.3373
 211       13.3373
 212       14.1366
 
  0.1666667E+00  0.0000000E+00  0.0000000E+00  0.1157407E-02
   1       -5.3849
   2       -3.3774
   3       -2.5139
   4       -2.5139
   5       -2.5139
   6       -2.5139
   7       -1.8292
   8       -1.0751
   9       -1.0750
  10       -1.0750
  11       -1.0750
  12       -1.0535
  13       -1.0535
  14       -1.0535
  15       -1.0534
  16       -0.8998
  17       -0.8580
  18       -0.8579
  19       -0.6716
  20       -0.6715
  21       -0.6715
  22       -0.6715
  23       -0.3741
  24       -0.3725
  25       -0.3725
  26       -0.2543
  27       -0.2543
  28       -0.2543
  29       -0.2543
  30       -0.1639
  31       -0.1639
  32       -0.0583
  33       -0.0583
  34       -0.0583
  35       -0.0583
  36        0.1569
  37        0.2827
  38        0.2827
  39        0.3678
  40        0.3678
  41        0.3678
  42        0.3679
  43        0.5540
  44        0.5542
  45        0.5542
  46        0.5543
  47        0.5556
  48        0.5556
  49        0.5557
  50        0.5557
  51        0.5603
  52        0.5942
  53        0.5943
  54        0.5943
  55        0.5943
  56        0.6179
  57        0.6179
  58        0.6179
  59        0.6183
  60        0.6488
  61        0.6489
  62        0.6489
  63        0.6489
  64        0.6934
  65        0.6934
  66        0.6934
  67        0.6935
  68        0.8480
  69        0.8480
  70        0.8480
  71        0.8480
  72        0.9465
  73        0.9465
  74        0.9465
  75        0.9466
  76        0.9566
  77        0.9566
  78        1.1066
  79        1.1066
  80        1.1066
  81        1.1067
  82        1.1328
  83        1.1495
  84        1.1495
  85        1.1495
  86        1.1496
  87        1.1834
  88        1.1834
  89        1.4693
  90        1.4693
  91        1.4693
  92        1.4693
  93        1.6239
  94        1.6327
  95        1.6327
  96        1.6327
  97        1.6327
  98        1.6903
  99        1.6903
 100        1.7190
 101        1.7435
 102        1.7436
 103        1.7436
 104        1.7438
 105        1.7948
 106        1.7948
 107        1.7948
 108        1.7949
 109        1.8995
 110        1.8995
 111        1.8995
 112        1.8995
 113        1.9826
 114        1.9826
 115        1.9827
 116        1.9828
 117        1.9884
 118        1.9884
 119        1.9886
 120        1.9886
 121        2.0407
 122        2.0407
 123        2.0407
 124        2.0407
 125        2.0636
 126        2.0993
 127        2.1034
 128        2.1035
 129        2.1244
 130        2.1244
 131        2.1717
 132        2.1717
 133        2.1717
 134        2.1718
 135        2.2136
 136        2.2136
 137        2.2136
 138        2.2136
 139        2.3140
 140        2.3771
 141        2.3771
 142        2.3771
 143        2.3772
 144        2.4268
 145        2.4268
 146        2.4268
 147        2.4268
 148        2.4733
 149        2.6716
 150        2.6716
 151        2.6933
 152        2.6933
 153        2.6933
 154        2.6933
 155        2.6941
 156        2.7058
 157        2.7058
 158        2.8368
 159        2.8368
 160        2.8368
 161        2.8368
 162        2.8388
 163        2.8388
 164        2.8773
 165        2.8779
 166        2.8786
 167        2.8792
 168        3.4951
 169        3.4952
 170        3.4952
 171        3.4952
 172        3.6211
 173        3.6211
 174        3.6211
 175        3.6211
 176        4.1465
 177        4.1465
 178        4.1465
 179        4.1465
 180        4.8878
 181        4.8878
 182        4.8878
 183        4.8878
 184        5.3916
 185        6.1610
 186        6.1610
 187        8.8241
 188        8.8241
 189        8.8241
 190        8.8241
 191        9.7606
 192        9.7606
 193        9.9772
 194        9.9772
 195        9.9772
 196        9.9773
 197       11.0808
 198       11.0808
 199       11.0808
 200       11.0808
 201       12.1315
 202       12.1315
 203       12.2381
 204       12.2381
 205       12.7929
 206       12.9271
 207       12.9271
 208       13.4405
 209       13.4406
 210       13.4406
 211       13.4408
 212       13.5648
 
  0.2500000E+00  0.0000000E+00  0.0000000E+00  0.1157407E-02
   1       -5.2739
   2       -3.7499
   3       -2.4254
   4       -2.4253
   5       -2.4253
   6       -2.4253
   7       -1.5168
   8       -1.3114
   9       -1.3113
  10       -1.3113
  11       -1.3113
  12       -1.0265
  13       -1.0265
  14       -1.0265
  15       -1.0265
  16       -0.9019
  17       -0.8054
  18       -0.8054
  19       -0.7198
  20       -0.7197
  21       -0.7197
  22       -0.7197
  23       -0.3431
  24       -0.3392
  25       -0.3392
  26       -0.2436
  27       -0.2435
  28       -0.1044
  29       -0.1044
  30       -0.1044
  31       -0.1044
  32       -0.0174
  33       -0.0174
  34       -0.0174
  35       -0.0174
  36        0.0623
  37        0.1509
  38        0.1509
  39        0.3809
  40        0.3810
  41        0.3810
  42        0.3810
  43        0.5141
  44        0.5141
  45        0.5141
  46        0.5141
  47        0.5284
  48        0.5285
  49        0.5285
  50        0.5285
  51        0.5508
  52        0.5508
  53        0.5508
  54        0.5508
  55        0.5984
  56        0.5986
  57        0.5986
  58        0.5986
  59        0.6222
  60        0.6223
  61        0.6223
  62        0.6225
  63        0.6590
  64        0.8043
  65        0.8043
  66        0.8043
  67        0.8043
  68        0.8807
  69        0.8807
  70        0.8807
  71        0.8807
  72        0.9942
  73        0.9943
  74        0.9943
  75        0.9943
  76        1.0842
  77        1.0842
  78        1.0843
  79        1.0843
  80        1.0981
  81        1.1602
  82        1.1602
  83        1.1795
  84        1.1796
  85        1.1796
  86        1.1796
  87        1.2112
  88        1.2112
  89        1.3836
  90        1.3837
  91        1.3837
  92        1.3837
  93        1.5567
  94        1.5568
  95        1.5568
  96        1.5568
  97        1.5950
  98        1.5950
  99        1.6794
 100        1.7884
 101        1.7885
 102        1.7885
 103        1.7885
 104        1.8497
 105        1.8497
 106        1.8497
 107        1.8497
 108        1.8997
 109        1.8997
 110        1.8997
 111        1.8998
 112        1.9128
 113        1.9574
 114        1.9574
 115        1.9574
 116        1.9574
 117        2.0214
 118        2.0215
 119        2.0215
 120        2.0215
 121        2.0322
 122        2.0377
 123        2.0377
 124        2.0378
 125        2.0378
 126        2.1121
 127        2.1183
 128        2.1183
 129        2.1183
 130        2.1183
 131        2.1718
 132        2.1718
 133        2.2381
 134        2.2381
 135        2.2512
 136        2.2512
 137        2.2512
 138        2.2512
 139        2.2763
 140        2.2936
 141        2.2936
 142        2.2936
 143        2.2936
 144        2.4847
 145        2.4847
 146        2.4847
 147        2.4847
 148        2.5117
 149        2.5225
 150        2.5225
 151        2.6309
 152        2.6309
 153        2.6597
 154        2.6597
 155        2.6597
 156        2.6597
 157        2.6808
 158        2.7868
 159        2.7868
 160        2.7868
 161        2.7868
 162        2.7913
 163        2.7913
 164        2.8773
 165        2.8779
 166        2.8786
 167        2.8792
 168        3.3990
 169        3.3990
 170        3.3990
 171        3.3990
 172        3.6568
 173        3.6568
 174        3.6568
 175        3.6568
 176        4.1257
 177        4.1257
 178        4.1257
 179        4.1257
 180        4.8675
 181        5.3379
 182        5.3379
 183        5.3379
 184        5.3379
 185        6.4418
 186        6.4418
 187        9.1119
 188        9.1119
 189        9.1119
 190        9.1120
 191        9.1944
 192        9.1944
 193        9.2232
 194        9.2232
 195        9.2232
 196        9.2232
 197       11.2303
 198       11.2303
 199       11.2303
 200       11.2303
 201       12.1689
 202       12.1689
 203       12.6524
 204       12.6524
 205       12.6524
 206       12.6524
 207       12.7674
 208       12.7674
 209       12.9041
 210       12.9041
 211       13.1732
 212       13.1732
 
  0.3333333E+00  0.0000000E+00  0.0000000E+00  0.1157407E-02
   1       -5.1196
   2       -4.0953
   3       -2.3036
   4       -2.3035
   5       -2.3035
   6       -2.3035
   7       -1.5445
   8       -1.5445
   9       -1.5445
  10       -1.5445
  11       -1.2739
  12       -0.9898
  13       -0.9898
  14       -0.9898
  15       -0.9898
  16       -0.9127
  17       -0.7761
  18       -0.7761
  19       -0.7761
  20       -0.7761
  21       -0.7345
  22       -0.7345
  23       -0.3405
  24       -0.3404
  25       -0.3004
  26       -0.2924
  27       -0.2924
  28       -0.0267
  29        0.0200
  30        0.0200
  31        0.0200
  32        0.0200
  33        0.0336
  34        0.0336
  35        0.0363
  36        0.0363
  37        0.0364
  38        0.0364
  39        0.3987
  40        0.3988
  41        0.3988
  42        0.3988
  43        0.4555
  44        0.4557
  45        0.4557
  46        0.4557
  47        0.4603
  48        0.4603
  49        0.4603
  50        0.4605
  51        0.5008
  52        0.5009
  53        0.5009
  54        0.5009
  55        0.6037
  56        0.6040
  57        0.6040
  58        0.6040
  59        0.6227
  60        0.6227
  61        0.6227
  62        0.6231
  63        0.7528
  64        0.8938
  65        0.8938
  66        0.8938
  67        0.8938
  68        0.9790
  69        0.9790
  70        0.9790
  71        0.9790
  72        1.0413
  73        1.0414
  74        1.0414
  75        1.0414
  76        1.0504
  77        1.0545
  78        1.0545
  79        1.0545
  80        1.0546
  81        1.2208
  82        1.2208
  83        1.2208
  84        1.2209
  85        1.2499
  86        1.2499
  87        1.2995
  88        1.2995
  89        1.2995
  90        1.2995
  91        1.3761
  92        1.3761
  93        1.4784
  94        1.4785
  95        1.4785
  96        1.4785
  97        1.5075
  98        1.5075
  99        1.7440
 100        1.8452
 101        1.8453
 102        1.8453
 103        1.8453
 104        1.8567
 105        1.8568
 106        1.8568
 107        1.8568
 108        1.9009
 109        1.9009
 110        1.9009
 111        1.9010
 112        1.9041
 113        1.9041
 114        1.9041
 115        1.9041
 116        1.9349
 117        1.9350
 118        1.9350
 119        1.9350
 120        1.9896
 121        2.0269
 122        2.0271
 123        2.0272
 124        2.0272
 125        2.0299
 126        2.0299
 127        2.0299
 128        2.0301
 129        2.1296
 130        2.2120
 131        2.2404
 132        2.2540
 133        2.2540
 134        2.3058
 135        2.3058
 136        2.3341
 137        2.3341
 138        2.3341
 139        2.3341
 140        2.3498
 141        2.3498
 142        2.3797
 143        2.3797
 144        2.3797
 145        2.3797
 146        2.5482
 147        2.5752
 148        2.5753
 149        2.5800
 150        2.5800
 151        2.5800
 152        2.5801
 153        2.6138
 154        2.6138
 155        2.6138
 156        2.6139
 157        2.6627
 158        2.7213
 159        2.7213
 160        2.7213
 161        2.7213
 162        2.7271
 163        2.7271
 164        2.8774
 165        2.8780
 166        2.8785
 167        2.8792
 168        3.1996
 169        3.1996
 170        3.1996
 171        3.1996
 172        3.7934
 173        3.7934
 174        3.7934
 175        3.7934
 176        4.0939
 177        4.0940
 178        4.0940
 179        4.0940
 180        4.2785
 181        5.8505
 182        5.8505
 183        5.8505
 184        5.8505
 185        6.7947
 186        6.7947
 187        8.4674
 188        8.4674
 189        8.4674
 190        8.4675
 191        8.6525
 192        8.6525
 193        9.5034
 194        9.5034
 195        9.5034
 196        9.5034
 197       11.4354
 198       11.4354
 199       11.4354
 200       11.4354
 201       11.8988
 202       11.8988
 203       11.8988
 204       11.8988
 205       12.2223
 206       12.2223
 207       12.6197
 208       12.6197
 209       12.7422
 210       12.7422
 211       12.7422
 212       12.7422
 
  0.4166667E+00  0.0000000E+00  0.0000000E+00  0.1157407E-02
   1       -4.9228
   2       -4.4083
   3       -2.1508
   4       -2.1508
   5       -2.1508
   6       -2.1508
   7       -1.7664
   8       -1.7664
   9       -1.7664
  10       -1.7664
  11       -1.1047
  12       -0.9447
  13       -0.9445
  14       -0.9445
  15       -0.9445
  16       -0.9407
  17       -0.8350
  18       -0.8350
  19       -0.8350
  20       -0.8350
  21       -0.6481
  22       -0.6481
  23       -0.4453
  24       -0.4453
  25       -0.2465
  26       -0.2319
  27       -0.2319
  28       -0.1086
  29       -0.0691
  30       -0.0691
  31        0.0958
  32        0.0958
  33        0.0958
  34        0.0959
  35        0.1112
  36        0.1112
  37        0.1113
  38        0.1113
  39        0.3787
  40        0.3787
  41        0.3787
  42        0.3787
  43        0.4007
  44        0.4007
  45        0.4007
  46        0.4008
  47        0.4205
  48        0.4206
  49        0.4206
  50        0.4206
  51        0.4728
  52        0.4729
  53        0.4729
  54        0.4729
  55        0.6093
  56        0.6098
  57        0.6098
  58        0.6099
  59        0.6202
  60        0.6202
  61        0.6202
  62        0.6208
  63        0.8405
  64        0.9383
  65        0.9383
  66        0.9383
  67        0.9383
  68        0.9908
  69        1.0190
  70        1.0190
  71        1.0190
  72        1.0190
  73        1.0932
  74        1.0932
  75        1.0932
  76        1.0933
  77        1.1586
  78        1.1586
  79        1.1586
  80        1.1586
  81        1.2219
  82        1.2219
  83        1.2219
  84        1.2219
  85        1.2727
  86        1.2727
  87        1.2727
  88        1.2727
  89        1.2993
  90        1.2993
  91        1.4032
  92        1.4032
  93        1.4032
  94        1.4032
  95        1.4286
  96        1.4286
  97        1.6025
  98        1.6025
  99        1.6047
 100        1.6048
 101        1.6048
 102        1.6048
 103        1.8114
 104        1.9039
 105        1.9039
 106        1.9039
 107        1.9039
 108        1.9050
 109        1.9051
 110        1.9051
 111        1.9051
 112        1.9195
 113        1.9196
 114        1.9196
 115        1.9196
 116        1.9372
 117        1.9514
 118        1.9514
 119        1.9514
 120        1.9514
 121        2.0037
 122        2.0037
 123        2.0038
 124        2.0038
 125        2.0140
 126        2.0140
 127        2.0141
 128        2.0141
 129        2.0733
 130        2.0733
 131        2.1515
 132        2.2074
 133        2.3414
 134        2.3414
 135        2.4147
 136        2.4147
 137        2.4147
 138        2.4147
 139        2.4571
 140        2.4571
 141        2.4691
 142        2.4691
 143        2.4691
 144        2.4691
 145        2.5065
 146        2.5066
 147        2.5567
 148        2.5567
 149        2.5567
 150        2.5567
 151        2.5821
 152        2.6187
 153        2.6399
 154        2.6438
 155        2.6438
 156        2.6438
 157        2.6438
 158        2.6484
 159        2.6484
 160        2.7060
 161        2.7060
 162        2.7060
 163        2.7060
 164        2.8774
 165        2.8781
 166        2.8784
 167        2.8792
 168        3.0186
 169        3.0186
 170        3.0186
 171        3.0186
 172        3.6813
 173        3.9024
 174        3.9024
 175        3.9024
 176        3.9024
 177        4.0486
 178        4.0486
 179        4.0486
 180        4.0486
 181        6.4245
 182        6.4245
 183        6.4245
 184        6.4246
 185        7.2021
 186        7.2021
 187        7.7404
 188        7.7404
 189        7.7404
 190        7.7404
 191        8.1373
 192        8.1373
 193        9.9885
 194        9.9885
 195        9.9885
 196        9.9885
 197       11.1965
 198       11.1965
 199       11.1965
 200       11.1965
 201       11.6928
 202       11.6928
 203       11.6928
 204       11.6928
 205       12.2929
 206       12.2929
 207       12.3497
 208       12.3497
 209       12.3497
 210       12.3497
 211       12.4908
 212       12.4908
 
  0.5000000E+00  0.0000000E+00  0.0000000E+00  0.5787037E-03
   1       -4.6867
   2       -4.6834
   3       -1.9740
   4       -1.9712
   5       -1.9712
   6       -1.9711
   7       -1.9696
   8       -1.9694
   9       -1.9694
  10       -1.9667
  11       -1.0001
  12       -0.9987
  13       -0.8939
  14       -0.8939
  15       -0.8928
  16       -0.8924
  17       -0.8919
  18       -0.8915
  19       -0.8904
  20       -0.8904
  21       -0.5518
  22       -0.5507
  23       -0.5492
  24       -0.5481
  25       -0.1836
  26       -0.1810
  27       -0.1587
  28       -0.1587
  29       -0.1563
  30       -0.1563
  31        0.1369
  32        0.1374
  33        0.1374
  34        0.1376
  35        0.1385
  36        0.1387
  37        0.1387
  38        0.1391
  39        0.3565
  40        0.3571
  41        0.3571
  42        0.3571
  43        0.3575
  44        0.3575
  45        0.3576
  46        0.3582
  47        0.4438
  48        0.4446
  49        0.4446
  50        0.4453
  51        0.4460
  52        0.4467
  53        0.4467
  54        0.4475
  55        0.6130
  56        0.6149
  57        0.6149
  58        0.6152
  59        0.6159
  60        0.6163
  61        0.6163
  62        0.6182
  63        0.9201
  64        0.9207
  65        0.9787
  66        0.9790
  67        0.9790
  68        0.9796
  69        0.9796
  70        0.9802
  71        0.9802
  72        0.9806
  73        1.1520
  74        1.1520
  75        1.1521
  76        1.1528
  77        1.1533
  78        1.1539
  79        1.1541
  80        1.1541
  81        1.3320
  82        1.3324
  83        1.3324
  84        1.3336
  85        1.3342
  86        1.3354
  87        1.3354
  88        1.3358
  89        1.3580
  90        1.3580
  91        1.3601
  92        1.3601
  93        1.3688
  94        1.3697
  95        1.3697
  96        1.3697
  97        1.3702
  98        1.3703
  99        1.3703
 100        1.3711
 101        1.8358
 102        1.8358
 103        1.8370
 104        1.8370
 105        1.8764
 106        1.8774
 107        1.9092
 108        1.9092
 109        1.9093
 110        1.9096
 111        1.9098
 112        1.9100
 113        1.9102
 114        1.9102
 115        1.9590
 116        1.9598
 117        1.9598
 118        1.9598
 119        1.9608
 120        1.9609
 121        1.9609
 122        1.9616
 123        1.9872
 124        1.9876
 125        1.9879
 126        1.9879
 127        1.9887
 128        1.9887
 129        1.9890
 130        1.9895
 131        2.1767
 132        2.1785
 133        2.4272
 134        2.4272
 135        2.4275
 136        2.4275
 137        2.4890
 138        2.4892
 139        2.4893
 140        2.4893
 141        2.4901
 142        2.4901
 143        2.4902
 144        2.4905
 145        2.5568
 146        2.5568
 147        2.5575
 148        2.5575
 149        2.5580
 150        2.5580
 151        2.5581
 152        2.5581
 153        2.5587
 154        2.5588
 155        2.5597
 156        2.5597
 157        2.6128
 158        2.6129
 159        2.8528
 160        2.8535
 161        2.8535
 162        2.8537
 163        2.8539
 164        2.8541
 165        2.8541
 166        2.8548
 167        2.8774
 168        2.8782
 169        2.8783
 170        2.8791
 171        3.1159
 172        3.1186
 173        3.9847
 174        3.9850
 175        3.9856
 176        3.9856
 177        3.9866
 178        3.9866
 179        3.9872
 180        3.9875
 181        7.0531
 182        7.0542
 183        7.0542
 184        7.0561
 185        7.0570
 186        7.0588
 187        7.0588
 188        7.0600
 189        7.6504
 190        7.6504
 191        7.6539
 192        7.6539
 193       10.5535
 194       10.5543
 195       10.5543
 196       10.5559
 197       10.5567
 198       10.5584
 199       10.5584
 200       10.5591
 201       11.9964
 202       11.9964
 203       11.9984
 204       11.9986
 205       11.9990
 206       11.9992
 207       12.0012
 208       12.0012
 209       12.3818
 210       12.3820
 211       12.3821
 212       12.3823
 
  0.0000000E+00  0.8333333E-01  0.0000000E+00  0.2314815E-02
   1       -5.4517
   2       -2.9855
   3       -2.5701
   4       -2.5676
   5       -2.5676
   6       -2.5651
   7       -2.1932
   8       -1.0700
   9       -1.0700
  10       -1.0700
  11       -1.0700
  12       -0.9006
  13       -0.8903
  14       -0.8902
  15       -0.8460
  16       -0.8440
  17       -0.8440
  18       -0.8420
  19       -0.6397
  20       -0.6385
  21       -0.6381
  22       -0.6370
  23       -0.4304
  24       -0.4287
  25       -0.4286
  26       -0.4269
  27       -0.3928
  28       -0.3925
  29       -0.3924
  30       -0.1110
  31       -0.1109
  32       -0.0853
  33       -0.0837
  34       -0.0837
  35       -0.0821
  36        0.2557
  37        0.3581
  38        0.3598
  39        0.3598
  40        0.3614
  41        0.4293
  42        0.4293
  43        0.4592
  44        0.5750
  45        0.5767
  46        0.5769
  47        0.5781
  48        0.5805
  49        0.5818
  50        0.5820
  51        0.5831
  52        0.5897
  53        0.5916
  54        0.5916
  55        0.5935
  56        0.6074
  57        0.6090
  58        0.6090