       N       E                     dE             d eps       ncg     rms          rms(c)
DAV:   1     0.411069432655E+04    0.41107E+04   -0.18637E+05 83120   0.338E+03
DAV:   2     0.505708062681E+03   -0.36050E+04   -0.34691E+04 83104   0.738E+02
DAV:   3    -0.102603551385E+03   -0.60831E+03   -0.56212E+03 83104   0.279E+02
DAV:   4    -0.145440014752E+03   -0.42836E+02   -0.41408E+02 86284   0.858E+01
DAV:   5    -0.145963325765E+03   -0.52331E+00   -0.52164E+00 88096   0.995E+00    0.399E+01
DAV:   6    -0.125608322716E+03    0.20355E+02   -0.25329E+02 89448   0.930E+01    0.149E+01
DAV:   7    -0.117892949584E+03    0.77154E+01   -0.40006E+01 92212   0.374E+01    0.344E+00
DAV:   8    -0.117536540534E+03    0.35641E+00   -0.48147E-01 85692   0.245E+00    0.189E+00
DAV:   9    -0.117474936836E+03    0.61604E-01   -0.52158E-02 98512   0.209E+00    0.831E-01
DAV:  10    -0.117463663132E+03    0.11274E-01   -0.60806E-02 96848   0.157E+00    0.104E-01
DAV:  11    -0.117464302124E+03   -0.63899E-03   -0.60635E-03 85280   0.467E-01    0.817E-02
DAV:  12    -0.117464194852E+03    0.10727E-03   -0.54322E-04 89860   0.269E-01    0.408E-02
DAV:  13    -0.117464182506E+03    0.12346E-04   -0.70575E-05 91956   0.781E-02    0.251E-02
DAV:  14    -0.117464176994E+03    0.55118E-05   -0.45411E-05 91984   0.421E-02    0.121E-02
DAV:  15    -0.117464173966E+03    0.30282E-05   -0.12244E-05 85480   0.289E-02    0.851E-03
DAV:  16    -0.117464171519E+03    0.24471E-05   -0.10685E-05 94164   0.220E-02    0.439E-03
DAV:  17    -0.117464179041E+03   -0.75222E-05   -0.28368E-06 91624   0.156E-02    0.152E-03
DAV:  18    -0.117464179125E+03   -0.84183E-07   -0.22645E-07 86712   0.428E-03    0.116E-03
DAV:  19    -0.117464178958E+03    0.16751E-06   -0.22167E-07 86016   0.435E-03    0.538E-04
DAV:  20    -0.117464179345E+03   -0.38699E-06   -0.47167E-08 75668   0.248E-03    0.181E-04
DAV:  21    -0.117464179377E+03   -0.32582E-07   -0.49647E-09 43828   0.808E-04    0.193E-04
DAV:  22    -0.117464179342E+03    0.35347E-07   -0.18464E-09 43616   0.379E-04    0.181E-04
DAV:  23    -0.117464179361E+03   -0.18736E-07   -0.83737E-10 43588   0.248E-04    0.112E-04
DAV:  24    -0.117464179373E+03   -0.12216E-07   -0.55703E-10 43480   0.184E-04    0.521E-05
DAV:  25    -0.117464179356E+03    0.16662E-07   -0.10554E-10 43332   0.639E-05    0.446E-05
DAV:  26    -0.117464179356E+03    0.64028E-09   -0.12866E-11 43232   0.372E-05
   1 F= -.11746418E+03 E0= -.11746379E+03  d E =-.784014E-03
