 vasp.4.6.28 25Jul05 complex 
 executed on             LinuxIFC date 2017.01.09  17:42:04
 running on    4 nodes
 distr:  one band on    1 nodes,    4 groups


--------------------------------------------------------------------------------------------------------


 INCAR:
 POTCAR:   PAW_PBE Cu 05Jan2001                   
 POTCAR:   PAW_PBE Cu 05Jan2001                   
   VRHFIN =Cu: d10 p1                                                           
   LEXCH  = PE                                                                  
   EATOM  =  1390.9800 eV,  102.2341 Ry                                         
                                                                                
   TITEL  = PAW_PBE Cu 05Jan2001                                                
   LULTRA =        F    use ultrasoft PP ?                                      
   IUNSCR =        1    unscreen: 0-lin 1-nonlin 2-no                           
   RPACOR =    2.000    partial core radius                                     
   POMASS =   63.546; ZVAL   =   11.000    mass and valenz                      
   RCORE  =    2.300    outmost cutoff radius                                   
   RWIGS  =    2.480; RWIGS  =    1.312    wigner-seitz radius (au A)           
   ENMAX  =  273.214; ENMIN  =  204.910 eV                                      
   RCLOC  =    1.712    cutoff for local pot                                    
   LCOR   =        T    correct aug charges                                     
   LPAW   =        T    paw PP                                                  
   EAUG   =  516.456                                                            
   DEXC   =    -.008                                                            
   RMAX   =    2.789    core radius for proj-oper                               
   RAUG   =    1.300    factor for augmentation sphere                          
   RDEP   =    2.302    radius for radial grids                                 
   QCUT   =   -4.481; QGAM   =    8.962    optimization parameters              
                                                                                
   Description                                                                  
     l     E      TYP  RCUT    TYP  RCUT                                        
     2   .000     23  2.300                                                     
     2   .000     23  2.300                                                     
     0   .000     23  2.300                                                     
     0   .000     23  2.300                                                     
     1  -.200     23  2.300                                                     
     1   .000     23  2.300                                                     
     3   .000      7   .000                                                     
  local pseudopotential read in
  partial core-charges read in
  atomic valenz-charges read in
  non local Contribution for L=           2  read in
    real space projection operators read in
  non local Contribution for L=           2  read in
    real space projection operators read in
  non local Contribution for L=           0  read in
    real space projection operators read in
  non local Contribution for L=           0  read in
    real space projection operators read in
  non local Contribution for L=           1  read in
    real space projection operators read in
  non local Contribution for L=           1  read in
    real space projection operators read in
    PAW grid and wavefunctions read in
 
   number of l-projection  operators is LMAX  =           6
   number of lm-projection operators is LMMAX =          18
 

 ----------------------------------------------------------------------------- 
|                                                                             |
|  ADVICE TO THIS USER RUNNING 'VASP/VAMP'   (HEAR YOUR MASTER'S VOICE ...):  |
|                                                                             |
|      You have a (more or less) 'large supercell' and for larger cells       |
|      it might be more efficient to use real space projection operators      |
|      So try LREAL= Auto  in the INCAR   file.                               |
|      Mind: If you want to do an extremely accurate calculations keep the    |
|      reciprocal projection scheme          (i.e. LREAL=.FALSE.)             |
|                                                                             |
 ----------------------------------------------------------------------------- 

 PAW_PBE Cu 05Jan2001                   :
 energy of atom  1       EATOM=-1390.9800
 kinetic energy error for atom=    0.0006 (will be added to EATOM!!)
 
 EXHCAR: internal setup
 exchange correlation table for  LEXCH =        8
   RHO(1)=    0.500       N(1)  =     2000
   RHO(2)=  100.500       N(2)  =     4000
 
 POSCAR: Cu                                      
  positions in direct lattice
  No initial velocities read in
 


--------------------------------------------------------------------------------------------------------


 ion  position               nearest neighbor table
   1  0.001  0.000  0.000-   9 2.49  11 2.49  17 2.49  21 2.49  25 2.49  27 2.49  29 2.49  31 2.49
                            10 2.50  18 2.50  12 2.50  22 2.50
   2  0.500  0.000  0.000-   9 2.49  10 2.49  11 2.49  12 2.49  17 2.49  18 2.49  21 2.49  22 2.49
                            26 2.49  28 2.49  30 2.49  32 2.49
   3  0.000  0.500  0.000-   9 2.49  10 2.49  11 2.49  12 2.49  19 2.49  20 2.49  23 2.49  24 2.49
                            25 2.49  27 2.49  29 2.49  31 2.49
   4  0.500  0.500  0.000-   9 2.49  10 2.49  11 2.49  12 2.49  19 2.49  20 2.49  23 2.49  24 2.49
                            26 2.49  28 2.49  30 2.49  32 2.49
   5  0.000  0.000  0.500-  13 2.49  14 2.49  15 2.49  16 2.49  17 2.49  18 2.49  21 2.49  22 2.49
                            25 2.49  27 2.49  29 2.49  31 2.49
   6  0.500  0.000  0.500-  13 2.49  14 2.49  15 2.49  16 2.49  17 2.49  18 2.49  21 2.49  22 2.49
                            26 2.49  28 2.49  30 2.49  32 2.49
   7  0.000  0.500  0.500-  13 2.49  14 2.49  15 2.49  16 2.49  19 2.49  20 2.49  23 2.49  24 2.49
                            25 2.49  27 2.49  29 2.49  31 2.49
   8  0.500  0.500  0.500-  13 2.49  14 2.49  15 2.49  16 2.49  19 2.49  20 2.49  23 2.49  24 2.49
                            26 2.49  28 2.49  30 2.49  32 2.49
   9  0.250  0.250  0.000-   1 2.49   2 2.49   3 2.49   4 2.49  17 2.49  19 2.49  21 2.49  23 2.49
                            25 2.49  26 2.49  29 2.49  30 2.49
  10  0.750  0.250  0.000-   2 2.49   3 2.49   4 2.49  18 2.49  20 2.49  22 2.49  24 2.49  25 2.49
                            26 2.49  29 2.49  30 2.49   1 2.50
  11  0.250  0.750  0.000-   1 2.49   2 2.49   3 2.49   4 2.49  17 2.49  19 2.49  21 2.49  23 2.49
                            27 2.49  28 2.49  31 2.49  32 2.49
  12  0.750  0.750  0.000-   2 2.49   3 2.49   4 2.49  18 2.49  20 2.49  22 2.49  24 2.49  27 2.49
                            28 2.49  31 2.49  32 2.49   1 2.50
  13  0.250  0.250  0.500-   5 2.49   6 2.49   7 2.49   8 2.49  17 2.49  19 2.49  21 2.49  23 2.49
                            25 2.49  26 2.49  29 2.49  30 2.49
  14  0.750  0.250  0.500-   5 2.49   6 2.49   7 2.49   8 2.49  18 2.49  20 2.49  22 2.49  24 2.49
                            25 2.49  26 2.49  29 2.49  30 2.49
  15  0.250  0.750  0.500-   5 2.49   6 2.49   7 2.49   8 2.49  17 2.49  19 2.49  21 2.49  23 2.49
                            27 2.49  28 2.49  31 2.49  32 2.49
  16  0.750  0.750  0.500-   5 2.49   6 2.49   7 2.49   8 2.49  18 2.49  20 2.49  22 2.49  24 2.49
                            27 2.49  28 2.49  31 2.49  32 2.49
  17  0.250  0.000  0.250-   1 2.49   2 2.49   5 2.49   6 2.49   9 2.49  11 2.49  13 2.49  15 2.49
                            25 2.49  26 2.49  27 2.49  28 2.49
  18  0.750  0.000  0.250-   2 2.49   5 2.49   6 2.49  10 2.49  12 2.49  14 2.49  16 2.49  25 2.49
                            26 2.49  27 2.49  28 2.49   1 2.50
  19  0.250  0.500  0.250-   3 2.49   4 2.49   7 2.49   8 2.49   9 2.49  11 2.49  13 2.49  15 2.49
                            25 2.49  26 2.49  27 2.49  28 2.49
  20  0.750  0.500  0.250-   3 2.49   4 2.49   7 2.49   8 2.49  10 2.49  12 2.49  14 2.49  16 2.49
                            25 2.49  26 2.49  27 2.49  28 2.49
  21  0.250  0.000  0.750-   1 2.49   2 2.49   5 2.49   6 2.49   9 2.49  11 2.49  13 2.49  15 2.49
                            29 2.49  30 2.49  31 2.49  32 2.49
  22  0.750  0.000  0.750-   2 2.49   5 2.49   6 2.49  10 2.49  12 2.49  14 2.49  16 2.49  29 2.49
                            30 2.49  31 2.49  32 2.49   1 2.50
  23  0.250  0.500  0.750-   3 2.49   4 2.49   7 2.49   8 2.49   9 2.49  11 2.49  13 2.49  15 2.49
                            29 2.49  30 2.49  31 2.49  32 2.49
  24  0.750  0.500  0.750-   3 2.49   4 2.49   7 2.49   8 2.49  10 2.49  12 2.49  14 2.49  16 2.49
                            29 2.49  30 2.49  31 2.49  32 2.49
  25  0.000  0.250  0.250-   3 2.49   5 2.49   7 2.49   9 2.49  10 2.49  13 2.49  14 2.49  17 2.49
                            18 2.49  19 2.49  20 2.49   1 2.49
  26  0.500  0.250  0.250-   2 2.49   4 2.49   6 2.49   8 2.49   9 2.49  10 2.49  13 2.49  14 2.49
                            17 2.49  18 2.49  19 2.49  20 2.49
  27  0.000  0.750  0.250-   3 2.49   5 2.49   7 2.49  11 2.49  12 2.49  15 2.49  16 2.49  17 2.49
                            18 2.49  19 2.49  20 2.49   1 2.49
  28  0.500  0.750  0.250-   2 2.49   4 2.49   6 2.49   8 2.49  11 2.49  12 2.49  15 2.49  16 2.49
                            17 2.49  18 2.49  19 2.49  20 2.49
  29  0.000  0.250  0.750-   3 2.49   5 2.49   7 2.49   9 2.49  10 2.49  13 2.49  14 2.49  21 2.49
                            22 2.49  23 2.49  24 2.49   1 2.49
  30  0.500  0.250  0.750-   2 2.49   4 2.49   6 2.49   8 2.49   9 2.49  10 2.49  13 2.49  14 2.49
                            21 2.49  22 2.49  23 2.49  24 2.49
  31  0.000  0.750  0.750-   3 2.49   5 2.49   7 2.49  11 2.49  12 2.49  15 2.49  16 2.49  21 2.49
                            22 2.49  23 2.49  24 2.49   1 2.49
  32  0.500  0.750  0.750-   2 2.49   4 2.49   6 2.49   8 2.49  11 2.49  12 2.49  15 2.49  16 2.49
                            21 2.49  22 2.49  23 2.49  24 2.49
 
  LATTYP: Found a simple cubic cell.
 ALAT       =     7.0546466748
  
  Lattice vectors:
  
 A1 = (   7.0546466748,   0.0000000000,   0.0000000000)
 A2 = (   0.0000000000,   7.0546466748,   0.0000000000)
 A3 = (   0.0000000000,   0.0000000000,   7.0546466748)
 Subroutine PRICEL returns:
 Original cell was already a primitive cell.
 

Analysis of symmetry for initial positions (statically):

 Routine SETGRP: Setting up the symmetry group for a 
 simple cubic supercell.


 Subroutine GETGRP returns: Found  8 space group operations
 (whereof  8 operations were pure point group operations)
 out of a pool of 48 trial point group operations.


The static configuration has the point symmetry C_4v.

Analysis of symmetry for dynamics (positions and initial velocities):

 Subroutine DYNSYM returns: Found  8 space group operations
 (whereof  8 operations were pure point group operations)
 out of a pool of  8 trial space group operations
 (whereof  8 operations were pure point group operations)
 and found also     1 'primitive' translations


The dynamic configuration has the point symmetry C_4v.
 
 
 KPOINTS: Automatic mesh                          

Automatic generation of k-mesh.
 
 Subroutine IBZKPT returns following result:
 ===========================================
 
 Found    196 irreducible k-points:
 
 Following reciprocal coordinates:
            Coordinates               Weight
  0.000000  0.000000  0.000000      1.000000
  0.083333  0.000000  0.000000      2.000000
  0.166667  0.000000  0.000000      2.000000
  0.250000  0.000000  0.000000      2.000000
  0.333333  0.000000  0.000000      2.000000
  0.416667  0.000000  0.000000      2.000000
  0.500000  0.000000  0.000000      1.000000
  0.000000  0.083333  0.000000      4.000000
  0.083333  0.083333  0.000000      8.000000
  0.166667  0.083333  0.000000      8.000000
  0.250000  0.083333  0.000000      8.000000
  0.333333  0.083333  0.000000      8.000000
  0.416667  0.083333  0.000000      8.000000
  0.500000  0.083333  0.000000      4.000000
  0.000000  0.166667  0.000000      4.000000
  0.083333  0.166667  0.000000      8.000000
  0.166667  0.166667  0.000000      8.000000
  0.250000  0.166667  0.000000      8.000000
  0.333333  0.166667  0.000000      8.000000
  0.416667  0.166667  0.000000      8.000000
  0.500000  0.166667  0.000000      4.000000
  0.000000  0.250000  0.000000      4.000000
  0.083333  0.250000  0.000000      8.000000
  0.166667  0.250000  0.000000      8.000000
  0.250000  0.250000  0.000000      8.000000
  0.333333  0.250000  0.000000      8.000000
  0.416667  0.250000  0.000000      8.000000
  0.500000  0.250000  0.000000      4.000000
  0.000000  0.333333  0.000000      4.000000
  0.083333  0.333333  0.000000      8.000000
  0.166667  0.333333  0.000000      8.000000
  0.250000  0.333333  0.000000      8.000000
  0.333333  0.333333  0.000000      8.000000
  0.416667  0.333333  0.000000      8.000000
  0.500000  0.333333  0.000000      4.000000
  0.000000  0.416667  0.000000      4.000000
  0.083333  0.416667  0.000000      8.000000
  0.166667  0.416667  0.000000      8.000000
  0.250000  0.416667  0.000000      8.000000
  0.333333  0.416667  0.000000      8.000000
  0.416667  0.416667  0.000000      8.000000
  0.500000  0.416667  0.000000      4.000000
  0.000000  0.500000  0.000000      2.000000
  0.083333  0.500000  0.000000      4.000000
  0.166667  0.500000  0.000000      4.000000
  0.250000  0.500000  0.000000      4.000000
  0.333333  0.500000  0.000000      4.000000
  0.416667  0.500000  0.000000      4.000000
  0.500000  0.500000  0.000000      2.000000
  0.000000  0.083333  0.083333      4.000000
  0.083333  0.083333  0.083333      8.000000
  0.166667  0.083333  0.083333      8.000000
  0.250000  0.083333  0.083333      8.000000
  0.333333  0.083333  0.083333      8.000000
  0.416667  0.083333  0.083333      8.000000
  0.500000  0.083333  0.083333      4.000000
  0.000000  0.166667  0.083333      8.000000
  0.083333  0.166667  0.083333     16.000000
  0.166667  0.166667  0.083333     16.000000
  0.250000  0.166667  0.083333     16.000000
  0.333333  0.166667  0.083333     16.000000
  0.416667  0.166667  0.083333     16.000000
  0.500000  0.166667  0.083333      8.000000
  0.000000  0.250000  0.083333      8.000000
  0.083333  0.250000  0.083333     16.000000
  0.166667  0.250000  0.083333     16.000000
  0.250000  0.250000  0.083333     16.000000
  0.333333  0.250000  0.083333     16.000000
  0.416667  0.250000  0.083333     16.000000
  0.500000  0.250000  0.083333      8.000000
  0.000000  0.333333  0.083333      8.000000
  0.083333  0.333333  0.083333     16.000000
  0.166667  0.333333  0.083333     16.000000
  0.250000  0.333333  0.083333     16.000000
  0.333333  0.333333  0.083333     16.000000
  0.416667  0.333333  0.083333     16.000000
  0.500000  0.333333  0.083333      8.000000
  0.000000  0.416667  0.083333      8.000000
  0.083333  0.416667  0.083333     16.000000
  0.166667  0.416667  0.083333     16.000000
  0.250000  0.416667  0.083333     16.000000
  0.333333  0.416667  0.083333     16.000000
  0.416667  0.416667  0.083333     16.000000
  0.500000  0.416667  0.083333      8.000000
  0.000000  0.500000  0.083333      4.000000
  0.083333  0.500000  0.083333      8.000000
  0.166667  0.500000  0.083333      8.000000
  0.250000  0.500000  0.083333      8.000000
  0.333333  0.500000  0.083333      8.000000
  0.416667  0.500000  0.083333      8.000000
  0.500000  0.500000  0.083333      4.000000
  0.000000  0.166667  0.166667      4.000000
  0.083333  0.166667  0.166667      8.000000
  0.166667  0.166667  0.166667      8.000000
  0.250000  0.166667  0.166667      8.000000
  0.333333  0.166667  0.166667      8.000000
  0.416667  0.166667  0.166667      8.000000
  0.500000  0.166667  0.166667      4.000000
  0.000000  0.250000  0.166667      8.000000
  0.083333  0.250000  0.166667     16.000000
  0.166667  0.250000  0.166667     16.000000
  0.250000  0.250000  0.166667     16.000000
  0.333333  0.250000  0.166667     16.000000
  0.416667  0.250000  0.166667     16.000000
  0.500000  0.250000  0.166667      8.000000
  0.000000  0.333333  0.166667      8.000000
  0.083333  0.333333  0.166667     16.000000
  0.166667  0.333333  0.166667     16.000000
  0.250000  0.333333  0.166667     16.000000
  0.333333  0.333333  0.166667     16.000000
  0.416667  0.333333  0.166667     16.000000
  0.500000  0.333333  0.166667      8.000000
  0.000000  0.416667  0.166667      8.000000
  0.083333  0.416667  0.166667     16.000000
  0.166667  0.416667  0.166667     16.000000
  0.250000  0.416667  0.166667     16.000000
  0.333333  0.416667  0.166667     16.000000
  0.416667  0.416667  0.166667     16.000000
  0.500000  0.416667  0.166667      8.000000
  0.000000  0.500000  0.166667      4.000000
  0.083333  0.500000  0.166667      8.000000
  0.166667  0.500000  0.166667      8.000000
  0.250000  0.500000  0.166667      8.000000
  0.333333  0.500000  0.166667      8.000000
  0.416667  0.500000  0.166667      8.000000
  0.500000  0.500000  0.166667      4.000000
  0.000000  0.250000  0.250000      4.000000
  0.083333  0.250000  0.250000      8.000000
  0.166667  0.250000  0.250000      8.000000
  0.250000  0.250000  0.250000      8.000000
  0.333333  0.250000  0.250000      8.000000
  0.416667  0.250000  0.250000      8.000000
  0.500000  0.250000  0.250000      4.000000
  0.000000  0.333333  0.250000      8.000000
  0.083333  0.333333  0.250000     16.000000
  0.166667  0.333333  0.250000     16.000000
  0.250000  0.333333  0.250000     16.000000
  0.333333  0.333333  0.250000     16.000000
  0.416667  0.333333  0.250000     16.000000
  0.500000  0.333333  0.250000      8.000000
  0.000000  0.416667  0.250000      8.000000
  0.083333  0.416667  0.250000     16.000000
  0.166667  0.416667  0.250000     16.000000
  0.250000  0.416667  0.250000     16.000000
  0.333333  0.416667  0.250000     16.000000
  0.416667  0.416667  0.250000     16.000000
  0.500000  0.416667  0.250000      8.000000
  0.000000  0.500000  0.250000      4.000000
  0.083333  0.500000  0.250000      8.000000
  0.166667  0.500000  0.250000      8.000000
  0.250000  0.500000  0.250000      8.000000
  0.333333  0.500000  0.250000      8.000000
  0.416667  0.500000  0.250000      8.000000
  0.500000  0.500000  0.250000      4.000000
  0.000000  0.333333  0.333333      4.000000
  0.083333  0.333333  0.333333      8.000000
  0.166667  0.333333  0.333333      8.000000
  0.250000  0.333333  0.333333      8.000000
  0.333333  0.333333  0.333333      8.000000
  0.416667  0.333333  0.333333      8.000000
  0.500000  0.333333  0.333333      4.000000
  0.000000  0.416667  0.333333      8.000000
  0.083333  0.416667  0.333333     16.000000
  0.166667  0.416667  0.333333     16.000000
  0.250000  0.416667  0.333333     16.000000
  0.333333  0.416667  0.333333     16.000000
  0.416667  0.416667  0.333333     16.000000
  0.500000  0.416667  0.333333      8.000000
  0.000000  0.500000  0.333333      4.000000
  0.083333  0.500000  0.333333      8.000000
  0.166667  0.500000  0.333333      8.000000
  0.250000  0.500000  0.333333      8.000000
  0.333333  0.500000  0.333333      8.000000
  0.416667  0.500000  0.333333      8.000000
  0.500000  0.500000  0.333333      4.000000
  0.000000  0.416667  0.416667      4.000000
  0.083333  0.416667  0.416667      8.000000
  0.166667  0.416667  0.416667      8.000000
  0.250000  0.416667  0.416667      8.000000
  0.333333  0.416667  0.416667      8.000000
  0.416667  0.416667  0.416667      8.000000
  0.500000  0.416667  0.416667      4.000000
  0.000000  0.500000  0.416667      4.000000
  0.083333  0.500000  0.416667      8.000000
  0.166667  0.500000  0.416667      8.000000
  0.250000  0.500000  0.416667      8.000000
  0.333333  0.500000  0.416667      8.000000
  0.416667  0.500000  0.416667      8.000000
  0.500000  0.500000  0.416667      4.000000
  0.000000  0.500000  0.500000      1.000000
  0.083333  0.500000  0.500000      2.000000
  0.166667  0.500000  0.500000      2.000000
  0.250000  0.500000  0.500000      2.000000
  0.333333  0.500000  0.500000      2.000000
  0.416667  0.500000  0.500000      2.000000
  0.500000  0.500000  0.500000      1.000000
 
 Following cartesian coordinates:
            Coordinates               Weight
  0.000000  0.000000  0.000000      1.000000
  0.011813  0.000000  0.000000      2.000000
  0.023625  0.000000  0.000000      2.000000
  0.035438  0.000000  0.000000      2.000000
  0.047250  0.000000  0.000000      2.000000
  0.059063  0.000000  0.000000      2.000000
  0.070875  0.000000  0.000000      1.000000
  0.000000  0.011813  0.000000      4.000000
  0.011813  0.011813  0.000000      8.000000
  0.023625  0.011813  0.000000      8.000000
  0.035438  0.011813  0.000000      8.000000
  0.047250  0.011813  0.000000      8.000000
  0.059063  0.011813  0.000000      8.000000
  0.070875  0.011813  0.000000      4.000000
  0.000000  0.023625  0.000000      4.000000
  0.011813  0.023625  0.000000      8.000000
  0.023625  0.023625  0.000000      8.000000
  0.035438  0.023625  0.000000      8.000000
  0.047250  0.023625  0.000000      8.000000
  0.059063  0.023625  0.000000      8.000000
  0.070875  0.023625  0.000000      4.000000
  0.000000  0.035438  0.000000      4.000000
  0.011813  0.035438  0.000000      8.000000
  0.023625  0.035438  0.000000      8.000000
  0.035438  0.035438  0.000000      8.000000
  0.047250  0.035438  0.000000      8.000000
  0.059063  0.035438  0.000000      8.000000
  0.070875  0.035438  0.000000      4.000000
  0.000000  0.047250  0.000000      4.000000
  0.011813  0.047250  0.000000      8.000000
  0.023625  0.047250  0.000000      8.000000
  0.035438  0.047250  0.000000      8.000000
  0.047250  0.047250  0.000000      8.000000
  0.059063  0.047250  0.000000      8.000000
  0.070875  0.047250  0.000000      4.000000
  0.000000  0.059063  0.000000      4.000000
  0.011813  0.059063  0.000000      8.000000
  0.023625  0.059063  0.000000      8.000000
  0.035438  0.059063  0.000000      8.000000
  0.047250  0.059063  0.000000      8.000000
  0.059063  0.059063  0.000000      8.000000
  0.070875  0.059063  0.000000      4.000000
  0.000000  0.070875  0.000000      2.000000
  0.011813  0.070875  0.000000      4.000000
  0.023625  0.070875  0.000000      4.000000
  0.035438  0.070875  0.000000      4.000000
  0.047250  0.070875  0.000000      4.000000
  0.059063  0.070875  0.000000      4.000000
  0.070875  0.070875  0.000000      2.000000
  0.000000  0.011813  0.011813      4.000000
  0.011813  0.011813  0.011813      8.000000
  0.023625  0.011813  0.011813      8.000000
  0.035438  0.011813  0.011813      8.000000
  0.047250  0.011813  0.011813      8.000000
  0.059063  0.011813  0.011813      8.000000
  0.070875  0.011813  0.011813      4.000000
  0.000000  0.023625  0.011813      8.000000
  0.011813  0.023625  0.011813     16.000000
  0.023625  0.023625  0.011813     16.000000
  0.035438  0.023625  0.011813     16.000000
  0.047250  0.023625  0.011813     16.000000
  0.059063  0.023625  0.011813     16.000000
  0.070875  0.023625  0.011813      8.000000
  0.000000  0.035438  0.011813      8.000000
  0.011813  0.035438  0.011813     16.000000
  0.023625  0.035438  0.011813     16.000000
  0.035438  0.035438  0.011813     16.000000
  0.047250  0.035438  0.011813     16.000000
  0.059063  0.035438  0.011813     16.000000
  0.070875  0.035438  0.011813      8.000000
  0.000000  0.047250  0.011813      8.000000
  0.011813  0.047250  0.011813     16.000000
  0.023625  0.047250  0.011813     16.000000
  0.035438  0.047250  0.011813     16.000000
  0.047250  0.047250  0.011813     16.000000
  0.059063  0.047250  0.011813     16.000000
  0.070875  0.047250  0.011813      8.000000
  0.000000  0.059063  0.011813      8.000000
  0.011813  0.059063  0.011813     16.000000
  0.023625  0.059063  0.011813     16.000000
  0.035438  0.059063  0.011813     16.000000
  0.047250  0.059063  0.011813     16.000000
  0.059063  0.059063  0.011813     16.000000
  0.070875  0.059063  0.011813      8.000000
  0.000000  0.070875  0.011813      4.000000
  0.011813  0.070875  0.011813      8.000000
  0.023625  0.070875  0.011813      8.000000
  0.035438  0.070875  0.011813      8.000000
  0.047250  0.070875  0.011813      8.000000
  0.059063  0.070875  0.011813      8.000000
  0.070875  0.070875  0.011813      4.000000
  0.000000  0.023625  0.023625      4.000000
  0.011813  0.023625  0.023625      8.000000
  0.023625  0.023625  0.023625      8.000000
  0.035438  0.023625  0.023625      8.000000
  0.047250  0.023625  0.023625      8.000000
  0.059063  0.023625  0.023625      8.000000
  0.070875  0.023625  0.023625      4.000000
  0.000000  0.035438  0.023625      8.000000
  0.011813  0.035438  0.023625     16.000000
  0.023625  0.035438  0.023625     16.000000
  0.035438  0.035438  0.023625     16.000000
  0.047250  0.035438  0.023625     16.000000
  0.059063  0.035438  0.023625     16.000000
  0.070875  0.035438  0.023625      8.000000
  0.000000  0.047250  0.023625      8.000000
  0.011813  0.047250  0.023625     16.000000
  0.023625  0.047250  0.023625     16.000000
  0.035438  0.047250  0.023625     16.000000
  0.047250  0.047250  0.023625     16.000000
  0.059063  0.047250  0.023625     16.000000
  0.070875  0.047250  0.023625      8.000000
  0.000000  0.059063  0.023625      8.000000
  0.011813  0.059063  0.023625     16.000000
  0.023625  0.059063  0.023625     16.000000
  0.035438  0.059063  0.023625     16.000000
  0.047250  0.059063  0.023625     16.000000
  0.059063  0.059063  0.023625     16.000000
  0.070875  0.059063  0.023625      8.000000
  0.000000  0.070875  0.023625      4.000000
  0.011813  0.070875  0.023625      8.000000
  0.023625  0.070875  0.023625      8.000000
  0.035438  0.070875  0.023625      8.000000
  0.047250  0.070875  0.023625      8.000000
  0.059063  0.070875  0.023625      8.000000
  0.070875  0.070875  0.023625      4.000000
  0.000000  0.035438  0.035438      4.000000
  0.011813  0.035438  0.035438      8.000000
  0.023625  0.035438  0.035438      8.000000
  0.035438  0.035438  0.035438      8.000000
  0.047250  0.035438  0.035438      8.000000
  0.059063  0.035438  0.035438      8.000000
  0.070875  0.035438  0.035438      4.000000
  0.000000  0.047250  0.035438      8.000000
  0.011813  0.047250  0.035438     16.000000
  0.023625  0.047250  0.035438     16.000000
  0.035438  0.047250  0.035438     16.000000
  0.047250  0.047250  0.035438     16.000000
  0.059063  0.047250  0.035438     16.000000
  0.070875  0.047250  0.035438      8.000000
  0.000000  0.059063  0.035438      8.000000
  0.011813  0.059063  0.035438     16.000000
  0.023625  0.059063  0.035438     16.000000
  0.035438  0.059063  0.035438     16.000000
  0.047250  0.059063  0.035438     16.000000
  0.059063  0.059063  0.035438     16.000000
  0.070875  0.059063  0.035438      8.000000
  0.000000  0.070875  0.035438      4.000000
  0.011813  0.070875  0.035438      8.000000
  0.023625  0.070875  0.035438      8.000000
  0.035438  0.070875  0.035438      8.000000
  0.047250  0.070875  0.035438      8.000000
  0.059063  0.070875  0.035438      8.000000
  0.070875  0.070875  0.035438      4.000000
  0.000000  0.047250  0.047250      4.000000
  0.011813  0.047250  0.047250      8.000000
  0.023625  0.047250  0.047250      8.000000
  0.035438  0.047250  0.047250      8.000000
  0.047250  0.047250  0.047250      8.000000
  0.059063  0.047250  0.047250      8.000000
  0.070875  0.047250  0.047250      4.000000
  0.000000  0.059063  0.047250      8.000000
  0.011813  0.059063  0.047250     16.000000
  0.023625  0.059063  0.047250     16.000000
  0.035438  0.059063  0.047250     16.000000
  0.047250  0.059063  0.047250     16.000000
  0.059063  0.059063  0.047250     16.000000
  0.070875  0.059063  0.047250      8.000000
  0.000000  0.070875  0.047250      4.000000
  0.011813  0.070875  0.047250      8.000000
  0.023625  0.070875  0.047250      8.000000
  0.035438  0.070875  0.047250      8.000000
  0.047250  0.070875  0.047250      8.000000
  0.059063  0.070875  0.047250      8.000000
  0.070875  0.070875  0.047250      4.000000
  0.000000  0.059063  0.059063      4.000000
  0.011813  0.059063  0.059063      8.000000
  0.023625  0.059063  0.059063      8.000000
  0.035438  0.059063  0.059063      8.000000
  0.047250  0.059063  0.059063      8.000000
  0.059063  0.059063  0.059063      8.000000
  0.070875  0.059063  0.059063      4.000000
  0.000000  0.070875  0.059063      4.000000
  0.011813  0.070875  0.059063      8.000000
  0.023625  0.070875  0.059063      8.000000
  0.035438  0.070875  0.059063      8.000000
  0.047250  0.070875  0.059063      8.000000
  0.059063  0.070875  0.059063      8.000000
  0.070875  0.070875  0.059063      4.000000
  0.000000  0.070875  0.070875      1.000000
  0.011813  0.070875  0.070875      2.000000
  0.023625  0.070875  0.070875      2.000000
  0.035438  0.070875  0.070875      2.000000
  0.047250  0.070875  0.070875      2.000000
  0.059063  0.070875  0.070875      2.000000
  0.070875  0.070875  0.070875      1.000000
 


--------------------------------------------------------------------------------------------------------




 Dimension of arrays:
   k-Points           NKPTS =    196   number of bands    NBANDS=    212
   number of dos      NEDOS =    301   number of ions     NIONS =     32
   non local maximal  LDIM  =      6   non local SUM 2l+1 LMDIM =     18
   total plane-waves  NPLWV = 262144
   max r-space proj   IRMAX =      1   max aug-charges    IRDMAX= 209814
   dimension x,y,z NGX =    64 NGY =   64 NGZ =   64
   dimension x,y,z NGXF=   128 NGYF=  128 NGZF=  128
   support grid    NGXF=   256 NGYF=  256 NGZF=  256
   ions per type =              32
 NGX,Y,Z   is equivalent  to a cutoff of  15.08, 15.08, 15.08 a.u.
 NGXF,Y,Z  is equivalent  to a cutoff of  30.16, 30.16, 30.16 a.u.


 I would recommend the setting:
   dimension x,y,z NGX =    63 NGY =   63 NGZ =   63
 SYSTEM =  unknown system                          
 POSCAR =  Cu                                      

 Startparameter for this run:
   NWRITE =      2    write-flag & timer
   PREC   = accura    medium, high low
   ISTART =      0    job   : 0-new  1-cont  2-samecut
   ICHARG =      2    charge: 1-file 2-atom 10-const
   ISPIN  =      1    spin polarized calculation?
   LNONCOLLINEAR =      F non collinear calculations
   LSORBIT =      F    spin-orbit coupling
   INIWAV =      1    electr: 0-lowe 1-rand  2-diag
   LASPH  =      F    aspherical Exc in radial PAW
   METAGGA=      F    non-selfconsistent MetaGGA calc.

 Electronic Relaxation 1
   ENCUT  =  750.0 eV  55.12 Ry    7.42 a.u.  15.75 15.75 15.75*2*pi/ulx,y,z
   ENINI  =  750.0     initial cutoff
   ENAUG  =  516.5 eV  augmentation charge cutoff
   NELM   =     60;   NELMIN=  2; NELMDL=  0     # of ELM steps 
   EDIFF  = 0.1E-07   stopping-criterion for ELM
   LREAL  =      F    real-space projection
   LCOMPAT=      F    compatible to vasp.4.4
   LREAL_COMPAT= F    compatible to vasp.4.5.1-3
   GGA_COMPAT  = T    GGA compatible to vasp.4.4-vasp.4.6
   LMAXPAW     = -100 max onsite density
   LMAXMIX     =    2 max onsite mixed and CHGCAR
   VOSKOWN=      0    Vosko Wilk Nusair interpolation
   ROPT   =    0.00000
 Ionic relaxation
   EDIFFG = 0.1E-06   stopping-criterion for IOM
   NSW    =      0    number of steps for IOM
   NBLOCK =      1;   KBLOCK =      1    inner block; outer block 
   IBRION =     -1    ionic relax: 0-MD 1-quasi-New 2-CG
   NFREE  =      0    steps in history (QN), initial steepest desc. (CG)
   ISIF   =      2    stress and relaxation
   IWAVPR =     10    prediction:  0-non 1-charg 2-wave 3-comb
   ISYM   =      2    0-nonsym 1-usesym 2-fastsym
   LCORR  =      T    Harris-Foulkes like correction to forces

   POTIM  =   0.50    time-step for ionic-motion
   TEIN   =    0.0    initial temperature
   TEBEG  =    0.0;   TEEND  =   0.0 temperature during run
   SMASS  =  -3.00    Nose mass-parameter (am)
   estimated Nose-frequenzy (Omega)   =  0.10E-29 period in steps =****** mass=  -0.114E-26a.u.
   NPACO  =    256;   APACO  = 16.0  distance and # of slots for P.C.
   PSTRESS=    0.0 pullay stress

  Mass of Ions in am
   POMASS =  63.55
  Ionic Valenz
   ZVAL   =  11.00
  Atomic Wigner-Seitz radii
   RWIGS  =  -1.00
   NELECT =     352.0000    total number of electrons
   NUPDOWN=      -1.0000    fix difference up-down

 DOS related values:
   EMIN   =  10.00;   EMAX   =-10.00  energy-range for DOS
   ISMEAR =     0;   SIGMA  =   0.01  broadening in eV -4-tet -1-fermi 0-gaus

 Electronic relaxation 2 (details)
   IALGO  =     38    algorithm
   LDIAG  =      T    sub-space diagonalisation
   IMIX   =      4    mixing-type and parameters
     AMIX     =   0.40;   BMIX     =  1.00
     AMIX_MAG =   1.60;   BMIX_MAG =  1.00
     AMIN     =   0.10
     WC   =   100.;   INIMIX=   1;  MIXPRE=   1

 Intra band minimization:
   WEIMIN = 0.0000     energy-eigenvalue tresh-hold
   EBREAK =  0.12E-10  absolut break condition
   DEPER  =   0.30     relativ break condition  

   TIME   =   0.10     timestep for ELM

  volume/ion in A,a.u.               =      10.97        74.04
  Fermi-wavevector in a.u.,eV,Ry     =   1.638503 36.527433  2.684691

 Second variation
   LSECVAR=     F    do a second variation
 
 Write flags
   LWAVE  =      F    write WAVECAR
   LCHARG =      F    write CHGCAR
   LVTOT  =      F    write LOCPOT, local potential
   LELF   =      F    write electronic localiz. function (ELF)
   LORBIT =      0    0 simple, 1 ext, 2 COOP (PROOUT)


 Dipole corrections
   IDIPOL =      0    1-x, 2-y, 3-z
   LDIPOL =      F    correct potential



--------------------------------------------------------------------------------------------------------


 Static calculation
 charge density will be updated during run
 non-spin polarized calculation
 Variant of blocked Davidson
 Davidson routine will perform the subspace rotation
 performe sub-space diagonalisation
    after iterative eigenvector-optimisation
 modified Broyden-mixing scheme, WC =      100.0
 initial mixing is a Kerker type mixing with AMIX =  0.4000 and BMIX =      1.0000
 Hartree-type preconditioning will be used
 using additional bands           36
 reciprocal scheme for non local part
 use partial core corrections
 calculate Harris-corrections to forces 
   (improved forces if not selfconsistent)
 use gradient corrections 
 use of overlap-Matrix (Vanderbilt PP)
 Gauss-broadening in eV      SIGMA  =   0.01


--------------------------------------------------------------------------------------------------------


  energy-cutoff  :      750.00
  volume of cell :      351.10
      direct lattice vectors                 reciprocal lattice vectors
     7.054646675  0.000000000  0.000000000     0.141750543  0.000000000  0.000000000
     0.000000000  7.054646675  0.000000000     0.000000000  0.141750543  0.000000000
     0.000000000  0.000000000  7.054646675     0.000000000  0.000000000  0.141750543

  length of vectors
     7.054646675  7.054646675  7.054646675     0.141750543  0.141750543  0.141750543


 
 k-points in units of 2pi/SCALE and weight: Automatic mesh                          
   0.00000000  0.00000000  0.00000000       0.001
   0.01181255  0.00000000  0.00000000       0.001
   0.02362509  0.00000000  0.00000000       0.001
   0.03543764  0.00000000  0.00000000       0.001
   0.04725018  0.00000000  0.00000000       0.001
   0.05906273  0.00000000  0.00000000       0.001
   0.07087527  0.00000000  0.00000000       0.001
   0.00000000  0.01181255  0.00000000       0.002
   0.01181255  0.01181255  0.00000000       0.005
   0.02362509  0.01181255  0.00000000       0.005
   0.03543764  0.01181255  0.00000000       0.005
   0.04725018  0.01181255  0.00000000       0.005
   0.05906273  0.01181255  0.00000000       0.005
   0.07087527  0.01181255  0.00000000       0.002
   0.00000000  0.02362509  0.00000000       0.002
   0.01181255  0.02362509  0.00000000       0.005
   0.02362509  0.02362509  0.00000000       0.005
   0.03543764  0.02362509  0.00000000       0.005
   0.04725018  0.02362509  0.00000000       0.005
   0.05906273  0.02362509  0.00000000       0.005
   0.07087527  0.02362509  0.00000000       0.002
   0.00000000  0.03543764  0.00000000       0.002
   0.01181255  0.03543764  0.00000000       0.005
   0.02362509  0.03543764  0.00000000       0.005
   0.03543764  0.03543764  0.00000000       0.005
   0.04725018  0.03543764  0.00000000       0.005
   0.05906273  0.03543764  0.00000000       0.005
   0.07087527  0.03543764  0.00000000       0.002
   0.00000000  0.04725018  0.00000000       0.002
   0.01181255  0.04725018  0.00000000       0.005
   0.02362509  0.04725018  0.00000000       0.005
   0.03543764  0.04725018  0.00000000       0.005
   0.04725018  0.04725018  0.00000000       0.005
   0.05906273  0.04725018  0.00000000       0.005
   0.07087527  0.04725018  0.00000000       0.002
   0.00000000  0.05906273  0.00000000       0.002
   0.01181255  0.05906273  0.00000000       0.005
   0.02362509  0.05906273  0.00000000       0.005
   0.03543764  0.05906273  0.00000000       0.005
   0.04725018  0.05906273  0.00000000       0.005
   0.05906273  0.05906273  0.00000000       0.005
   0.07087527  0.05906273  0.00000000       0.002
   0.00000000  0.07087527  0.00000000       0.001
   0.01181255  0.07087527  0.00000000       0.002
   0.02362509  0.07087527  0.00000000       0.002
   0.03543764  0.07087527  0.00000000       0.002
   0.04725018  0.07087527  0.00000000       0.002
   0.05906273  0.07087527  0.00000000       0.002
   0.07087527  0.07087527  0.00000000       0.001
   0.00000000  0.01181255  0.01181255       0.002
   0.01181255  0.01181255  0.01181255       0.005
   0.02362509  0.01181255  0.01181255       0.005
   0.03543764  0.01181255  0.01181255       0.005
   0.04725018  0.01181255  0.01181255       0.005
   0.05906273  0.01181255  0.01181255       0.005
   0.07087527  0.01181255  0.01181255       0.002
   0.00000000  0.02362509  0.01181255       0.005
   0.01181255  0.02362509  0.01181255       0.009
   0.02362509  0.02362509  0.01181255       0.009
   0.03543764  0.02362509  0.01181255       0.009
   0.04725018  0.02362509  0.01181255       0.009
   0.05906273  0.02362509  0.01181255       0.009
   0.07087527  0.02362509  0.01181255       0.005
   0.00000000  0.03543764  0.01181255       0.005
   0.01181255  0.03543764  0.01181255       0.009
   0.02362509  0.03543764  0.01181255       0.009
   0.03543764  0.03543764  0.01181255       0.009
   0.04725018  0.03543764  0.01181255       0.009
   0.05906273  0.03543764  0.01181255       0.009
   0.07087527  0.03543764  0.01181255       0.005
   0.00000000  0.04725018  0.01181255       0.005
   0.01181255  0.04725018  0.01181255       0.009
   0.02362509  0.04725018  0.01181255       0.009
   0.03543764  0.04725018  0.01181255       0.009
   0.04725018  0.04725018  0.01181255       0.009
   0.05906273  0.04725018  0.01181255       0.009
   0.07087527  0.04725018  0.01181255       0.005
   0.00000000  0.05906273  0.01181255       0.005
   0.01181255  0.05906273  0.01181255       0.009
   0.02362509  0.05906273  0.01181255       0.009
   0.03543764  0.05906273  0.01181255       0.009
   0.04725018  0.05906273  0.01181255       0.009
   0.05906273  0.05906273  0.01181255       0.009
   0.07087527  0.05906273  0.01181255       0.005
   0.00000000  0.07087527  0.01181255       0.002
   0.01181255  0.07087527  0.01181255       0.005
   0.02362509  0.07087527  0.01181255       0.005
   0.03543764  0.07087527  0.01181255       0.005
   0.04725018  0.07087527  0.01181255       0.005
   0.05906273  0.07087527  0.01181255       0.005
   0.07087527  0.07087527  0.01181255       0.002
   0.00000000  0.02362509  0.02362509       0.002
   0.01181255  0.02362509  0.02362509       0.005
   0.02362509  0.02362509  0.02362509       0.005
   0.03543764  0.02362509  0.02362509       0.005
   0.04725018  0.02362509  0.02362509       0.005
   0.05906273  0.02362509  0.02362509       0.005
   0.07087527  0.02362509  0.02362509       0.002
   0.00000000  0.03543764  0.02362509       0.005
   0.01181255  0.03543764  0.02362509       0.009
   0.02362509  0.03543764  0.02362509       0.009
   0.03543764  0.03543764  0.02362509       0.009
   0.04725018  0.03543764  0.02362509       0.009
   0.05906273  0.03543764  0.02362509       0.009
   0.07087527  0.03543764  0.02362509       0.005
   0.00000000  0.04725018  0.02362509       0.005
   0.01181255  0.04725018  0.02362509       0.009
   0.02362509  0.04725018  0.02362509       0.009
   0.03543764  0.04725018  0.02362509       0.009
   0.04725018  0.04725018  0.02362509       0.009
   0.05906273  0.04725018  0.02362509       0.009
   0.07087527  0.04725018  0.02362509       0.005
   0.00000000  0.05906273  0.02362509       0.005
   0.01181255  0.05906273  0.02362509       0.009
   0.02362509  0.05906273  0.02362509       0.009
   0.03543764  0.05906273  0.02362509       0.009
   0.04725018  0.05906273  0.02362509       0.009
   0.05906273  0.05906273  0.02362509       0.009
   0.07087527  0.05906273  0.02362509       0.005
   0.00000000  0.07087527  0.02362509       0.002
   0.01181255  0.07087527  0.02362509       0.005
   0.02362509  0.07087527  0.02362509       0.005
   0.03543764  0.07087527  0.02362509       0.005
   0.04725018  0.07087527  0.02362509       0.005
   0.05906273  0.07087527  0.02362509       0.005
   0.07087527  0.07087527  0.02362509       0.002
   0.00000000  0.03543764  0.03543764       0.002
   0.01181255  0.03543764  0.03543764       0.005
   0.02362509  0.03543764  0.03543764       0.005
   0.03543764  0.03543764  0.03543764       0.005
   0.04725018  0.03543764  0.03543764       0.005
   0.05906273  0.03543764  0.03543764       0.005
   0.07087527  0.03543764  0.03543764       0.002
   0.00000000  0.04725018  0.03543764       0.005
   0.01181255  0.04725018  0.03543764       0.009
   0.02362509  0.04725018  0.03543764       0.009
   0.03543764  0.04725018  0.03543764       0.009
   0.04725018  0.04725018  0.03543764       0.009
   0.05906273  0.04725018  0.03543764       0.009
   0.07087527  0.04725018  0.03543764       0.005
   0.00000000  0.05906273  0.03543764       0.005
   0.01181255  0.05906273  0.03543764       0.009
   0.02362509  0.05906273  0.03543764       0.009
   0.03543764  0.05906273  0.03543764       0.009
   0.04725018  0.05906273  0.03543764       0.009
   0.05906273  0.05906273  0.03543764       0.009
   0.07087527  0.05906273  0.03543764       0.005
   0.00000000  0.07087527  0.03543764       0.002
   0.01181255  0.07087527  0.03543764       0.005
   0.02362509  0.07087527  0.03543764       0.005
   0.03543764  0.07087527  0.03543764       0.005
   0.04725018  0.07087527  0.03543764       0.005
   0.05906273  0.07087527  0.03543764       0.005
   0.07087527  0.07087527  0.03543764       0.002
   0.00000000  0.04725018  0.04725018       0.002
   0.01181255  0.04725018  0.04725018       0.005
   0.02362509  0.04725018  0.04725018       0.005
   0.03543764  0.04725018  0.04725018       0.005
   0.04725018  0.04725018  0.04725018       0.005
   0.05906273  0.04725018  0.04725018       0.005
   0.07087527  0.04725018  0.04725018       0.002
   0.00000000  0.05906273  0.04725018       0.005
   0.01181255  0.05906273  0.04725018       0.009
   0.02362509  0.05906273  0.04725018       0.009
   0.03543764  0.05906273  0.04725018       0.009
   0.04725018  0.05906273  0.04725018       0.009
   0.05906273  0.05906273  0.04725018       0.009
   0.07087527  0.05906273  0.04725018       0.005
   0.00000000  0.07087527  0.04725018       0.002
   0.01181255  0.07087527  0.04725018       0.005
   0.02362509  0.07087527  0.04725018       0.005
   0.03543764  0.07087527  0.04725018       0.005
   0.04725018  0.07087527  0.04725018       0.005
   0.05906273  0.07087527  0.04725018       0.005
   0.07087527  0.07087527  0.04725018       0.002
   0.00000000  0.05906273  0.05906273       0.002
   0.01181255  0.05906273  0.05906273       0.005
   0.02362509  0.05906273  0.05906273       0.005
   0.03543764  0.05906273  0.05906273       0.005
   0.04725018  0.05906273  0.05906273       0.005
   0.05906273  0.05906273  0.05906273       0.005
   0.07087527  0.05906273  0.05906273       0.002
   0.00000000  0.07087527  0.05906273       0.002
   0.01181255  0.07087527  0.05906273       0.005
   0.02362509  0.07087527  0.05906273       0.005
   0.03543764  0.07087527  0.05906273       0.005
   0.04725018  0.07087527  0.05906273       0.005
   0.05906273  0.07087527  0.05906273       0.005
   0.07087527  0.07087527  0.05906273       0.002
   0.00000000  0.07087527  0.07087527       0.001
   0.01181255  0.07087527  0.07087527       0.001
   0.02362509  0.07087527  0.07087527       0.001
   0.03543764  0.07087527  0.07087527       0.001
   0.04725018  0.07087527  0.07087527       0.001
   0.05906273  0.07087527  0.07087527       0.001
   0.07087527  0.07087527  0.07087527       0.001
 
 k-points in reciprocal lattice and weights: Automatic mesh                          
   0.00000000  0.00000000  0.00000000       0.001
   0.08333333  0.00000000  0.00000000       0.001
   0.16666667  0.00000000  0.00000000       0.001
   0.25000000  0.00000000  0.00000000       0.001
   0.33333333  0.00000000  0.00000000       0.001
   0.41666667  0.00000000  0.00000000       0.001
   0.50000000  0.00000000  0.00000000       0.001
   0.00000000  0.08333333  0.00000000       0.002
   0.08333333  0.08333333  0.00000000       0.005
   0.16666667  0.08333333  0.00000000       0.005
   0.25000000  0.08333333  0.00000000       0.005
   0.33333333  0.08333333  0.00000000       0.005
   0.41666667  0.08333333  0.00000000       0.005
   0.50000000  0.08333333  0.00000000       0.002
   0.00000000  0.16666667  0.00000000       0.002
   0.08333333  0.16666667  0.00000000       0.005
   0.16666667  0.16666667  0.00000000       0.005
   0.25000000  0.16666667  0.00000000       0.005
   0.33333333  0.16666667  0.00000000       0.005
   0.41666667  0.16666667  0.00000000       0.005
   0.50000000  0.16666667  0.00000000       0.002
   0.00000000  0.25000000  0.00000000       0.002
   0.08333333  0.25000000  0.00000000       0.005
   0.16666667  0.25000000  0.00000000       0.005
   0.25000000  0.25000000  0.00000000       0.005
   0.33333333  0.25000000  0.00000000       0.005
   0.41666667  0.25000000  0.00000000       0.005
   0.50000000  0.25000000  0.00000000       0.002
   0.00000000  0.33333333  0.00000000       0.002
   0.08333333  0.33333333  0.00000000       0.005
   0.16666667  0.33333333  0.00000000       0.005
   0.25000000  0.33333333  0.00000000       0.005
   0.33333333  0.33333333  0.00000000       0.005
   0.41666667  0.33333333  0.00000000       0.005
   0.50000000  0.33333333  0.00000000       0.002
   0.00000000  0.41666667  0.00000000       0.002
   0.08333333  0.41666667  0.00000000       0.005
   0.16666667  0.41666667  0.00000000       0.005
   0.25000000  0.41666667  0.00000000       0.005
   0.33333333  0.41666667  0.00000000       0.005
   0.41666667  0.41666667  0.00000000       0.005
   0.50000000  0.41666667  0.00000000       0.002
   0.00000000  0.50000000  0.00000000       0.001
   0.08333333  0.50000000  0.00000000       0.002
   0.16666667  0.50000000  0.00000000       0.002
   0.25000000  0.50000000  0.00000000       0.002
   0.33333333  0.50000000  0.00000000       0.002
   0.41666667  0.50000000  0.00000000       0.002
   0.50000000  0.50000000  0.00000000       0.001
   0.00000000  0.08333333  0.08333333       0.002
   0.08333333  0.08333333  0.08333333       0.005
   0.16666667  0.08333333  0.08333333       0.005
   0.25000000  0.08333333  0.08333333       0.005
   0.33333333  0.08333333  0.08333333       0.005
   0.41666667  0.08333333  0.08333333       0.005
   0.50000000  0.08333333  0.08333333       0.002
   0.00000000  0.16666667  0.08333333       0.005
   0.08333333  0.16666667  0.08333333       0.009
   0.16666667  0.16666667  0.08333333       0.009
   0.25000000  0.16666667  0.08333333       0.009
   0.33333333  0.16666667  0.08333333       0.009
   0.41666667  0.16666667  0.08333333       0.009
   0.50000000  0.16666667  0.08333333       0.005
   0.00000000  0.25000000  0.08333333       0.005
   0.08333333  0.25000000  0.08333333       0.009
   0.16666667  0.25000000  0.08333333       0.009
   0.25000000  0.25000000  0.08333333       0.009
   0.33333333  0.25000000  0.08333333       0.009
   0.41666667  0.25000000  0.08333333       0.009
   0.50000000  0.25000000  0.08333333       0.005
   0.00000000  0.33333333  0.08333333       0.005
   0.08333333  0.33333333  0.08333333       0.009
   0.16666667  0.33333333  0.08333333       0.009
   0.25000000  0.33333333  0.08333333       0.009
   0.33333333  0.33333333  0.08333333       0.009
   0.41666667  0.33333333  0.08333333       0.009
   0.50000000  0.33333333  0.08333333       0.005
   0.00000000  0.41666667  0.08333333       0.005
   0.08333333  0.41666667  0.08333333       0.009
   0.16666667  0.41666667  0.08333333       0.009
   0.25000000  0.41666667  0.08333333       0.009
   0.33333333  0.41666667  0.08333333       0.009
   0.41666667  0.41666667  0.08333333       0.009
   0.50000000  0.41666667  0.08333333       0.005
   0.00000000  0.50000000  0.08333333       0.002
   0.08333333  0.50000000  0.08333333       0.005
   0.16666667  0.50000000  0.08333333       0.005
   0.25000000  0.50000000  0.08333333       0.005
   0.33333333  0.50000000  0.08333333       0.005
   0.41666667  0.50000000  0.08333333       0.005
   0.50000000  0.50000000  0.08333333       0.002
   0.00000000  0.16666667  0.16666667       0.002
   0.08333333  0.16666667  0.16666667       0.005
   0.16666667  0.16666667  0.16666667       0.005
   0.25000000  0.16666667  0.16666667       0.005
   0.33333333  0.16666667  0.16666667       0.005
   0.41666667  0.16666667  0.16666667       0.005
   0.50000000  0.16666667  0.16666667       0.002
   0.00000000  0.25000000  0.16666667       0.005
   0.08333333  0.25000000  0.16666667       0.009
   0.16666667  0.25000000  0.16666667       0.009
   0.25000000  0.25000000  0.16666667       0.009
   0.33333333  0.25000000  0.16666667       0.009
   0.41666667  0.25000000  0.16666667       0.009
   0.50000000  0.25000000  0.16666667       0.005
   0.00000000  0.33333333  0.16666667       0.005
   0.08333333  0.33333333  0.16666667       0.009
   0.16666667  0.33333333  0.16666667       0.009
   0.25000000  0.33333333  0.16666667       0.009
   0.33333333  0.33333333  0.16666667       0.009
   0.41666667  0.33333333  0.16666667       0.009
   0.50000000  0.33333333  0.16666667       0.005
   0.00000000  0.41666667  0.16666667       0.005
   0.08333333  0.41666667  0.16666667       0.009
   0.16666667  0.41666667  0.16666667       0.009
   0.25000000  0.41666667  0.16666667       0.009
   0.33333333  0.41666667  0.16666667       0.009
   0.41666667  0.41666667  0.16666667       0.009
   0.50000000  0.41666667  0.16666667       0.005
   0.00000000  0.50000000  0.16666667       0.002
   0.08333333  0.50000000  0.16666667       0.005
   0.16666667  0.50000000  0.16666667       0.005
   0.25000000  0.50000000  0.16666667       0.005
   0.33333333  0.50000000  0.16666667       0.005
   0.41666667  0.50000000  0.16666667       0.005
   0.50000000  0.50000000  0.16666667       0.002
   0.00000000  0.25000000  0.25000000       0.002
   0.08333333  0.25000000  0.25000000       0.005
   0.16666667  0.25000000  0.25000000       0.005
   0.25000000  0.25000000  0.25000000       0.005
   0.33333333  0.25000000  0.25000000       0.005
   0.41666667  0.25000000  0.25000000       0.005
   0.50000000  0.25000000  0.25000000       0.002
   0.00000000  0.33333333  0.25000000       0.005
   0.08333333  0.33333333  0.25000000       0.009
   0.16666667  0.33333333  0.25000000       0.009
   0.25000000  0.33333333  0.25000000       0.009
   0.33333333  0.33333333  0.25000000       0.009
   0.41666667  0.33333333  0.25000000       0.009
   0.50000000  0.33333333  0.25000000       0.005
   0.00000000  0.41666667  0.25000000       0.005
   0.08333333  0.41666667  0.25000000       0.009
   0.16666667  0.41666667  0.25000000       0.009
   0.25000000  0.41666667  0.25000000       0.009
   0.33333333  0.41666667  0.25000000       0.009
   0.41666667  0.41666667  0.25000000       0.009
   0.50000000  0.41666667  0.25000000       0.005
   0.00000000  0.50000000  0.25000000       0.002
   0.08333333  0.50000000  0.25000000       0.005
   0.16666667  0.50000000  0.25000000       0.005
   0.25000000  0.50000000  0.25000000       0.005
   0.33333333  0.50000000  0.25000000       0.005
   0.41666667  0.50000000  0.25000000       0.005
   0.50000000  0.50000000  0.25000000       0.002
   0.00000000  0.33333333  0.33333333       0.002
   0.08333333  0.33333333  0.33333333       0.005
   0.16666667  0.33333333  0.33333333       0.005
   0.25000000  0.33333333  0.33333333       0.005
   0.33333333  0.33333333  0.33333333       0.005
   0.41666667  0.33333333  0.33333333       0.005
   0.50000000  0.33333333  0.33333333       0.002
   0.00000000  0.41666667  0.33333333       0.005
   0.08333333  0.41666667  0.33333333       0.009
   0.16666667  0.41666667  0.33333333       0.009
   0.25000000  0.41666667  0.33333333       0.009
   0.33333333  0.41666667  0.33333333       0.009
   0.41666667  0.41666667  0.33333333       0.009
   0.50000000  0.41666667  0.33333333       0.005
   0.00000000  0.50000000  0.33333333       0.002
   0.08333333  0.50000000  0.33333333       0.005
   0.16666667  0.50000000  0.33333333       0.005
   0.25000000  0.50000000  0.33333333       0.005
   0.33333333  0.50000000  0.33333333       0.005
   0.41666667  0.50000000  0.33333333       0.005
   0.50000000  0.50000000  0.33333333       0.002
   0.00000000  0.41666667  0.41666667       0.002
   0.08333333  0.41666667  0.41666667       0.005
   0.16666667  0.41666667  0.41666667       0.005
   0.25000000  0.41666667  0.41666667       0.005
   0.33333333  0.41666667  0.41666667       0.005
   0.41666667  0.41666667  0.41666667       0.005
   0.50000000  0.41666667  0.41666667       0.002
   0.00000000  0.50000000  0.41666667       0.002
   0.08333333  0.50000000  0.41666667       0.005
   0.16666667  0.50000000  0.41666667       0.005
   0.25000000  0.50000000  0.41666667       0.005
   0.33333333  0.50000000  0.41666667       0.005
   0.41666667  0.50000000  0.41666667       0.005
   0.50000000  0.50000000  0.41666667       0.002
   0.00000000  0.50000000  0.50000000       0.001
   0.08333333  0.50000000  0.50000000       0.001
   0.16666667  0.50000000  0.50000000       0.001
   0.25000000  0.50000000  0.50000000       0.001
   0.33333333  0.50000000  0.50000000       0.001
   0.41666667  0.50000000  0.50000000       0.001
   0.50000000  0.50000000  0.50000000       0.001
 
 position of ions in fractional coordinates (direct lattice) 
   0.00141751  0.00000000  0.00000000
   0.50000000  0.00000000  0.00000000
   0.00000000  0.50000000  0.00000000
   0.50000000  0.50000000  0.00000000
   0.00000000  0.00000000  0.50000000
   0.50000000  0.00000000  0.50000000
   0.00000000  0.50000000  0.50000000
   0.50000000  0.50000000  0.50000000
   0.25000000  0.25000000  0.00000000
   0.75000000  0.25000000  0.00000000
   0.25000000  0.75000000  0.00000000
   0.75000000  0.75000000  0.00000000
   0.25000000  0.25000000  0.50000000
   0.75000000  0.25000000  0.50000000
   0.25000000  0.75000000  0.50000000
   0.75000000  0.75000000  0.50000000
   0.25000000  0.00000000  0.25000000
   0.75000000  0.00000000  0.25000000
   0.25000000  0.50000000  0.25000000
   0.75000000  0.50000000  0.25000000
   0.25000000  0.00000000  0.75000000
   0.75000000  0.00000000  0.75000000
   0.25000000  0.50000000  0.75000000
   0.75000000  0.50000000  0.75000000
   0.00000000  0.25000000  0.25000000
   0.50000000  0.25000000  0.25000000
   0.00000000  0.75000000  0.25000000
   0.50000000  0.75000000  0.25000000
   0.00000000  0.25000000  0.75000000
   0.50000000  0.25000000  0.75000000
   0.00000000  0.75000000  0.75000000
   0.50000000  0.75000000  0.75000000
 
 position of ions in cartesian coordinates  (Angst):
   0.01000000  0.00000000  0.00000000
   3.52732334  0.00000000  0.00000000
   0.00000000  3.52732334  0.00000000
   3.52732334  3.52732334  0.00000000
   0.00000000  0.00000000  3.52732334
   3.52732334  0.00000000  3.52732334
   0.00000000  3.52732334  3.52732334
   3.52732334  3.52732334  3.52732334
   1.76366167  1.76366167  0.00000000
   5.29098501  1.76366167  0.00000000
   1.76366167  5.29098501  0.00000000
   5.29098501  5.29098501  0.00000000
   1.76366167  1.76366167  3.52732334
   5.29098501  1.76366167  3.52732334
   1.76366167  5.29098501  3.52732334
   5.29098501  5.29098501  3.52732334
   1.76366167  0.00000000  1.76366167
   5.29098501  0.00000000  1.76366167
   1.76366167  3.52732334  1.76366167
   5.29098501  3.52732334  1.76366167
   1.76366167  0.00000000  5.29098501
   5.29098501  0.00000000  5.29098501
   1.76366167  3.52732334  5.29098501
   5.29098501  3.52732334  5.29098501
   0.00000000  1.76366167  1.76366167
   3.52732334  1.76366167  1.76366167
   0.00000000  5.29098501  1.76366167
   3.52732334  5.29098501  1.76366167
   0.00000000  1.76366167  5.29098501
   3.52732334  1.76366167  5.29098501
   0.00000000  5.29098501  5.29098501
   3.52732334  5.29098501  5.29098501
 


--------------------------------------------------------------------------------------------------------


 k-point  1 :  0.00000.00000.0000  plane waves:  16375
 k-point  2 :  0.08330.00000.0000  plane waves:  16395
 k-point  3 :  0.16670.00000.0000  plane waves:  16395
 k-point  4 :  0.25000.00000.0000  plane waves:  16388
 k-point  5 :  0.33330.00000.0000  plane waves:  16392
 k-point  6 :  0.41670.00000.0000  plane waves:  16380
 k-point  7 :  0.50000.00000.0000  plane waves:  16384
 k-point  8 :  0.00000.08330.0000  plane waves:  16395
 k-point  9 :  0.08330.08330.0000  plane waves:  16381
 k-point 10 :  0.16670.08330.0000  plane waves:  16368
 k-point 11 :  0.25000.08330.0000  plane waves:  16361
 k-point 12 :  0.33330.08330.0000  plane waves:  16371
 k-point 13 :  0.41670.08330.0000  plane waves:  16365
 k-point 14 :  0.50000.08330.0000  plane waves:  16380
 k-point 15 :  0.00000.16670.0000  plane waves:  16395
 k-point 16 :  0.08330.16670.0000  plane waves:  16368
 k-point 17 :  0.16670.16670.0000  plane waves:  16382
 k-point 18 :  0.25000.16670.0000  plane waves:  16364
 k-point 19 :  0.33330.16670.0000  plane waves:  16385
 k-point 20 :  0.41670.16670.0000  plane waves:  16376
 k-point 21 :  0.50000.16670.0000  plane waves:  16372
 k-point 22 :  0.00000.25000.0000  plane waves:  16388
 k-point 23 :  0.08330.25000.0000  plane waves:  16361
 k-point 24 :  0.16670.25000.0000  plane waves:  16364
 k-point 25 :  0.25000.25000.0000  plane waves:  16382
 k-point 26 :  0.33330.25000.0000  plane waves:  16368
 k-point 27 :  0.41670.25000.0000  plane waves:  16369
 k-point 28 :  0.50000.25000.0000  plane waves:  16362
 k-point 29 :  0.00000.33330.0000  plane waves:  16392
 k-point 30 :  0.08330.33330.0000  plane waves:  16371
 k-point 31 :  0.16670.33330.0000  plane waves:  16385
 k-point 32 :  0.25000.33330.0000  plane waves:  16368
 k-point 33 :  0.33330.33330.0000  plane waves:  16368
 k-point 34 :  0.41670.33330.0000  plane waves:  16379
 k-point 35 :  0.50000.33330.0000  plane waves:  16386
 k-point 36 :  0.00000.41670.0000  plane waves:  16380
 k-point 37 :  0.08330.41670.0000  plane waves:  16365
 k-point 38 :  0.16670.41670.0000  plane waves:  16376
 k-point 39 :  0.25000.41670.0000  plane waves:  16369
 k-point 40 :  0.33330.41670.0000  plane waves:  16379
 k-point 41 :  0.41670.41670.0000  plane waves:  16384
 k-point 42 :  0.50000.41670.0000  plane waves:  16388
 k-point 43 :  0.00000.50000.0000  plane waves:  16384
 k-point 44 :  0.08330.50000.0000  plane waves:  16380
 k-point 45 :  0.16670.50000.0000  plane waves:  16372
 k-point 46 :  0.25000.50000.0000  plane waves:  16362
 k-point 47 :  0.33330.50000.0000  plane waves:  16386
 k-point 48 :  0.41670.50000.0000  plane waves:  16388
 k-point 49 :  0.50000.50000.0000  plane waves:  16420
 k-point 50 :  0.00000.08330.0833  plane waves:  16381
 k-point 51 :  0.08330.08330.0833  plane waves:  16393
 k-point 52 :  0.16670.08330.0833  plane waves:  16379
 k-point 53 :  0.25000.08330.0833  plane waves:  16369
 k-point 54 :  0.33330.08330.0833  plane waves:  16371
 k-point 55 :  0.41670.08330.0833  plane waves:  16370
 k-point 56 :  0.50000.08330.0833  plane waves:  16360
 k-point 57 :  0.00000.16670.0833  plane waves:  16368
 k-point 58 :  0.08330.16670.0833  plane waves:  16379
 k-point 59 :  0.16670.16670.0833  plane waves:  16367
 k-point 60 :  0.25000.16670.0833  plane waves:  16371
 k-point 61 :  0.33330.16670.0833  plane waves:  16381
 k-point 62 :  0.41670.16670.0833  plane waves:  16376
 k-point 63 :  0.50000.16670.0833  plane waves:  16374
 k-point 64 :  0.00000.25000.0833  plane waves:  16361
 k-point 65 :  0.08330.25000.0833  plane waves:  16369
 k-point 66 :  0.16670.25000.0833  plane waves:  16371
 k-point 67 :  0.25000.25000.0833  plane waves:  16375
 k-point 68 :  0.33330.25000.0833  plane waves:  16372
 k-point 69 :  0.41670.25000.0833  plane waves:  16381
 k-point 70 :  0.50000.25000.0833  plane waves:  16388
 k-point 71 :  0.00000.33330.0833  plane waves:  16371
 k-point 72 :  0.08330.33330.0833  plane waves:  16371
 k-point 73 :  0.16670.33330.0833  plane waves:  16381
 k-point 74 :  0.25000.33330.0833  plane waves:  16372
 k-point 75 :  0.33330.33330.0833  plane waves:  16396
 k-point 76 :  0.41670.33330.0833  plane waves:  16380
 k-point 77 :  0.50000.33330.0833  plane waves:  16372
 k-point 78 :  0.00000.41670.0833  plane waves:  16365
 k-point 79 :  0.08330.41670.0833  plane waves:  16370
 k-point 80 :  0.16670.41670.0833  plane waves:  16376
 k-point 81 :  0.25000.41670.0833  plane waves:  16381
 k-point 82 :  0.33330.41670.0833  plane waves:  16380
 k-point 83 :  0.41670.41670.0833  plane waves:  16377
 k-point 84 :  0.50000.41670.0833  plane waves:  16388
 k-point 85 :  0.00000.50000.0833  plane waves:  16380
 k-point 86 :  0.08330.50000.0833  plane waves:  16360
 k-point 87 :  0.16670.50000.0833  plane waves:  16374
 k-point 88 :  0.25000.50000.0833  plane waves:  16388
 k-point 89 :  0.33330.50000.0833  plane waves:  16372
 k-point 90 :  0.41670.50000.0833  plane waves:  16388
 k-point 91 :  0.50000.50000.0833  plane waves:  16392
 k-point 92 :  0.00000.16670.1667  plane waves:  16382
 k-point 93 :  0.08330.16670.1667  plane waves:  16367
 k-point 94 :  0.16670.16670.1667  plane waves:  16425
 k-point 95 :  0.25000.16670.1667  plane waves:  16378
 k-point 96 :  0.33330.16670.1667  plane waves:  16346
 k-point 97 :  0.41670.16670.1667  plane waves:  16375
 k-point 98 :  0.50000.16670.1667  plane waves:  16342
 k-point 99 :  0.00000.25000.1667  plane waves:  16364
 k-point ** :  0.08330.25000.1667  plane waves:  16371
 k-point ** :  0.16670.25000.1667  plane waves:  16378
 k-point ** :  0.25000.25000.1667  plane waves:  16388
 k-point ** :  0.33330.25000.1667  plane waves:  16366
 k-point ** :  0.41670.25000.1667  plane waves:  16379
 k-point ** :  0.50000.25000.1667  plane waves:  16368
 k-point ** :  0.00000.33330.1667  plane waves:  16385
 k-point ** :  0.08330.33330.1667  plane waves:  16381
 k-point ** :  0.16670.33330.1667  plane waves:  16346
 k-point ** :  0.25000.33330.1667  plane waves:  16366
 k-point ** :  0.33330.33330.1667  plane waves:  16366
 k-point ** :  0.41670.33330.1667  plane waves:  16379
 k-point ** :  0.50000.33330.1667  plane waves:  16376
 k-point ** :  0.00000.41670.1667  plane waves:  16376
 k-point ** :  0.08330.41670.1667  plane waves:  16376
 k-point ** :  0.16670.41670.1667  plane waves:  16375
 k-point ** :  0.25000.41670.1667  plane waves:  16379
 k-point ** :  0.33330.41670.1667  plane waves:  16379
 k-point ** :  0.41670.41670.1667  plane waves:  16370
 k-point ** :  0.50000.41670.1667  plane waves:  16370
 k-point ** :  0.00000.50000.1667  plane waves:  16372
 k-point ** :  0.08330.50000.1667  plane waves:  16374
 k-point ** :  0.16670.50000.1667  plane waves:  16342
 k-point ** :  0.25000.50000.1667  plane waves:  16368
 k-point ** :  0.33330.50000.1667  plane waves:  16376
 k-point ** :  0.41670.50000.1667  plane waves:  16370
 k-point ** :  0.50000.50000.1667  plane waves:  16384
 k-point ** :  0.00000.25000.2500  plane waves:  16382
 k-point ** :  0.08330.25000.2500  plane waves:  16375
 k-point ** :  0.16670.25000.2500  plane waves:  16388
 k-point ** :  0.25000.25000.2500  plane waves:  16317
 k-point ** :  0.33330.25000.2500  plane waves:  16366
 k-point ** :  0.41670.25000.2500  plane waves:  16375
 k-point ** :  0.50000.25000.2500  plane waves:  16350
 k-point ** :  0.00000.33330.2500  plane waves:  16368
 k-point ** :  0.08330.33330.2500  plane waves:  16372
 k-point ** :  0.16670.33330.2500  plane waves:  16366
 k-point ** :  0.25000.33330.2500  plane waves:  16366
 k-point ** :  0.33330.33330.2500  plane waves:  16372
 k-point ** :  0.41670.33330.2500  plane waves:  16359
 k-point ** :  0.50000.33330.2500  plane waves:  16366
 k-point ** :  0.00000.41670.2500  plane waves:  16369
 k-point ** :  0.08330.41670.2500  plane waves:  16381
 k-point ** :  0.16670.41670.2500  plane waves:  16379
 k-point ** :  0.25000.41670.2500  plane waves:  16375
 k-point ** :  0.33330.41670.2500  plane waves:  16359
 k-point ** :  0.41670.41670.2500  plane waves:  16368
 k-point ** :  0.50000.41670.2500  plane waves:  16392
 k-point ** :  0.00000.50000.2500  plane waves:  16362
 k-point ** :  0.08330.50000.2500  plane waves:  16388
 k-point ** :  0.16670.50000.2500  plane waves:  16368
 k-point ** :  0.25000.50000.2500  plane waves:  16350
 k-point ** :  0.33330.50000.2500  plane waves:  16366
 k-point ** :  0.41670.50000.2500  plane waves:  16392
 k-point ** :  0.50000.50000.2500  plane waves:  16420
 k-point ** :  0.00000.33330.3333  plane waves:  16368
 k-point ** :  0.08330.33330.3333  plane waves:  16396
 k-point ** :  0.16670.33330.3333  plane waves:  16366
 k-point ** :  0.25000.33330.3333  plane waves:  16372
 k-point ** :  0.33330.33330.3333  plane waves:  16374
 k-point ** :  0.41670.33330.3333  plane waves:  16378
 k-point ** :  0.50000.33330.3333  plane waves:  16404
 k-point ** :  0.00000.41670.3333  plane waves:  16379
 k-point ** :  0.08330.41670.3333  plane waves:  16380
 k-point ** :  0.16670.41670.3333  plane waves:  16379
 k-point ** :  0.25000.41670.3333  plane waves:  16359
 k-point ** :  0.33330.41670.3333  plane waves:  16378
 k-point ** :  0.41670.41670.3333  plane waves:  16379
 k-point ** :  0.50000.41670.3333  plane waves:  16380
 k-point ** :  0.00000.50000.3333  plane waves:  16386
 k-point ** :  0.08330.50000.3333  plane waves:  16372
 k-point ** :  0.16670.50000.3333  plane waves:  16376
 k-point ** :  0.25000.50000.3333  plane waves:  16366
 k-point ** :  0.33330.50000.3333  plane waves:  16404
 k-point ** :  0.41670.50000.3333  plane waves:  16380
 k-point ** :  0.50000.50000.3333  plane waves:  16392
 k-point ** :  0.00000.41670.4167  plane waves:  16384
 k-point ** :  0.08330.41670.4167  plane waves:  16377
 k-point ** :  0.16670.41670.4167  plane waves:  16370
 k-point ** :  0.25000.41670.4167  plane waves:  16368
 k-point ** :  0.33330.41670.4167  plane waves:  16379
 k-point ** :  0.41670.41670.4167  plane waves:  16359
 k-point ** :  0.50000.41670.4167  plane waves:  16398
 k-point ** :  0.00000.50000.4167  plane waves:  16388
 k-point ** :  0.08330.50000.4167  plane waves:  16388
 k-point ** :  0.16670.50000.4167  plane waves:  16370
 k-point ** :  0.25000.50000.4167  plane waves:  16392
 k-point ** :  0.33330.50000.4167  plane waves:  16380
 k-point ** :  0.41670.50000.4167  plane waves:  16398
 k-point ** :  0.50000.50000.4167  plane waves:  16384
 k-point ** :  0.00000.50000.5000  plane waves:  16420
 k-point ** :  0.08330.50000.5000  plane waves:  16392
 k-point ** :  0.16670.50000.5000  plane waves:  16384
 k-point ** :  0.25000.50000.5000  plane waves:  16420
 k-point ** :  0.33330.50000.5000  plane waves:  16392
 k-point ** :  0.41670.50000.5000  plane waves:  16384
 k-point ** :  0.50000.50000.5000  plane waves:  16368

 maximum and minimum number of plane-waves per node :  16425 16317

 maximum number of plane-waves:  16425
 maximal index in each direction: 
   IXMAX= 15   IYMAX= 15   IZMAX= 15
   IXMIN=-16   IYMIN=-16   IZMIN=-16

 NGX is ok and might be reduce to  64
 NGY is ok and might be reduce to  64
 NGZ is ok and might be reduce to  64

 parallel 3dFFT wavefunction:
    minimum data exchange during FFTs selected (reduces bandwidth)
 parallel 3dFFT charge:
    minimum data exchange during FFTs selected (reduces bandwidth)

 For storing wavefunctions ******* MBYTES are necessary
 For predicting wavefunctions  120.69 MBYTES are necessary
Broyden mixing: mesh for mixing (old mesh)
   NGX = 31   NGY = 31   NGZ = 31
  (NGX  =128   NGY  =128   NGZ  =128)
 gives a total of  29791 points
 initial charge density was supplied:
 charge density of overlapping atoms calculated
 number of electron  352.0000000 magnetization 
 keeping initial charge density in first step


--------------------------------------------------------------------------------------------------------


 Maximum index for augmentation-charges        50911 (set IRDMAX)


--------------------------------------------------------------------------------------------------------


 First call to EWALD:  gamma=   0.251
 Maximum number of real-space cells 3x 3x 3
 Maximum number of reciprocal cells 3x 3x 3

    FEWALD:  VPU time    0.01: CPU time    0.01


----------------------------------------- Iteration    1(   1)  ---------------------------------------


    POTLOK:  VPU time    0.78: CPU time    0.78
    SETDIJ:  VPU time    1.86: CPU time    1.86
    EDDAV :  VPU time 4885.19: CPU time 4888.50
    DOS   :  VPU time    0.00: CPU time   -0.00
    ------------------------------------------
      LOOP:  VPU time 4888.19: CPU time 4891.50

 eigenvalue-minimisations  : 83120
 total energy-change (2. order) : 0.4110694E+04  (-0.1863749E+05)
 number of electron  352.0000000 magnetization 
 augmentation part   352.0000000 magnetization 

 Free energy of the ion-electron system (eV)
  ---------------------------------------------------
  alpha Z        PSCENC =      3726.29784981
  Ewald energy   TEWEN  =    -36236.15384449
  -1/2 Hartree   DENC   =     -9983.75525859
  -V(xc)+E(xc)   XCENC  =      1411.79878277
  PAW double counting   =     34625.67335558   -39234.46421604
  entropy T*S    EENTRO =        -0.00014586
  eigenvalues    EBANDS =      5289.95739844
  atomic energy  EATOM  =     44511.34040493
  ---------------------------------------------------
  free energy    TOTEN  =      4110.69432655 eV

  energy without entropy =     4110.69447241  energy(sigma->0) =     4110.69439948


--------------------------------------------------------------------------------------------------------




----------------------------------------- Iteration    1(   2)  ---------------------------------------


    EDDAV :  VPU time 4874.28: CPU time 4877.50
    DOS   :  VPU time    0.00: CPU time   -0.00
    ------------------------------------------
      LOOP:  VPU time 4874.63: CPU time 4877.87

 eigenvalue-minimisations  : 83104
 total energy-change (2. order) :-0.3604986E+04  (-0.3469112E+04)
 number of electron  352.0000000 magnetization 
 augmentation part   352.0000000 magnetization 

 Free energy of the ion-electron system (eV)
  ---------------------------------------------------
  alpha Z        PSCENC =      3726.29784981
  Ewald energy   TEWEN  =    -36236.15384449
  -1/2 Hartree   DENC   =     -9983.75525859
  -V(xc)+E(xc)   XCENC  =      1411.79878277
  PAW double counting   =     34625.67335558   -39234.46421604
  entropy T*S    EENTRO =        -0.00034977
  eigenvalues    EBANDS =      1684.97133848
  atomic energy  EATOM  =     44511.34040493
  ---------------------------------------------------
  free energy    TOTEN  =       505.70806268 eV

  energy without entropy =      505.70841245  energy(sigma->0) =      505.70823756


--------------------------------------------------------------------------------------------------------




----------------------------------------- Iteration    1(   3)  ---------------------------------------


    EDDAV :  VPU time 4870.09: CPU time 4873.23
    DOS   :  VPU time   -0.00: CPU time   -0.00
    ------------------------------------------
      LOOP:  VPU time 4870.45: CPU time 4873.59

 eigenvalue-minimisations  : 83104
 total energy-change (2. order) :-0.6083116E+03  (-0.5621159E+03)
 number of electron  352.0000000 magnetization 
 augmentation part   352.0000000 magnetization 

 Free energy of the ion-electron system (eV)
  ---------------------------------------------------
  alpha Z        PSCENC =      3726.29784981
  Ewald energy   TEWEN  =    -36236.15384449
  -1/2 Hartree   DENC   =     -9983.75525859
  -V(xc)+E(xc)   XCENC  =      1411.79878277
  PAW double counting   =     34625.67335558   -39234.46421604
  entropy T*S    EENTRO =        -0.00046827
  eigenvalues    EBANDS =      1076.65984292
  atomic energy  EATOM  =     44511.34040493
  ---------------------------------------------------
  free energy    TOTEN  =      -102.60355139 eV

  energy without entropy =     -102.60308312  energy(sigma->0) =     -102.60331725


--------------------------------------------------------------------------------------------------------




----------------------------------------- Iteration    1(   4)  ---------------------------------------


    EDDAV :  VPU time 5046.07: CPU time 5049.44
    DOS   :  VPU time    0.00: CPU time   -0.00
    ------------------------------------------
      LOOP:  VPU time 5046.42: CPU time 5049.80

 eigenvalue-minimisations  : 86284
 total energy-change (2. order) :-0.4283646E+02  (-0.4140831E+02)
 number of electron  352.0000000 magnetization 
 augmentation part   352.0000000 magnetization 

 Free energy of the ion-electron system (eV)
  ---------------------------------------------------
  alpha Z        PSCENC =      3726.29784981
  Ewald energy   TEWEN  =    -36236.15384449
  -1/2 Hartree   DENC   =     -9983.75525859
  -V(xc)+E(xc)   XCENC  =      1411.79878277
  PAW double counting   =     34625.67335558   -39234.46421604
  entropy T*S    EENTRO =        -0.00077085
  eigenvalues    EBANDS =      1033.82368214
  atomic energy  EATOM  =     44511.34040493
  ---------------------------------------------------
  free energy    TOTEN  =      -145.44001475 eV

  energy without entropy =     -145.43924390  energy(sigma->0) =     -145.43962933


--------------------------------------------------------------------------------------------------------




----------------------------------------- Iteration    1(   5)  ---------------------------------------


    EDDAV :  VPU time 5143.07: CPU time 5146.54
    DOS   :  VPU time    0.00: CPU time   -0.00
    CHARGE:  VPU time  138.69: CPU time  138.79
    MIXING:  VPU time    0.02: CPU time    0.02
    ------------------------------------------
      LOOP:  VPU time 5282.14: CPU time 5285.71

 eigenvalue-minimisations  : 88096
 total energy-change (2. order) :-0.5233110E+00  (-0.5216353E+00)
 number of electron  352.0000011 magnetization 
 augmentation part   214.0026739 magnetization 

 Broyden mixing:
  rms(total) = 0.39908E+01    rms(broyden)= 0.39908E+01
  rms(prec ) = 0.59308E+01
  weight for this iteration     100.00

 Free energy of the ion-electron system (eV)
  ---------------------------------------------------
  alpha Z        PSCENC =      3726.29784981
  Ewald energy   TEWEN  =    -36236.15384449
  -1/2 Hartree   DENC   =     -9983.75525859
  -V(xc)+E(xc)   XCENC  =      1411.79878277
  PAW double counting   =     34625.67335558   -39234.46421604
  entropy T*S    EENTRO =        -0.00073257
  eigenvalues    EBANDS =      1033.30033284
  atomic energy  EATOM  =     44511.34040493
  ---------------------------------------------------
  free energy    TOTEN  =      -145.96332577 eV

  energy without entropy =     -145.96259320  energy(sigma->0) =     -145.96295948


--------------------------------------------------------------------------------------------------------




----------------------------------------- Iteration    1(   6)  ---------------------------------------


    POTLOK:  VPU time    0.77: CPU time    0.77
    SETDIJ:  VPU time    1.76: CPU time    1.76
    EDDAV :  VPU time 5220.46: CPU time 5224.04
    DOS   :  VPU time    0.00: CPU time   -0.00
    CHARGE:  VPU time  138.41: CPU time  138.51
    MIXING:  VPU time    0.02: CPU time    0.02
    ------------------------------------------
      LOOP:  VPU time 5361.77: CPU time 5365.47

 eigenvalue-minimisations  : 89448
 total energy-change (2. order) : 0.2035500E+02  (-0.2532893E+02)
 number of electron  352.0000013 magnetization 
 augmentation part   236.7690986 magnetization 

 Broyden mixing:
  rms(total) = 0.14904E+01    rms(broyden)= 0.14904E+01
  rms(prec ) = 0.20744E+01
  weight for this iteration     100.00

 eigenvalues of (default mixing * dielectric matrix)
  average eigenvalue GAMMA=   0.7312
  0.7312

 Free energy of the ion-electron system (eV)
  ---------------------------------------------------
  alpha Z        PSCENC =      3726.29784981
  Ewald energy   TEWEN  =    -36236.15384449
  -1/2 Hartree   DENC   =     -9212.00152606
  -V(xc)+E(xc)   XCENC  =      1372.21319844
  PAW double counting   =     34116.98305902   -38480.82188248
  entropy T*S    EENTRO =        -0.00065114
  eigenvalues    EBANDS =        76.53506926
  atomic energy  EATOM  =     44511.34040493
  ---------------------------------------------------
  free energy    TOTEN  =      -125.60832272 eV

  energy without entropy =     -125.60767158  energy(sigma->0) =     -125.60799715


--------------------------------------------------------------------------------------------------------




----------------------------------------- Iteration    1(   7)  ---------------------------------------


    POTLOK:  VPU time    0.77: CPU time    0.77
    SETDIJ:  VPU time    1.78: CPU time    1.78
    EDDAV :  VPU time 5346.46: CPU time 5350.13
    DOS   :  VPU time    0.00: CPU time   -0.00
    CHARGE:  VPU time  138.40: CPU time  138.50
    MIXING:  VPU time    0.02: CPU time    0.02
    ------------------------------------------
      LOOP:  VPU time 5487.79: CPU time 5491.58

 eigenvalue-minimisations  : 92212
 total energy-change (2. order) : 0.7715373E+01  (-0.4000635E+01)
 number of electron  352.0000012 magnetization 
 augmentation part   228.9781522 magnetization 

 Broyden mixing:
  rms(total) = 0.34351E+00    rms(broyden)= 0.34350E+00
  rms(prec ) = 0.52463E+00
  weight for this iteration     100.00

 eigenvalues of (default mixing * dielectric matrix)
  average eigenvalue GAMMA=   1.3138
  0.6768  1.9508

 Free energy of the ion-electron system (eV)
  ---------------------------------------------------
  alpha Z        PSCENC =      3726.29784981
  Ewald energy   TEWEN  =    -36236.15384449
  -1/2 Hartree   DENC   =     -9395.70438975
  -V(xc)+E(xc)   XCENC  =      1382.04668309
  PAW double counting   =     34808.88247917   -39358.13527532
  entropy T*S    EENTRO =        -0.00097204
  eigenvalues    EBANDS =       443.53411503
  atomic energy  EATOM  =     44511.34040493
[...]
     68       1.1839      2.00000
     69       1.1848      2.00000
     70       1.1859      2.00000
     71       1.1859      2.00000
     72       1.1859      2.00000
     73       1.1860      2.00000
     74       1.1860      2.00000
     75       1.1860      2.00000
     76       1.1861      2.00000
     77       1.1862      2.00000
     78       1.1862      2.00000
     79       1.1863      2.00000
     80       1.1863      2.00000
     81       1.1863      2.00000
     82       1.1863      2.00000
     83       1.1864      2.00000
     84       1.1874      2.00000
     85       1.1883      2.00000
     86       1.1887      2.00000
     87       1.1894      2.00000
     88       1.1894      2.00000
     89       1.3351      2.00000
     90       1.3351      2.00000
     91       1.3355      2.00000
     92       1.3358      2.00000
     93       1.3362      2.00000
     94       1.3362      2.00000
     95       1.3363      2.00000
     96       1.3363      2.00000
     97       1.3367      2.00000
     98       1.3367      2.00000
     99       1.3368      2.00000
    100       1.3369      2.00000
    101       1.3373      2.00000
    102       1.3375      2.00000
    103       1.3379      2.00000
    104       1.3379      2.00000
    105       1.8735      2.00000
    106       1.8745      2.00000
    107       1.8745      2.00000
    108       1.8764      2.00000
    109       1.8766      2.00000
    110       1.8766      2.00000
    111       1.8767      2.00000
    112       1.8768      2.00000
    113       1.8770      2.00000
    114       1.8770      2.00000
    115       1.8770      2.00000
    116       1.8771      2.00000
    117       1.8772      2.00000
    118       1.8772      2.00000
    119       1.8772      2.00000
    120       1.8772      2.00000
    121       1.8774      2.00000
    122       1.8776      2.00000
    123       1.8777      2.00000
    124       1.8777      2.00000
    125       1.8778      2.00000
    126       1.8797      2.00000
    127       1.8797      2.00000
    128       1.8807      2.00000
    129       2.1763      2.00000
    130       2.1777      2.00000
    131       2.1778      2.00000
    132       2.1778      2.00000
    133       2.1784      2.00000
    134       2.1784      2.00000
    135       2.1787      2.00000
    136       2.1788      2.00000
    137       2.1789      2.00000
    138       2.1790      2.00000
    139       2.1793      2.00000
    140       2.1793      2.00000
    141       2.1800      2.00000
    142       2.1800      2.00000
    143       2.1800      2.00000
    144       2.1814      2.00000
    145       2.7650      2.00000
    146       2.7650      2.00000
    147       2.7652      2.00000
    148       2.7652      2.00000
    149       2.7653      2.00000
    150       2.7653      2.00000
    151       2.7653      2.00000
    152       2.7654      2.00000
    153       2.7654      2.00000
    154       2.7655      2.00000
    155       2.7655      2.00000
    156       2.7656      2.00000
    157       2.7658      2.00000
    158       2.7658      2.00000
    159       2.7658      2.00000
    160       2.7659      2.00000
    161       2.7659      2.00000
    162       2.7660      2.00000
    163       2.7661      2.00000
    164       2.7661      2.00000
    165       2.7662      2.00000
    166       2.7662      2.00000
    167       2.7664      2.00000
    168       2.7664      2.00000
    169       5.4469      0.00000
    170       5.4489      0.00000
    171       5.4489      0.00000
    172       5.4521      0.00000
    173       5.4526      0.00000
    174       5.4526      0.00000
    175       5.4527      0.00000
    176       5.4527      0.00000
    177       5.4528      0.00000
    178       5.4529      0.00000
    179       5.4529      0.00000
    180       5.4529      0.00000
    181       5.4532      0.00000
    182       5.4532      0.00000
    183       5.4532      0.00000
    184       5.4533      0.00000
    185       5.4534      0.00000
    186       5.4534      0.00000
    187       5.4535      0.00000
    188       5.4535      0.00000
    189       5.4541      0.00000
    190       5.4572      0.00000
    191       5.4572      0.00000
    192       5.4592      0.00000
    193      11.5719      0.00000
    194      11.5720      0.00000
    195      11.5727      0.00000
    196      11.5779      0.00000
    197      11.5781      0.00000
    198      11.5783      0.00000
    199      11.5784      0.00000
    200      11.5787      0.00000
    201      11.5788      0.00000
    202      11.5788      0.00000
    203      11.5789      0.00000
    204      11.5790      0.00000
    205      11.5791      0.00000
    206      11.5791      0.00000
    207      11.5791      0.00000
    208      11.5794      0.00000
    209      11.5796      0.00000
    210      11.5797      0.00000
    211      11.5802      0.00000
    212      11.5832      0.00000


--------------------------------------------------------------------------------------------------------


 soft charge-density along one line, spin component           1
         0         1         2         3         4         5         6         7         8         9
 total charge-density along one line
 
 pseudopotential strength for first ion, spin component:           1
 -6.070   0.000  -0.000   0.000  -0.000  -0.423  -0.000   0.000
  0.000  -6.070  -0.000   0.000  -0.000  -0.000  -0.423   0.000
 -0.000  -0.000  -6.050  -0.000  -0.000   0.000   0.000  -0.432
  0.000   0.000  -0.000  -6.070   0.000  -0.000  -0.000   0.000
 -0.000  -0.000  -0.000   0.000  -6.050   0.000   0.000   0.000
 -0.423  -0.000   0.000  -0.000   0.000   1.758   0.000  -0.000
 -0.000  -0.423   0.000  -0.000   0.000   0.000   1.758  -0.000
  0.000   0.000  -0.432   0.000   0.000  -0.000  -0.000   1.762
 -0.000  -0.000   0.000  -0.423  -0.000   0.000   0.000  -0.000
  0.000   0.000   0.000  -0.000  -0.432  -0.000  -0.000  -0.000
 -0.000  -0.000   0.000  -0.000  -0.000  -0.000  -0.000  -0.000
  0.000   0.000  -0.000   0.000   0.000  -0.000  -0.000   0.000
  0.000  -0.000   0.000  -0.000   0.000   0.000   0.000   0.000
 -0.000  -0.000  -0.000   0.000  -0.000  -0.000   0.000   0.000
 -0.000  -0.000  -0.000  -0.000   0.000  -0.000  -0.000  -0.000
 -0.000  -0.000  -0.000   0.000   0.000   0.000  -0.000   0.000
  0.000   0.000  -0.000  -0.000   0.000  -0.000  -0.000   0.000
  0.000   0.000   0.000   0.000  -0.000  -0.000  -0.000   0.000
 total augmentation occupancy for first ion, spin component:           1
  1.914  -0.000  -0.003  -0.000  -0.001   0.008  -0.000   0.001   0.000   0.001   0.006   0.000   0.001   0.000  -0.000  -0.000
 -0.000   1.917  -0.001  -0.001  -0.003  -0.000   0.004   0.001   0.000   0.001   0.005   0.000   0.000   0.000  -0.000  -0.000
 -0.003  -0.001   1.929   0.000  -0.003   0.001   0.001  -0.047   0.001   0.003   0.013   0.003   0.000  -0.000  -0.000  -0.000
 -0.000  -0.001   0.000   1.920   0.001   0.000   0.000   0.001   0.000   0.000   0.004  -0.000   0.000   0.001  -0.000  -0.000
 -0.001  -0.003  -0.003   0.001   1.918   0.001   0.001   0.003   0.000  -0.038   0.008   0.002   0.000   0.000   0.000   0.000
  0.008  -0.000   0.001   0.000   0.001   0.096   0.000   0.001   0.000  -0.000  -0.002   0.001   0.001  -0.000   0.000  -0.000
 -0.000   0.004   0.001   0.000   0.001   0.000   0.100  -0.002  -0.000   0.001  -0.001   0.001   0.000  -0.000   0.000   0.000
  0.001   0.001  -0.047   0.001   0.003   0.001  -0.002   0.095  -0.001  -0.001  -0.009  -0.000   0.000   0.000  -0.000   0.000
  0.000   0.000   0.001   0.000   0.000   0.000  -0.000  -0.001   0.103  -0.002   0.000   0.001  -0.000   0.001   0.000   0.000
  0.001   0.001   0.003   0.000  -0.038  -0.000   0.001  -0.001  -0.002   0.092  -0.005  -0.000  -0.000  -0.000   0.001   0.000
  0.006   0.005   0.013   0.004   0.008  -0.002  -0.001  -0.009   0.000  -0.005   1.278  -0.402  -0.000  -0.000   0.004   0.000
  0.000   0.000   0.003  -0.000   0.002   0.001   0.001  -0.000   0.001  -0.000  -0.402   0.183   0.000   0.000  -0.001  -0.000
  0.001   0.000   0.000   0.000   0.000   0.001   0.000   0.000  -0.000  -0.000  -0.000   0.000   0.220  -0.001   0.000  -0.015
  0.000   0.000  -0.000   0.001   0.000  -0.000  -0.000   0.000   0.001  -0.000  -0.000   0.000  -0.001   0.223  -0.002  -0.000
 -0.000  -0.000  -0.000  -0.000   0.000   0.000   0.000  -0.000   0.000   0.001   0.004  -0.001   0.000  -0.002   0.222  -0.000
 -0.000  -0.000  -0.000  -0.000   0.000  -0.000   0.000   0.000   0.000   0.000   0.000  -0.000  -0.015  -0.000  -0.000   0.001
 -0.000  -0.000  -0.000  -0.000   0.000   0.000   0.000  -0.000  -0.000  -0.000   0.000   0.000  -0.000  -0.016  -0.000   0.000
  0.000  -0.000  -0.000   0.000   0.000  -0.000   0.000   0.000  -0.000  -0.000  -0.000   0.000  -0.000  -0.000  -0.016   0.000


------------------------ aborting loop because EDIFF is reached ----------------------------------------




--------------------------------------------------------------------------------------------------------


    CHARGE:  VPU time  144.63: CPU time  144.72
    FORLOC:  VPU time    0.18: CPU time    0.18
    FORNL :  VPU time  919.19: CPU time  919.68
    STRESS:  VPU time 6291.28: CPU time 6293.37
    FORCOR:  VPU time    0.88: CPU time    0.88
    FORHAR:  VPU time    0.31: CPU time    0.31
    MIXING:  VPU time    0.04: CPU time    0.04


--------------------------------------------------------------------------------------------------------



  FREE ENERGIE OF THE ION-ELECTRON SYSTEM (eV)
  ---------------------------------------------------
  free  energy   TOTEN  =      -117.464179 eV

  energy  without entropy=     -117.463395  energy(sigma->0) =     -117.463787
 

  FORCE on cell =-STRESS in cart. coord.  units (eV/reduce length):
  Direction    X        Y        Z        XY       YZ       ZX
  --------------------------------------------------------------------------------------
  Alpha Z   3726.30   3726.30   3726.30
  Ewald   -12078.81 -12078.75 -12078.75      0.00      0.00      0.00
  Hartree   3086.31   3086.35   3086.35     -0.00     -0.00     -0.00
  E(xc)    -2010.88  -2010.88  -2010.88      0.00     -0.00     -0.00
  Local     4103.44   4103.34   4103.34      0.00      0.00      0.00
  n-local  -1139.99  -1143.45  -1136.53      1.50      0.93      0.38
  augment   1810.88   1810.88   1810.88     -0.00     -0.00     -0.00
  Kinetic   2537.46   2534.53   2540.38      0.01     -1.23     -2.47
  -------------------------------------------------------------------------------------
  Total       34.70     34.70     34.70     -0.00      0.00      0.00
  in kB      158.37    158.37    158.37     -0.00      0.00      0.00
  external pressure =      158.37 kB  Pullay stress =        0.00 kB


 VOLUME and BASIS-vectors are now :
 -----------------------------------------------------------------------------
  energy-cutoff  :      750.00
  volume of cell :      351.10
      direct lattice vectors                 reciprocal lattice vectors
     7.054646675  0.000000000  0.000000000     0.141750543  0.000000000  0.000000000
     0.000000000  7.054646675  0.000000000     0.000000000  0.141750543  0.000000000
     0.000000000  0.000000000  7.054646675     0.000000000  0.000000000  0.141750543

  length of vectors
     7.054646675  7.054646675  7.054646675     0.141750543  0.141750543  0.141750543


 FORCES acting on ions
    electron-ion (+dipol)            ewald-force                    non-local-force                 convergence-correction
 -----------------------------------------------------------------------------------------------
   0.635E+01 0.423E-13 0.114E-05   -.644E+01 0.888E-13 0.266E-14   -.167E-02 0.000E+00 -.136E-19   -.125E-04 0.270E-13 0.327E-13
   -.168E+01 0.224E-13 -.116E-05   0.170E+01 0.657E-13 0.373E-13   -.222E-01 0.000E+00 0.000E+00   0.104E-04 -.810E-14 0.828E-14
   0.533E+00 0.358E-12 0.416E-10   -.539E+00 0.139E-12 -.111E-12   0.486E-02 0.000E+00 -.339E-20   -.164E-04 0.380E-13 0.348E-13
   -.428E+00 0.593E-11 0.410E-10   0.423E+00 0.190E-12 -.133E-12   0.581E-02 0.000E+00 0.000E+00   0.167E-04 0.154E-13 0.266E-13
   0.533E+00 0.433E-13 0.156E-08   -.539E+00 0.560E-13 -.382E-13   0.486E-02 0.339E-20 -.678E-20   -.157E-04 0.219E-13 0.389E-13
   -.428E+00 0.323E-13 0.157E-08   0.423E+00 0.657E-13 -.373E-13   0.581E-02 -.847E-21 0.136E-19   0.166E-04 -.114E-13 0.925E-13
   0.223E+00 0.358E-12 -.619E-10   -.222E+00 0.111E-12 0.115E-12   -.116E-02 -.119E-19 0.000E+00   -.208E-04 0.407E-13 0.228E-13
   -.207E+00 -.510E-11 -.592E-10   0.208E+00 0.190E-12 0.162E-12   -.567E-03 0.847E-21 0.000E+00   0.212E-04 0.188E-13 0.844E-13
   -.807E+00 -.155E+01 0.488E-10   0.817E+00 0.157E+01 0.595E-13   0.260E-02 -.277E-02 0.635E-21   0.134E-05 -.197E-06 0.249E-13
   -.814E+00 0.154E+01 0.678E-10   0.823E+00 -.156E+01 -.577E-13   0.285E-02 0.250E-02 0.000E+00   -.846E-06 0.451E-05 0.589E-14
   -.807E+00 0.155E+01 0.488E-10   0.817E+00 -.157E+01 0.888E-14   0.260E-02 0.277E-02 0.000E+00   0.134E-05 0.197E-06 0.335E-13
   -.814E+00 -.154E+01 0.457E-10   0.823E+00 0.156E+01 -.105E-12   0.285E-02 -.250E-02 -.424E-21   -.846E-06 -.451E-05 0.183E-13
   -.224E-01 -.129E+00 0.863E-10   0.247E-01 0.129E+00 -.595E-13   -.207E-02 -.175E-03 0.000E+00   0.504E-06 0.127E-05 0.640E-13
   -.254E-01 0.129E+00 0.942E-10   0.276E-01 -.129E+00 0.542E-13   -.205E-02 0.171E-03 0.339E-20   -.942E-06 0.551E-05 0.551E-13
   -.224E-01 0.129E+00 0.863E-10   0.247E-01 -.129E+00 0.105E-12   -.207E-02 0.175E-03 0.000E+00   0.504E-06 -.127E-05 0.481E-13
   -.254E-01 -.129E+00 0.942E-10   0.276E-01 0.129E+00 0.105E-12   -.205E-02 -.171E-03 -.678E-20   -.942E-06 -.551E-05 0.443E-13
   -.807E+00 0.390E-13 -.155E+01   0.817E+00 0.172E-12 0.157E+01   0.260E-02 0.339E-20 -.277E-02   0.121E-05 0.549E-14 -.989E-07
   -.814E+00 0.412E-13 0.154E+01   0.823E+00 0.551E-13 -.156E+01   0.285E-02 0.339E-20 0.250E-02   -.975E-06 0.577E-14 0.441E-05
   -.224E-01 0.363E-12 -.129E+00   0.247E-01 0.176E-12 0.129E+00   -.207E-02 -.339E-20 -.175E-03   0.536E-06 0.448E-13 0.137E-05
   -.254E-01 -.174E-11 0.129E+00   0.276E-01 0.176E-12 -.129E+00   -.205E-02 0.339E-20 0.171E-03   -.910E-06 0.228E-13 0.541E-05
   -.807E+00 0.523E-13 0.155E+01   0.817E+00 0.179E-12 -.157E+01   0.260E-02 0.339E-20 0.277E-02   0.121E-05 0.171E-13 0.989E-07
   -.814E+00 0.603E-13 -.154E+01   0.823E+00 0.648E-13 0.156E+01   0.285E-02 0.339E-20 -.250E-02   -.975E-06 0.184E-13 -.441E-05
   -.224E-01 0.353E-12 0.129E+00   0.247E-01 0.163E-12 -.129E+00   -.207E-02 -.339E-20 0.175E-03   0.536E-06 0.322E-13 -.137E-05
   -.254E-01 -.655E-12 -.129E+00   0.276E-01 0.163E-12 0.129E+00   -.205E-02 -.169E-20 -.171E-03   -.910E-06 0.102E-13 -.541E-05
   0.101E+01 0.449E-02 0.449E-02   -.102E+01 -.453E-02 -.453E-02   0.550E-02 -.729E-06 -.729E-06   -.161E-04 0.288E-05 0.288E-05
   -.565E+00 -.133E-02 -.133E-02   0.571E+00 0.136E-02 0.136E-02   -.575E-02 -.258E-04 -.258E-04   0.161E-04 0.254E-05 0.254E-05
   0.101E+01 -.449E-02 0.449E-02   -.102E+01 0.453E-02 -.453E-02   0.550E-02 0.729E-06 -.729E-06   -.161E-04 -.288E-05 0.288E-05
   -.565E+00 0.133E-02 -.133E-02   0.571E+00 -.136E-02 0.136E-02   -.575E-02 0.258E-04 -.258E-04   0.161E-04 -.254E-05 0.254E-05
   0.101E+01 0.449E-02 -.449E-02   -.102E+01 -.453E-02 0.453E-02   0.550E-02 -.729E-06 0.729E-06   -.161E-04 0.288E-05 -.288E-05
   -.565E+00 -.133E-02 0.133E-02   0.571E+00 0.136E-02 -.136E-02   -.575E-02 -.258E-04 0.258E-04   0.161E-04 0.254E-05 -.254E-05
   0.101E+01 -.449E-02 -.449E-02   -.102E+01 0.453E-02 0.453E-02   0.550E-02 0.729E-06 0.729E-06   -.161E-04 -.288E-05 -.288E-05
   -.565E+00 0.133E-02 0.133E-02   0.571E+00 -.136E-02 -.136E-02   -.575E-02 0.258E-04 0.258E-04   0.161E-04 -.254E-05 -.254E-05
 -----------------------------------------------------------------------------------------------
   -.662E-06 -.319E-11 -.557E-08   -.363E-13 0.172E-12 -.538E-13   0.169E-05 -.349E-18 0.881E-19   -.517E-06 0.571E-12 0.126E-11
 
 
 POSITION                                       TOTAL-FORCE (eV/Angst)
 -----------------------------------------------------------------------------------
      0.01000      0.00000      0.00000        -0.095316      0.000000      0.000000
      3.52732      0.00000      0.00000         0.001179      0.000000     -0.000000
      0.00000      3.52732      0.00000        -0.000395     -0.000000      0.000000
      3.52732      3.52732      0.00000         0.000312      0.000000      0.000000
      0.00000      0.00000      3.52732        -0.000395     -0.000000      0.000000
      3.52732      0.00000      3.52732         0.000312     -0.000000     -0.000000
      0.00000      3.52732      3.52732        -0.000090      0.000000      0.000000
      3.52732      3.52732      3.52732        -0.000109      0.000000     -0.000000
      1.76366      1.76366      0.00000         0.012108      0.014202      0.000000
      5.29099      1.76366      0.00000         0.011771     -0.013708     -0.000000
      1.76366      5.29099      0.00000         0.012108     -0.014202      0.000000
      5.29099      5.29099      0.00000         0.011771      0.013708      0.000000
      1.76366      1.76366      3.52732         0.000193      0.000189      0.000000
      5.29099      1.76366      3.52732         0.000193     -0.000191     -0.000000
      1.76366      5.29099      3.52732         0.000193     -0.000189     -0.000000
      5.29099      5.29099      3.52732         0.000193      0.000191      0.000000
      1.76366      0.00000      1.76366         0.012108      0.000000      0.014202
      5.29099      0.00000      1.76366         0.011771      0.000000     -0.013708
      1.76366      3.52732      1.76366         0.000193      0.000000      0.000189
      5.29099      3.52732      1.76366         0.000193     -0.000000     -0.000191
      1.76366      0.00000      5.29099         0.012108     -0.000000     -0.014202
      5.29099      0.00000      5.29099         0.011771     -0.000000      0.013708
      1.76366      3.52732      5.29099         0.000193      0.000000     -0.000189
      5.29099      3.52732      5.29099         0.000193     -0.000000      0.000191
      0.00000      1.76366      1.76366        -0.001364     -0.000031     -0.000031
      3.52732      1.76366      1.76366         0.000724      0.000002      0.000002
      0.00000      5.29099      1.76366        -0.001364      0.000031     -0.000031
      3.52732      5.29099      1.76366         0.000724     -0.000002      0.000002
      0.00000      1.76366      5.29099        -0.001364     -0.000031      0.000031
      3.52732      1.76366      5.29099         0.000724      0.000002     -0.000002
      0.00000      5.29099      5.29099        -0.001364      0.000031      0.000031
      3.52732      5.29099      5.29099         0.000724     -0.000002     -0.000002
 -----------------------------------------------------------------------------------
    total drift:                                0.000001     -0.000000     -0.000000


--------------------------------------------------------------------------------------------------------



 mean value of Nose-termostat <S>:     1.000 mean value of <T> :     0.000
 mean temperature <T/S>/<1/S>  :     0.000

     LOOP+:  VPU time********: CPU time********
  
  
 General timing and accounting informations for this job:
 ========================================================
  
                  Total CPU time used (sec):   135774.554
                            User time (sec):   112822.116
                          System time (sec):    22952.438
                         Elapsed time (sec):   135876.315
  
                   Maximum memory used (kb):    17313312.
                   Average memory used (kb):           0.
  
                          Minor page faults:      3516686
                          Major page faults:            0
                 Voluntary context switches:         1052
