  32  32   0   0
  0.1202155E+02  0.7272832E-09  0.7272832E-09  0.7272832E-09  0.5000000E-15
  1.000000000000000E-004
  CAR 
 unknown system                          
     13.58107682     -6.48545384  301      3.64860701      1.00000000
     -6.485  0.0000E+00  0.0000E+00
     -6.419  0.0000E+00  0.0000E+00
     -6.352  0.0000E+00  0.0000E+00
     -6.285  0.0000E+00  0.0000E+00
     -6.218  0.0000E+00  0.0000E+00
     -6.151  0.0000E+00  0.0000E+00
     -6.084  0.0000E+00  0.0000E+00
     -6.017  0.0000E+00  0.0000E+00
     -5.950  0.0000E+00  0.0000E+00
     -5.883  0.0000E+00  0.0000E+00
     -5.817  0.0000E+00  0.0000E+00
     -5.750  0.0000E+00  0.0000E+00
     -5.683  0.0000E+00  0.0000E+00
     -5.616  0.1512E-10  0.1012E-11
     -5.549  0.9013E-01  0.6029E-02
     -5.482  0.4805E+00  0.3817E-01
     -5.415  0.8554E+00  0.9538E-01
     -5.348  0.1240E+01  0.1783E+00
     -5.281  0.1321E+01  0.2669E+00
     -5.215  0.1150E+01  0.3439E+00
     -5.148  0.1660E+01  0.4549E+00
     -5.081  0.1316E+01  0.5429E+00
     -5.014  0.2394E+01  0.7031E+00
     -4.947  0.2179E+01  0.8489E+00
     -4.880  0.1319E+01  0.9371E+00
     -4.813  0.2200E+01  0.1085E+01
     -4.746  0.1864E+01  0.1210E+01
     -4.679  0.2986E+01  0.1410E+01
     -4.613  0.2401E+01  0.1571E+01
     -4.546  0.2451E+01  0.1735E+01
     -4.479  0.3133E+01  0.1944E+01
     -4.412  0.2587E+01  0.2118E+01
     -4.345  0.2132E+01  0.2261E+01
     -4.278  0.2659E+01  0.2439E+01
     -4.211  0.3901E+01  0.2700E+01
     -4.144  0.3196E+01  0.2913E+01
     -4.077  0.3504E+01  0.3148E+01
     -4.011  0.3581E+01  0.3387E+01
     -3.944  0.2483E+01  0.3554E+01
     -3.877  0.3426E+01  0.3783E+01
     -3.810  0.3439E+01  0.4013E+01
     -3.743  0.4797E+01  0.4334E+01
     -3.676  0.2833E+01  0.4524E+01
     -3.609  0.3957E+01  0.4789E+01
     -3.542  0.4319E+01  0.5078E+01
     -3.475  0.4737E+01  0.5394E+01
     -3.409  0.4771E+01  0.5714E+01
     -3.342  0.3414E+01  0.5942E+01
     -3.275  0.4846E+01  0.6266E+01
     -3.208  0.4861E+01  0.6592E+01
     -3.141  0.4221E+01  0.6875E+01
     -3.074  0.4371E+01  0.7169E+01
     -3.007  0.5681E+01  0.7549E+01
     -2.940  0.4773E+01  0.7868E+01
     -2.873  0.5544E+01  0.8239E+01
     -2.807  0.3960E+01  0.8504E+01
     -2.740  0.6552E+01  0.8943E+01
     -2.673  0.7275E+01  0.9430E+01
     -2.606  0.3876E+01  0.9691E+01
     -2.539  0.6845E+01  0.1015E+02
     -2.472  0.5475E+01  0.1052E+02
     -2.405  0.6858E+01  0.1098E+02
     -2.338  0.7367E+01  0.1147E+02
     -2.271  0.5889E+01  0.1187E+02
     -2.205  0.8197E+01  0.1242E+02
     -2.138  0.7619E+01  0.1293E+02
     -2.071  0.6820E+01  0.1339E+02
     -2.004  0.8865E+01  0.1398E+02
     -1.937  0.7218E+01  0.1446E+02
     -1.870  0.1014E+02  0.1514E+02
     -1.803  0.9545E+01  0.1578E+02
     -1.736  0.9417E+01  0.1641E+02
     -1.669  0.1130E+02  0.1717E+02
     -1.603  0.1227E+02  0.1799E+02
     -1.536  0.1293E+02  0.1886E+02
     -1.469  0.1255E+02  0.1970E+02
     -1.402  0.2098E+02  0.2110E+02
     -1.335  0.1782E+02  0.2230E+02
     -1.268  0.2125E+02  0.2372E+02
     -1.201  0.2832E+02  0.2562E+02
     -1.134  0.3097E+02  0.2769E+02
     -1.067  0.3688E+02  0.3016E+02
     -1.001  0.3704E+02  0.3264E+02
     -0.934  0.3853E+02  0.3522E+02
     -0.867  0.4016E+02  0.3791E+02
     -0.800  0.4370E+02  0.4083E+02
     -0.733  0.3797E+02  0.4338E+02
     -0.666  0.5176E+02  0.4684E+02
     -0.599  0.5801E+02  0.5073E+02
     -0.532  0.6381E+02  0.5500E+02
     -0.465  0.7431E+02  0.5997E+02
     -0.399  0.7860E+02  0.6524E+02
     -0.332  0.7809E+02  0.7047E+02
     -0.265  0.7529E+02  0.7551E+02
     -0.198  0.6862E+02  0.8011E+02
     -0.131  0.6514E+02  0.8447E+02
     -0.064  0.7366E+02  0.8940E+02
      0.003  0.6943E+02  0.9405E+02
      0.070  0.6456E+02  0.9838E+02
      0.137  0.6568E+02  0.1028E+03
      0.203  0.8431E+02  0.1084E+03
      0.270  0.8939E+02  0.1144E+03
      0.337  0.1022E+03  0.1213E+03
      0.404  0.1002E+03  0.1280E+03
      0.471  0.1066E+03  0.1351E+03
      0.538  0.1056E+03  0.1422E+03
      0.605  0.1305E+03  0.1509E+03
      0.672  0.1288E+03  0.1595E+03
      0.738  0.1309E+03  0.1683E+03
      0.805  0.1517E+03  0.1785E+03
      0.872  0.1487E+03  0.1884E+03
      0.939  0.1065E+03  0.1956E+03
      1.006  0.9234E+02  0.2018E+03
      1.073  0.8531E+02  0.2075E+03
      1.140  0.8265E+02  0.2130E+03
      1.207  0.8839E+02  0.2189E+03
      1.274  0.1083E+03  0.2262E+03
      1.340  0.1210E+03  0.2343E+03
      1.407  0.1243E+03  0.2426E+03
      1.474  0.1277E+03  0.2512E+03
      1.541  0.1095E+03  0.2585E+03
      1.608  0.1041E+03  0.2655E+03
      1.675  0.1054E+03  0.2725E+03
      1.742  0.1036E+03  0.2795E+03
      1.809  0.1173E+03  0.2873E+03
      1.876  0.1261E+03  0.2958E+03
      1.942  0.1624E+03  0.3067E+03
      2.009  0.2229E+03  0.3216E+03
      2.076  0.1226E+03  0.3298E+03
      2.143  0.7839E+02  0.3351E+03
      2.210  0.9627E+01  0.3357E+03
      2.277  0.1859E+02  0.3369E+03
      2.344  0.1014E+02  0.3376E+03
      2.411  0.1133E+02  0.3384E+03
      2.478  0.1537E+02  0.3394E+03
      2.544  0.9961E+01  0.3401E+03
      2.611  0.1438E+02  0.3410E+03
      2.678  0.1154E+02  0.3418E+03
      2.745  0.8434E+01  0.3424E+03
      2.812  0.1545E+02  0.3434E+03
      2.879  0.1010E+02  0.3441E+03
      2.946  0.1004E+02  0.3448E+03
      3.013  0.1087E+02  0.3455E+03
      3.080  0.1149E+02  0.3463E+03
      3.146  0.1190E+02  0.3471E+03
      3.213  0.8358E+01  0.3476E+03
      3.280  0.8148E+01  0.3482E+03
      3.347  0.1122E+02  0.3489E+03
      3.414  0.1390E+02  0.3498E+03
      3.481  0.8230E+01  0.3504E+03
      3.548  0.7941E+01  0.3509E+03
      3.615  0.9939E+01  0.3516E+03
      3.682  0.1368E+02  0.3525E+03
      3.748  0.6382E+01  0.3529E+03
      3.815  0.9676E+01  0.3536E+03
      3.882  0.1072E+02  0.3543E+03
      3.949  0.6246E+01  0.3547E+03
      4.016  0.1207E+02  0.3555E+03
      4.083  0.9389E+01  0.3562E+03
      4.150  0.7026E+01  0.3566E+03
      4.217  0.9914E+01  0.3573E+03
      4.284  0.6574E+01  0.3577E+03
      4.350  0.9730E+01  0.3584E+03
      4.417  0.1218E+02  0.3592E+03
      4.484  0.8482E+01  0.3598E+03
      4.551  0.7151E+01  0.3602E+03
      4.618  0.8413E+01  0.3608E+03
      4.685  0.7103E+01  0.3613E+03
      4.752  0.8083E+01  0.3618E+03
      4.819  0.1058E+02  0.3625E+03
      4.886  0.8303E+01  0.3631E+03
      4.952  0.1089E+02  0.3638E+03
      5.019  0.5071E+01  0.3642E+03
      5.086  0.8178E+01  0.3647E+03
      5.153  0.7512E+01  0.3652E+03
      5.220  0.6334E+01  0.3656E+03
      5.287  0.1259E+02  0.3665E+03
      5.354  0.1003E+02  0.3672E+03
      5.421  0.4615E+01  0.3675E+03
      5.488  0.1052E+02  0.3682E+03
      5.554  0.7087E+01  0.3686E+03
      5.621  0.4722E+01  0.3690E+03
      5.688  0.6573E+01  0.3694E+03
      5.755  0.9914E+01  0.3701E+03
      5.822  0.8976E+01  0.3707E+03
      5.889  0.7728E+01  0.3712E+03
      5.956  0.6888E+01  0.3716E+03
      6.023  0.4919E+01  0.3720E+03
      6.090  0.8034E+01  0.3725E+03
      6.156  0.6652E+01  0.3730E+03
      6.223  0.4720E+01  0.3733E+03
      6.290  0.6647E+01  0.3737E+03
      6.357  0.9330E+01  0.3743E+03
      6.424  0.7468E+01  0.3748E+03
      6.491  0.3462E+01  0.3751E+03
      6.558  0.8950E+01  0.3757E+03
      6.625  0.3939E+01  0.3759E+03
      6.692  0.3939E+01  0.3762E+03
      6.758  0.8202E+01  0.3767E+03
      6.825  0.3508E+01  0.3770E+03
      6.892  0.7586E+01  0.3775E+03
      6.959  0.3177E+01  0.3777E+03
      7.026  0.8508E+01  0.3783E+03
      7.093  0.4272E+01  0.3786E+03
      7.160  0.3564E+01  0.3788E+03
      7.227  0.6044E+01  0.3792E+03
      7.294  0.2730E+01  0.3794E+03
      7.360  0.4350E+01  0.3797E+03
      7.427  0.1145E+02  0.3804E+03
      7.494  0.8382E+01  0.3810E+03
      7.561  0.7580E+01  0.3815E+03
      7.628  0.9545E+01  0.3822E+03
      7.695  0.9777E+01  0.3828E+03
      7.762  0.9157E+01  0.3834E+03
      7.829  0.7922E+01  0.3840E+03
      7.896  0.9001E+01  0.3846E+03
      7.962  0.1121E+02  0.3853E+03
      8.029  0.9015E+01  0.3859E+03
      8.096  0.8617E+01  0.3865E+03
      8.163  0.1013E+02  0.3872E+03
      8.230  0.9907E+01  0.3878E+03
      8.297  0.7120E+01  0.3883E+03
      8.364  0.1161E+02  0.3891E+03
      8.431  0.9259E+01  0.3897E+03
      8.498  0.5428E+01  0.3901E+03
      8.564  0.1215E+02  0.3909E+03
      8.631  0.9744E+01  0.3915E+03
      8.698  0.8401E+01  0.3921E+03
      8.765  0.9297E+01  0.3927E+03
      8.832  0.7083E+01  0.3932E+03
      8.899  0.1055E+02  0.3939E+03
      8.966  0.1007E+02  0.3946E+03
      9.033  0.8574E+01  0.3952E+03
      9.100  0.5775E+01  0.3955E+03
      9.166  0.1204E+02  0.3963E+03
      9.233  0.5906E+01  0.3967E+03
      9.300  0.8770E+01  0.3973E+03
      9.367  0.8166E+01  0.3979E+03
      9.434  0.8712E+01  0.3985E+03
      9.501  0.9163E+01  0.3991E+03
      9.568  0.7143E+01  0.3996E+03
      9.635  0.8468E+01  0.4001E+03
      9.702  0.9617E+01  0.4008E+03
      9.768  0.5543E+01  0.4011E+03
      9.835  0.7897E+01  0.4017E+03
      9.902  0.5122E+01  0.4020E+03
      9.969  0.9331E+01  0.4026E+03
     10.036  0.8416E+01  0.4032E+03
     10.103  0.7372E+01  0.4037E+03
     10.170  0.1024E+02  0.4044E+03
     10.237  0.5198E+01  0.4047E+03
     10.304  0.7603E+01  0.4052E+03
     10.370  0.5776E+01  0.4056E+03
     10.437  0.8307E+01  0.4062E+03
     10.504  0.6204E+01  0.4066E+03
     10.571  0.8141E+01  0.4071E+03
     10.638  0.6536E+01  0.4076E+03
     10.705  0.1065E+02  0.4083E+03
     10.772  0.7577E+01  0.4088E+03
     10.839  0.8135E+01  0.4093E+03
     10.906  0.1121E+02  0.4101E+03
     10.972  0.1009E+02  0.4108E+03
     11.039  0.1036E+02  0.4115E+03
     11.106  0.1115E+02  0.4122E+03
     11.173  0.9177E+01  0.4128E+03
     11.240  0.6904E+01  0.4133E+03
     11.307  0.1175E+02  0.4141E+03
     11.374  0.6513E+01  0.4145E+03
     11.441  0.1263E+02  0.4154E+03
     11.508  0.1033E+02  0.4160E+03
     11.574  0.9186E+01  0.4167E+03
     11.641  0.1513E+02  0.4177E+03
     11.708  0.1072E+02  0.4184E+03
     11.775  0.1152E+02  0.4192E+03
     11.842  0.8589E+01  0.4197E+03
     11.909  0.9344E+01  0.4204E+03
     11.976  0.8893E+01  0.4210E+03
     12.043  0.7141E+01  0.4214E+03
     12.110  0.7416E+01  0.4219E+03
     12.176  0.6666E+01  0.4224E+03
     12.243  0.7269E+01  0.4229E+03
     12.310  0.6751E+01  0.4233E+03
     12.377  0.4575E+01  0.4236E+03
     12.444  0.2482E+01  0.4238E+03
     12.511  0.2035E+00  0.4238E+03
     12.578  0.8059E+00  0.4239E+03
     12.645  0.1576E+01  0.4240E+03
     12.712  0.4514E+00  0.4240E+03
     12.778  0.0000E+00  0.4240E+03
     12.845  0.0000E+00  0.4240E+03
     12.912  0.0000E+00  0.4240E+03
     12.979  0.0000E+00  0.4240E+03
     13.046  0.0000E+00  0.4240E+03
     13.113  0.0000E+00  0.4240E+03
     13.180  0.0000E+00  0.4240E+03
     13.247  0.0000E+00  0.4240E+03
     13.314  0.0000E+00  0.4240E+03
     13.380  0.0000E+00  0.4240E+03
     13.447  0.0000E+00  0.4240E+03
     13.514  0.0000E+00  0.4240E+03
     13.581  0.0000E+00  0.4240E+03
