   32   32    1    1
  0.1202155E+02  0.7272832E-09  0.7272832E-09  0.7272832E-09  0.5000000E-15
  1.000000000000000E-004
  CAR 
 unknown system                          
  352  196  212
 
  0.0000000E+00  0.0000000E+00  0.0000000E+00  0.5787037E-03
   1       -5.5733
   2       -2.8449
   3       -2.8417
   4       -2.8417
   5       -2.8417
   6       -2.8417
   7       -2.8385
   8       -1.3529
   9       -1.3529
  10       -1.3529
  11       -1.3529
  12       -1.1513
  13       -1.1512
  14       -1.1512
  15       -0.9795
  16       -0.9773
  17       -0.9773
  18       -0.9762
  19       -0.9760
  20       -0.9760
  21       -0.9759
  22       -0.9759
  23       -0.9757
  24       -0.9746
  25       -0.9746
  26       -0.9724
  27       -0.7104
  28       -0.7104
  29       -0.7104
  30       -0.4304
  31       -0.4284
  32       -0.4284
  33       -0.4284
  34       -0.4284
  35       -0.4265
  36       -0.0530
  37       -0.0513
  38       -0.0513
  39       -0.0512
  40       -0.0512
  41       -0.0496
  42        0.1534
  43        0.1539
  44        0.1539
  45        0.1560
  46        0.1560
  47        0.1561
  48        0.1561
  49        0.1561
  50        0.1562
  51        0.1562
  52        0.1573
  53        0.1573
  54        0.1577
  55        0.1587
  56        0.1587
  57        0.1591
  58        0.1591
  59        0.1591
  60        0.1591
  61        0.1592
  62        0.1592
  63        0.1606
  64        0.1606
  65        0.1632
  66        0.3602
  67        0.3626
  68        0.3626
  69        0.3629
  70        0.3631
  71        0.3631
  72        0.3631
  73        0.3632
  74        0.3633
  75        0.3637
  76        0.3637
  77        0.3661
  78        0.6146
  79        0.6146
  80        0.6146
  81        0.6146
  82        0.6146
  83        0.6146
  84        0.6147
  85        0.6147
  86        0.6429
  87        0.6429
  88        0.6429
  89        1.0075
  90        1.0091
  91        1.0092
  92        1.0092
  93        1.0092
  94        1.0108
  95        1.1325
  96        1.1330
  97        1.1338
  98        1.1338
  99        1.1343
 100        1.1343
 101        1.1343
 102        1.1343
 103        1.1348
 104        1.1348
 105        1.1356
 106        1.1360
 107        1.2847
 108        1.2847
 109        1.2864
 110        1.2864
 111        1.2866
 112        1.2866
 113        1.2867
 114        1.2867
 115        1.2869
 116        1.2869
 117        1.2885
 118        1.2885
 119        1.4098
 120        1.4108
 121        1.4108
 122        1.4109
 123        1.4109
 124        1.4119
 125        1.4406
 126        1.4406
 127        1.4421
 128        1.4424
 129        1.4424
 130        1.4425
 131        1.4425
 132        1.4425
 133        1.4426
 134        1.4430
 135        1.4445
 136        1.4445
 137        1.4483
 138        1.4486
 139        1.7122
 140        1.7130
 141        1.7130
 142        1.7130
 143        1.7130
 144        1.7139
 145        1.9833
 146        1.9833
 147        1.9834
 148        1.9972
 149        1.9972
 150        1.9972
 151        1.9972
 152        1.9972
 153        1.9972
 154        1.9972
 155        1.9972
 156        2.1329
 157        2.1333
 158        2.1333
 159        2.1333
 160        2.1333
 161        2.1333
 162        2.1340
 163        2.1341
 164        2.1341
 165        2.1341
 166        2.1341
 167        2.1345
 168        2.6961
 169        2.6961
 170        2.6961
 171        2.6961
 172        3.3051
 173        3.3053
 174        3.3053
 175        3.3062
 176        3.3065
 177        3.3065
 178        3.3065
 179        3.3065
 180        3.3068
 181        3.3078
 182        3.3078
 183        3.3080
 184        5.1655
 185        5.1655
 186        5.1655
 187        7.3030
 188        7.3030
 189        7.3030
 190        7.3030
 191        9.7844
 192        9.7844
 193        9.7880
 194        9.7880
 195        9.7884
 196        9.7884
 197        9.7884
 198        9.7884
 199        9.7888
 200        9.7888
 201        9.7923
 202        9.7923
 203       10.6360
 204       10.6360
 205       10.6360
 206       11.8709
 207       11.8737
 208       11.8737
 209       11.8737
 210       11.8737
 211       11.8764
 212       12.3200
 
  0.8333333E-01  0.0000000E+00  0.0000000E+00  0.1157407E-02
   1       -5.5525
   2       -3.2253
   3       -2.8247
   4       -2.8247
   5       -2.8247
   6       -2.8247
   7       -2.4620
   8       -1.3482
   9       -1.3482
  10       -1.3482
  11       -1.3482
  12       -1.1843
  13       -1.1842
  14       -1.1842
  15       -1.1842
  16       -1.1512
  17       -1.1415
  18       -1.1415
  19       -0.9858
  20       -0.9858
  21       -0.9858
  22       -0.9858
  23       -0.7869
  24       -0.7869
  25       -0.7869
  26       -0.7868
  27       -0.7049
  28       -0.7046
  29       -0.7046
  30       -0.4453
  31       -0.4451
  32       -0.4209
  33       -0.4209
  34       -0.4209
  35       -0.4208
  36       -0.1392
  37       -0.0489
  38       -0.0489
  39       -0.0489
  40       -0.0488
  41        0.0146
  42        0.0146
  43        0.0373
  44        0.1422
  45        0.1426
  46        0.1426
  47        0.1427
  48        0.1480
  49        0.1480
  50        0.1480
  51        0.1480
  52        0.1568
  53        0.1570
  54        0.1570
  55        0.1570
  56        0.1714
  57        0.1714
  58        0.1714
  59        0.1716
  60        0.1819
  61        0.1819
  62        0.1819
  63        0.1823
  64        0.2929
  65        0.2929
  66        0.2929
  67        0.2929
  68        0.3106
  69        0.3106
  70        0.3680
  71        0.3680
  72        0.3680
  73        0.3681
  74        0.4207
  75        0.4207
  76        0.4207
  77        0.4208
  78        0.6107
  79        0.6107
  80        0.6108
  81        0.6108
  82        0.6199
  83        0.6199
  84        0.6199
  85        0.6200
  86        0.6368
  87        0.6477
  88        0.6477
  89        0.9797
  90        0.9797
  91        0.9797
  92        0.9797
  93        1.0160
  94        1.0428
  95        1.1112
  96        1.1113
  97        1.1113
  98        1.1113
  99        1.1326
 100        1.1326
 101        1.1326
 102        1.1326
 103        1.1584
 104        1.1584
 105        1.1585
 106        1.1585
 107        1.1932
 108        1.1932
 109        1.2866
 110        1.2866
 111        1.2866
 112        1.2866
 113        1.3120
 114        1.3120
 115        1.3120
 116        1.3120
 117        1.3833
 118        1.3833
 119        1.3981
 120        1.3981
 121        1.3982
 122        1.3982
 123        1.4109
 124        1.4110
 125        1.4110
 126        1.4110
 127        1.4250
 128        1.4250
 129        1.4428
 130        1.4505
 131        1.4661
 132        1.4661
 133        1.4661
 134        1.4663
 135        1.4961
 136        1.4961
 137        1.4961
 138        1.4961
 139        1.6782
 140        1.7191
 141        1.7191
 142        1.7191
 143        1.7191
 144        1.7480
 145        1.9223
 146        1.9223
 147        1.9223
 148        1.9223
 149        1.9762
 150        1.9762
 151        1.9810
 152        1.9913
 153        1.9913
 154        1.9913
 155        1.9913
 156        2.0959
 157        2.0959
 158        2.1249
 159        2.1249
 160        2.1249
 161        2.1249
 162        2.1249
 163        2.1249
 164        2.1329
 165        2.1333
 166        2.1341
 167        2.1345
 168        2.7472
 169        2.7472
 170        2.7472
 171        2.7472
 172        3.0388
 173        3.0388
 174        3.0388
 175        3.0388
 176        3.3042
 177        3.3042
 178        3.3042
 179        3.3042
 180        3.6201
 181        3.6201
 182        3.6201
 183        3.6201
 184        5.0228
 185        5.2216
 186        5.2216
 187        7.3633
 188        7.3633
 189        7.3633
 190        7.3633
 191        9.2180
 192        9.2180
 193        9.4780
 194        9.4780
 195        9.4780
 196        9.4780
 197        9.8165
 198        9.8166
 199        9.8166
 200        9.8166
 201       10.3790
 202       10.3790
 203       10.6438
 204       10.6438
 205       10.8202
 206       11.7511
 207       11.7511
 208       12.0257
 209       12.0257
 210       12.0257
 211       12.0257
 212       12.4831
 
  0.1666667E+00  0.0000000E+00  0.0000000E+00  0.1157407E-02
   1       -5.4899
   2       -3.5987
   3       -2.7739
   4       -2.7739
   5       -2.7739
   6       -2.7739
   7       -2.1056
   8       -1.4054
   9       -1.4054
  10       -1.4054
  11       -1.4054
  12       -1.3343
  13       -1.3343
  14       -1.3343
  15       -1.3342
  16       -1.1522
  17       -1.1126
  18       -1.1126
  19       -1.0133
  20       -1.0133
  21       -1.0133
  22       -1.0133
  23       -0.6885
  24       -0.6872
  25       -0.6872
  26       -0.6206
  27       -0.6206
  28       -0.6206
  29       -0.6206
  30       -0.4925
  31       -0.4924
  32       -0.3987
  33       -0.3987
  34       -0.3987
  35       -0.3987
  36       -0.2251
  37       -0.1140
  38       -0.1140
  39       -0.0418
  40       -0.0418
  41       -0.0418
  42       -0.0418
  43        0.1224
  44        0.1226
  45        0.1226
  46        0.1227
  47        0.1243
  48        0.1243
  49        0.1243
  50        0.1243
  51        0.1249
  52        0.1592
  53        0.1593
  54        0.1593
  55        0.1593
  56        0.1793
  57        0.1793
  58        0.1793
  59        0.1796
  60        0.2127
  61        0.2127
  62        0.2127
  63        0.2127
  64        0.2482
  65        0.2483
  66        0.2483
  67        0.2483
  68        0.3825
  69        0.3825
  70        0.3825
  71        0.3825
  72        0.4670
  73        0.4670
  74        0.4670
  75        0.4670
  76        0.4774
  77        0.4774
  78        0.5992
  79        0.5992
  80        0.5992
  81        0.5993
  82        0.6186
  83        0.6358
  84        0.6358
  85        0.6358
  86        0.6359
  87        0.6624
  88        0.6624
  89        0.9147
  90        0.9147
  91        0.9147
  92        0.9147
  93        1.0486
  94        1.0569
  95        1.0569
  96        1.0569
  97        1.0569
  98        1.1045
  99        1.1045
 100        1.1360
 101        1.1539
 102        1.1539
 103        1.1539
 104        1.1542
 105        1.1988
 106        1.1988
 107        1.1988
 108        1.1989
 109        1.2865
 110        1.2865
 111        1.2865
 112        1.2865
 113        1.3598
 114        1.3598
 115        1.3600
 116        1.3600
 117        1.3629
 118        1.3629
 119        1.3631
 120        1.3631
 121        1.4107
 122        1.4107
 123        1.4107
 124        1.4107
 125        1.4263
 126        1.4572
 127        1.4649
 128        1.4650
 129        1.4819
 130        1.4819
 131        1.5222
 132        1.5222
 133        1.5222
 134        1.5223
 135        1.5582
 136        1.5582
 137        1.5583
 138        1.5583
 139        1.6440
 140        1.7422
 141        1.7422
 142        1.7422
 143        1.7422
 144        1.7458
 145        1.7458
 146        1.7458
 147        1.7458
 148        1.7824
 149        1.9549
 150        1.9549
 151        1.9736
 152        1.9736
 153        1.9736
 154        1.9736
 155        1.9741
 156        1.9912
 157        1.9912
 158        2.0979
 159        2.0979
 160        2.0979
 161        2.0979
 162        2.0997
 163        2.0997
 164        2.1329
 165        2.1334
 166        2.1340
 167        2.1345
 168        2.8081
 169        2.8081
 170        2.8081
 171        2.8081
 172        2.8548
 173        2.8549
 174        2.8549
 175        2.8549
 176        3.2969
 177        3.2969
 178        3.2969
 179        3.2969
 180        3.9870
 181        3.9870
 182        3.9870
 183        3.9870
 184        4.6445
 185        5.3824
 186        5.3824
 187        7.5417
 188        7.5417
 189        7.5418
 190        7.5418
 191        8.6691
 192        8.6691
 193        8.8321
 194        8.8321
 195        8.8321
 196        8.8321
 197        9.9005
 198        9.9005
 199        9.9005
 200        9.9005
 201       10.6675
 202       10.6675
 203       10.9886
 204       10.9886
 205       11.3239
 206       11.5510
 207       11.5510
 208       12.0438
 209       12.0438
 210       12.0439
 211       12.0443
 212       12.1476
 
  0.2500000E+00  0.0000000E+00  0.0000000E+00  0.1157407E-02
   1       -5.3860
   2       -3.9519
   3       -2.6902
   4       -2.6902
   5       -2.6902
   6       -2.6902
   7       -1.7952
   8       -1.6313
   9       -1.6313
  10       -1.6313
  11       -1.6313
  12       -1.3114
  13       -1.3114
  14       -1.3114
  15       -1.3114
  16       -1.1571
  17       -1.0656
  18       -1.0656
  19       -1.0534
  20       -1.0534
  21       -1.0534
  22       -1.0534
  23       -0.6614
  24       -0.6581
  25       -0.6581
  26       -0.5636
  27       -0.5636
  28       -0.4782
  29       -0.4782
  30       -0.4781
  31       -0.4781
  32       -0.3629
  33       -0.3629
  34       -0.3629
  35       -0.3629
  36       -0.3075
  37       -0.2296
  38       -0.2296
  39       -0.0303
  40       -0.0302
  41       -0.0302
  42       -0.0302
  43        0.0864
  44        0.0865
  45        0.0865
  46        0.0865
  47        0.0998
  48        0.0998
  49        0.0998
  50        0.0999
  51        0.1273
  52        0.1273
  53        0.1273
  54        0.1273
  55        0.1629
  56        0.1630
  57        0.1630
  58        0.1631
  59        0.1833
  60        0.1833
  61        0.1833
  62        0.1835
  63        0.2103
  64        0.3516
  65        0.3516
  66        0.3516
  67        0.3517
  68        0.4070
  69        0.4070
  70        0.4070
  71        0.4070
  72        0.5069
  73        0.5069
  74        0.5069
  75        0.5070
  76        0.5807
  77        0.5807
  78        0.5807
  79        0.5807
  80        0.5888
  81        0.6559
  82        0.6559
  83        0.6620
  84        0.6620
  85        0.6620
  86        0.6620
  87        0.6867
  88        0.6867
  89        0.8403
  90        0.8404
  91        0.8404
  92        0.8404
  93        0.9907
  94        0.9907
  95        0.9907
  96        0.9907
  97        1.0215
  98        1.0215
  99        1.0964
 100        1.1930
 101        1.1931
 102        1.1931
 103        1.1931
 104        1.2468
 105        1.2468
 106        1.2468
 107        1.2468
 108        1.2867
 109        1.2867
 110        1.2867
 111        1.2867
 112        1.3121
 113        1.3361
 114        1.3361
 115        1.3361
 116        1.3361
 117        1.3941
 118        1.3941
 119        1.3941
 120        1.3942
 121        1.3994
 122        1.4085
 123        1.4085
 124        1.4085
 125        1.4085
 126        1.4683
 127        1.5243
 128        1.5243
 129        1.5276
 130        1.5276
 131        1.5276
 132        1.5276
 133        1.5806
 134        1.5806
 135        1.5912
 136        1.5912
 137        1.5912
 138        1.5912
 139        1.6111
 140        1.6277
 141        1.6277
 142        1.6277
 143        1.6277
 144        1.7932
 145        1.7932
 146        1.7932
 147        1.7932
 148        1.8158
 149        1.8372
 150        1.8372
 151        1.9200
 152        1.9200
 153        1.9447
 154        1.9447
 155        1.9447
 156        1.9447
 157        1.9626
 158        2.0549
 159        2.0549
 160        2.0549
 161        2.0549
 162        2.0588
 163        2.0588
 164        2.1329
 165        2.1334
 166        2.1340
 167        2.1345
 168        2.6064
 169        2.6064
 170        2.6064
 171        2.6064
 172        2.9661
 173        2.9661
 174        2.9661
 175        2.9661
 176        3.2839
 177        3.2839
 178        3.2839
 179        3.2839
 180        4.1282
 181        4.4124
 182        4.4124
 183        4.4124
 184        4.4124
 185        5.6298
 186        5.6298
 187        7.8310
 188        7.8310
 189        7.8311
 190        7.8311
 191        8.1086
 192        8.1086
 193        8.1086
 194        8.1087
 195        8.1431
 196        8.1431
 197       10.0386
 198       10.0386
 199       10.0386
 200       10.0386
 201       10.7076
 202       10.7076
 203       11.2828
 204       11.2828
 205       11.2828
 206       11.2828
 207       11.3619
 208       11.3619
 209       11.6160
 210       11.6160
 211       11.8492
 212       11.8492
 
  0.3333333E+00  0.0000000E+00  0.0000000E+00  0.1157407E-02
   1       -5.2414
   2       -4.2783
   3       -2.5750
   4       -2.5749
   5       -2.5749
   6       -2.5749
   7       -1.8538
   8       -1.8538
   9       -1.8538
  10       -1.8538
  11       -1.5501
  12       -1.2804
  13       -1.2804
  14       -1.2804
  15       -1.2804
  16       -1.1714
  17       -1.1005
  18       -1.1005
  19       -1.1005
  20       -1.1005
  21       -1.0023
  22       -1.0022
  23       -0.6502
  24       -0.6502
  25       -0.6240
  26       -0.6173
  27       -0.6173
  28       -0.3850
  29       -0.3594
  30       -0.3594
  31       -0.3594
  32       -0.3594
  33       -0.3322
  34       -0.3322
  35       -0.3160
  36       -0.3160
  37       -0.3160
  38       -0.3160
  39       -0.0146
  40       -0.0146
  41       -0.0146
  42       -0.0145
  43        0.0371
  44        0.0373
  45        0.0373
  46        0.0373
  47        0.0433
  48        0.0434
  49        0.0434
  50        0.0435
  51        0.0754
  52        0.0754
  53        0.0754
  54        0.0755
  55        0.1675
  56        0.1677
  57        0.1677
  58        0.1677
  59        0.1838
  60        0.1838
  61        0.1838
  62        0.1841
  63        0.2914
  64        0.4273
  65        0.4273
  66        0.4273
  67        0.4273
  68        0.4991
  69        0.4991
  70        0.4991
  71        0.4991
  72        0.5465
  73        0.5465
  74        0.5465
  75        0.5465
  76        0.5478
  77        0.5561
  78        0.5561
  79        0.5562
  80        0.5562
  81        0.6980
  82        0.6980
  83        0.6980
  84        0.6980
  85        0.7205
  86        0.7205
  87        0.7676
  88        0.7676
  89        0.7676
  90        0.7676
  91        0.8451
  92        0.8451
  93        0.9224
  94        0.9225
  95        0.9225
  96        0.9225
  97        0.9452
  98        0.9452
  99        1.1519
 100        1.2423
 101        1.2423
 102        1.2423
 103        1.2423
 104        1.2875
 105        1.2876
 106        1.2876
 107        1.2876
 108        1.2941
 109        1.2941
 110        1.2941
 111        1.2941
 112        1.2979
 113        1.2979
 114        1.2979
 115        1.2979
 116        1.3167
 117        1.3167
 118        1.3167
 119        1.3168
 120        1.3629
 121        1.3992
 122        1.3993
 123        1.3994
 124        1.3994
 125        1.4021
 126        1.4021
 127        1.4021
 128        1.4023
 129        1.4835
 130        1.5800
 131        1.5881
 132        1.5954
 133        1.5957
 134        1.6526
 135        1.6526
 136        1.6631
 137        1.6631
 138        1.6631
 139        1.6631
 140        1.6774
 141        1.6774
 142        1.7024
 143        1.7024
 144        1.7024
 145        1.7024
 146        1.8475
 147        1.8722
 148        1.8722
 149        1.8772
 150        1.8772
 151        1.8772
 152        1.8772
 153        1.9050
 154        1.9050
 155        1.9050
 156        1.9051
 157        1.9468
 158        1.9983
 159        1.9983
 160        1.9983
 161        1.9983
 162        2.0035
 163        2.0035
 164        2.1330
 165        2.1335
 166        2.1339
 167        2.1345
 168        2.4271
 169        2.4271
 170        2.4271
 171        2.4271
 172        3.0612
 173        3.0612
 174        3.0612
 175        3.0612
 176        3.2636
 177        3.2637
 178        3.2637
 179        3.2637
 180        3.5552
 181        4.8983
 182        4.8983
 183        4.8983
 184        4.8983
 185        5.9449
 186        5.9449
 187        7.3870
 188        7.3870
 189        7.3871
 190        7.3871
 191        7.6415
 192        7.6415
 193        8.2208
 194        8.2208
 195        8.2208
 196        8.2208
 197       10.2286
 198       10.2286
 199       10.2286
 200       10.2286
 201       10.5557
 202       10.5558
 203       10.5558
 204       10.5558
 205       10.7650
 206       10.7650
 207       11.1961
 208       11.1961
 209       11.4456
 210       11.4456
 211       11.4456
 212       11.4456
 
  0.4166667E+00  0.0000000E+00  0.0000000E+00  0.1157407E-02
   1       -5.0568
   2       -4.5733
   3       -2.4302
   4       -2.4302
   5       -2.4302
   6       -2.4302
   7       -2.0651
   8       -2.0651
   9       -2.0651
  10       -2.0651
  11       -1.3768
  12       -1.2421
  13       -1.2421
  14       -1.2421
  15       -1.2421
  16       -1.2037
  17       -1.1499
  18       -1.1499
  19       -1.1499
  20       -1.1499
  21       -0.9250
  22       -0.9250
  23       -0.7438
  24       -0.7438
  25       -0.5769
  26       -0.5644
  27       -0.5644
  28       -0.4565
  29       -0.4221
  30       -0.4221
  31       -0.2692
  32       -0.2692
  33       -0.2692
  34       -0.2691
  35       -0.2646
  36       -0.2646
  37       -0.2645
  38       -0.2645
  39       -0.0276
  40       -0.0276
  41       -0.0276
  42       -0.0276
  43       -0.0170
  44       -0.0170
  45       -0.0170
  46       -0.0169
  47        0.0046
  48        0.0047
  49        0.0047
  50        0.0047
  51        0.0507
  52        0.0507
  53        0.0507
  54        0.0507
  55        0.1724
  56        0.1728
  57        0.1728
  58        0.1729
  59        0.1817
  60        0.1817
  61        0.1817
  62        0.1822
  63        0.3670
  64        0.4610
  65        0.4610
  66        0.4611
  67        0.4611
  68        0.4965
  69        0.5268
  70        0.5268
  71        0.5269
  72        0.5269
  73        0.5904
  74        0.5905
  75        0.5905
  76        0.5905
  77        0.6660
  78        0.6660
  79        0.6660
  80        0.6660
  81        0.7006
  82        0.7007
  83        0.7007
  84        0.7007
  85        0.7432
  86        0.7432
  87        0.7432
  88        0.7432
  89        0.7636
  90        0.7636
  91        0.8569
  92        0.8569
  93        0.8569
  94        0.8569
  95        0.8764
  96        0.8764
  97        1.0431
  98        1.0431
  99        1.0719
 100        1.0719
 101        1.0719
 102        1.0719
 103        1.2098
 104        1.2901
 105        1.2901
 106        1.2901
 107        1.2901
 108        1.2940
 109        1.2941
 110        1.2941
 111        1.2941
 112        1.3035
 113        1.3035
 114        1.3035
 115        1.3035
 116        1.3179
 117        1.3351
 118        1.3351
 119        1.3351
 120        1.3351
 121        1.3792
 122        1.3792
 123        1.3793
 124        1.3793
 125        1.3888
 126        1.3888
 127        1.3888
 128        1.3889
 129        1.4525
 130        1.4525
 131        1.5026
 132        1.5512
 133        1.6709
 134        1.6710
 135        1.7329
 136        1.7329
 137        1.7329
 138        1.7329
 139        1.7703
 140        1.7703
 141        1.7800
 142        1.7800
 143        1.7800
 144        1.7800
 145        1.8132
 146        1.8132
 147        1.8557
 148        1.8557
 149        1.8557
 150        1.8557
 151        1.8769
 152        1.9270
 153        1.9313
 154        1.9313
 155        1.9313
 156        1.9313
 157        1.9356
 158        1.9356
 159        1.9690
 160        1.9884
 161        1.9884
 162        1.9884
 163        1.9884
 164        2.1330
 165        2.1336
 166        2.1338
 167        2.1344
 168        2.2654
 169        2.2654
 170        2.2654
 171        2.2654
 172        2.9799
 173        3.1363
 174        3.1363
 175        3.1363
 176        3.1363
 177        3.2342
 178        3.2342
 179        3.2342
 180        3.2343
 181        5.4434
 182        5.4434
 183        5.4434
 184        5.4434
 185        6.3126
 186        6.3126
 187        6.6946
 188        6.6946
 189        6.6946
 190        6.6946
 191        7.1669
 192        7.1669
 193        8.6991
 194        8.6991
 195        8.6991
 196        8.6991
 197        9.8764
 198        9.8764
 199        9.8765
 200        9.8765
 201       10.4674
 202       10.4674
 203       10.4674
 204       10.4674
 205       10.8410
 206       10.8410
 207       11.0549
 208       11.0549
 209       11.0789
 210       11.0789
 211       11.0790
 212       11.0790
 
  0.5000000E+00  0.0000000E+00  0.0000000E+00  0.5787037E-03
   1       -4.8351
   2       -4.8321
   3       -2.2624
   4       -2.2597
   5       -2.2597
   6       -2.2596
   7       -2.2583
   8       -2.2581
   9       -2.2581
  10       -2.2555
  11       -1.2674
  12       -1.2663
  13       -1.1995
  14       -1.1995
  15       -1.1985
  16       -1.1982
  17       -1.1977
  18       -1.1974
  19       -1.1964
  20       -1.1964
  21       -0.8389
  22       -0.8380
  23       -0.8367
  24       -0.8358
  25       -0.5219
  26       -0.5197
  27       -0.5005
  28       -0.5005
  29       -0.4985
  30       -0.4985
  31       -0.2335
  32       -0.2334
  33       -0.2334
  34       -0.2331
  35       -0.2325
  36       -0.2323
  37       -0.2323
  38       -0.2322
  39       -0.0547
  40       -0.0540
  41       -0.0540
  42       -0.0540
  43       -0.0537
  44       -0.0537
  45       -0.0537
  46       -0.0529
  47        0.0251
  48        0.0258
  49        0.0258
  50        0.0264
  51        0.0270
  52        0.0276
  53        0.0276
  54        0.0282
  55        0.1756
  56        0.1772
  57        0.1772
  58        0.1775
  59        0.1780
  60        0.1784
  61        0.1784
  62        0.1800
  63        0.4356
  64        0.4361
  65        0.4938
  66        0.4940
  67        0.4940
  68        0.4945
  69        0.4946
  70        0.4950
  71        0.4950
  72        0.4953
  73        0.6406
  74        0.6406
  75        0.6407
  76        0.6413
  77        0.6418
  78        0.6423
  79        0.6424
  80        0.6424
  81        0.7949
  82        0.7953
  83        0.7953
  84        0.7963
  85        0.7968
  86        0.7977
  87        0.7977
  88        0.7981
  89        0.8148
  90        0.8148
  91        0.8166
  92        0.8166
  93        0.8582
  94        0.8588
  95        0.8588
  96        0.8588
  97        0.8593
  98        0.8594
  99        0.8594
 100        0.8600
 101        1.2465
 102        1.2465
 103        1.2475
 104        1.2475
 105        1.2657
 106        1.2666
 107        1.2946
 108        1.2946
 109        1.2947
 110        1.2950
 111        1.2951
 112        1.2953
 113        1.2954
 114        1.2954
 115        1.3407
 116        1.3413
 117        1.3413
 118        1.3414
 119        1.3422
 120        1.3423
 121        1.3423
 122        1.3429
 123        1.3659
 124        1.3663
 125        1.3666
 126        1.3666
 127        1.3672
 128        1.3672
 129        1.3675
 130        1.3678
 131        1.5245
 132        1.5261
 133        1.7449
 134        1.7450
 135        1.7451
 136        1.7452
 137        1.7971
 138        1.7973
 139        1.7974
 140        1.7974
 141        1.7981
 142        1.7981
 143        1.7982
 144        1.7985
 145        1.8562
 146        1.8562
 147        1.8571
 148        1.8571
 149        1.8571
 150        1.8571
 151        1.8573
 152        1.8573
 153        1.8576
 154        1.8577
 155        1.8585
 156        1.8585
 157        1.9035
 158        1.9036
 159        2.1182
 160        2.1188
 161        2.1188
 162        2.1190
 163        2.1191
 164        2.1193
 165        2.1193
 166        2.1199
 167        2.1330
 168        2.1337
 169        2.1337
 170        2.1344
 171        2.4400
 172        2.4421
 173        3.1914
 174        3.1919
 175        3.1924
 176        3.1924
 177        3.1933
 178        3.1933
 179        3.1939
 180        3.1943
 181        6.0413
 182        6.0420
 183        6.0420
 184        6.0437
 185        6.0444
 186        6.0460
 187        6.0460
 188        6.0468
 189        6.7207
 190        6.7207
 191        6.7239
 192        6.7239
 193        9.2522
 194        9.2525
 195        9.2525
 196        9.2541
 197        9.2548
 198        9.2564
 199        9.2564
 200        9.2567
 201       10.7497
 202       10.7497
 203       10.7516
 204       10.7517
 205       10.7521
 206       10.7522
 207       10.7541
 208       10.7541
 209       10.9368
 210       10.9370
 211       10.9371
 212       10.9374
 
  0.0000000E+00  0.8333333E-01  0.0000000E+00  0.2314815E-02
   1       -5.5525
   2       -3.2253
   3       -2.8271
   4       -2.8247
   5       -2.8247
   6       -2.8223
   7       -2.4620
   8       -1.3483
   9       -1.3482
  10       -1.3482
  11       -1.3482
  12       -1.1861
  13       -1.1842
  14       -1.1842
  15       -1.1823
  16       -1.1512
  17       -1.1415
  18       -1.1415
  19       -0.9871
  20       -0.9860
  21       -0.9856
  22       -0.9845
  23       -0.7885
  24       -0.7869
  25       -0.7869
  26       -0.7852
  27       -0.7049
  28       -0.7046
  29       -0.7046
  30       -0.4452
  31       -0.4451
  32       -0.4222
  33       -0.4209
  34       -0.4209
  35       -0.4195
  36       -0.1392
  37       -0.0503
  38       -0.0489
  39       -0.0488
  40       -0.0475
  41        0.0145
  42        0.0145
  43        0.0373
  44        0.1412
  45        0.1426
  46        0.1427
  47        0.1438
  48        0.1469
  49        0.1480
  50        0.1481
  51        0.1492
  52        0.1553
  53        0.1569
  54        0.1570
  55        0.1586
  56        0.1700
  57        0.1713
  58        0.1714