       N       E                     dE             d eps       ncg     rms          rms(c)
DAV:   1     0.398296846616E+04    0.39830E+04   -0.18820E+05 83104   0.329E+03
DAV:   2     0.459173050662E+03   -0.35238E+04   -0.33954E+04 83104   0.715E+02
DAV:   3    -0.108322907004E+03   -0.56750E+03   -0.52269E+03 83104   0.267E+02
DAV:   4    -0.146268470780E+03   -0.37946E+02   -0.36651E+02 86736   0.800E+01
DAV:   5    -0.146719470054E+03   -0.45100E+00   -0.44937E+00 88252   0.892E+00    0.394E+01
DAV:   6    -0.129166368445E+03    0.17553E+02   -0.27790E+02 89140   0.955E+01    0.178E+01
DAV:   7    -0.119309681945E+03    0.98567E+01   -0.48319E+01 92424   0.403E+01    0.289E+00
DAV:   8    -0.119070968103E+03    0.23871E+00   -0.69790E-01 85856   0.297E+00    0.214E+00
DAV:   9    -0.118983656686E+03    0.87311E-01   -0.16537E-01 89764   0.274E+00    0.442E-01
DAV:  10    -0.118982484352E+03    0.11723E-02   -0.38217E-02 94892   0.145E+00    0.130E-01
DAV:  11    -0.118982643045E+03   -0.15869E-03   -0.31814E-03 85856   0.345E-01    0.661E-02
DAV:  12    -0.118982556273E+03    0.86772E-04   -0.28091E-04 90104   0.197E-01    0.328E-02
DAV:  13    -0.118982543673E+03    0.12599E-04   -0.11788E-04 90292   0.921E-02    0.110E-02
DAV:  14    -0.118982548276E+03   -0.46032E-05   -0.29002E-05 87164   0.316E-02    0.733E-03
DAV:  15    -0.118982547371E+03    0.90509E-06   -0.39180E-06 86728   0.204E-02    0.534E-03
DAV:  16    -0.118982544689E+03    0.26824E-05   -0.66655E-07 92260   0.706E-03    0.276E-03
DAV:  17    -0.118982545838E+03   -0.11495E-05   -0.57554E-07 94416   0.816E-03    0.153E-03
DAV:  18    -0.118982546234E+03   -0.39572E-06   -0.32148E-07 90340   0.659E-03    0.642E-04
DAV:  19    -0.118982546279E+03   -0.45125E-07   -0.16336E-07 78208   0.249E-03    0.462E-04
DAV:  20    -0.118982546292E+03   -0.12900E-07   -0.23201E-08 44244   0.123E-03    0.311E-04
DAV:  21    -0.118982546258E+03    0.34001E-07   -0.63088E-09 43668   0.646E-04    0.134E-04
DAV:  22    -0.118982546197E+03    0.61627E-07   -0.53812E-09 43596   0.506E-04    0.894E-05
DAV:  23    -0.118982546210E+03   -0.13555E-07   -0.13056E-09 43504   0.287E-04    0.960E-05
DAV:  24    -0.118982546260E+03   -0.49651E-07   -0.41910E-10 43500   0.201E-04    0.557E-05
DAV:  25    -0.118982546260E+03   -0.45111E-09   -0.18112E-10 43396   0.857E-05
   1 F= -.11898255E+03 E0= -.11898209E+03  d E =-.918311E-03
