32   
1    

1    
  0.0100000000000000   0.0000000000000000   0.0000000000000000
  -0.0179672900   -0.0000000000   -0.0000000000
   0.0009355800   -0.0000000000   -0.0000000000
  -0.0002812600    0.0000000000   -0.0000000000
  -0.0004976700   -0.0000000000    0.0000000000
  -0.0002812600    0.0000000000   -0.0000000000
  -0.0004976700    0.0000000000    0.0000000000
   0.0000570800    0.0000000000    0.0000000000
  -0.0001045600   -0.0000000000   -0.0000000000
   0.0020729500    0.0024007800    0.0000000000
   0.0019717000   -0.0022739400   -0.0000000000
   0.0020729500   -0.0024007800    0.0000000000
   0.0019717000    0.0022739400   -0.0000000000
   0.0002251900    0.0000414900    0.0000000000
   0.0002244200   -0.0000411400    0.0000000000
   0.0002251900   -0.0000414900    0.0000000000
   0.0002244200    0.0000411400   -0.0000000000
   0.0020729500    0.0000000000    0.0024007800
   0.0019717000   -0.0000000000   -0.0022739400
   0.0002251900   -0.0000000000    0.0000414900
   0.0002244200   -0.0000000000   -0.0000411400
   0.0020729500    0.0000000000   -0.0024007800
   0.0019717000    0.0000000000    0.0022739400
   0.0002251900    0.0000000000   -0.0000414900
   0.0002244200    0.0000000000    0.0000411400
  -0.0003482500   -0.0000012900   -0.0000012900
   0.0005132500    0.0000017800    0.0000017800
  -0.0003482500    0.0000012900   -0.0000012900
   0.0005132500   -0.0000017800    0.0000017800
  -0.0003482500   -0.0000012900    0.0000012900
   0.0005132500    0.0000017800   -0.0000017800
  -0.0003482500    0.0000012900    0.0000012900
   0.0005132500   -0.0000017800   -0.0000017800
