mesh: [    48,    48,    48 ]
nqpoint: 2600   
reciprocal_lattice:
- [   0.22876040,   0.00000000,   0.00000000 ] # a*
- [   0.00000000,   0.22876040,   0.00000000 ] # b*
- [   0.00000000,   0.00000000,   0.22876040 ] # c*
natom:   4      
lattice:
- [     4.371386020697264,     0.000000000000000,     0.000000000000000 ] # a
- [     0.000000000000000,     4.371386020697264,     0.000000000000000 ] # b
- [     0.000000000000000,     0.000000000000000,     4.371386020697264 ] # c
points:
- symbol: Ag # 1
  coordinates: [  0.000000000000000,  0.000000000000000,  0.000000000000000 ]
  mass: 107.868200
- symbol: Ag # 2
  coordinates: [  0.500000000000000,  0.500000000000000,  0.000000000000000 ]
  mass: 107.868200
- symbol: Ag # 3
  coordinates: [  0.500000000000000,  0.000000000000000,  0.500000000000000 ]
  mass: 107.868200
- symbol: Ag # 4
  coordinates: [  0.000000000000000,  0.500000000000000,  0.500000000000000 ]
  mass: 107.868200
phonon:
- q-position: [    0.0104167,    0.0104167,    0.0104167 ]
  weight: 8    
  band:
  - # 1
    frequency:     0.0565789729
  - # 2
    frequency:     0.0565789729
  - # 3
    frequency:     0.1006202632
  - # 4
    frequency:     2.0899392896
  - # 5
    frequency:     2.0899392896
  - # 6
    frequency:     2.0899392896
  - # 7
    frequency:     2.0910425421
  - # 8
    frequency:     2.0910425421
  - # 9
    frequency:     2.0910425421
  - # 10
    frequency:     2.8532909310
  - # 11
    frequency:     2.8532909310
  - # 12
    frequency:     2.8532909310

- q-position: [    0.0312500,    0.0104167,    0.0104167 ]
  weight: 24   
  band:
  - # 1
    frequency:     0.1102588044
  - # 2
    frequency:     0.1132705619
  - # 3
    frequency:     0.1884761403
  - # 4
    frequency:     2.0875941117
  - # 5
    frequency:     2.0875941117
  - # 6
    frequency:     2.0877703883
  - # 7
    frequency:     2.0888690624
  - # 8
    frequency:     2.0916724131
  - # 9
    frequency:     2.0916724131
  - # 10
    frequency:     2.8507086541
  - # 11
    frequency:     2.8507086541
  - # 12
    frequency:     2.8515224161

- q-position: [    0.0520833,    0.0104167,    0.0104167 ]
  weight: 24   
  band:
  - # 1
    frequency:     0.1766037965
  - # 2
    frequency:     0.1790067709
  - # 3
    frequency:     0.2914724014
  - # 4
    frequency:     2.0834308516
  - # 5
    frequency:     2.0834308516
  - # 6
    frequency:     2.0834342494
  - # 7
    frequency:     2.0845238263
  - # 8
    frequency:     2.0924530070
  - # 9
    frequency:     2.0924530070
  - # 10
    frequency:     2.8455631734
  - # 11
    frequency:     2.8455631734
  - # 12
    frequency:     2.8479731745

- q-position: [    0.0729167,    0.0104167,    0.0104167 ]
  weight: 24   
  band:
  - # 1
    frequency:     0.2446303448
  - # 2
    frequency:     0.2464777754
  - # 3
    frequency:     0.3979821214
  - # 4
    frequency:     2.0769342053
  - # 5
    frequency:     2.0773613516
  - # 6
    frequency:     2.0773613516
  - # 7
    frequency:     2.0780102829
  - # 8
    frequency:     2.0935677230
  - # 9
    frequency:     2.0935677230
  - # 10
    frequency:     2.8378925247
  - # 11
    frequency:     2.8378925247
  - # 12
    frequency:     2.8426189905

- q-position: [    0.0937500,    0.0104167,    0.0104167 ]
  weight: 24   
  band:
  - # 1
    frequency:     0.3128943395
  - # 2
    frequency:     0.3143568300
  - # 3
    frequency:     0.5052928829
  - # 4
    frequency:     2.0682752665
  - # 5
    frequency:     2.0693336128
  - # 6
    frequency:     2.0694344590
  - # 7
    frequency:     2.0694344590
  - # 8
    frequency:     2.0951089360
  - # 9
    frequency:     2.0951089360
  - # 10
    frequency:     2.8277534839
  - # 11
    frequency:     2.8277534839
  - # 12
    frequency:     2.8354240556

- q-position: [    0.1145833,    0.0104167,    0.0104167 ]
  weight: 24   
  band:
  - # 1
    frequency:     0.3810061841
  - # 2
    frequency:     0.3821952639
  - # 3
    frequency:     0.6123710354
  - # 4
    frequency:     2.0574641360
  - # 5
    frequency:     2.0585007358
  - # 6
    frequency:     2.0597535822
  - # 7
    frequency:     2.0597535822
  - # 8
    frequency:     2.0971584617
  - # 9
    frequency:     2.0971584617
  - # 10
    frequency:     2.8152212293
  - # 11
    frequency:     2.8152212293
  - # 12
    frequency:     2.8263415745

- q-position: [    0.1354167,    0.0104167,    0.0104167 ]
  weight: 24   
  band:
  - # 1
    frequency:     0.4487822902
  - # 2
    frequency:     0.4497676814
  - # 3
    frequency:     0.7186653885
  - # 4
    frequency:     2.0445092273
  - # 5
    frequency:     2.0455203226
  - # 6
    frequency:     2.0484565154
  - # 7
    frequency:     2.0484565154
  - # 8
    frequency:     2.0998050750
  - # 9
    frequency:     2.0998050750
  - # 10
    frequency:     2.8003888869
  - # 11
    frequency:     2.8003888869
  - # 12
    frequency:     2.8153145523

- q-position: [    0.1562500,    0.0104167,    0.0104167 ]
  weight: 24   
  band:
  - # 1
    frequency:     0.5160996815
  - # 2
    frequency:     0.5169264837
  - # 3
    frequency:     0.8238053089
  - # 4
    frequency:     2.0294206876
  - # 5
    frequency:     2.0304028089
  - # 6
    frequency:     2.0357095520
  - # 7
    frequency:     2.0357095520
  - # 8
    frequency:     2.1031470538
  - # 9
    frequency:     2.1031470538
  - # 10
    frequency:     2.7833669513
  - # 11
    frequency:     2.7833669513
  - # 12
    frequency:     2.8022767473

- q-position: [    0.1770833,    0.0104167,    0.0104167 ]
  weight: 24   
  band:
  - # 1
    frequency:     0.5828587227
  - # 2
    frequency:     0.5835573124
  - # 3
    frequency:     0.9275025791
  - # 4
    frequency:     2.0122104239
  - # 5
    frequency:     2.0131604131
  - # 6
    frequency:     2.0217046770
  - # 7
    frequency:     2.0217046770
  - # 8
    frequency:     2.1072909450
  - # 9
    frequency:     2.1072909450
  - # 10
    frequency:     2.7642825779
  - # 11
    frequency:     2.7642825779
  - # 12
    frequency:     2.7871537700

- q-position: [    0.1979167,    0.0104167,    0.0104167 ]
  weight: 24   
  band:
  - # 1
    frequency:     0.6489707742
  - # 2
    frequency:     0.6495623475
  - # 3
    frequency:     1.0295136363
  - # 4
    frequency:     1.9928921326
  - # 5
    frequency:     1.9938071573
  - # 6
    frequency:     2.0066573421
  - # 7
    frequency:     2.0066573421
  - # 8
    frequency:     2.1123490505
  - # 9
    frequency:     2.1123490505
  - # 10
    frequency:     2.7432787378
  - # 11
    frequency:     2.7432787378
  - # 12
    frequency:     2.7698643070

- q-position: [    0.2187500,    0.0104167,    0.0104167 ]
  weight: 24   
  band:
  - # 1
    frequency:     0.7143533465
  - # 2
    frequency:     0.7148531237
  - # 3
    frequency:     1.1296232848
  - # 4
    frequency:     1.9714813327
  - # 5
    frequency:     1.9723588912
  - # 6
    frequency:     1.9908041314
  - # 7
    frequency:     1.9908041314
  - # 8
    frequency:     2.1184363258
  - # 9
    frequency:     2.1184363258
  - # 10
    frequency:     2.7205132282
  - # 11
    frequency:     2.7205132282
  - # 12
    frequency:     2.7503214460

- q-position: [    0.2395833,    0.0104167,    0.0104167 ]
  weight: 24   
  band:
  - # 1
    frequency:     0.7789279664
  - # 2
    frequency:     0.7793471253
  - # 3
    frequency:     1.2276371317
  - # 4
    frequency:     1.9479954002
  - # 5
    frequency:     1.9488333196
  - # 6
    frequency:     1.9744000739
  - # 7
    frequency:     1.9744000739
  - # 8
    frequency:     2.1256669570
  - # 9
    frequency:     2.1256669570
  - # 10
    frequency:     2.6961575295
  - # 11
    frequency:     2.6961575295
  - # 12
    frequency:     2.7284340801

- q-position: [    0.2604167,    0.0104167,    0.0104167 ]
  weight: 24   
  band:
  - # 1
    frequency:     0.8426191668
  - # 2
    frequency:     0.8429660563
  - # 3
    frequency:     1.3233779336
  - # 4
    frequency:     1.9224536054
  - # 5
    frequency:     1.9232500321
  - # 6
    frequency:     1.9577154766
  - # 7
    frequency:     1.9577154766
  - # 8
    frequency:     2.1341507723
  - # 9
    frequency:     2.1341507723
  - # 10
    frequency:     2.6703954998
  - # 11
    frequency:     2.6703954998
  - # 12
    frequency:     2.7041083653

- q-position: [    0.2812500,    0.0104167,    0.0104167 ]
  weight: 24   
  band:
  - # 1
    frequency:     0.9053539882
  - # 2
    frequency:     0.9056349197
  - # 3
    frequency:     1.4166838292
  - # 4
    frequency:     1.8948771508
  - # 5
    frequency:     1.8956305352
  - # 6
    frequency:     1.9410322095
  - # 7
    frequency:     1.9410322095
  - # 8
    frequency:     2.1439896150
  - # 9
    frequency:     2.1439896150
  - # 10
    frequency:     2.6434218980
  - # 11
    frequency:     2.6434218980
  - # 12
    frequency:     2.6772492096

- q-position: [    0.3020833,    0.0104167,    0.0104167 ]
  weight: 24   
  band:
  - # 1
    frequency:     0.9670617331
  - # 2
    frequency:     0.9672815130
  - # 3
    frequency:     1.5074075251
  - # 4
    frequency:     1.8652892100
  - # 5
    frequency:     1.8659982862
  - # 6
    frequency:     1.9246394005
  - # 7
    frequency:     1.9246394005
  - # 8
    frequency:     2.1552738008
  - # 9
    frequency:     2.1552738008
  - # 10
    frequency:     2.6154407293
  - # 11
    frequency:     2.6154407293
  - # 12
    frequency:     2.6477617707

- q-position: [    0.3229167,    0.0104167,    0.0104167 ]
  weight: 24   
  band:
  - # 1
    frequency:     1.0276738501
  - # 2
    frequency:     1.0278361502
  - # 3
    frequency:     1.5954159754
  - # 4
    frequency:     1.8337149668
  - # 5
    frequency:     1.8343787283
  - # 6
    frequency:     1.9088285301
  - # 7
    frequency:     1.9088285301
  - # 8
    frequency:     2.1680787772
  - # 9
    frequency:     2.1680787772
  - # 10
    frequency:     2.5866634066
  - # 11
    frequency:     2.5866634066
  - # 12
    frequency:     2.6155529409

- q-position: [    0.3437500,    0.0104167,    0.0104167 ]
  weight: 24   
  band:
  - # 1
    frequency:     1.0871238890
  - # 2
    frequency:     1.0872315105
  - # 3
    frequency:     1.6805903110
  - # 4
    frequency:     1.8001816530
  - # 5
    frequency:     1.8007993257
  - # 6
    frequency:     1.8938879583
  - # 7
    frequency:     1.8938879583
  - # 8
    frequency:     2.1824621024
  - # 9
    frequency:     2.1824621024
  - # 10
    frequency:     2.5573067272
  - # 11
    frequency:     2.5573067272
  - # 12
    frequency:     2.5805328008

- q-position: [    0.3645833,    0.0104167,    0.0104167 ]
  weight: 24   
  band:
  - # 1
    frequency:     1.1453474932
  - # 2
    frequency:     1.1454025598
  - # 3
    frequency:     1.7628258842
  - # 4
    frequency:     1.7647185856
  - # 5
    frequency:     1.7652895983
  - # 6
    frequency:     1.8800969599
  - # 7
    frequency:     1.8800969599
  - # 8
    frequency:     2.1984608473
  - # 9
    frequency:     2.1984608473
  - # 10
    frequency:     2.5275906665
  - # 11
    frequency:     2.5275906665
  - # 12
    frequency:     2.5426160242

- q-position: [    0.3854167,    0.0104167,    0.0104167 ]
  weight: 24   
  band:
  - # 1
    frequency:     1.2022824119
  - # 2
    frequency:     1.2022865151
  - # 3
    frequency:     1.7273572019
  - # 4
    frequency:     1.7278811559
  - # 5
    frequency:     1.8420323480
  - # 6
    frequency:     1.8677194043
  - # 7
    frequency:     1.8677194043
  - # 8
    frequency:     2.2160895068
  - # 9
    frequency:     2.2160895068
  - # 10
    frequency:     2.4977360032
  - # 11
    frequency:     2.4977360032
  - # 12
    frequency:     2.5017232188

- q-position: [    0.4062500,    0.0104167,    0.0104167 ]
  weight: 24   
  band:
  - # 1
    frequency:     1.2578228327
  - # 2
    frequency:     1.2578685219
  - # 3
    frequency:     1.6881310923
  - # 4
    frequency:     1.6886077292
  - # 5
    frequency:     1.8569972691
  - # 6
    frequency:     1.8569972691
  - # 7
    frequency:     1.9181337220
  - # 8
    frequency:     2.2353384826
  - # 9
    frequency:     2.2353384826
  - # 10
    frequency:     2.4577821904
  - # 11
    frequency:     2.4679617969
  - # 12
    frequency:     2.4679617969

- q-position: [    0.4270833,    0.0104167,    0.0104167 ]
  weight: 24   
  band:
  - # 1
    frequency:     1.3119532094
  - # 2
    frequency:     1.3120478525
  - # 3
    frequency:     1.6470760297
  - # 4
    frequency:     1.6475051992
  - # 5
    frequency:     1.8481442379
  - # 6
    frequency:     1.8481442379
  - # 7
    frequency:     1.9910684125
  - # 8
    frequency:     2.2561731505
  - # 9
    frequency:     2.2561731505
  - # 10
    frequency:     2.4107291192
  - # 11
    frequency:     2.4384827727
  - # 12
    frequency:     2.4384827727

- q-position: [    0.4479167,    0.0104167,    0.0104167 ]
  weight: 24   
  band:
  - # 1
    frequency:     1.3646215901
  - # 2
    frequency:     1.3647646094
  - # 3
    frequency:     1.6042299955
  - # 4
    frequency:     1.6046116225
  - # 5
    frequency:     1.8413396726
  - # 6
    frequency:     1.8413396726
  - # 7
    frequency:     2.0607891661
  - # 8
    frequency:     2.2785334215
  - # 9
    frequency:     2.2785334215
  - # 10
    frequency:     2.3605096402
  - # 11
    frequency:     2.4095067552
  - # 12
    frequency:     2.4095067552

- q-position: [    0.4687500,    0.0104167,    0.0104167 ]
  weight: 24   
  band:
  - # 1
    frequency:     1.4157741768
  - # 2
    frequency:     1.4159651963
  - # 3
    frequency:     1.5596332018
  - # 4
    frequency:     1.5599672530
  - # 5
    frequency:     1.8367232760
  - # 6
    frequency:     1.8367232760
  - # 7
    frequency:     2.1272629414
  - # 8
    frequency:     2.3023330985
  - # 9
    frequency:     2.3023330985
  - # 10
    frequency:     2.3070798199
  - # 11
    frequency:     2.3812328827
  - # 12
    frequency:     2.3812328827

- q-position: [    0.4895833,    0.0104167,    0.0104167 ]
  weight: 24   
  band:
  - # 1
    frequency:     1.4653594369
  - # 2
    frequency:     1.4655982312
  - # 3
    frequency:     1.5133281086
  - # 4
    frequency:     1.5136145582
  - # 5
    frequency:     1.8343907545
  - # 6
    frequency:     1.8343907545
  - # 7
    frequency:     2.1904706881
  - # 8
    frequency:     2.2504070264
  - # 9
    frequency:     2.3274474644
  - # 10
    frequency:     2.3274474644
  - # 11
    frequency:     2.3538621870
  - # 12
    frequency:     2.3538621870

- q-position: [    0.0312500,    0.0312500,    0.0104167 ]
  weight: 24   
  band:
  - # 1
    frequency:     0.1382293437
  - # 2
    frequency:     0.1491345887
  - # 3
    frequency:     0.2510449211
  - # 4
    frequency:     2.0838290707
  - # 5
    frequency:     2.0854283387
  - # 6
    frequency:     2.0854283387
  - # 7
    frequency:     2.0894968661
  - # 8
    frequency:     2.0894968661
  - # 9
    frequency:     2.0937380478
  - # 10
    frequency:     2.8481293649
  - # 11
    frequency:     2.8489645305
  - # 12
    frequency:     2.8489645305

- q-position: [    0.0520833,    0.0312500,    0.0104167 ]
  weight: 48   
  band:
  - # 1
    frequency:     0.1906651183
  - # 2
    frequency:     0.2034318381
  - # 3
    frequency:     0.3377400653
  - # 4
    frequency:     2.0785300100
  - # 5
    frequency:     2.0810985093
  - # 6
    frequency:     2.0812653365
  - # 7
    frequency:     2.0851476411
  - # 8
    frequency:     2.0902791400
  - # 9
    frequency:     2.0956859098
  - # 10
    frequency:     2.8429898310
  - # 11
    frequency:     2.8438676932
  - # 12
    frequency:     2.8454638486

- q-position: [    0.0729167,    0.0312500,    0.0104167 ]
  weight: 48   
  band:
  - # 1
    frequency:     0.2528638910
  - # 2
    frequency:     0.2645795875
  - # 3
    frequency:     0.4339295531
  - # 4
    frequency:     2.0717082786
  - # 5
    frequency:     2.0746080592
  - # 6
    frequency:     2.0751941314
  - # 7
    frequency:     2.0786284732
  - # 8
    frequency:     2.0913980092
  - # 9
    frequency:     2.0975992290
  - # 10
    frequency:     2.8353280306
  - # 11
    frequency:     2.8362696614
  - # 12
    frequency:     2.8401819556

- q-position: [    0.0937500,    0.0312500,    0.0104167 ]
  weight: 48   
  band:
  - # 1
    frequency:     0.3183372230
  - # 2
    frequency:     0.3285655380
  - # 3
    frequency:     0.5343375982
  - # 4
    frequency:     2.0633095809
  - # 5
    frequency:     2.0659621481
  - # 6
    frequency:     2.0672637098
  - # 7
    frequency:     2.0699449582
  - # 8
    frequency:     2.0929451633
  - # 9
    frequency:     2.0996725431
  - # 10
    frequency:     2.8252006534
  - # 11
    frequency:     2.8262267930
  - # 12
    frequency:     2.8330824102

- q-position: [    0.1145833,    0.0312500,    0.0104167 ]
  weight: 48   
  band:
  - # 1
    frequency:     0.3849006274
  - # 2
    frequency:     0.3937846704
  - # 3
    frequency:     0.6365406139
  - # 4
    frequency:     2.0533475730
  - # 5
    frequency:     2.0551676673
  - # 6
    frequency:     2.0575771346
  - # 7
    frequency:     2.0591045452
  - # 8
    frequency:     2.0950020421
  - # 9
    frequency:     2.1020761383
  - # 10
    frequency:     2.8126827648
  - # 11
    frequency:     2.8138137108
  - # 12
    frequency:     2.8241176136

- q-position: [    0.1354167,    0.0312500,    0.0104167 ]
  weight: 48   
  band:
  - # 1
    frequency:     0.4517076231
  - # 2
    frequency:     0.4594749743
  - # 3
    frequency:     0.7392281123
  - # 4
    frequency:     2.0418992988
  - # 5
    frequency:     2.0422332497
  - # 6
    frequency:     2.0461165307
  - # 7
    frequency:     2.0462716028
  - # 8
    frequency:     2.0976571300
  - # 9
    frequency:     2.1049579782
  - # 10
    frequency:     2.7978673505
  - # 11
    frequency:     2.7991228468
  - # 12
    frequency:     2.8132296283

- q-position: [    0.1562500,    0.0312500,    0.0104167 ]
  weight: 48   
  band:
  - # 1
    frequency:     0.5183585940
  - # 2
    frequency:     0.5252133456
  - # 3
    frequency:     0.8415950836
  - # 4
    frequency:     2.0271692821
  - # 5
    frequency:     2.0290920692
  - # 6
    frequency:     2.0309920530
  - # 7
    frequency:     2.0335126426
  - # 8
    frequency:     2.1010084240
  - # 9
    frequency:     2.1084535073
  - # 10
    frequency:     2.7808647399
  - # 11
    frequency:     2.7822638649
  - # 12
    frequency:     2.8003511664

- q-position: [    0.1770833,    0.0312500,    0.0104167 ]
  weight: 48   
  band:
  - # 1
    frequency:     0.5846243826
  - # 2
    frequency:     0.5907313660
  - # 3
    frequency:     0.9430919228
  - # 4
    frequency:     2.0099879208
  - # 5
    frequency:     2.0137440908
  - # 6
    frequency:     2.0150928965
  - # 7
    frequency:     2.0194913440
  - # 8
    frequency:     2.1051621765
  - # 9
    frequency:     2.1126922081
  - # 10
    frequency:     2.7618018991
  - # 11
    frequency:     2.7633629541
  - # 12
    frequency:     2.7854067268

- q-position: [    0.1979167,    0.0312500,    0.0104167 ]
  weight: 48   
  band:
  - # 1
    frequency:     0.6503495417
  - # 2
    frequency:     0.6558389837
  - # 3
    frequency:     1.0433102227
  - # 4
    frequency:     1.9907031086
  - # 5
    frequency:     1.9943874666
  - # 6
    frequency:     2.0001008991
  - # 7
    frequency:     2.0044221559
  - # 8
    frequency:     2.1102303754
  - # 9
    frequency:     2.1178004910
  - # 10
    frequency:     2.7408215885
  - # 11
    frequency:     2.7425619850
  - # 12
    frequency:     2.7683138576

- q-position: [    0.2187500,    0.0312500,    0.0104167 ]
  weight: 48   
  band:
  - # 1
    frequency:     0.7154142521
  - # 2
    frequency:     0.7203894315
  - # 3
    frequency:     1.1419264398
  - # 4
    frequency:     1.9693305954
  - # 5
    frequency:     1.9729388557
  - # 6
    frequency:     1.9843416160
  - # 7
    frequency:     1.9885405747
  - # 8
    frequency:     2.1163276433
  - # 9
    frequency:     2.1239019847
  - # 10
    frequency:     2.7180813760
  - # 11
    frequency:     2.7200175225
  - # 12
    frequency:     2.7489845189

- q-position: [    0.2395833,    0.0312500,    0.0104167 ]
  weight: 48   
  band:
  - # 1
    frequency:     0.7797177548
  - # 2
    frequency:     0.7842616936
  - # 3
    frequency:     1.2386723674
  - # 4
    frequency:     1.9458879612
  - # 5
    frequency:     1.9494168016
  - # 6
    frequency:     1.9680622816
  - # 7
    frequency:     1.9721004792
  - # 8
    frequency:     2.1235678170
  - # 9
    frequency:     2.1311161907
  - # 10
    frequency:     2.6937524970
  - # 11
    frequency:     2.6958996860
  - # 12
    frequency:     2.7273265227

- q-position: [    0.2604167,    0.0312500,    0.0104167 ]
  weight: 48   
  band:
  - # 1
    frequency:     0.8431705216
  - # 2
    frequency:     0.8473511339
  - # 3
    frequency:     1.3333188942
  - # 4
    frequency:     1.9203946408
  - # 5
    frequency:     1.9238417388
  - # 6
    frequency:     1.9515274221
  - # 7
    frequency:     1.9553709928
  - # 8
    frequency:     2.1320603632
  - # 9
    frequency:     2.1395561749
  - # 10
    frequency:     2.6680185544
  - # 11
    frequency:     2.6703908483
  - # 12
    frequency:     2.7032450233

- q-position: [    0.2812500,    0.0312500,    0.0104167 ]
  weight: 48   
  band:
  - # 1
    frequency:     0.9056903011
  - # 2
    frequency:     0.9095642034
  - # 3
    frequency:     1.4256667220
  - # 4
    frequency:     1.8928719516
  - # 5
    frequency:     1.8962360210
  - # 6
    frequency:     1.9350143786
  - # 7
    frequency:     1.9386328019
  - # 8
    frequency:     2.1419067551
  - # 9
    frequency:     2.1493257436
  - # 10
    frequency:     2.6410740483
  - # 11
    frequency:     2.6436841660
  - # 12
    frequency:     2.6766440355

- q-position: [    0.3020833,    0.0312500,    0.0104167 ]
  weight: 48   
  band:
  - # 1
    frequency:     0.9672000133
  - # 2
    frequency:     0.9708153143
  - # 3
    frequency:     1.5155409021
  - # 4
    frequency:     1.8633431234
  - # 5
    frequency:     1.8666239558
  - # 6
    frequency:     1.9188085264
  - # 7
    frequency:     1.9221738882
  - # 8
    frequency:     2.1531969311
  - # 9
    frequency:     2.1605164141
  - # 10
    frequency:     2.6131227309
  - # 11
    frequency:     2.6159819351
  - # 12
    frequency:     2.6474279583

- q-position: [    0.3229167,    0.0312500,    0.0104167 ]
  weight: 48   
  band:
  - # 1
    frequency:     1.0276265852
  - # 2
    frequency:     1.0310249220
  - # 3
    frequency:     1.6027875421
  - # 4
    frequency:     1.8318333301
  - # 5
    frequency:     1.8350318438
  - # 6
    frequency:     1.9031980700
  - # 7
    frequency:     1.9062846680
  - # 8
    frequency:     2.1660059526
  - # 9
    frequency:     2.1732044078
  - # 10
    frequency:     2.5843757832
  - # 11
    frequency:     2.5874937681
  - # 12
    frequency:     2.6155030828

- q-position: [    0.3437500,    0.0312500,    0.0104167 ]
  weight: 48   
  band:
  - # 1
    frequency:     1.0869002903
  - # 2
    frequency:     1.0901183080
  - # 3
    frequency:     1.6872717808
  - # 4
    frequency:     1.7983697226
  - # 5
    frequency:     1.8014880216
  - # 6
    frequency:     1.8884683789
  - # 7
    frequency:     1.8912525654
  - # 8
    frequency:     2.1803909730
  - # 9
    frequency:     2.1874478407
  - # 10
    frequency:     2.5550498150
  - # 11
    frequency:     2.5584345962
  - # 12
    frequency:     2.5807790661

- q-position: [    0.3645833,    0.0312500,    0.0104167 ]
  weight: 48   
  band:
  - # 1
    frequency:     1.1449543688
  - # 2
    frequency:     1.1480247863
  - # 3
    frequency:     1.7629814637
  - # 4
    frequency:     1.7660229067
  - # 5
    frequency:     1.7688765145
  - # 6
    frequency:     1.8748959067
  - # 7
    frequency:     1.8773560972
  - # 8
    frequency:     2.1963886128
  - # 9
    frequency:     2.2032842434
  - # 10
    frequency:     2.5253647039
  - # 11
    frequency:     2.5290225082
  - # 12
    frequency:     2.5431703544

- q-position: [    0.3854167,    0.0312500,    0.0104167 ]
  weight: 48   
  band:
  - # 1
    frequency:     1.2017248104
  - # 2
    frequency:     1.2046771701
  - # 3
    frequency:     1.7256997635
  - # 4
    frequency:     1.7286690434
  - # 5
    frequency:     1.8475015668
  - # 6
    frequency:     1.8627418031
  - # 7
    frequency:     1.8648586006
  - # 8
    frequency:     2.2140128089
  - # 9
    frequency:     2.2207284941
  - # 10
    frequency:     2.4955413078
  - # 11
    frequency:     2.4994764580
  - # 12
    frequency:     2.5025975424

- q-position: [    0.4062500,    0.0312500,    0.0104167 ]
  weight: 48   
  band:
  - # 1
    frequency:     1.2571502305
  - # 2
    frequency:     1.2600114079
  - # 3
    frequency:     1.6865579165
  - # 4
    frequency:     1.6894611476
  - # 5
    frequency:     1.8522453976
  - # 6
    frequency:     1.8540017921
  - # 7
    frequency:     1.9230631152
  - # 8
    frequency:     2.2332531421
  - # 9
    frequency:     2.2397711699
  - # 10
    frequency:     2.4589886550
  - # 11
    frequency:     2.4657991462
  - # 12
    frequency:     2.4700139192

- q-position: [    0.4270833,    0.0312500,    0.0104167 ]
  weight: 48   
  band:
  - # 1
    frequency:     1.3111717983
  - # 2
    frequency:     1.3139663303
  - # 3
    frequency:     1.6455913387
  - # 4
    frequency:     1.6484361506
  - # 5
    frequency:     1.8436177953
  - # 6
    frequency:     1.8449994026
  - # 7
    frequency:     1.9954932534
  - # 8
    frequency:     2.2540734856
  - # 9
    frequency:     2.2603771047
  - # 10
    frequency:     2.4122803444
  - # 11
    frequency:     2.4363543377
  - # 12
    frequency:     2.4408487138

- q-position: [    0.4479167,    0.0312500,    0.0104167 ]
  weight: 48   
  band:
  - # 1
    frequency:     1.3637331919
  - # 2
    frequency:     1.3664834741
  - # 3
    frequency:     1.6028376068
  - # 4
    frequency:     1.6056332382
  - # 5
    frequency:     1.8370358679
  - # 6
    frequency:     1.8380311780
  - # 7
    frequency:     2.0647396118
  - # 8
    frequency:     2.2764101755
  - # 9
    frequency:     2.2824830422
  - # 10
    frequency:     2.3624189937
  - # 11
    frequency:     2.4074189625
  - # 12
    frequency:     2.4121898642

- q-position: [    0.4687500,    0.0312500,    0.0104167 ]
  weight: 48   
  band:
  - # 1
    frequency:     1.4147805641
  - # 2
    frequency:     1.4175069601
  - # 3
    frequency:     1.5583364979
  - # 4
    frequency:     1.5610938869
  - # 5
    frequency:     1.8326369502
  - # 6
    frequency:     1.8332375550
  - # 7
    frequency:     2.1307649848
  - # 8
    frequency:     2.3001648441
  - # 9
    frequency:     2.3059867854
  - # 10
    frequency:     2.3093617233
  - # 11
    frequency:     2.3792094872
  - # 12
    frequency:     2.3842463604

- q-position: [    0.4895833,    0.0312500,    0.0104167 ]
  weight: 48   
  band:
  - # 1
    frequency:     1.4642625099
  - # 2
    frequency:     1.4669834111
  - # 3
    frequency:     1.5121300312
  - # 4
    frequency:     1.5148618950
  - # 5
    frequency:     1.8305145483
  - # 6
    frequency:     1.8307153237
  - # 7
    frequency:     2.1935469273
  - # 8
    frequency:     2.2530772969
  - # 9
    frequency:     2.3251240918
  - # 10
    frequency:     2.3305724093
  - # 11
    frequency:     2.3521197103
  - # 12
    frequency:     2.3573056872

- q-position: [    0.0520833,    0.0520833,    0.0104167 ]
  weight: 24   
  band:
  - # 1
    frequency:     0.2251927572
  - # 2
    frequency:     0.2457838879
  - # 3
    frequency:     0.4094278733
  - # 4
    frequency:     2.0717578985
  - # 5
    frequency:     2.0769362647
  - # 6
    frequency:     2.0769362647
  - # 7
    frequency:     2.0859334416
  - # 8
    frequency:     2.0859334416
  - # 9
    frequency:     2.0991690945
  - # 10
    frequency:     2.8378621330
  - # 11
    frequency:     2.8404638427
  - # 12
    frequency:     2.8404638427

- q-position: [    0.0729167,    0.0520833,    0.0104167 ]
  weight: 48   
  band:
  - # 1
    frequency:     0.2751560572
  - # 2
    frequency:     0.2980839453
  - # 3
    frequency:     0.4938516462
  - # 4
    frequency:     2.0635990548
  - # 5
    frequency:     2.0704475455
  - # 6
    frequency:     2.0708621113
  - # 7
    frequency:     2.0794199729
  - # 8
    frequency:     2.0870607953
  - # 9
    frequency:     2.1025112872
  - # 10
    frequency:     2.8302179427
  - # 11
    frequency:     2.8330103383
  - # 12
    frequency:     2.8353260776

- q-position: [    0.0937500,    0.0520833,    0.0104167 ]
  weight: 48   
  band:
  - # 1
    frequency:     0.3333102749
  - # 2
    frequency:     0.3557789676
  - # 3
    frequency:     0.5851350069
  - # 4
    frequency:     2.0541009197
  - # 5
    frequency:     2.0618050261
  - # 6
    frequency:     2.0629253312
  - # 7
    frequency:     2.0707448010
  - # 8
    frequency:     2.0886200367
  - # 9
    frequency:     2.1058033429
  - # 10
    frequency:     2.8201137787
  - # 11
    frequency:     2.8231588308
  - # 12
    frequency:     2.8284166659

- q-position: [    0.1145833,    0.0520833,    0.0104167 ]
  weight: 48   
  band:
  - # 1
    frequency:     0.3954329294
  - # 2
    frequency:     0.4164235203
  - # 3
    frequency:     0.6801922995
  - # 4
    frequency:     2.0432861633
  - # 5
    frequency:     2.0510164710
  - # 6
    frequency:     2.0532283317
  - # 7
    frequency:     2.0599159747
  - # 8
    frequency:     2.0906918640
  - # 9
    frequency:     2.1092039884
  - # 10
    frequency:     2.8076244799
  - # 11
    frequency:     2.8109827940
  - # 12
    frequency:     2.8196863719

- q-position: [    0.1354167,    0.0520833,    0.0104167 ]
  weight: 48   
  band:
  - # 1
    frequency:     0.4594025047