nqpoint: 204    
npath: 4      
segment_nqpoint:
- 51
- 51
- 51
- 51
reciprocal_lattice:
- [   0.33956346,   0.19477793,   0.00000000 ] # a*
- [  -0.00109909,   0.39145955,   0.00000000 ] # b*
- [   0.00000000,   0.00000000,   0.21721483 ] # c*
natom: 2      
lattice:
- [     2.940222366636026,     0.008255146727232,     0.000000000000000 ] # a
- [    -1.462961956844116,     2.550434870042714,     0.000000000000000 ] # b
- [     0.000000000000000,     0.000000000000000,     4.603737232645213 ] # c
points:
- symbol: Ti # 1
  coordinates: [  0.332230184158760,  0.667769815841240,  0.250000000000000 ]
  mass: 47.867000
- symbol: Ti # 2
  coordinates: [  0.667769815841240,  0.332230184158760,  0.750000000000000 ]
  mass: 47.867000
supercell_matrix:
- [    9,    0,    0 ]
- [    0,    9,    0 ]
- [    0,    0,    4 ]

phonon:
- q-position: [    0.0000000,    0.0000000,    0.0000000 ]
  distance:    0.0000000
  label: '\Gamma'
  band:
  - # 1
    frequency:   -0.0018802505
  - # 2
    frequency:   -0.0016396548
  - # 3
    frequency:    0.0024146357
  - # 4
    frequency:    3.9357774769
  - # 5
    frequency:    3.9699245038
  - # 6
    frequency:    6.4315104226

- q-position: [    0.0133333,    0.0066667,    0.0000000 ]
  distance:    0.0068951
  band:
  - # 1
    frequency:    0.1820134372
  - # 2
    frequency:    0.1838766049
  - # 3
    frequency:    0.3602126034
  - # 4
    frequency:    3.9570315365
  - # 5
    frequency:    3.9819165412
  - # 6
    frequency:    6.4320856299

- q-position: [    0.0266667,    0.0133333,    0.0000000 ]
  distance:    0.0137902
  band:
  - # 1
    frequency:    0.3641241284
  - # 2
    frequency:    0.3695472099
  - # 3
    frequency:    0.7190662941
  - # 4
    frequency:    4.0112359384
  - # 5
    frequency:    4.0259760409
  - # 6
    frequency:    6.4337695505

- q-position: [    0.0400000,    0.0200000,    0.0000000 ]
  distance:    0.0206853
  band:
  - # 1
    frequency:    0.5463898344
  - # 2
    frequency:    0.5583195115
  - # 3
    frequency:    1.0751640660
  - # 4
    frequency:    4.0705970553
  - # 5
    frequency:    4.1257703848
  - # 6
    frequency:    6.4364382925

- q-position: [    0.0533333,    0.0266667,    0.0000000 ]
  distance:    0.0275804
  band:
  - # 1
    frequency:    0.7288745145
  - # 2
    frequency:    0.7506358264
  - # 3
    frequency:    1.4270650283
  - # 4
    frequency:    4.1492234543
  - # 5
    frequency:    4.2611633674
  - # 6
    frequency:    6.4398893575

- q-position: [    0.0666667,    0.0333333,    0.0000000 ]
  distance:    0.0344755
  band:
  - # 1
    frequency:    0.9116196210
  - # 2
    frequency:    0.9461173483
  - # 3
    frequency:    1.7732614235
  - # 4
    frequency:    4.2481933023
  - # 5
    frequency:    4.4240404707
  - # 6
    frequency:    6.4438474448

- q-position: [    0.0800000,    0.0400000,    0.0000000 ]
  distance:    0.0413707
  band:
  - # 1
    frequency:    1.0946397521
  - # 2
    frequency:    1.1437810093
  - # 3
    frequency:    2.1121766770
  - # 4
    frequency:    4.3665179936
  - # 5
    frequency:    4.6081049889
  - # 6
    frequency:    6.4479722411

- q-position: [    0.0933333,    0.0466667,    0.0000000 ]
  distance:    0.0482658
  band:
  - # 1
    frequency:    1.2779176166
  - # 2
    frequency:    1.3423195906
  - # 3
    frequency:    2.4421824198
  - # 4
    frequency:    4.5029650496
  - # 5
    frequency:    4.8075556860
  - # 6
    frequency:    6.4518678888

- q-position: [    0.1066667,    0.0533333,    0.0000000 ]
  distance:    0.0551609
  band:
  - # 1
    frequency:    1.4613996339
  - # 2
    frequency:    1.5403413348
  - # 3
    frequency:    2.7616421510
  - # 4
    frequency:    4.6561824635
  - # 5
    frequency:    5.0172057959
  - # 6
    frequency:    6.4550937908

- q-position: [    0.1200000,    0.0600000,    0.0000000 ]
  distance:    0.0620560
  band:
  - # 1
    frequency:    1.6449923684
  - # 2
    frequency:    1.7365321077
  - # 3
    frequency:    3.0689872380
  - # 4
    frequency:    4.8246970540
  - # 5
    frequency:    5.2325308811
  - # 6
    frequency:    6.4571763871

- q-position: [    0.1333333,    0.0666667,    0.0000000 ]
  distance:    0.0689511
  band:
  - # 1
    frequency:    1.8285598447
  - # 2
    frequency:    1.9297446999
  - # 3
    frequency:    3.3628238376
  - # 4
    frequency:    5.0068583216
  - # 5
    frequency:    5.4496435816
  - # 6
    frequency:    6.4576215537

- q-position: [    0.1466667,    0.0733333,    0.0000000 ]
  distance:    0.0758462
  band:
  - # 1
    frequency:    2.0119217274
  - # 2
    frequency:    2.1190348926
  - # 3
    frequency:    3.6420551121
  - # 4
    frequency:    5.2007515967
  - # 5
    frequency:    5.6652364378
  - # 6
    frequency:    6.4559273037

- q-position: [    0.1600000,    0.0800000,    0.0000000 ]
  distance:    0.0827413
  band:
  - # 1
    frequency:    2.1948522900
  - # 2
    frequency:    2.3036640846
  - # 3
    frequency:    3.9059860565
  - # 4
    frequency:    5.4041135644
  - # 5
    frequency:    5.8765218717
  - # 6
    frequency:    6.4515965285

- q-position: [    0.1733333,    0.0866667,    0.0000000 ]
  distance:    0.0896364
  band:
  - # 1
    frequency:    2.3770800461
  - # 2
    frequency:    2.4830833786
  - # 3
    frequency:    4.1543708448
  - # 4
    frequency:    5.6142875223
  - # 5
    frequency:    6.0811872925
  - # 6
    frequency:    6.4441495863

- q-position: [    0.1866667,    0.0933333,    0.0000000 ]
  distance:    0.0965315
  band:
  - # 1
    frequency:    2.5582878521
  - # 2
    frequency:    2.6569088579
  - # 3
    frequency:    4.3873774250
  - # 4
    frequency:    5.8282365215
  - # 5
    frequency:    6.2773791500
  - # 6
    frequency:    6.4331366361

- q-position: [    0.2000000,    0.1000000,    0.0000000 ]
  distance:    0.1034266
  band:
  - # 1
    frequency:    2.7381132217
  - # 2
    frequency:    2.8248938558
  - # 3
    frequency:    4.6054779554
  - # 4
    frequency:    6.0425905387
  - # 5
    frequency:    6.4181497233
  - # 6
    frequency:    6.4637333763

- q-position: [    0.2133333,    0.1066667,    0.0000000 ]
  distance:    0.1103217
  band:
  - # 1
    frequency:    2.9161484922
  - # 2
    frequency:    2.9869014223
  - # 3
    frequency:    4.8093042937
  - # 4
    frequency:    6.2536585726
  - # 5
    frequency:    6.3988347535
  - # 6
    frequency:    6.6394821649

- q-position: [    0.2266667,    0.1133333,    0.0000000 ]
  distance:    0.1172168
  band:
  - # 1
    frequency:    3.0919403551
  - # 2
    frequency:    3.1428785995
  - # 3
    frequency:    4.9995141763
  - # 4
    frequency:    6.3749036639
  - # 5
    frequency:    6.4573105391
  - # 6
    frequency:    6.8046857731

- q-position: [    0.2400000,    0.1200000,    0.0000000 ]
  distance:    0.1241120
  band:
  - # 1
    frequency:    3.2649880651
  - # 2
    frequency:    3.2928332078
  - # 3
    frequency:    5.1766965455
  - # 4
    frequency:    6.3461473285
  - # 5
    frequency:    6.6486650482
  - # 6
    frequency:    6.9606237689

- q-position: [    0.2533333,    0.1266667,    0.0000000 ]
  distance:    0.1310071
  band:
  - # 1
    frequency:    3.4347393421
  - # 2
    frequency:    3.4368133723
  - # 3
    frequency:    5.3413206252
  - # 4
    frequency:    6.3124500687
  - # 5
    frequency:    6.8217817162
  - # 6
    frequency:    7.1101414460

- q-position: [    0.2666667,    0.1333333,    0.0000000 ]
  distance:    0.1379022
  band:
  - # 1
    frequency:    3.5748898272
  - # 2
    frequency:    3.6005825102
  - # 3
    frequency:    5.4937171238
  - # 4
    frequency:    6.2738071377
  - # 5
    frequency:    6.9703380674
  - # 6
    frequency:    7.2569820561

- q-position: [    0.2800000,    0.1400000,    0.0000000 ]
  distance:    0.1447973
  band:
  - # 1
    frequency:    3.7071410096
  - # 2
    frequency:    3.7618326639
  - # 3
    frequency:    5.6340743255
  - # 4
    frequency:    6.2303473248
  - # 5
    frequency:    7.0902715678
  - # 6
    frequency:    7.4031407174

- q-position: [    0.2933333,    0.1466667,    0.0000000 ]
  distance:    0.1516924
  band:
  - # 1
    frequency:    3.8336410187
  - # 2
    frequency:    3.9177084494
  - # 3
    frequency:    5.7624326442
  - # 4
    frequency:    6.1823640498
  - # 5
    frequency:    7.1817962845
  - # 6
    frequency:    7.5468461720

- q-position: [    0.3066667,    0.1533333,    0.0000000 ]
  distance:    0.1585875
  band:
  - # 1
    frequency:    3.9544506051
  - # 2
    frequency:    4.0672941531
  - # 3
    frequency:    5.8786635994
  - # 4
    frequency:    6.1303602262
  - # 5
    frequency:    7.2477672992
  - # 6
    frequency:    7.6842105884

- q-position: [    0.3200000,    0.1600000,    0.0000000 ]
  distance:    0.1654826
  band:
  - # 1
    frequency:    4.0696114207
  - # 2
    frequency:    4.2094789653
  - # 3
    frequency:    5.9824203850
  - # 4
    frequency:    6.0751150152
  - # 5
    frequency:    7.2913096197
  - # 6
    frequency:    7.8116428389

- q-position: [    0.3333333,    0.1666667,    0.0000000 ]
  distance:    0.1723777
  band:
  - # 1
    frequency:    4.1791437366
  - # 2
    frequency:    4.3428616563
  - # 3
    frequency:    6.0177842296
  - # 4
    frequency:    6.0730468940
  - # 5
    frequency:    7.3151544133
  - # 6
    frequency:    7.9265950337

- q-position: [    0.3466667,    0.1733333,    0.0000000 ]
  distance:    0.1792728
  band:
  - # 1
    frequency:    4.2830476597
  - # 2
    frequency:    4.4656064540
  - # 3
    frequency:    5.9600486046
  - # 4
    frequency:    6.1494326985
  - # 5
    frequency:    7.3219446269
  - # 6
    frequency:    8.0273924467

- q-position: [    0.3600000,    0.1800000,    0.0000000 ]
  distance:    0.1861679
  band:
  - # 1
    frequency:    4.3813074523
  - # 2
    frequency:    4.5752430450
  - # 3
    frequency:    5.9043170293
  - # 4
    frequency:    6.2098114224
  - # 5
    frequency:    7.3147077714
  - # 6
    frequency:    8.1129517831

- q-position: [    0.3733333,    0.1866667,    0.0000000 ]
  distance:    0.1930630
  band:
  - # 1
    frequency:    4.4738977283
  - # 2
    frequency:    4.6684462365
  - # 3
    frequency:    5.8539492162
  - # 4
    frequency:    6.2515398948
  - # 5
    frequency:    7.2972608854
  - # 6
    frequency:    8.1825863912

- q-position: [    0.3866667,    0.1933333,    0.0000000 ]
  distance:    0.1999582
  band:
  - # 1
    frequency:    4.5607887848
  - # 2
    frequency:    4.7409629971
  - # 3
    frequency:    5.8133301136
  - # 4
    frequency:    6.2709988895
  - # 5
    frequency:    7.2744161079
  - # 6
    frequency:    8.2358916906

- q-position: [    0.4000000,    0.2000000,    0.0000000 ]
  distance:    0.2068533
  band:
  - # 1
    frequency:    4.6419455409
  - # 2
    frequency:    4.7880961707
  - # 3
    frequency:    5.7873867848
  - # 4
    frequency:    6.2639158633
  - # 5
    frequency:    7.2517224277
  - # 6
    frequency:    8.2726801396

- q-position: [    0.4133333,    0.2066667,    0.0000000 ]
  distance:    0.2137484
  band:
  - # 1
    frequency:    4.7173090256
  - # 2
    frequency:    4.8061896468
  - # 3
    frequency:    5.7801029903
  - # 4
    frequency:    6.2264148306
  - # 5
    frequency:    7.2344703931
  - # 6
    frequency:    8.2929446576

- q-position: [    0.4266667,    0.2133333,    0.0000000 ]
  distance:    0.2206435
  band:
  - # 1
    frequency:    4.7867371176
  - # 2
    frequency:    4.7946304216
  - # 3
    frequency:    5.7925160466
  - # 4
    frequency:    6.1565612332
  - # 5
    frequency:    7.2262267306
  - # 6
    frequency:    8.2968388351

- q-position: [    0.4400000,    0.2200000,    0.0000000 ]
  distance:    0.2275386
  band:
  - # 1
    frequency:    4.7565523196
  - # 2
    frequency:    4.8498504684
  - # 3
    frequency:    5.8220111945
  - # 4
    frequency:    6.0554209749
  - # 5
    frequency:    7.2279395207
  - # 6
    frequency:    8.2846681501

- q-position: [    0.4533333,    0.2266667,    0.0000000 ]
  distance:    0.2344337
  band:
  - # 1
    frequency:    4.6973899520
  - # 2
    frequency:    4.9056420182
  - # 3
    frequency:    5.8637648830
  - # 4
    frequency:    5.9270607120
  - # 5
    frequency:    7.2383306413
  - # 6
    frequency:    8.2568901670

- q-position: [    0.4666667,    0.2333333,    0.0000000 ]
  distance:    0.2413288
  band:
  - # 1
    frequency:    4.6228312339
  - # 2
    frequency:    4.9514320565
  - # 3
    frequency:    5.7784660383
  - # 4
    frequency:    5.9127886098
  - # 5
    frequency:    7.2550162367
  - # 6
    frequency:    8.2141249171

- q-position: [    0.4800000,    0.2400000,    0.0000000 ]
  distance:    0.2482239
  band:
  - # 1
    frequency:    4.5376867367
  - # 2
    frequency:    4.9798596804
  - # 3
    frequency:    5.6216242285
  - # 4
    frequency:    5.9650549735
  - # 5
    frequency:    7.2754131195
  - # 6
    frequency:    8.1571810973

- q-position: [    0.4933333,    0.2466667,    0.0000000 ]
  distance:    0.2551190
  band:
  - # 1
    frequency:    4.4456938407
  - # 2
    frequency:    4.9710204929
  - # 3
    frequency:    5.4809730402
  - # 4
    frequency:    6.0176878730
  - # 5
    frequency:    7.2971071063
  - # 6
    frequency:    8.0871125219

- q-position: [    0.5066667,    0.2533333,    0.0000000 ]
  distance:    0.2620141
  band:
  - # 1
    frequency:    4.3497173937
  - # 2
    frequency:    4.8889537921
  - # 3
    frequency:    5.3968503192
  - # 4
    frequency:    6.0687550037
  - # 5
    frequency:    7.3178125375
  - # 6
    frequency:    8.0053402687

- q-position: [    0.5200000,    0.2600000,    0.0000000 ]
  distance:    0.2689092
  band:
  - # 1
    frequency:    4.2520065330
  - # 2
    frequency:    4.7253668139
  - # 3
    frequency:    5.3818514522
  - # 4
    frequency:    6.1170028076
  - # 5
    frequency:    7.3350416108
  - # 6
    frequency:    7.9139310640

- q-position: [    0.5333333,    0.2666667,    0.0000000 ]
  distance:    0.2758044
  band:
  - # 1
    frequency:    4.1543969724
  - # 2
    frequency:    4.5131547950
  - # 3
    frequency:    5.4074283766
  - # 4
    frequency:    6.1616443488
  - # 5
    frequency:    7.3453575668
  - # 6
    frequency:    7.8162702932

- q-position: [    0.5466667,    0.2733333,    0.0000000 ]
  distance:    0.2826995
  band:
  - # 1
    frequency:    4.0584476153
  - # 2
    frequency:    4.2781261299
  - # 3
    frequency:    5.4522866290
  - # 4
    frequency:    6.2022109998
  - # 5
    frequency:    7.3426997924
  - # 6
    frequency:    7.7186815563

- q-position: [    0.5600000,    0.2800000,    0.0000000 ]
  distance:    0.2895946
  band:
  - # 1
    frequency:    3.9655261613
  - # 2
    frequency:    4.0335784397
  - # 3
    frequency:    5.5079309312
  - # 4
    frequency:    6.2384530099
  - # 5
    frequency:    7.3156525773
  - # 6
    frequency:    7.6331301491

- q-position: [    0.5733333,    0.2866667,    0.0000000 ]
  distance:    0.2964897
  band:
  - # 1
    frequency:    3.7880228095
  - # 2
    frequency:    3.8768594355
  - # 3
    frequency:    5.5710619324
  - # 4
    frequency:    6.2702730070
  - # 5
    frequency:    7.2504133624
  - # 6
    frequency:    7.5742570194

- q-position: [    0.5866667,    0.2933333,    0.0000000 ]
  distance:    0.3033848
  band:
  - # 1
    frequency:    3.5487502911
  - # 2
    frequency:    3.7935600025
  - # 3
    frequency:    5.6401137046
  - # 4
    frequency:    6.2976807470
  - # 5
    frequency:    7.1474853643
  - # 6
    frequency:    7.5427273096

- q-position: [    0.6000000,    0.3000000,    0.0000000 ]
  distance:    0.3102799
  band:
  - # 1
    frequency:    3.3232003764
  - # 2
    frequency:    3.7166367623
  - # 3
    frequency:    5.7139121618
  - # 4
    frequency:    6.3207614633
  - # 5
    frequency:    7.0210484059
  - # 6
    frequency:    7.5259705450

- q-position: [    0.6133333,    0.3066667,    0.0000000 ]
  distance:    0.3171750
  band:
  - # 1
    frequency:    3.1194980963
  - # 2
    frequency:    3.6469946410
  - # 3
    frequency:    5.7909258459
  - # 4
    frequency:    6.3396530185
  - # 5
    frequency:    6.8832074415
  - # 6
    frequency:    7.5142039175

- q-position: [    0.6266667,    0.3133333,    0.0000000 ]
  distance:    0.3240701
  band:
  - # 1
    frequency:    2.9465071426
  - # 2
    frequency:    3.5854269919
  - # 3
    frequency:    5.8683539228
  - # 4
    frequency:    6.3545288879
  - # 5
    frequency:    6.7423252574
  - # 6
    frequency:    7.5028063415

- q-position: [    0.6400000,    0.3200000,    0.0000000 ]
  distance:    0.3309652
  band:
  - # 1
    frequency:    2.8133707770
  - # 2
    frequency:    3.5326035651
  - # 3
    frequency:    5.9400150970
  - # 4
    frequency:    6.3655851519
  - # 5
    frequency:    6.6074985732
  - # 6
    frequency:    7.4898589561

- q-position: [    0.6533333,    0.3266667,    0.0000000 ]
  distance:    0.3378603
  band:
  - # 1
    frequency:    2.7284470547
  - # 2
    frequency:    3.4890565644
  - # 3
    frequency:    5.9905766183
  - # 4
    frequency:    6.3730303783
  - # 5
    frequency:    6.4957223413
  - # 6
    frequency:    7.4747087368

- q-position: [    0.6666667,    0.3333333,    0.0000000 ]
  distance:    0.3447554
  label: 'K'
  band:
  - # 1
    frequency:    2.6977579981
  - # 2
    frequency:    3.4551671354
  - # 3
    frequency:    5.9881600232
  - # 4
    frequency:    6.3770777106
  - # 5
    frequency:    6.4398730938
  - # 6
    frequency:    7.4573643662

- q-position: [    0.6666667,    0.3333333,    0.0000000 ]
  distance:    0.3447554
  label: 'K'
  band:
  - # 1
    frequency:    2.6977579981
  - # 2
    frequency:    3.4551671354
  - # 3
    frequency:    5.9881600232
  - # 4
    frequency:    6.3770777106
  - # 5
    frequency:    6.4398730938
  - # 6
    frequency:    7.4573643662

- q-position: [    0.6633333,    0.3266667,    0.0000000 ]
  distance:    0.3482030
  band:
  - # 1
    frequency:    2.7036114788
  - # 2
    frequency:    3.4419190410
  - # 3
    frequency:    5.9588321829
  - # 4
    frequency:    6.3778934878
  - # 5
    frequency:    6.4413718937
  - # 6
    frequency:    7.4479860663

- q-position: [    0.6600000,    0.3200000,    0.0000000 ]
  distance:    0.3516505
  band:
  - # 1
    frequency:    2.7234899030
  - # 2
    frequency:    3.4311544396
  - # 3
    frequency:    5.9135177573
  - # 4
    frequency:    6.3779387537
  - # 5
    frequency:    6.4597962336
  - # 6
    frequency:    7.4382372118

- q-position: [    0.6566667,    0.3133333,    0.0000000 ]
  distance:    0.3550981
  band:
  - # 1
    frequency:    2.7569554013
  - # 2
    frequency:    3.4228743402
  - # 3
    frequency:    5.8571612386
  - # 4
    frequency:    6.3772389705
  - # 5
    frequency:    6.4902382552
  - # 6
    frequency:    7.4282119510

- q-position: [    0.6533333,    0.3066667,    0.0000000 ]
  distance:    0.3585457
  band:
  - # 1
    frequency:    2.8033138563
  - # 2
    frequency:    3.4170691133
  - # 3
    frequency:    5.7939421380
  - # 4
    frequency:    6.3758190121
  - # 5
    frequency:    6.5285471832
  - # 6
    frequency:    7.4180173715

- q-position: [    0.6500000,    0.3000000,    0.0000000 ]
  distance:    0.3619932
  band:
  - # 1
    frequency:    2.8616571875
  - # 2
    frequency:    3.4137186062
  - # 3
    frequency:    5.7267018550
  - # 4
    frequency:    6.3737030972
  - # 5
    frequency:    6.5719068769
  - # 6
    frequency:    7.4077720389

- q-position: [    0.6466667,    0.2933333,    0.0000000 ]
  distance:    0.3654408
  band:
  - # 1
    frequency:    2.9309122301
  - # 2
    frequency:    3.4127923575
  - # 3
    frequency:    5.6572667309
  - # 4
    frequency:    6.3709147438
  - # 5
    frequency:    6.6185182036
  - # 6
    frequency:    7.3976048135

- q-position: [    0.6433333,    0.2866667,    0.0000000 ]
  distance:    0.3688883
  band:
  - # 1
    frequency:    3.0098884498
  - # 2
    frequency:    3.4142499034
  - # 3
    frequency:    5.5868387964
  - # 4
    frequency:    6.3674767428
  - # 5
    frequency:    6.6672153307
  - # 6
    frequency:    7.3876539477

- q-position: [    0.6400000,    0.2800000,    0.0000000 ]
  distance:    0.3723359
  band:
  - # 1
    frequency:    3.0973178893
  - # 2
    frequency:    3.4180411723
  - # 3
    frequency:    5.5162649607
  - # 4
    frequency:    6.3634111525
  - # 5
    frequency:    6.7172060467
  - # 6
    frequency:    7.3780665367

- q-position: [    0.6366667,    0.2733333,    0.0000000 ]
  distance:    0.3757834
  band:
  - # 1
    frequency:    3.1918823975
  - # 2
    frequency:    3.4241069559
  - # 3
    frequency:    5.4462045044
  - # 4
    frequency:    6.3587393130
  - # 5
    frequency:    6.7679175511
  - # 6
    frequency:    7.3689984993

- q-position: [    0.6333333,    0.2666667,    0.0000000 ]
  distance:    0.3792310
  band:
  - # 1
    frequency:    3.2922244502
  - # 2
    frequency:    3.4323794452
  - # 3
    frequency:    5.3772382205
  - # 4
    frequency:    6.3534818797
  - # 5
    frequency:    6.8189063942
  - # 6
    frequency:    7.3606154171

- q-position: [    0.6300000,    0.2600000,    0.0000000 ]
  distance:    0.3826785
  band:
  - # 1
    frequency:    3.3969380572
  - # 2
    frequency:    3.4427828190
  - # 3
    frequency:    5.3099511929
  - # 4
    frequency:    6.3476588781
  - # 5
    frequency:    6.8698037996
  - # 6
    frequency:    7.3530948224

- q-position: [    0.6266667,    0.2533333,    0.0000000 ]
  distance:    0.3861261
  band:
  - # 1
    frequency:    3.4552338700
  - # 2
    frequency:    3.5045348712
  - # 3
    frequency:    5.2450115579
  - # 4
    frequency:    6.3412897765
  - # 5
    frequency:    6.9202791352
  - # 6
    frequency:    7.3466309952

- q-position: [    0.6233333,    0.2466667,    0.0000000 ]
  distance:    0.3895736
  band:
  - # 1
    frequency:    3.4696426527
  - # 2
    frequency:    3.6133773459
  - # 3
    frequency:    5.1832640051
  - # 4
    frequency:    6.3343935806
  - # 5
    frequency:    6.9700107146
  - # 6
    frequency:    7.3414441950

- q-position: [    0.6200000,    0.2400000,    0.0000000 ]
  distance:    0.3930212
  band:
  - # 1
    frequency:    3.4859131408
  - # 2
    frequency:    3.7215658111
  - # 3
    frequency:    5.1258577664
  - # 4
    frequency:    6.3269889456
  - # 5
    frequency:    7.0186554960
  - # 6
    frequency:    7.3377978703

- q-position: [    0.6166667,    0.2333333,    0.0000000 ]
  distance:    0.3964688
  band:
  - # 1
    frequency:    3.5039438778
  - # 2
    frequency:    3.8267623001
  - # 3
    frequency:    5.0744305104
  - # 4
    frequency:    6.3190943094
  - # 5
    frequency:    7.0658085150
  - # 6
    frequency:    7.3360302756

- q-position: [    0.6133333,    0.2266667,    0.0000000 ]
  distance:    0.3999163
  band:
  - # 1
    frequency:    3.5236286098
  - # 2
    frequency:    3.9259430375
  - # 3
    frequency:    5.0313590117
  - # 4
    frequency:    6.3107280443
  - # 5
    frequency:    7.1109398437
  - # 6
    frequency:    7.3366111468

- q-position: [    0.6100000,    0.2200000,    0.0000000 ]
  distance:    0.4033639
  band:
  - # 1
    frequency:    3.5448568879
  - # 2
    frequency:    4.0151330713
  - # 3
    frequency:    5.0000249345
  - # 4
    frequency:    6.3019086287
  - # 5
    frequency:    7.1532966580
  - # 6
    frequency:    7.3402349475

- q-position: [    0.6066667,    0.2133333,    0.0000000 ]
  distance:    0.4068114
  band:
  - # 1
    frequency:    3.5675146318
  - # 2
    frequency:    4.0893709808
  - # 3
    frequency:    4.9848489807
  - # 4
    frequency:    6.2926548367
  - # 5
    frequency:    7.1917891231
  - # 6
    frequency:    7.3479314387

- q-position: [    0.6033333,    0.2066667,    0.0000000 ]
  distance:    0.4102590
  band:
  - # 1
    frequency:    3.5914846461
  - # 2
    frequency:    4.1434678304
  - # 3
    frequency:    4.9905299867
  - # 4
    frequency:    6.2829859477
  - # 5
    frequency:    7.2250290616
  - # 6
    frequency:    7.3610242869

- q-position: [    0.6000000,    0.2000000,    0.0000000 ]
  distance:    0.4137065
  band:
  - # 1
    frequency:    3.6166470835
  - # 2
    frequency:    4.1739550693
  - # 3
    frequency:    5.0200947309
  - # 4
    frequency:    6.2729219727
  - # 5
    frequency:    7.2519387401
  - # 6
    frequency:    7.3805201752

- q-position: [    0.5966667,    0.1933333,    0.0000000 ]
  distance:    0.4171541
  band:
  - # 1
    frequency:    3.6428798512
  - # 2
    frequency:    4.1810599017
  - # 3
    frequency:    5.0729202033
  - # 4
    frequency:    6.2624838992
  - # 5
    frequency:    7.2728288718
  - # 6
    frequency:    7.4060291961

- q-position: [    0.5933333,    0.1866667,    0.0000000 ]
  distance:    0.4206016
  band:
  - # 1
    frequency:    3.6700589578
  - # 2
    frequency:    4.1685091757
  - # 3
    frequency:    5.1449274318
  - # 4
    frequency:    6.2516939522
  - # 5
    frequency:    7.2894540826
  - # 6
    frequency:    7.4357081988

- q-position: [    0.5900000,    0.1800000,    0.0000000 ]
  distance:    0.4240492
  band:
  - # 1
    frequency:    3.6980588011
  - # 2
    frequency:    4.1413690475
  - # 3
    frequency:    5.2307396785
  - # 4
    frequency:    6.2405758706
  - # 5
    frequency:    7.3038065036
  - # 6
    frequency:    7.4674663718

- q-position: [    0.5866667,    0.1733333,    0.0000000 ]
  distance:    0.4274967
  band:
  - # 1
    frequency:    3.7267523968
  - # 2
    frequency:    4.1041893059
  - # 3
    frequency:    5.3255361382
  - # 4
    frequency:    6.2291551974
  - # 5
    frequency:    7.3173158544
  - # 6
    frequency:    7.4997646547

- q-position: [    0.5833333,    0.1666667,    0.0000000 ]
  distance:    0.4309443
  band:
  - # 1
    frequency:    3.7560115522
  - # 2
    frequency:    4.0603801423
  - # 3
    frequency:    5.4256733402
  - # 4
    frequency:    6.2174595814
  - # 5
    frequency:    7.3308216035
  - # 6
    frequency:    7.5316433638

- q-position: [    0.5800000,    0.1600000,    0.0000000 ]
  distance:    0.4343919
  band:
  - # 1
    frequency:    3.7857069878
  - # 2
    frequency:    4.0123183917
  - # 3
    frequency:    5.5285772010
  - # 4
    frequency:    6.2055190880
  - # 5
    frequency:    7.3447694078
  - # 6
    frequency:    7.5625258022

- q-position: [    0.5766667,    0.1533333,    0.0000000 ]
  distance:    0.4378394
  band:
  - # 1
    frequency:    3.8157084136
  - # 2
    frequency:    3.9616352055
  - # 3
    frequency:    5.6324537225
  - # 4
    frequency:    6.1933665142
  - # 5
    frequency:    7.3593686353
  - # 6
    frequency:    7.5920610318

- q-position: [    0.5733333,    0.1466667,    0.0000000 ]
  distance:    0.4412870
  band:
  - # 1
    frequency:    3.8458845671
  - # 2
    frequency:    3.9094665917
  - # 3
    frequency:    5.7360368542
  - # 4
    frequency:    6.1810377040
  - # 5
    frequency:    7.3746850506
  - # 6
    frequency:    7.6200317174

- q-position: [    0.5700000,    0.1400000,    0.0000000 ]
  distance:    0.4447345
  band:
  - # 1
    frequency:    3.8566283173
  - # 2
    frequency:    3.8761032219
  - # 3
    frequency:    5.8384119647
  - # 4
    frequency:    6.1685718577
  - # 5
    frequency:    7.3906915671
  - # 6
    frequency:    7.6463041359

- q-position: [    0.5666667,    0.1333333,    0.0000000 ]
  distance:    0.4481821
  band:
  - # 1
    frequency:    3.8037293415
  - # 2
    frequency:    3.9062311784
  - # 3
    frequency:    5.9389006909
  - # 4
    frequency:    6.1560118259
  - # 5
    frequency:    7.4072960295
  - # 6
    frequency:    7.6708013974

- q-position: [    0.5633333,    0.1266667,    0.0000000 ]
  distance:    0.4516296
  band:
  - # 1
    frequency:    3.7512438069
  - # 2
    frequency:    3.9361342484
  - # 3
    frequency:    6.0369870600
  - # 4
    frequency:    6.1434043797
  - # 5
    frequency:    7.4243568397
  - # 6
    frequency:    7.6934890892

- q-position: [    0.5600000,    0.1200000,    0.0000000 ]
  distance:    0.4550772
  band:
  - # 1
    frequency:    3.6995567071
  - # 2
    frequency:    3.9656772503
  - # 3
    frequency:    6.1308004436
  - # 4
    frequency:    6.1322696774
  - # 5
    frequency:    7.4416921737
  - # 6
    frequency:    7.7143676392

- q-position: [    0.5566667,    0.1133333,    0.0000000 ]
  distance:    0.4585247
  band:
  - # 1
    frequency:    3.6489930683
  - # 2
    frequency:    3.9947240324
  - # 3
    frequency:    6.1182552757
  - # 4
    frequency:    6.2244300396
  - # 5
    frequency:    7.4590859245
  - # 6
    frequency:    7.7334683235

- q-position: [    0.5533333,    0.1066667,    0.0000000 ]
  distance:    0.4619723
  band:
  - # 1
    frequency:    3.5998367470
  - # 2
    frequency:    4.0231375439
  - # 3
    frequency:    6.1058285786
  - # 4
    frequency:    6.3132107477
  - # 5
    frequency:    7.4762922662
  - # 6
    frequency:    7.7508511106

- q-position: [    0.5500000,    0.1000000,    0.0000000 ]
  distance:    0.4654198
  band:
  - # 1
    frequency:    3.5523425897
  - # 2
    frequency:    4.0507799780
  - # 3
    frequency:    6.0935845178
  - # 4
    frequency:    6.3983997361
  - # 5
    frequency:    7.4930402133
  - # 6
    frequency:    7.7666030759

- q-position: [    0.5466667,    0.0933333,    0.0000000 ]
  distance:    0.4688674
  band:
  - # 1
    frequency:    3.5067442663
  - # 2
    frequency:    4.0775130131
  - # 3
    frequency:    6.0815916263
  - # 4
    frequency:    6.4798180426
  - # 5
    frequency:    7.5090394069
  - # 6
    frequency:    7.7808362907

- q-position: [    0.5433333,    0.0866667,    0.0000000 ]
  distance:    0.4723150
  band:
  - # 1
    frequency:    3.4632592222
  - # 2
    frequency:    4.1031981780
  - # 3
    frequency:    6.0699225679
  - # 4
    frequency:    6.5573094897
  - # 5
    frequency:    7.5239883893
  - # 6
    frequency:    7.7936840941
