# Thermal properties / unit cell (natom)

unit:
  temperature:   K
  free_energy:   kJ/mol
  entropy:       J/K/mol
  heat_capacity: J/K/mol

natom:     2
num_modes: 3072
num_integrated_modes: 3068

zero_point_energy:       6.5664323
high_T_entropy:        192.0267841

thermal_properties:
- temperature:         0.0000000
  free_energy:         6.5664323
  entropy:             0.0000000
  heat_capacity:       0.0000000
  energy:              6.5664323

- temperature:        10.0000000
  free_energy:         6.5663445
  entropy:             0.0368948
  heat_capacity:       0.1094071
  energy:              6.5667135

- temperature:        20.0000000
  free_energy:         6.5649607
  entropy:             0.3004257
  heat_capacity:       0.9449551
  energy:              6.5709692

- temperature:        30.0000000
  free_energy:         6.5586488
  entropy:             1.0617543
  heat_capacity:       3.2001794
  energy:              6.5905015

- temperature:        40.0000000
  free_energy:         6.5416796
  entropy:             2.4310010
  heat_capacity:       6.6345630
  energy:              6.6389196

- temperature:        50.0000000
  free_energy:         6.5082175
  entropy:             4.3420116
  heat_capacity:      10.7093980
  energy:              6.7253181

- temperature:        60.0000000
  free_energy:         6.4534482
  entropy:             6.6703137
  heat_capacity:      14.9566948
  energy:              6.8536670

- temperature:        70.0000000
  free_energy:         6.3738543
  entropy:             9.2863227
  heat_capacity:      19.0424703
  energy:              7.0238969

- temperature:        80.0000000
  free_energy:         6.2671409
  entropy:            12.0774176
  heat_capacity:      22.7774450
  energy:              7.2333343

- temperature:        90.0000000
  free_energy:         6.1320186
  entropy:            14.9555297
  heat_capacity:      26.0858750
  energy:              7.4780162

- temperature:       100.0000000
  free_energy:         5.9679562
  entropy:            17.8565316
  heat_capacity:      28.9627376
  energy:              7.7536094

- temperature:       110.0000000
  free_energy:         5.7749609
  entropy:            20.7361341
  heat_capacity:      31.4394611
  energy:              8.0559357

- temperature:       120.0000000
  free_energy:         5.5534035
  entropy:            23.5651244
  heat_capacity:      33.5621823
  energy:              8.3812184

- temperature:       130.0000000
  free_energy:         5.3038891
  entropy:            26.3251819
  heat_capacity:      35.3797991
  energy:              8.7261627

- temperature:       140.0000000
  free_energy:         5.0271658
  entropy:            29.0056079
  heat_capacity:      36.9382033
  energy:              9.0879509

- temperature:       150.0000000
  free_energy:         4.7240610
  entropy:            31.6009177
  heat_capacity:      38.2779802
  energy:              9.4641987

- temperature:       160.0000000
  free_energy:         4.3954381
  entropy:            34.1091263
  heat_capacity:      39.4338910
  energy:              9.8528983

- temperature:       170.0000000
  free_energy:         4.0421679
  entropy:            36.5305513
  heat_capacity:      40.4351856
  energy:             10.2523616

- temperature:       180.0000000
  free_energy:         3.6651104
  entropy:            38.8669883
  heat_capacity:      41.3062443
  energy:             10.6611683

- temperature:       190.0000000
  free_energy:         3.2651025
  entropy:            41.1211461
  heat_capacity:      42.0672981
  energy:             11.0781202

- temperature:       200.0000000
  free_energy:         2.8429510
  entropy:            43.2962640
  heat_capacity:      42.7351122
  energy:             11.5022038

- temperature:       210.0000000
  free_energy:         2.3994290
  entropy:            45.3958539
  heat_capacity:      43.3235905
  energy:             11.9325583

- temperature:       220.0000000
  free_energy:         1.9352736
  entropy:            47.4235284
  heat_capacity:      43.8442865
  energy:             12.3684499

- temperature:       230.0000000
  free_energy:         1.4511861
  entropy:            49.3828880
  heat_capacity:      44.3068292
  energy:             12.8092503

- temperature:       240.0000000
  free_energy:         0.9478319
  entropy:            51.2774489
  heat_capacity:      44.7192704
  energy:             13.2544196

- temperature:       250.0000000
  free_energy:         0.4258418
  entropy:            53.1105983
  heat_capacity:      45.0883689
  energy:             13.7034914

- temperature:       260.0000000
  free_energy:        -0.1141862
  entropy:            54.8855684
  heat_capacity:      45.4198200
  energy:             14.1560616

- temperature:       270.0000000
  free_energy:        -0.6716859
  entropy:            56.6054233
  heat_capacity:      45.7184424
  energy:             14.6117784

- temperature:       280.0000000
  free_energy:        -1.2461206
  entropy:            58.2730547
  heat_capacity:      45.9883291
  energy:             15.0703347

- temperature:       290.0000000
  free_energy:        -1.8369820
  entropy:            59.8911824
  heat_capacity:      46.2329712
  energy:             15.5314609

- temperature:       300.0000000
  free_energy:        -2.4437878
  entropy:            61.4623592
  heat_capacity:      46.4553574
  energy:             15.9949200

- temperature:       310.0000000
  free_energy:        -3.0660806
  entropy:            62.9889778
  heat_capacity:      46.6580564
  energy:             16.4605025

- temperature:       320.0000000
  free_energy:        -3.7034263
  entropy:            64.4732787
  heat_capacity:      46.8432843
  energy:             16.9280229

- temperature:       330.0000000
  free_energy:        -4.3554121
  entropy:            65.9173591
  heat_capacity:      47.0129595
  energy:             17.3973164

- temperature:       340.0000000
  free_energy:        -5.0216459
  entropy:            67.3231818
  heat_capacity:      47.1687486
  energy:             17.8682358

- temperature:       350.0000000
  free_energy:        -5.7017544
  entropy:            68.6925837
  heat_capacity:      47.3121045
  energy:             18.3406499

- temperature:       360.0000000
  free_energy:        -6.3953820
  entropy:            70.0272853
  heat_capacity:      47.4442977
  energy:             18.8144407

- temperature:       370.0000000
  free_energy:        -7.1021898
  entropy:            71.3288979
  heat_capacity:      47.5664429
  energy:             19.2895024

- temperature:       380.0000000
  free_energy:        -7.8218547
  entropy:            72.5989317
  heat_capacity:      47.6795206
  energy:             19.7657394

- temperature:       390.0000000
  free_energy:        -8.5540679
  entropy:            73.8388036
  heat_capacity:      47.7843964
  energy:             20.2430655

- temperature:       400.0000000
  free_energy:        -9.2985346
  entropy:            75.0498430
  heat_capacity:      47.8818360
  energy:             20.7214025

- temperature:       410.0000000
  free_energy:       -10.0549728
  entropy:            76.2332988
  heat_capacity:      47.9725187
  energy:             21.2006797

- temperature:       420.0000000
  free_energy:       -10.8231126
  entropy:            77.3903453
  heat_capacity:      48.0570491
  energy:             21.6808324

- temperature:       430.0000000
  free_energy:       -11.6026954
  entropy:            78.5220869
  heat_capacity:      48.1359661
  energy:             22.1618020

- temperature:       440.0000000
  free_energy:       -12.3934735
  entropy:            79.6295639
  heat_capacity:      48.2097514
  energy:             22.6435346

- temperature:       450.0000000
  free_energy:       -13.1952091
  entropy:            80.7137564
  heat_capacity:      48.2788367
  energy:             23.1259813

- temperature:       460.0000000
  free_energy:       -14.0076741
  entropy:            81.7755893
  heat_capacity:      48.3436097
  energy:             23.6090970

- temperature:       470.0000000
  free_energy:       -14.8306492
  entropy:            82.8159352
  heat_capacity:      48.4044190
  energy:             24.0928403

- temperature:       480.0000000
  free_energy:       -15.6639239
  entropy:            83.8356190
  heat_capacity:      48.4615792
  energy:             24.5771732

- temperature:       490.0000000
  free_energy:       -16.5072953
  entropy:            84.8354205
  heat_capacity:      48.5153744
  energy:             25.0620607

- temperature:       500.0000000
  free_energy:       -17.3605685
  entropy:            85.8160777
  heat_capacity:      48.5660618
  energy:             25.5474704

- temperature:       510.0000000
  free_energy:       -18.2235554
  entropy:            86.7782897
  heat_capacity:      48.6138747
  energy:             26.0333723

- temperature:       520.0000000
  free_energy:       -19.0960750
  entropy:            87.7227192
  heat_capacity:      48.6590251
  energy:             26.5197390

- temperature:       530.0000000
  free_energy:       -19.9779526
  entropy:            88.6499948
  heat_capacity:      48.7017057
  energy:             27.0065446

- temperature:       540.0000000
  free_energy:       -20.8690197
  entropy:            89.5607133
  heat_capacity:      48.7420925
  energy:             27.4937654

- temperature:       550.0000000
  free_energy:       -21.7691136
  entropy:            90.4554417
  heat_capacity:      48.7803459
  energy:             27.9813793

- temperature:       560.0000000
  free_energy:       -22.6780771
  entropy:            91.3347193
  heat_capacity:      48.8166128
  energy:             28.4693657

- temperature:       570.0000000
  free_energy:       -23.5957582
  entropy:            92.1990590
  heat_capacity:      48.8510277
  energy:             28.9577054

- temperature:       580.0000000
  free_energy:       -24.5220101
  entropy:            93.0489493
  heat_capacity:      48.8837140
  energy:             29.4463805

- temperature:       590.0000000
  free_energy:       -25.4566906
  entropy:            93.8848558
  heat_capacity:      48.9147848
  energy:             29.9353743

- temperature:       600.0000000
  free_energy:       -26.3996621
  entropy:            94.7072221
  heat_capacity:      48.9443445
  energy:             30.4246712

- temperature:       610.0000000
  free_energy:       -27.3507913
  entropy:            95.5164718
  heat_capacity:      48.9724890
  energy:             30.9142565

- temperature:       620.0000000
  free_energy:       -28.3099491
  entropy:            96.3130092
  heat_capacity:      48.9993068
  energy:             31.4041166

- temperature:       630.0000000
  free_energy:       -29.2770104
  entropy:            97.0972205
  heat_capacity:      49.0248797
  energy:             31.8942385

- temperature:       640.0000000
  free_energy:       -30.2518537
  entropy:            97.8694749
  heat_capacity:      49.0492832
  energy:             32.3846103

- temperature:       650.0000000
  free_energy:       -31.2343612
  entropy:            98.6301257
  heat_capacity:      49.0725873
  energy:             32.8752205

- temperature:       660.0000000
  free_energy:       -32.2244186
  entropy:            99.3795109
  heat_capacity:      49.0948567
  energy:             33.3660585

- temperature:       670.0000000
  free_energy:       -33.2219150
  entropy:           100.1179542
  heat_capacity:      49.1161516
  energy:             33.8571144

- temperature:       680.0000000
  free_energy:       -34.2267423
  entropy:           100.8457659
  heat_capacity:      49.1365278
  energy:             34.3483785

- temperature:       690.0000000
  free_energy:       -35.2387958
  entropy:           101.5632433
  heat_capacity:      49.1560372
  energy:             34.8398420

- temperature:       700.0000000
  free_energy:       -36.2579737
  entropy:           102.2706717
  heat_capacity:      49.1747281
  energy:             35.3314965

- temperature:       710.0000000
  free_energy:       -37.2841767
  entropy:           102.9683249
  heat_capacity:      49.1926456
  energy:             35.8233340

- temperature:       720.0000000
  free_energy:       -38.3173085
  entropy:           103.6564659
  heat_capacity:      49.2098315
  energy:             36.3153470

- temperature:       730.0000000
  free_energy:       -39.3572751
  entropy:           104.3353472
  heat_capacity:      49.2263251
  energy:             36.8075284

- temperature:       740.0000000
  free_energy:       -40.4039853
  entropy:           105.0052117
  heat_capacity:      49.2421629
  energy:             37.2998713

- temperature:       750.0000000
  free_energy:       -41.4573501
  entropy:           105.6662928
  heat_capacity:      49.2573791
  energy:             37.7923695

- temperature:       760.0000000
  free_energy:       -42.5172827
  entropy:           106.3188153
  heat_capacity:      49.2720057
  energy:             38.2850169

- temperature:       770.0000000
  free_energy:       -43.5836986
  entropy:           106.9629953
  heat_capacity:      49.2860727
  energy:             38.7778078

- temperature:       780.0000000
  free_energy:       -44.6565155
  entropy:           107.5990411
  heat_capacity:      49.2996083
  energy:             39.2707366

- temperature:       790.0000000
  free_energy:       -45.7356530
  entropy:           108.2271535
  heat_capacity:      49.3126387
  energy:             39.7637983

- temperature:       800.0000000
  free_energy:       -46.8210327
  entropy:           108.8475257
  heat_capacity:      49.3251888
  energy:             40.2569878

- temperature:       810.0000000
  free_energy:       -47.9125783
  entropy:           109.4603442
  heat_capacity:      49.3372818
  energy:             40.7503005

- temperature:       820.0000000
  free_energy:       -49.0102150
  entropy:           110.0657891
  heat_capacity:      49.3489396
  energy:             41.2437320

- temperature:       830.0000000
  free_energy:       -50.1138701
  entropy:           110.6640338
  heat_capacity:      49.3601827
  energy:             41.7372779

- temperature:       840.0000000
  free_energy:       -51.2234723
  entropy:           111.2552460
  heat_capacity:      49.3710306
  energy:             42.2309343

- temperature:       850.0000000
  free_energy:       -52.3389521
  entropy:           111.8395875
  heat_capacity:      49.3815015
  energy:             42.7246973

- temperature:       860.0000000
  free_energy:       -53.4602416
  entropy:           112.4172149
  heat_capacity:      49.3916126
  energy:             43.2185632

- temperature:       870.0000000
  free_energy:       -54.5872745
  entropy:           112.9882792
  heat_capacity:      49.4013803
  energy:             43.7125284

- temperature:       880.0000000
  free_energy:       -55.7199858
  entropy:           113.5529267
  heat_capacity:      49.4108198
  energy:             44.2065897

- temperature:       890.0000000
  free_energy:       -56.8583121
  entropy:           114.1112988
  heat_capacity:      49.4199456
  energy:             44.7007437

- temperature:       900.0000000
  free_energy:       -58.0021914
  entropy:           114.6635322
  heat_capacity:      49.4287716
  energy:             45.1949876

- temperature:       910.0000000
  free_energy:       -59.1515628
  entropy:           115.2097593
  heat_capacity:      49.4373105
  energy:             45.6893182

- temperature:       920.0000000
  free_energy:       -60.3063670
  entropy:           115.7501085
  heat_capacity:      49.4455748
  energy:             46.1837329

- temperature:       930.0000000
  free_energy:       -61.4665458
  entropy:           116.2847039
  heat_capacity:      49.4535761
  energy:             46.6782288

- temperature:       940.0000000
  free_energy:       -62.6320423
  entropy:           116.8136658
  heat_capacity:      49.4613253
  energy:             47.1728036

- temperature:       950.0000000
  free_energy:       -63.8028007
  entropy:           117.3371108
  heat_capacity:      49.4688330
  energy:             47.6674545

- temperature:       960.0000000
  free_energy:       -64.9787665
  entropy:           117.8551520
  heat_capacity:      49.4761090
  energy:             48.1621794

- temperature:       970.0000000
  free_energy:       -66.1598861
  entropy:           118.3678990
  heat_capacity:      49.4831628
  energy:             48.6569760

- temperature:       980.0000000
  free_energy:       -67.3461071
  entropy:           118.8754583
  heat_capacity:      49.4900033
  energy:             49.1518420

- temperature:       990.0000000
  free_energy:       -68.5373783
  entropy:           119.3779330
  heat_capacity:      49.4966390
  energy:             49.6467754

- temperature:      1000.0000000
  free_energy:       -69.7336492
  entropy:           119.8754233
  heat_capacity:      49.5030780
  energy:             50.1417741
