  32  32   0   0
  0.1063590E+02  0.6981918E-09  0.6981918E-09  0.6981918E-09  0.5000000E-15
  1.000000000000000E-004
  CAR 
 unknown system                          
     15.70422919     -6.43858236  301      4.78821157      1.00000000
     -6.439  0.0000E+00  0.0000E+00
     -6.365  0.0000E+00  0.0000E+00
     -6.291  0.0000E+00  0.0000E+00
     -6.217  0.0000E+00  0.0000E+00
     -6.143  0.0000E+00  0.0000E+00
     -6.070  0.0000E+00  0.0000E+00
     -5.996  0.0000E+00  0.0000E+00
     -5.922  0.0000E+00  0.0000E+00
     -5.848  0.0000E+00  0.0000E+00
     -5.774  0.0000E+00  0.0000E+00
     -5.700  0.0000E+00  0.0000E+00
     -5.627  0.0000E+00  0.0000E+00
     -5.553  0.0000E+00  0.0000E+00
     -5.479  0.2418E-12  0.1785E-13
     -5.405  0.8378E-01  0.6184E-02
     -5.331  0.4367E+00  0.3842E-01
     -5.258  0.7687E+00  0.9578E-01
     -5.184  0.1164E+01  0.1817E+00
     -5.110  0.1287E+01  0.2767E+00
     -5.036  0.1022E+01  0.3522E+00
     -4.962  0.1483E+01  0.4648E+00
     -4.889  0.1176E+01  0.5518E+00
     -4.815  0.2188E+01  0.7133E+00
     -4.741  0.1876E+01  0.8549E+00
     -4.667  0.1464E+01  0.9634E+00
     -4.593  0.1880E+01  0.1102E+01
     -4.520  0.2006E+01  0.1252E+01
     -4.446  0.2382E+01  0.1428E+01
     -4.372  0.1915E+01  0.1573E+01
     -4.298  0.2745E+01  0.1776E+01
     -4.224  0.3218E+01  0.2014E+01
     -4.150  0.1711E+01  0.2144E+01
     -4.077  0.2544E+01  0.2331E+01
     -4.003  0.2350E+01  0.2507E+01
     -3.929  0.3382E+01  0.2757E+01
     -3.855  0.2439E+01  0.2939E+01
     -3.781  0.3828E+01  0.3222E+01
     -3.708  0.2521E+01  0.3409E+01
     -3.634  0.3367E+01  0.3657E+01
     -3.560  0.3760E+01  0.3935E+01
     -3.486  0.4128E+01  0.4248E+01
     -3.412  0.2757E+01  0.4453E+01
     -3.339  0.2147E+01  0.4613E+01
     -3.265  0.5223E+01  0.5000E+01
     -3.191  0.3234E+01  0.5252E+01
     -3.117  0.4353E+01  0.5574E+01
     -3.043  0.2748E+01  0.5786E+01
     -2.970  0.4382E+01  0.6110E+01
     -2.896  0.4012E+01  0.6408E+01
     -2.822  0.4304E+01  0.6728E+01
     -2.748  0.4500E+01  0.7060E+01
     -2.674  0.5864E+01  0.7494E+01
     -2.600  0.4084E+01  0.7797E+01
     -2.527  0.5566E+01  0.8210E+01
     -2.453  0.3380E+01  0.8462E+01
     -2.379  0.5966E+01  0.8907E+01
     -2.305  0.7047E+01  0.9428E+01
     -2.231  0.3541E+01  0.9699E+01
     -2.158  0.6267E+01  0.1016E+02
     -2.084  0.5050E+01  0.1054E+02
     -2.010  0.7585E+01  0.1110E+02
     -1.936  0.5676E+01  0.1153E+02
     -1.862  0.5917E+01  0.1196E+02
     -1.789  0.7848E+01  0.1255E+02
     -1.715  0.7123E+01  0.1309E+02
     -1.641  0.7633E+01  0.1365E+02
     -1.567  0.7586E+01  0.1422E+02
     -1.493  0.8147E+01  0.1482E+02
     -1.420  0.9852E+01  0.1556E+02
     -1.346  0.9623E+01  0.1627E+02
     -1.272  0.9959E+01  0.1701E+02
     -1.198  0.1078E+02  0.1782E+02
     -1.124  0.1506E+02  0.1894E+02
     -1.050  0.1135E+02  0.1979E+02
     -0.977  0.1981E+02  0.2126E+02
     -0.903  0.2094E+02  0.2283E+02
     -0.829  0.2112E+02  0.2440E+02
     -0.755  0.3422E+02  0.2695E+02
     -0.681  0.3298E+02  0.2940E+02
     -0.608  0.3609E+02  0.3208E+02
     -0.534  0.3321E+02  0.3456E+02
     -0.460  0.3657E+02  0.3729E+02
     -0.386  0.3662E+02  0.4001E+02
     -0.312  0.3553E+02  0.4268E+02
     -0.239  0.4110E+02  0.4575E+02
     -0.165  0.5152E+02  0.4958E+02
     -0.091  0.5724E+02  0.5384E+02
     -0.017  0.6100E+02  0.5840E+02
      0.057  0.6321E+02  0.6312E+02
      0.130  0.7130E+02  0.6844E+02
      0.204  0.6768E+02  0.7349E+02
      0.278  0.5287E+02  0.7745E+02
      0.352  0.5909E+02  0.8186E+02
      0.426  0.6129E+02  0.8643E+02
      0.499  0.5764E+02  0.9074E+02
      0.573  0.5799E+02  0.9507E+02
      0.647  0.5562E+02  0.9920E+02
      0.721  0.4966E+02  0.1029E+03
      0.795  0.6895E+02  0.1081E+03
      0.869  0.7336E+02  0.1135E+03
      0.942  0.8528E+02  0.1199E+03
      1.016  0.7621E+02  0.1256E+03
      1.090  0.8739E+02  0.1322E+03
      1.164  0.8205E+02  0.1383E+03
      1.238  0.9245E+02  0.1452E+03
      1.311  0.1062E+03  0.1531E+03
      1.385  0.1053E+03  0.1610E+03
      1.459  0.1043E+03  0.1688E+03
      1.533  0.1255E+03  0.1781E+03
      1.607  0.1261E+03  0.1875E+03
      1.680  0.9176E+02  0.1944E+03
      1.754  0.8132E+02  0.2004E+03
      1.828  0.7204E+02  0.2058E+03
      1.902  0.6711E+02  0.2108E+03
      1.976  0.6920E+02  0.2160E+03
      2.049  0.7767E+02  0.2217E+03
      2.123  0.9226E+02  0.2286E+03
      2.197  0.9527E+02  0.2357E+03
      2.271  0.1059E+03  0.2436E+03
      2.345  0.1005E+03  0.2511E+03
      2.419  0.8932E+02  0.2578E+03
      2.492  0.8708E+02  0.2643E+03
      2.566  0.8345E+02  0.2705E+03
      2.640  0.8676E+02  0.2770E+03
      2.714  0.8806E+02  0.2835E+03
      2.788  0.9310E+02  0.2905E+03
      2.861  0.1131E+03  0.2989E+03
      2.935  0.1544E+03  0.3104E+03
      3.009  0.1709E+03  0.3231E+03
      3.083  0.9845E+02  0.3305E+03
      3.157  0.6398E+02  0.3353E+03
      3.230  0.6282E+01  0.3358E+03
      3.304  0.1904E+02  0.3372E+03
      3.378  0.8038E+01  0.3378E+03
      3.452  0.1053E+02  0.3386E+03
      3.526  0.1507E+02  0.3397E+03
      3.599  0.8885E+01  0.3404E+03
      3.673  0.1091E+02  0.3412E+03
      3.747  0.1103E+02  0.3420E+03
      3.821  0.1034E+02  0.3428E+03
      3.895  0.9565E+01  0.3435E+03
      3.969  0.1114E+02  0.3443E+03
      4.042  0.1076E+02  0.3451E+03
      4.116  0.8231E+01  0.3457E+03
      4.190  0.9938E+01  0.3465E+03
      4.264  0.1210E+02  0.3474E+03
      4.338  0.8275E+01  0.3480E+03
      4.411  0.8092E+01  0.3486E+03
      4.485  0.1109E+02  0.3494E+03
      4.559  0.9106E+01  0.3501E+03
      4.633  0.7704E+01  0.3507E+03
      4.707  0.8809E+01  0.3513E+03
      4.780  0.7371E+01  0.3519E+03
      4.854  0.1185E+02  0.3527E+03
      4.928  0.8832E+01  0.3534E+03
      5.002  0.9404E+01  0.3541E+03
      5.076  0.6409E+01  0.3546E+03
      5.149  0.6442E+01  0.3551E+03
      5.223  0.1166E+02  0.3559E+03
      5.297  0.1008E+02  0.3567E+03
      5.371  0.5513E+01  0.3571E+03
      5.445  0.8422E+01  0.3577E+03
      5.519  0.8705E+01  0.3584E+03
      5.592  0.6436E+01  0.3589E+03
      5.666  0.8979E+01  0.3595E+03
      5.740  0.7984E+01  0.3601E+03
      5.814  0.9383E+01  0.3608E+03
      5.888  0.6955E+01  0.3614E+03
      5.961  0.7069E+01  0.3619E+03
      6.035  0.7780E+01  0.3625E+03
      6.109  0.9300E+01  0.3631E+03
      6.183  0.7556E+01  0.3637E+03
      6.257  0.9217E+01  0.3644E+03
      6.330  0.4477E+01  0.3647E+03
      6.404  0.9316E+01  0.3654E+03
      6.478  0.7086E+01  0.3659E+03
      6.552  0.7712E+01  0.3665E+03
      6.626  0.8218E+01  0.3671E+03
      6.699  0.9438E+01  0.3678E+03
      6.773  0.5284E+01  0.3682E+03
      6.847  0.8853E+01  0.3689E+03
      6.921  0.2615E+01  0.3691E+03
      6.995  0.7999E+01  0.3697E+03
      7.069  0.8887E+01  0.3703E+03
      7.142  0.7114E+01  0.3709E+03
      7.216  0.6790E+01  0.3714E+03
      7.290  0.6463E+01  0.3719E+03
      7.364  0.4979E+01  0.3722E+03
      7.438  0.8649E+01  0.3729E+03
      7.511  0.3908E+01  0.3732E+03
      7.585  0.5749E+01  0.3736E+03
      7.659  0.3933E+01  0.3739E+03
      7.733  0.1150E+02  0.3747E+03
      7.807  0.3870E+01  0.3750E+03
      7.880  0.5639E+01  0.3755E+03
      7.954  0.5827E+01  0.3759E+03
      8.028  0.4044E+01  0.3762E+03
      8.102  0.4505E+01  0.3765E+03
      8.176  0.6485E+01  0.3770E+03
      8.249  0.4328E+01  0.3773E+03
      8.323  0.3519E+01  0.3776E+03
      8.397  0.7732E+01  0.3782E+03
      8.471  0.6551E+01  0.3787E+03
      8.545  0.2332E+01  0.3788E+03
      8.619  0.3249E+01  0.3791E+03
      8.692  0.4278E+01  0.3794E+03
      8.766  0.2373E+01  0.3796E+03
      8.840  0.4729E+01  0.3799E+03
      8.914  0.5638E+01  0.3803E+03
      8.988  0.4606E+01  0.3807E+03
      9.061  0.3150E+01  0.3809E+03
      9.135  0.5408E+01  0.3813E+03
      9.209  0.9188E+01  0.3820E+03
      9.283  0.4241E+01  0.3823E+03
      9.357  0.9032E+01  0.3830E+03
      9.430  0.9803E+01  0.3837E+03
      9.504  0.8128E+01  0.3843E+03
      9.578  0.7806E+01  0.3849E+03
      9.652  0.1189E+02  0.3858E+03
      9.726  0.6060E+01  0.3862E+03
      9.799  0.8787E+01  0.3869E+03
      9.873  0.6916E+01  0.3874E+03
      9.947  0.1264E+02  0.3884E+03
     10.021  0.6188E+01  0.3888E+03
     10.095  0.1005E+02  0.3896E+03
     10.169  0.8390E+01  0.3902E+03
     10.242  0.9999E+01  0.3909E+03
     10.316  0.7808E+01  0.3915E+03
     10.390  0.9874E+01  0.3922E+03
     10.464  0.9775E+01  0.3930E+03
     10.538  0.7285E+01  0.3935E+03
     10.611  0.9669E+01  0.3942E+03
     10.685  0.8674E+01  0.3949E+03
     10.759  0.6260E+01  0.3953E+03
     10.833  0.9862E+01  0.3961E+03
     10.907  0.8018E+01  0.3967E+03
     10.980  0.7854E+01  0.3973E+03
     11.054  0.8313E+01  0.3979E+03
     11.128  0.7135E+01  0.3984E+03
     11.202  0.6566E+01  0.3989E+03
     11.276  0.8150E+01  0.3995E+03
     11.349  0.8661E+01  0.4002E+03
     11.423  0.7382E+01  0.4007E+03
     11.497  0.7080E+01  0.4012E+03
     11.571  0.6017E+01  0.4017E+03
     11.645  0.6370E+01  0.4022E+03
     11.719  0.8559E+01  0.4028E+03
     11.792  0.6240E+01  0.4033E+03
     11.866  0.1011E+02  0.4040E+03
     11.940  0.7712E+01  0.4046E+03
     12.014  0.3608E+01  0.4049E+03
     12.088  0.7076E+01  0.4054E+03
     12.161  0.7777E+01  0.4060E+03
     12.235  0.6213E+01  0.4064E+03
     12.309  0.6528E+01  0.4069E+03
     12.383  0.6432E+01  0.4074E+03
     12.457  0.7277E+01  0.4079E+03
     12.530  0.8214E+01  0.4086E+03
     12.604  0.4903E+01  0.4089E+03
     12.678  0.5230E+01  0.4093E+03
     12.752  0.1164E+02  0.4102E+03
     12.826  0.6978E+01  0.4107E+03
     12.899  0.1242E+02  0.4116E+03
     12.973  0.9790E+01  0.4124E+03
     13.047  0.9155E+01  0.4130E+03
     13.121  0.8507E+01  0.4137E+03
     13.195  0.6770E+01  0.4142E+03
     13.269  0.8364E+01  0.4148E+03
     13.342  0.6179E+01  0.4153E+03
     13.416  0.6841E+01  0.4158E+03
     13.490  0.1069E+02  0.4166E+03
     13.564  0.1359E+02  0.4176E+03
     13.638  0.9659E+01  0.4183E+03
     13.711  0.1418E+02  0.4194E+03
     13.785  0.7578E+01  0.4199E+03
     13.859  0.8954E+01  0.4206E+03
     13.933  0.5762E+01  0.4210E+03
     14.007  0.6229E+01  0.4215E+03
     14.080  0.7857E+01  0.4221E+03
     14.154  0.6907E+01  0.4226E+03
     14.228  0.5702E+01  0.4230E+03
     14.302  0.7417E+01  0.4236E+03
     14.376  0.2223E+01  0.4237E+03
     14.449  0.7746E+00  0.4238E+03
     14.523  0.5859E+00  0.4239E+03
     14.597  0.1483E+01  0.4240E+03
     14.671  0.1098E+00  0.4240E+03
     14.745  0.3763E+00  0.4240E+03
     14.819  0.0000E+00  0.4240E+03
     14.892  0.0000E+00  0.4240E+03
     14.966  0.0000E+00  0.4240E+03
     15.040  0.0000E+00  0.4240E+03
     15.114  0.0000E+00  0.4240E+03
     15.188  0.0000E+00  0.4240E+03
     15.261  0.0000E+00  0.4240E+03
     15.335  0.0000E+00  0.4240E+03
     15.409  0.0000E+00  0.4240E+03
     15.483  0.0000E+00  0.4240E+03
     15.557  0.0000E+00  0.4240E+03
     15.630  0.0000E+00  0.4240E+03
     15.704  0.0000E+00  0.4240E+03
