   32   32    1    1
  0.1063590E+02  0.6981918E-09  0.6981918E-09  0.6981918E-09  0.5000000E-15
  1.000000000000000E-004
  CAR 
 unknown system                          
  352  196  212
 
  0.0000000E+00  0.0000000E+00  0.0000000E+00  0.5787037E-03
   1       -5.4321
   2       -2.4923
   3       -2.4889
   4       -2.4889
   5       -2.4889
   6       -2.4889
   7       -2.4855
   8       -0.9760
   9       -0.9760
  10       -0.9760
  11       -0.9760
  12       -0.8133
  13       -0.8133
  14       -0.8133
  15       -0.5015
  16       -0.4994
  17       -0.4994
  18       -0.4981
  19       -0.4978
  20       -0.4978
  21       -0.4978
  22       -0.4978
  23       -0.4975
  24       -0.4962
  25       -0.4962
  26       -0.4941
  27       -0.2891
  28       -0.2890
  29       -0.2890
  30        0.0246
  31        0.0270
  32        0.0270
  33        0.0270
  34        0.0270
  35        0.0294
  36        0.5008
  37        0.5030
  38        0.5030
  39        0.5030
  40        0.5030
  41        0.5051
  42        0.7441
  43        0.7443
  44        0.7443
  45        0.7468
  46        0.7468
  47        0.7469
  48        0.7469
  49        0.7469
  50        0.7471
  51        0.7471
  52        0.7486
  53        0.7486
  54        0.7499
  55        0.7514
  56        0.7514
  57        0.7520
  58        0.7520
  59        0.7521
  60        0.7521
  61        0.7521
  62        0.7521
  63        0.7536
  64        0.7536
  65        0.7570
  66        0.9852
  67        0.9882
  68        0.9882
  69        0.9886
  70        0.9889
  71        0.9889
  72        0.9889
  73        0.9889
  74        0.9892
  75        0.9896
  76        0.9896
  77        0.9926
  78        1.3092
  79        1.3092
  80        1.3092
  81        1.3092
  82        1.3092
  83        1.3092
  84        1.3092
  85        1.3092
  86        1.3479
  87        1.3479
  88        1.3480
  89        1.7815
  90        1.7836
  91        1.7836
  92        1.7836
  93        1.7836
  94        1.7857
  95        1.9313
  96        1.9319
  97        1.9329
  98        1.9329
  99        1.9336
 100        1.9336
 101        1.9336
 102        1.9336
 103        1.9342
 104        1.9342
 105        1.9353
 106        1.9357
 107        2.1194
 108        2.1194
 109        2.1216
 110        2.1216
 111        2.1219
 112        2.1219
 113        2.1219
 114        2.1219
 115        2.1221
 116        2.1221
 117        2.1242
 118        2.1242
 119        2.2685
 120        2.2699
 121        2.2699
 122        2.2699
 123        2.2699
 124        2.2712
 125        2.3094
 126        2.3094
 127        2.3112
 128        2.3117
 129        2.3117
 130        2.3118
 131        2.3118
 132        2.3118
 133        2.3119
 134        2.3124
 135        2.3143
 136        2.3143
 137        2.3220
 138        2.3222
 139        2.6398
 140        2.6409
 141        2.6409
 142        2.6409
 143        2.6409
 144        2.6420
 145        2.9676
 146        2.9676
 147        2.9676
 148        2.9841
 149        2.9841
 150        2.9841
 151        2.9841
 152        2.9841
 153        2.9841
 154        2.9841
 155        2.9841
 156        3.1486
 157        3.1492
 158        3.1492
 159        3.1492
 160        3.1492
 161        3.1492
 162        3.1501
 163        3.1501
 164        3.1501
 165        3.1502
 166        3.1502
 167        3.1507
 168        3.4330
 169        3.4330
 170        3.4330
 171        3.4330
 172        4.4729
 173        4.4730
 174        4.4730
 175        4.4741
 176        4.4745
 177        4.4745
 178        4.4745
 179        4.4745
 180        4.4748
 181        4.4759
 182        4.4759
 183        4.4760
 184        6.1840
 185        6.1840
 186        6.1840
 187        9.0566
 188        9.0566
 189        9.0566
 190        9.0567
 191       11.3815
 192       11.3815
 193       11.3853
 194       11.3853
 195       11.3858
 196       11.3858
 197       11.3858
 198       11.3858
 199       11.3863
 200       11.3863
 201       11.3900
 202       11.3900
 203       12.6307
 204       12.6308
 205       12.6308
 206       13.6009
 207       13.6038
 208       13.6038
 209       13.6038
 210       13.6038
 211       13.6066
 212       14.6172
 
  0.8333333E-01  0.0000000E+00  0.0000000E+00  0.1157407E-02
   1       -5.4093
   2       -2.8942
   3       -2.4705
   4       -2.4705
   5       -2.4705
   6       -2.4705
   7       -2.0926
   8       -0.9701
   9       -0.9701
  10       -0.9701
  11       -0.9701
  12       -0.8125
  13       -0.8020
  14       -0.8020
  15       -0.7183
  16       -0.7183
  17       -0.7183
  18       -0.7183
  19       -0.5106
  20       -0.5106
  21       -0.5106
  22       -0.5106
  23       -0.2973
  24       -0.2973
  25       -0.2973
  26       -0.2973
  27       -0.2825
  28       -0.2821
  29       -0.2821
  30        0.0074
  31        0.0077
  32        0.0360
  33        0.0360
  34        0.0360
  35        0.0361
  36        0.3967
  37        0.5058
  38        0.5058
  39        0.5058
  40        0.5058
  41        0.5783
  42        0.5783
  43        0.6101
  44        0.7321
  45        0.7327
  46        0.7327
  47        0.7328
  48        0.7377
  49        0.7378
  50        0.7378
  51        0.7378
  52        0.7478
  53        0.7479
  54        0.7480
  55        0.7480
  56        0.7663
  57        0.7664
  58        0.7664
  59        0.7666
  60        0.7782
  61        0.7782
  62        0.7782
  63        0.7788
  64        0.9026
  65        0.9026
  66        0.9026
  67        0.9026
  68        0.9309
  69        0.9309
  70        0.9955
  71        0.9955
  72        0.9955
  73        0.9955
  74        1.0605
  75        1.0605
  76        1.0605
  77        1.0606
  78        1.3042
  79        1.3042
  80        1.3042
  81        1.3042
  82        1.3156
  83        1.3156
  84        1.3156
  85        1.3156
  86        1.3405
  87        1.3538
  88        1.3538
  89        1.7483
  90        1.7483
  91        1.7483
  92        1.7483
  93        1.7923
  94        1.8227
  95        1.9060
  96        1.9061
  97        1.9061
  98        1.9061
  99        1.9315
 100        1.9315
 101        1.9315
 102        1.9315
 103        1.9623
 104        1.9623
 105        1.9624
 106        1.9624
 107        2.0093
 108        2.0093
 109        2.1217
 110        2.1217
 111        2.1218
 112        2.1218
 113        2.1518
 114        2.1518
 115        2.1518
 116        2.1518
 117        2.2384
 118        2.2384
 119        2.2581
 120        2.2581
 121        2.2581
 122        2.2581
 123        2.2698
 124        2.2699
 125        2.2700
 126        2.2700
 127        2.2869
 128        2.2870
 129        2.3152
 130        2.3246
 131        2.3401
 132        2.3401
 133        2.3401
 134        2.3403
 135        2.3766
 136        2.3766
 137        2.3766
 138        2.3766
 139        2.5988
 140        2.6482
 141        2.6482
 142        2.6482
 143        2.6482
 144        2.6831
 145        2.8520
 146        2.8520
 147        2.8520
 148        2.8520
 149        2.9588
 150        2.9588
 151        2.9648
 152        2.9769
 153        2.9769
 154        2.9769
 155        2.9769
 156        3.1004
 157        3.1004
 158        3.1388
 159        3.1388
 160        3.1389
 161        3.1389
 162        3.1389
 163        3.1389
 164        3.1486
 165        3.1492
 166        3.1501
 167        3.1507
 168        3.5448
 169        3.5448
 170        3.5448
 171        3.5448
 172        4.1773
 173        4.1773
 174        4.1773
 175        4.1773
 176        4.4701
 177        4.4701
 178        4.4701
 179        4.4701
 180        4.8183
 181        4.8183
 182        4.8183
 183        4.8183
 184        6.0433
 185        6.2526
 186        6.2526
 187        9.1157
 188        9.1157
 189        9.1157
 190        9.1157
 191       10.7618
 192       10.7618
 193       11.0677
 194       11.0677
 195       11.0678
 196       11.0678
 197       11.4171
 198       11.4171
 199       11.4172
 200       11.4172
 201       12.0296
 202       12.0296
 203       12.6378
 204       12.6378
 205       12.8143
 206       13.5458
 207       13.5458
 208       13.8071
 209       13.8071
 210       13.8071
 211       13.8071
 212       14.6430
 
  0.1666667E+00  0.0000000E+00  0.0000000E+00  0.1157407E-02
   1       -5.3409
   2       -3.2924
   3       -2.4158
   4       -2.4158
   5       -2.4158
   6       -2.4158
   7       -1.7267
   8       -0.9538
   9       -0.9528
  10       -0.9528
  11       -0.9526
  12       -0.9526
  13       -0.9524
  14       -0.9524
  15       -0.9514
  16       -0.8109
  17       -0.7685
  18       -0.7684
  19       -0.5462
  20       -0.5462
  21       -0.5462
  22       -0.5462
  23       -0.2629
  24       -0.2612
  25       -0.2612
  26       -0.1205
  27       -0.1205
  28       -0.1205
  29       -0.1205
  30       -0.0474
  31       -0.0473
  32        0.0626
  33        0.0626
  34        0.0626
  35        0.0626
  36        0.2931
  37        0.4249
  38        0.4249
  39        0.5142
  40        0.5143
  41        0.5143
  42        0.5143
  43        0.7089
  44        0.7091
  45        0.7091
  46        0.7092
  47        0.7108
  48        0.7108
  49        0.7109
  50        0.7109
  51        0.7163
  52        0.7507
  53        0.7508
  54        0.7508
  55        0.7508
  56        0.7756
  57        0.7756
  58        0.7756
  59        0.7760
  60        0.8051
  61        0.8051
  62        0.8051
  63        0.8051
  64        0.8536
  65        0.8536
  66        0.8536
  67        0.8537
  68        1.0152
  69        1.0152
  70        1.0152
  71        1.0152
  72        1.1188
  73        1.1189
  74        1.1189
  75        1.1189
  76        1.1296
  77        1.1296
  78        1.2894
  79        1.2894
  80        1.2894
  81        1.2894
  82        1.3182
  83        1.3347
  84        1.3347
  85        1.3347
  86        1.3347
  87        1.3713
  88        1.3713
  89        1.6699
  90        1.6700
  91        1.6700
  92        1.6700
  93        1.8322
  94        1.8409
  95        1.8410
  96        1.8410
  97        1.8410
  98        1.9024
  99        1.9024
 100        1.9308
 101        1.9570
 102        1.9570
 103        1.9570
 104        1.9573
 105        2.0106
 106        2.0106
 107        2.0106
 108        2.0107
 109        2.1217
 110        2.1217
 111        2.1217
 112        2.1217
 113        2.2086
 114        2.2086
 115        2.2087
 116        2.2088
 117        2.2153
 118        2.2153
 119        2.2155
 120        2.2155
 121        2.2692
 122        2.2692
 123        2.2692
 124        2.2692
 125        2.2950
 126        2.3325
 127        2.3350
 128        2.3353
 129        2.3576
 130        2.3576
 131        2.4076
 132        2.4076
 133        2.4076
 134        2.4076
 135        2.4517
 136        2.4517
 137        2.4517
 138        2.4517
 139        2.5576
 140        2.6032
 141        2.6032
 142        2.6032
 143        2.6032
 144        2.6758
 145        2.6758
 146        2.6758
 147        2.6758
 148        2.7247
 149        2.9326
 150        2.9327
 151        2.9554
 152        2.9554
 153        2.9554
 154        2.9554
 155        2.9564
 156        2.9658
 157        2.9658
 158        3.1060
 159        3.1060
 160        3.1060
 161        3.1060
 162        3.1081
 163        3.1081
 164        3.1487
 165        3.1493
 166        3.1501
 167        3.1507
 168        3.7341
 169        3.7342
 170        3.7342
 171        3.7342
 172        3.9180
 173        3.9180
 174        3.9180
 175        3.9180
 176        4.4568
 177        4.4568
 178        4.4568
 179        4.4568
 180        5.2168
 181        5.2168
 182        5.2168
 183        5.2169
 184        5.6647
 185        6.4465
 186        6.4465
 187        9.2912
 188        9.2912
 189        9.2912
 190        9.2912
 191       10.1588
 192       10.1588
 193       10.3933
 194       10.3933
 195       10.3933
 196       10.3933
 197       11.5106
 198       11.5106
 199       11.5106
 200       11.5106
 201       12.6591
 202       12.6591
 203       12.6920
 204       12.6920
 205       13.3226
 206       13.4151
 207       13.4152
 208       13.9464
 209       13.9465
 210       13.9466
 211       13.9479
 212       14.0683
 
  0.2500000E+00  0.0000000E+00  0.0000000E+00  0.1157407E-02
   1       -5.2275
   2       -3.6715
   3       -2.3256
   4       -2.3255
   5       -2.3255
   6       -2.3255
   7       -1.4145
   8       -1.1924
   9       -1.1924
  10       -1.1924
  11       -1.1924
  12       -0.9240
  13       -0.9240
  14       -0.9240
  15       -0.9240
  16       -0.8119
  17       -0.7139
  18       -0.7139
  19       -0.5978
  20       -0.5978
  21       -0.5978
  22       -0.5978
  23       -0.2305
  24       -0.2263
  25       -0.2263
  26       -0.1302
  27       -0.1301
  28        0.0316
  29        0.0316
  30        0.0316
  31        0.0316
  32        0.1054
  33        0.1055
  34        0.1055
  35        0.1055
  36        0.1939
  37        0.2869
  38        0.2869
  39        0.5280
  40        0.5280
  41        0.5280
  42        0.5280
  43        0.6679
  44        0.6680
  45        0.6680
  46        0.6680
  47        0.6822
  48        0.6823
  49        0.6823
  50        0.6823
  51        0.7024
  52        0.7024
  53        0.7024
  54        0.7024
  55        0.7550
  56        0.7553
  57        0.7553
  58        0.7553
  59        0.7801
  60        0.7801
  61        0.7801
  62        0.7803
  63        0.8199
  64        0.9674
  65        0.9674
  66        0.9674
  67        0.9674
  68        1.0512
  69        1.0512
  70        1.0512
  71        1.0512
  72        1.1695
  73        1.1695
  74        1.1695
  75        1.1695
  76        1.2655
  77        1.2655
  78        1.2656
  79        1.2656
  80        1.2817
  81        1.3423
  82        1.3423
  83        1.3661
  84        1.3661
  85        1.3661
  86        1.3662
  87        1.4005
  88        1.4005
  89        1.5800
  90        1.5800
  91        1.5800
  92        1.5800
  93        1.7614
  94        1.7614
  95        1.7614
  96        1.7614
  97        1.8026
  98        1.8026
  99        1.8905
 100        2.0041
 101        2.0041
 102        2.0042
 103        2.0042
 104        2.0681
 105        2.0681
 106        2.0681
 107        2.0681
 108        2.1220
 109        2.1220
 110        2.1220
 111        2.1220
 112        2.1314
 113        2.1827
 114        2.1827
 115        2.1828
 116        2.1828
 117        2.2491
 118        2.2492
 119        2.2492
 120        2.2492
 121        2.2619
 122        2.2660
 123        2.2660
 124        2.2660
 125        2.2660
 126        2.3309
 127        2.3309
 128        2.3309
 129        2.3309
 130        2.3460
 131        2.4068
 132        2.4069
 133        2.4769
 134        2.4769
 135        2.4909
 136        2.4909
 137        2.4910
 138        2.4910
 139        2.5180
 140        2.5355
 141        2.5355
 142        2.5356
 143        2.5356
 144        2.7364
 145        2.7364
 146        2.7364
 147        2.7364
 148        2.7650
 149        2.7715
 150        2.7715
 151        2.8897
 152        2.8897
 153        2.9201
 154        2.9201
 155        2.9201
 156        2.9201
 157        2.9425
 158        3.0535
 159        3.0535
 160        3.0535
 161        3.0535
 162        3.0582
 163        3.0582
 164        3.1487
 165        3.1494
 166        3.1500
 167        3.1507
 168        3.6882
 169        3.6882
 170        3.6882
 171        3.6882
 172        3.9123
 173        3.9124
 174        3.9124
 175        3.9124
 176        4.4332
 177        4.4332
 178        4.4332
 179        4.4332
 180        5.1375
 181        5.6759
 182        5.6759
 183        5.6759
 184        5.6760
 185        6.7397
 186        6.7397
 187        9.5766
 188        9.5766
 189        9.5787
 190        9.5788
 191        9.5804
 192        9.5804
 193        9.6283
 194        9.6284
 195        9.6284
 196        9.6285
 197       11.6641
 198       11.6641
 199       11.6641
 200       11.6641
 201       12.6951
 202       12.6951
 203       13.1490
 204       13.1490
 205       13.1490
 206       13.1491
 207       13.2675
 208       13.2675
 209       13.3716
 210       13.3716
 211       13.6541
 212       13.6541
 
  0.3333333E+00  0.0000000E+00  0.0000000E+00  0.1157407E-02
   1       -5.0696
   2       -4.0236
   3       -2.2015
   4       -2.2014
   5       -2.2014
   6       -2.2014
   7       -1.4292
   8       -1.4292
   9       -1.4292
  10       -1.4292
  11       -1.1732
  12       -0.8851
  13       -0.8851
  14       -0.8851
  15       -0.8851
  16       -0.8210
  17       -0.6579
  18       -0.6579
  19       -0.6579
  20       -0.6579
  21       -0.6402
  22       -0.6402
  23       -0.2308
  24       -0.2308
  25       -0.1858
  26       -0.1772
  27       -0.1772
  28        0.1007
  29        0.1574
  30        0.1574
  31        0.1575
  32        0.1576
  33        0.1618
  34        0.1618
  35        0.1618
  36        0.1618
  37        0.1644
  38        0.1644
  39        0.5466
  40        0.5466
  41        0.5466
  42        0.5467
  43        0.6030
  44        0.6032
  45        0.6032
  46        0.6032
  47        0.6125
  48        0.6125
  49        0.6125
  50        0.6126
  51        0.6534
  52        0.6535
  53        0.6535
  54        0.6535
  55        0.7606
  56        0.7609
  57        0.7609
  58        0.7609
  59        0.7805
  60        0.7806
  61        0.7806
  62        0.7809
  63        0.9186
  64        1.0609
  65        1.0609
  66        1.0609
  67        1.0609
  68        1.1531
  69        1.1531
  70        1.1531
  71        1.1531
  72        1.2194
  73        1.2194
  74        1.2194
  75        1.2194
  76        1.2315
  77        1.2339
  78        1.2339
  79        1.2339
  80        1.2340
  81        1.4094
  82        1.4094
  83        1.4094
  84        1.4094
  85        1.4410
  86        1.4410
  87        1.4916
  88        1.4916
  89        1.4916
  90        1.4916
  91        1.5681
  92        1.5681
  93        1.6793
  94        1.6794
  95        1.6794
  96        1.6794
  97        1.7109
  98        1.7109
  99        1.9584
 100        2.0586
 101        2.0586
 102        2.0586
 103        2.0586
 104        2.0637
 105        2.0637
 106        2.0638
 107        2.0638
 108        2.1233
 109        2.1233
 110        2.1233
 111        2.1234
 112        2.1251
 113        2.1251
 114        2.1251
 115        2.1251
 116        2.1591
 117        2.1592
 118        2.1592
 119        2.1592
 120        2.2171
 121        2.2547
 122        2.2549
 123        2.2551
 124        2.2551
 125        2.2575
 126        2.2575
 127        2.2576
 128        2.2579
 129        2.3643
 130        2.4395
 131        2.4804
 132        2.4932
 133        2.4932
 134        2.5429
 135        2.5429
 136        2.5780
 137        2.5780
 138        2.5780
 139        2.5780
 140        2.5942
 141        2.5942
 142        2.6259
 143        2.6259
 144        2.6259
 145        2.6259
 146        2.8033
 147        2.8311
 148        2.8311
 149        2.8359
 150        2.8359
 151        2.8359
 152        2.8360
 153        2.8719
 154        2.8719
 155        2.8719
 156        2.8719
 157        2.9234
 158        2.9846
 159        2.9846
 160        2.9847
 161        2.9847
 162        2.9907
 163        2.9907
 164        3.1487
 165        3.1494
 166        3.1499
 167        3.1506
 168        3.4815
 169        3.4815
 170        3.4815
 171        3.4815
 172        4.0627
 173        4.0627
 174        4.0627
 175        4.0627
 176        4.3973
 177        4.3973
 178        4.3973
 179        4.3973
 180        4.5427
 181        6.1981
 182        6.1981
 183        6.1981
 184        6.1981
 185        7.1064
 186        7.1064
 187        8.8605
 188        8.8605
 189        8.8605
 190        8.8606
 191        9.0221
 192        9.0221
 193        9.9709
 194        9.9709
 195        9.9709
 196        9.9709
 197       11.8747
 198       11.8747
 199       11.8747
 200       11.8747
 201       12.3866
 202       12.3866
 203       12.3866
 204       12.3866
 205       12.7466
 206       12.7466
 207       13.1280
 208       13.1280
 209       13.2134
 210       13.2135
 211       13.2135
 212       13.2135
 
  0.4166667E+00  0.0000000E+00  0.0000000E+00  0.1157407E-02
   1       -4.8685
   2       -4.3430
   3       -2.0459
   4       -2.0459
   5       -2.0459
   6       -2.0459
   7       -1.6547
   8       -1.6547
   9       -1.6547
  10       -1.6547
  11       -1.0064
  12       -0.8474
  13       -0.8370
  14       -0.8370
  15       -0.8370
  16       -0.8369
  17       -0.7206
  18       -0.7206
  19       -0.7206
  20       -0.7206
  21       -0.5505
  22       -0.5504
  23       -0.3397
  24       -0.3397
  25       -0.1295
  26       -0.1138
  27       -0.1138
  28        0.0149
  29        0.0567
  30        0.0567
  31        0.2245
  32        0.2245
  33        0.2245
  34        0.2245
  35        0.2484
  36        0.2484
  37        0.2484
  38        0.2484
  39        0.5242
  40        0.5242
  41        0.5243
  42        0.5243
  43        0.5510
  44        0.5510
  45        0.5511
  46        0.5511
  47        0.5694
  48        0.5695
  49        0.5695
  50        0.5695
  51        0.6241
  52        0.6241
  53        0.6241
  54        0.6241
  55        0.7665
  56        0.7670
  57        0.7670
  58        0.7671
  59        0.7779
  60        0.7779
  61        0.7779
  62        0.7785
  63        1.0107
  64        1.1094
  65        1.1094
  66        1.1095
  67        1.1095
  68        1.1687
  69        1.1960
  70        1.1960
  71        1.1960
  72        1.1960
  73        1.2743
  74        1.2743
  75        1.2743
  76        1.2743
  77        1.3372
  78        1.3372
  79        1.3372
  80        1.3372
  81        1.4099
  82        1.4099
  83        1.4099
  84        1.4100
  85        1.4637
  86        1.4637
  87        1.4637
  88        1.4637
  89        1.4928
  90        1.4928
  91        1.6005
  92        1.6005
  93        1.6005
  94        1.6005
  95        1.6282
  96        1.6282
  97        1.7977
  98        1.7977
  99        1.7977
 100        1.7977
 101        1.8050
 102        1.8050
 103        2.0293
 104        2.1263
 105        2.1263
 106        2.1264
 107        2.1265
 108        2.1265
 109        2.1266
 110        2.1267
 111        2.1267
 112        2.1429
 113        2.1429
 114        2.1429
 115        2.1430
 116        2.1619
 117        2.1748
 118        2.1748
 119        2.1748
 120        2.1748
 121        2.2303
 122        2.2303
 123        2.2304
 124        2.2304
 125        2.2408
 126        2.2408
 127        2.2408
 128        2.2409
 129        2.2984
 130        2.2984
 131        2.3873
 132        2.4459
 133        2.5850
 134        2.5850
 135        2.6627
 136        2.6627
 137        2.6627
 138        2.6627
 139        2.7069
 140        2.7069
 141        2.7198
 142        2.7198
 143        2.7198
 144        2.7198
 145        2.7588
 146        2.7588
 147        2.8118
 148        2.8118
 149        2.8118
 150        2.8118
 151        2.8389
 152        2.8560
 153        2.8994
 154        2.9032
 155        2.9032
 156        2.9032
 157        2.9032
 158        2.9079
 159        2.9079
 160        2.9674
 161        2.9674
 162        2.9674
 163        2.9674
 164        3.1487
 165        3.1496
 166        3.1498
 167        3.1506
 168        3.2933
 169        3.2933
 170        3.2933
 171        3.2933
 172        3.9376
 173        4.1832
 174        4.1832
 175        4.1832
 176        4.1832
 177        4.3463
 178        4.3463
 179        4.3463
 180        4.3463
 181        6.7825
 182        6.7825
 183        6.7826
 184        6.7826
 185        7.5282
 186        7.5282
 187        8.1213
 188        8.1213
 189        8.1213
 190        8.1214
 191        8.4924
 192        8.4924
 193       10.4582
 194       10.4582
 195       10.4582
 196       10.4583
 197       11.6765
 198       11.6765
 199       11.6765
 200       11.6765
 201       12.1387
 202       12.1387
 203       12.1387
 204       12.1387
 205       12.8118
 206       12.8118
 207       12.8118
 208       12.8118
 209       12.8147
 210       12.8147
 211       13.0049
 212       13.0049
 
  0.5000000E+00  0.0000000E+00  0.0000000E+00  0.5787037E-03
   1       -4.6273
   2       -4.6239
   3       -1.8659
   4       -1.8631
   5       -1.8631
   6       -1.8630
   7       -1.8614
   8       -1.8612
   9       -1.8612
  10       -1.8585
  11       -0.9044
  12       -0.9028
  13       -0.7832
  14       -0.7832
  15       -0.7821
  16       -0.7817
  17       -0.7811
  18       -0.7807
  19       -0.7796
  20       -0.7796
  21       -0.4505
  22       -0.4493
  23       -0.4477
  24       -0.4465
  25       -0.0636
  26       -0.0608
  27       -0.0372
  28       -0.0372
  29       -0.0346
  30       -0.0346
  31        0.2696
  32        0.2702
  33        0.2702
  34        0.2705
  35        0.2714
  36        0.2717
  37        0.2717
  38        0.2722
  39        0.5043
  40        0.5048
  41        0.5049
  42        0.5049
  43        0.5053
  44        0.5053
  45        0.5054
  46        0.5060
  47        0.5937
  48        0.5946
  49        0.5946
  50        0.5953
  51        0.5961
  52        0.5968
  53        0.5968
  54        0.5976
  55        0.7703
  56        0.7723
  57        0.7723
  58        0.7727
  59        0.7734
  60        0.7738
  61        0.7738
  62        0.7758
  63        1.0944
  64        1.0950
  65        1.1528
  66        1.1531
  67        1.1531
  68        1.1538
  69        1.1539
  70        1.1545
  71        1.1545
  72        1.1549
  73        1.3363
  74        1.3363
  75        1.3363
  76        1.3371
  77        1.3377
  78        1.3383
  79        1.3385
  80        1.3385
  81        1.5259
  82        1.5263
  83        1.5263
  84        1.5276
  85        1.5282
  86        1.5294
  87        1.5294
  88        1.5299
  89        1.5540
  90        1.5540
  91        1.5540
  92        1.5550
  93        1.5551
  94        1.5551
  95        1.5554
  96        1.5554
  97        1.5554
  98        1.5564
  99        1.5567
 100        1.5567
 101        2.0493
 102        2.0493
 103        2.0506
 104        2.0506
 105        2.0978
 106        2.0989
 107        2.1320
 108        2.1320
 109        2.1322
 110        2.1325
 111        2.1326
 112        2.1329
 113        2.1330
 114        2.1330
 115        2.1832
 116        2.1841
 117        2.1841
 118        2.1841
 119        2.1851
 120        2.1853
 121        2.1853
 122        2.1860
 123        2.2124
 124        2.2129
 125        2.2132
 126        2.2132
 127        2.2140
 128        2.2140
 129        2.2144
 130        2.2149
 131        2.4136
 132        2.4156
 133        2.6753
 134        2.6753
 135        2.6755
 136        2.6756
 137        2.7406
 138        2.7409
 139        2.7410
 140        2.7410
 141        2.7418
 142        2.7418
 143        2.7420
 144        2.7423
 145        2.8117
 146        2.8117
 147        2.8124
 148        2.8124
 149        2.8130
 150        2.8130
 151        2.8131
 152        2.8132
 153        2.8138
 154        2.8139
 155        2.8148
 156        2.8148
 157        2.8710
 158        2.8712
 159        3.1205
 160        3.1213
 161        3.1213
 162        3.1214
 163        3.1217
 164        3.1219
 165        3.1219
 166        3.1227
 167        3.1487
 168        3.1497
 169        3.1497
 170        3.1506
 171        3.3628
 172        3.3657
 173        4.2749
 174        4.2752
 175        4.2758
 176        4.2758
 177        4.2769
 178        4.2769
 179        4.2775
 180        4.2777
 181        7.4220
 182        7.4233
 183        7.4233
 184        7.4252
 185        7.4261
 186        7.4280
 187        7.4280
 188        7.4294
 189        7.9910
 190        7.9910
 191        7.9946
 192        7.9946
 193       11.0272
 194       11.0282
 195       11.0282
 196       11.0299
 197       11.0307
 198       11.0323
 199       11.0323
 200       11.0333
 201       12.4500
 202       12.4500
 203       12.4520
 204       12.4522
 205       12.4526
 206       12.4528
 207       12.4548
 208       12.4548
 209       12.9003
 210       12.9005
 211       12.9006
 212       12.9007
 
  0.0000000E+00  0.8333333E-01  0.0000000E+00  0.2314815E-02
   1       -5.4093
   2       -2.8942
   3       -2.4731
   4       -2.4705
   5       -2.4705
   6       -2.4680
   7       -2.0926
   8       -0.9701
   9       -0.9701
  10       -0.9701
  11       -0.9700
  12       -0.8125
  13       -0.8020
  14       -0.8020
  15       -0.7204
  16       -0.7183
  17       -0.7183
  18       -0.7163
  19       -0.5119
  20       -0.5108
  21       -0.5104
  22       -0.5093
  23       -0.2992
  24       -0.2974
  25       -0.2973
  26       -0.2955
  27       -0.2824
  28       -0.2821
  29       -0.2821
  30        0.0075
  31        0.0077
  32        0.0343
  33        0.0360
  34        0.0360
  35        0.0377
  36        0.3967
  37        0.5040
  38        0.5058
  39        0.5058
  40        0.5075
  41        0.5782
  42        0.5782
  43        0.6101
  44        0.7308
  45        0.7326
  46        0.7328
  47        0.7341
  48        0.7364
  49        0.7378
  50        0.7380
  51        0.7392
  52        0.7459
  53        0.7479
  54        0.7479
  55        0.7500
  56        0.7646
  57        0.7663
  58        0.7664