       N       E                     dE             d eps       ncg     rms          rms(c)
DAV:   1     0.415480723598E+04    0.41548E+04   -0.18581E+05 83176   0.341E+03
DAV:   2     0.522502777234E+03   -0.36323E+04   -0.34931E+04 83104   0.746E+02
DAV:   3    -0.997153392285E+02   -0.62222E+03   -0.57557E+03 83104   0.283E+02
DAV:   4    -0.144236785590E+03   -0.44521E+02   -0.43071E+02 86140   0.879E+01
DAV:   5    -0.144784491964E+03   -0.54771E+00   -0.54602E+00 87972   0.103E+01    0.400E+01
DAV:   6    -0.123630690287E+03    0.21154E+02   -0.24295E+02 89604   0.917E+01    0.138E+01
DAV:   7    -0.116639526735E+03    0.69912E+01   -0.37100E+01 92284   0.363E+01    0.364E+00
DAV:   8    -0.116236875389E+03    0.40265E+00   -0.42385E-01 85624   0.234E+00    0.178E+00
DAV:   9    -0.116183749019E+03    0.53126E-01   -0.35971E-02 99780   0.194E+00    0.894E-01
DAV:  10    -0.116169702645E+03    0.14046E-01   -0.58610E-02 98848   0.147E+00    0.950E-02
DAV:  11    -0.116170402348E+03   -0.69970E-03   -0.60468E-03 85052   0.466E-01    0.813E-02
DAV:  12    -0.116170309499E+03    0.92850E-04   -0.60705E-04 88704   0.278E-01    0.383E-02
DAV:  13    -0.116170305483E+03    0.40153E-05   -0.65091E-05 91936   0.697E-02    0.246E-02
DAV:  14    -0.116170297353E+03    0.81309E-05   -0.38282E-05 92168   0.440E-02    0.131E-02
DAV:  15    -0.116170294214E+03    0.31386E-05   -0.14475E-05 88428   0.369E-02    0.870E-03
DAV:  16    -0.116170293068E+03    0.11457E-05   -0.15524E-05 92184   0.256E-02    0.441E-03
DAV:  17    -0.116170298910E+03   -0.58423E-05   -0.25368E-06 90656   0.143E-02    0.126E-03
DAV:  18    -0.116170300015E+03   -0.11049E-05   -0.34803E-07 87728   0.605E-03    0.733E-04
DAV:  19    -0.116170300025E+03   -0.10012E-07   -0.74140E-08 84476   0.289E-03    0.294E-04
DAV:  20    -0.116170300337E+03   -0.31195E-06   -0.14684E-08 44528   0.147E-03    0.230E-04
DAV:  21    -0.116170300543E+03   -0.20587E-06   -0.78695E-09 43780   0.107E-03    0.686E-05
DAV:  22    -0.116170300536E+03    0.76398E-08   -0.24149E-09 43704   0.379E-04
   1 F= -.11617030E+03 E0= -.11616983E+03  d E =-.941945E-03
