 vasp.4.6.28 25Jul05 complex 
 executed on             LinuxIFC date 2017.01.09  17:41:43
 running on    4 nodes
 distr:  one band on    1 nodes,    4 groups


--------------------------------------------------------------------------------------------------------


 INCAR:
 POTCAR:   PAW_PBE Cu 05Jan2001                   
 POTCAR:   PAW_PBE Cu 05Jan2001                   
   VRHFIN =Cu: d10 p1                                                           
   LEXCH  = PE                                                                  
   EATOM  =  1390.9800 eV,  102.2341 Ry                                         
                                                                                
   TITEL  = PAW_PBE Cu 05Jan2001                                                
   LULTRA =        F    use ultrasoft PP ?                                      
   IUNSCR =        1    unscreen: 0-lin 1-nonlin 2-no                           
   RPACOR =    2.000    partial core radius                                     
   POMASS =   63.546; ZVAL   =   11.000    mass and valenz                      
   RCORE  =    2.300    outmost cutoff radius                                   
   RWIGS  =    2.480; RWIGS  =    1.312    wigner-seitz radius (au A)           
   ENMAX  =  273.214; ENMIN  =  204.910 eV                                      
   RCLOC  =    1.712    cutoff for local pot                                    
   LCOR   =        T    correct aug charges                                     
   LPAW   =        T    paw PP                                                  
   EAUG   =  516.456                                                            
   DEXC   =    -.008                                                            
   RMAX   =    2.789    core radius for proj-oper                               
   RAUG   =    1.300    factor for augmentation sphere                          
   RDEP   =    2.302    radius for radial grids                                 
   QCUT   =   -4.481; QGAM   =    8.962    optimization parameters              
                                                                                
   Description                                                                  
     l     E      TYP  RCUT    TYP  RCUT                                        
     2   .000     23  2.300                                                     
     2   .000     23  2.300                                                     
     0   .000     23  2.300                                                     
     0   .000     23  2.300                                                     
     1  -.200     23  2.300                                                     
     1   .000     23  2.300                                                     
     3   .000      7   .000                                                     
  local pseudopotential read in
  partial core-charges read in
  atomic valenz-charges read in
  non local Contribution for L=           2  read in
    real space projection operators read in
  non local Contribution for L=           2  read in
    real space projection operators read in
  non local Contribution for L=           0  read in
    real space projection operators read in
  non local Contribution for L=           0  read in
    real space projection operators read in
  non local Contribution for L=           1  read in
    real space projection operators read in
  non local Contribution for L=           1  read in
    real space projection operators read in
    PAW grid and wavefunctions read in
 
   number of l-projection  operators is LMAX  =           6
   number of lm-projection operators is LMMAX =          18
 

 ----------------------------------------------------------------------------- 
|                                                                             |
|  ADVICE TO THIS USER RUNNING 'VASP/VAMP'   (HEAR YOUR MASTER'S VOICE ...):  |
|                                                                             |
|      You have a (more or less) 'large supercell' and for larger cells       |
|      it might be more efficient to use real space projection operators      |
|      So try LREAL= Auto  in the INCAR   file.                               |
|      Mind: If you want to do an extremely accurate calculations keep the    |
|      reciprocal projection scheme          (i.e. LREAL=.FALSE.)             |
|                                                                             |
 ----------------------------------------------------------------------------- 

 PAW_PBE Cu 05Jan2001                   :
 energy of atom  1       EATOM=-1390.9800
 kinetic energy error for atom=    0.0006 (will be added to EATOM!!)
 
 EXHCAR: internal setup
 exchange correlation table for  LEXCH =        8
   RHO(1)=    0.500       N(1)  =     2000
   RHO(2)=  100.500       N(2)  =     4000
 
 POSCAR: Cu                                      
  positions in direct lattice
  No initial velocities read in
 


--------------------------------------------------------------------------------------------------------


 ion  position               nearest neighbor table
   1  0.001  0.000  0.000-   9 2.46  11 2.46  17 2.46  21 2.46  25 2.47  27 2.47  29 2.47  31 2.47
                            10 2.48  18 2.48  12 2.48  22 2.48
   2  0.500  0.000  0.000-   9 2.47  10 2.47  11 2.47  12 2.47  17 2.47  18 2.47  21 2.47  22 2.47
                            26 2.47  28 2.47  30 2.47  32 2.47
   3  0.000  0.500  0.000-   9 2.47  10 2.47  11 2.47  12 2.47  19 2.47  20 2.47  23 2.47  24 2.47
                            25 2.47  27 2.47  29 2.47  31 2.47
   4  0.500  0.500  0.000-   9 2.47  10 2.47  11 2.47  12 2.47  19 2.47  20 2.47  23 2.47  24 2.47
                            26 2.47  28 2.47  30 2.47  32 2.47
   5  0.000  0.000  0.500-  13 2.47  14 2.47  15 2.47  16 2.47  17 2.47  18 2.47  21 2.47  22 2.47
                            25 2.47  27 2.47  29 2.47  31 2.47
   6  0.500  0.000  0.500-  13 2.47  14 2.47  15 2.47  16 2.47  17 2.47  18 2.47  21 2.47  22 2.47
                            26 2.47  28 2.47  30 2.47  32 2.47
   7  0.000  0.500  0.500-  13 2.47  14 2.47  15 2.47  16 2.47  19 2.47  20 2.47  23 2.47  24 2.47
                            25 2.47  27 2.47  29 2.47  31 2.47
   8  0.500  0.500  0.500-  13 2.47  14 2.47  15 2.47  16 2.47  19 2.47  20 2.47  23 2.47  24 2.47
                            26 2.47  28 2.47  30 2.47  32 2.47
   9  0.250  0.250  0.000-   1 2.46   2 2.47   3 2.47   4 2.47  17 2.47  19 2.47  21 2.47  23 2.47
                            25 2.47  26 2.47  29 2.47  30 2.47
  10  0.750  0.250  0.000-   2 2.47   3 2.47   4 2.47  18 2.47  20 2.47  22 2.47  24 2.47  25 2.47
                            26 2.47  29 2.47  30 2.47   1 2.48
  11  0.250  0.750  0.000-   1 2.46   2 2.47   3 2.47   4 2.47  17 2.47  19 2.47  21 2.47  23 2.47
                            27 2.47  28 2.47  31 2.47  32 2.47
  12  0.750  0.750  0.000-   2 2.47   3 2.47   4 2.47  18 2.47  20 2.47  22 2.47  24 2.47  27 2.47
                            28 2.47  31 2.47  32 2.47   1 2.48
  13  0.250  0.250  0.500-   5 2.47   6 2.47   7 2.47   8 2.47  17 2.47  19 2.47  21 2.47  23 2.47
                            25 2.47  26 2.47  29 2.47  30 2.47
  14  0.750  0.250  0.500-   5 2.47   6 2.47   7 2.47   8 2.47  18 2.47  20 2.47  22 2.47  24 2.47
                            25 2.47  26 2.47  29 2.47  30 2.47
  15  0.250  0.750  0.500-   5 2.47   6 2.47   7 2.47   8 2.47  17 2.47  19 2.47  21 2.47  23 2.47
                            27 2.47  28 2.47  31 2.47  32 2.47
  16  0.750  0.750  0.500-   5 2.47   6 2.47   7 2.47   8 2.47  18 2.47  20 2.47  22 2.47  24 2.47
                            27 2.47  28 2.47  31 2.47  32 2.47
  17  0.250  0.000  0.250-   1 2.46   2 2.47   5 2.47   6 2.47   9 2.47  11 2.47  13 2.47  15 2.47
                            25 2.47  26 2.47  27 2.47  28 2.47
  18  0.750  0.000  0.250-   2 2.47   5 2.47   6 2.47  10 2.47  12 2.47  14 2.47  16 2.47  25 2.47
                            26 2.47  27 2.47  28 2.47   1 2.48
  19  0.250  0.500  0.250-   3 2.47   4 2.47   7 2.47   8 2.47   9 2.47  11 2.47  13 2.47  15 2.47
                            25 2.47  26 2.47  27 2.47  28 2.47
  20  0.750  0.500  0.250-   3 2.47   4 2.47   7 2.47   8 2.47  10 2.47  12 2.47  14 2.47  16 2.47
                            25 2.47  26 2.47  27 2.47  28 2.47
  21  0.250  0.000  0.750-   1 2.46   2 2.47   5 2.47   6 2.47   9 2.47  11 2.47  13 2.47  15 2.47
                            29 2.47  30 2.47  31 2.47  32 2.47
  22  0.750  0.000  0.750-   2 2.47   5 2.47   6 2.47  10 2.47  12 2.47  14 2.47  16 2.47  29 2.47
                            30 2.47  31 2.47  32 2.47   1 2.48
  23  0.250  0.500  0.750-   3 2.47   4 2.47   7 2.47   8 2.47   9 2.47  11 2.47  13 2.47  15 2.47
                            29 2.47  30 2.47  31 2.47  32 2.47
  24  0.750  0.500  0.750-   3 2.47   4 2.47   7 2.47   8 2.47  10 2.47  12 2.47  14 2.47  16 2.47
                            29 2.47  30 2.47  31 2.47  32 2.47
  25  0.000  0.250  0.250-   3 2.47   5 2.47   7 2.47   9 2.47  10 2.47  13 2.47  14 2.47  17 2.47
                            18 2.47  19 2.47  20 2.47   1 2.47
  26  0.500  0.250  0.250-   2 2.47   4 2.47   6 2.47   8 2.47   9 2.47  10 2.47  13 2.47  14 2.47
                            17 2.47  18 2.47  19 2.47  20 2.47
  27  0.000  0.750  0.250-   3 2.47   5 2.47   7 2.47  11 2.47  12 2.47  15 2.47  16 2.47  17 2.47
                            18 2.47  19 2.47  20 2.47   1 2.47
  28  0.500  0.750  0.250-   2 2.47   4 2.47   6 2.47   8 2.47  11 2.47  12 2.47  15 2.47  16 2.47
                            17 2.47  18 2.47  19 2.47  20 2.47
  29  0.000  0.250  0.750-   3 2.47   5 2.47   7 2.47   9 2.47  10 2.47  13 2.47  14 2.47  21 2.47
                            22 2.47  23 2.47  24 2.47   1 2.47
  30  0.500  0.250  0.750-   2 2.47   4 2.47   6 2.47   8 2.47   9 2.47  10 2.47  13 2.47  14 2.47
                            21 2.47  22 2.47  23 2.47  24 2.47
  31  0.000  0.750  0.750-   3 2.47   5 2.47   7 2.47  11 2.47  12 2.47  15 2.47  16 2.47  21 2.47
                            22 2.47  23 2.47  24 2.47   1 2.47
  32  0.500  0.750  0.750-   2 2.47   4 2.47   6 2.47   8 2.47  11 2.47  12 2.47  15 2.47  16 2.47
                            21 2.47  22 2.47  23 2.47  24 2.47
 
  LATTYP: Found a simple cubic cell.
 ALAT       =     6.9819183585
  
  Lattice vectors:
  
 A1 = (   6.9819183585,   0.0000000000,   0.0000000000)
 A2 = (   0.0000000000,   6.9819183585,   0.0000000000)
 A3 = (   0.0000000000,   0.0000000000,   6.9819183585)
 Subroutine PRICEL returns:
 Original cell was already a primitive cell.
 

Analysis of symmetry for initial positions (statically):

 Routine SETGRP: Setting up the symmetry group for a 
 simple cubic supercell.


 Subroutine GETGRP returns: Found  8 space group operations
 (whereof  8 operations were pure point group operations)
 out of a pool of 48 trial point group operations.


The static configuration has the point symmetry C_4v.

Analysis of symmetry for dynamics (positions and initial velocities):

 Subroutine DYNSYM returns: Found  8 space group operations
 (whereof  8 operations were pure point group operations)
 out of a pool of  8 trial space group operations
 (whereof  8 operations were pure point group operations)
 and found also     1 'primitive' translations


The dynamic configuration has the point symmetry C_4v.
 
 
 KPOINTS: Automatic mesh                          

Automatic generation of k-mesh.
 
 Subroutine IBZKPT returns following result:
 ===========================================
 
 Found    196 irreducible k-points:
 
 Following reciprocal coordinates:
            Coordinates               Weight
  0.000000  0.000000  0.000000      1.000000
  0.083333  0.000000  0.000000      2.000000
  0.166667  0.000000  0.000000      2.000000
  0.250000  0.000000  0.000000      2.000000
  0.333333  0.000000  0.000000      2.000000
  0.416667  0.000000  0.000000      2.000000
  0.500000  0.000000  0.000000      1.000000
  0.000000  0.083333  0.000000      4.000000
  0.083333  0.083333  0.000000      8.000000
  0.166667  0.083333  0.000000      8.000000
  0.250000  0.083333  0.000000      8.000000
  0.333333  0.083333  0.000000      8.000000
  0.416667  0.083333  0.000000      8.000000
  0.500000  0.083333  0.000000      4.000000
  0.000000  0.166667  0.000000      4.000000
  0.083333  0.166667  0.000000      8.000000
  0.166667  0.166667  0.000000      8.000000
  0.250000  0.166667  0.000000      8.000000
  0.333333  0.166667  0.000000      8.000000
  0.416667  0.166667  0.000000      8.000000
  0.500000  0.166667  0.000000      4.000000
  0.000000  0.250000  0.000000      4.000000
  0.083333  0.250000  0.000000      8.000000
  0.166667  0.250000  0.000000      8.000000
  0.250000  0.250000  0.000000      8.000000
  0.333333  0.250000  0.000000      8.000000
  0.416667  0.250000  0.000000      8.000000
  0.500000  0.250000  0.000000      4.000000
  0.000000  0.333333  0.000000      4.000000
  0.083333  0.333333  0.000000      8.000000
  0.166667  0.333333  0.000000      8.000000
  0.250000  0.333333  0.000000      8.000000
  0.333333  0.333333  0.000000      8.000000
  0.416667  0.333333  0.000000      8.000000
  0.500000  0.333333  0.000000      4.000000
  0.000000  0.416667  0.000000      4.000000
  0.083333  0.416667  0.000000      8.000000
  0.166667  0.416667  0.000000      8.000000
  0.250000  0.416667  0.000000      8.000000
  0.333333  0.416667  0.000000      8.000000
  0.416667  0.416667  0.000000      8.000000
  0.500000  0.416667  0.000000      4.000000
  0.000000  0.500000  0.000000      2.000000
  0.083333  0.500000  0.000000      4.000000
  0.166667  0.500000  0.000000      4.000000
  0.250000  0.500000  0.000000      4.000000
  0.333333  0.500000  0.000000      4.000000
  0.416667  0.500000  0.000000      4.000000
  0.500000  0.500000  0.000000      2.000000
  0.000000  0.083333  0.083333      4.000000
  0.083333  0.083333  0.083333      8.000000
  0.166667  0.083333  0.083333      8.000000
  0.250000  0.083333  0.083333      8.000000
  0.333333  0.083333  0.083333      8.000000
  0.416667  0.083333  0.083333      8.000000
  0.500000  0.083333  0.083333      4.000000
  0.000000  0.166667  0.083333      8.000000
  0.083333  0.166667  0.083333     16.000000
  0.166667  0.166667  0.083333     16.000000
  0.250000  0.166667  0.083333     16.000000
  0.333333  0.166667  0.083333     16.000000
  0.416667  0.166667  0.083333     16.000000
  0.500000  0.166667  0.083333      8.000000
  0.000000  0.250000  0.083333      8.000000
  0.083333  0.250000  0.083333     16.000000
  0.166667  0.250000  0.083333     16.000000
  0.250000  0.250000  0.083333     16.000000
  0.333333  0.250000  0.083333     16.000000
  0.416667  0.250000  0.083333     16.000000
  0.500000  0.250000  0.083333      8.000000
  0.000000  0.333333  0.083333      8.000000
  0.083333  0.333333  0.083333     16.000000
  0.166667  0.333333  0.083333     16.000000
  0.250000  0.333333  0.083333     16.000000
  0.333333  0.333333  0.083333     16.000000
  0.416667  0.333333  0.083333     16.000000
  0.500000  0.333333  0.083333      8.000000
  0.000000  0.416667  0.083333      8.000000
  0.083333  0.416667  0.083333     16.000000
  0.166667  0.416667  0.083333     16.000000
  0.250000  0.416667  0.083333     16.000000
  0.333333  0.416667  0.083333     16.000000
  0.416667  0.416667  0.083333     16.000000
  0.500000  0.416667  0.083333      8.000000
  0.000000  0.500000  0.083333      4.000000
  0.083333  0.500000  0.083333      8.000000
  0.166667  0.500000  0.083333      8.000000
  0.250000  0.500000  0.083333      8.000000
  0.333333  0.500000  0.083333      8.000000
  0.416667  0.500000  0.083333      8.000000
  0.500000  0.500000  0.083333      4.000000
  0.000000  0.166667  0.166667      4.000000
  0.083333  0.166667  0.166667      8.000000
  0.166667  0.166667  0.166667      8.000000
  0.250000  0.166667  0.166667      8.000000
  0.333333  0.166667  0.166667      8.000000
  0.416667  0.166667  0.166667      8.000000
  0.500000  0.166667  0.166667      4.000000
  0.000000  0.250000  0.166667      8.000000
  0.083333  0.250000  0.166667     16.000000
  0.166667  0.250000  0.166667     16.000000
  0.250000  0.250000  0.166667     16.000000
  0.333333  0.250000  0.166667     16.000000
  0.416667  0.250000  0.166667     16.000000
  0.500000  0.250000  0.166667      8.000000
  0.000000  0.333333  0.166667      8.000000
  0.083333  0.333333  0.166667     16.000000
  0.166667  0.333333  0.166667     16.000000
  0.250000  0.333333  0.166667     16.000000
  0.333333  0.333333  0.166667     16.000000
  0.416667  0.333333  0.166667     16.000000
  0.500000  0.333333  0.166667      8.000000
  0.000000  0.416667  0.166667      8.000000
  0.083333  0.416667  0.166667     16.000000
  0.166667  0.416667  0.166667     16.000000
  0.250000  0.416667  0.166667     16.000000
  0.333333  0.416667  0.166667     16.000000
  0.416667  0.416667  0.166667     16.000000
  0.500000  0.416667  0.166667      8.000000
  0.000000  0.500000  0.166667      4.000000
  0.083333  0.500000  0.166667      8.000000
  0.166667  0.500000  0.166667      8.000000
  0.250000  0.500000  0.166667      8.000000
  0.333333  0.500000  0.166667      8.000000
  0.416667  0.500000  0.166667      8.000000
  0.500000  0.500000  0.166667      4.000000
  0.000000  0.250000  0.250000      4.000000
  0.083333  0.250000  0.250000      8.000000
  0.166667  0.250000  0.250000      8.000000
  0.250000  0.250000  0.250000      8.000000
  0.333333  0.250000  0.250000      8.000000
  0.416667  0.250000  0.250000      8.000000
  0.500000  0.250000  0.250000      4.000000
  0.000000  0.333333  0.250000      8.000000
  0.083333  0.333333  0.250000     16.000000
  0.166667  0.333333  0.250000     16.000000
  0.250000  0.333333  0.250000     16.000000
  0.333333  0.333333  0.250000     16.000000
  0.416667  0.333333  0.250000     16.000000
  0.500000  0.333333  0.250000      8.000000
  0.000000  0.416667  0.250000      8.000000
  0.083333  0.416667  0.250000     16.000000
  0.166667  0.416667  0.250000     16.000000
  0.250000  0.416667  0.250000     16.000000
  0.333333  0.416667  0.250000     16.000000
  0.416667  0.416667  0.250000     16.000000
  0.500000  0.416667  0.250000      8.000000
  0.000000  0.500000  0.250000      4.000000
  0.083333  0.500000  0.250000      8.000000
  0.166667  0.500000  0.250000      8.000000
  0.250000  0.500000  0.250000      8.000000
  0.333333  0.500000  0.250000      8.000000
  0.416667  0.500000  0.250000      8.000000
  0.500000  0.500000  0.250000      4.000000
  0.000000  0.333333  0.333333      4.000000
  0.083333  0.333333  0.333333      8.000000
  0.166667  0.333333  0.333333      8.000000
  0.250000  0.333333  0.333333      8.000000
  0.333333  0.333333  0.333333      8.000000
  0.416667  0.333333  0.333333      8.000000
  0.500000  0.333333  0.333333      4.000000
  0.000000  0.416667  0.333333      8.000000
  0.083333  0.416667  0.333333     16.000000
  0.166667  0.416667  0.333333     16.000000
  0.250000  0.416667  0.333333     16.000000
  0.333333  0.416667  0.333333     16.000000
  0.416667  0.416667  0.333333     16.000000
  0.500000  0.416667  0.333333      8.000000
  0.000000  0.500000  0.333333      4.000000
  0.083333  0.500000  0.333333      8.000000
  0.166667  0.500000  0.333333      8.000000
  0.250000  0.500000  0.333333      8.000000
  0.333333  0.500000  0.333333      8.000000
  0.416667  0.500000  0.333333      8.000000
  0.500000  0.500000  0.333333      4.000000
  0.000000  0.416667  0.416667      4.000000
  0.083333  0.416667  0.416667      8.000000
  0.166667  0.416667  0.416667      8.000000
  0.250000  0.416667  0.416667      8.000000
  0.333333  0.416667  0.416667      8.000000
  0.416667  0.416667  0.416667      8.000000
  0.500000  0.416667  0.416667      4.000000
  0.000000  0.500000  0.416667      4.000000
  0.083333  0.500000  0.416667      8.000000
  0.166667  0.500000  0.416667      8.000000
  0.250000  0.500000  0.416667      8.000000
  0.333333  0.500000  0.416667      8.000000
  0.416667  0.500000  0.416667      8.000000
  0.500000  0.500000  0.416667      4.000000
  0.000000  0.500000  0.500000      1.000000
  0.083333  0.500000  0.500000      2.000000
  0.166667  0.500000  0.500000      2.000000
  0.250000  0.500000  0.500000      2.000000
  0.333333  0.500000  0.500000      2.000000
  0.416667  0.500000  0.500000      2.000000
  0.500000  0.500000  0.500000      1.000000
 
 Following cartesian coordinates:
            Coordinates               Weight
  0.000000  0.000000  0.000000      1.000000
  0.011936  0.000000  0.000000      2.000000
  0.023871  0.000000  0.000000      2.000000
  0.035807  0.000000  0.000000      2.000000
  0.047742  0.000000  0.000000      2.000000
  0.059678  0.000000  0.000000      2.000000
  0.071614  0.000000  0.000000      1.000000
  0.000000  0.011936  0.000000      4.000000
  0.011936  0.011936  0.000000      8.000000
  0.023871  0.011936  0.000000      8.000000
  0.035807  0.011936  0.000000      8.000000
  0.047742  0.011936  0.000000      8.000000
  0.059678  0.011936  0.000000      8.000000
  0.071614  0.011936  0.000000      4.000000
  0.000000  0.023871  0.000000      4.000000
  0.011936  0.023871  0.000000      8.000000
  0.023871  0.023871  0.000000      8.000000
  0.035807  0.023871  0.000000      8.000000
  0.047742  0.023871  0.000000      8.000000
  0.059678  0.023871  0.000000      8.000000
  0.071614  0.023871  0.000000      4.000000
  0.000000  0.035807  0.000000      4.000000
  0.011936  0.035807  0.000000      8.000000
  0.023871  0.035807  0.000000      8.000000
  0.035807  0.035807  0.000000      8.000000
  0.047742  0.035807  0.000000      8.000000
  0.059678  0.035807  0.000000      8.000000
  0.071614  0.035807  0.000000      4.000000
  0.000000  0.047742  0.000000      4.000000
  0.011936  0.047742  0.000000      8.000000
  0.023871  0.047742  0.000000      8.000000
  0.035807  0.047742  0.000000      8.000000
  0.047742  0.047742  0.000000      8.000000
  0.059678  0.047742  0.000000      8.000000
  0.071614  0.047742  0.000000      4.000000
  0.000000  0.059678  0.000000      4.000000
  0.011936  0.059678  0.000000      8.000000
  0.023871  0.059678  0.000000      8.000000
  0.035807  0.059678  0.000000      8.000000
  0.047742  0.059678  0.000000      8.000000
  0.059678  0.059678  0.000000      8.000000
  0.071614  0.059678  0.000000      4.000000
  0.000000  0.071614  0.000000      2.000000
  0.011936  0.071614  0.000000      4.000000
  0.023871  0.071614  0.000000      4.000000
  0.035807  0.071614  0.000000      4.000000
  0.047742  0.071614  0.000000      4.000000
  0.059678  0.071614  0.000000      4.000000
  0.071614  0.071614  0.000000      2.000000
  0.000000  0.011936  0.011936      4.000000
  0.011936  0.011936  0.011936      8.000000
  0.023871  0.011936  0.011936      8.000000
  0.035807  0.011936  0.011936      8.000000
  0.047742  0.011936  0.011936      8.000000
  0.059678  0.011936  0.011936      8.000000
  0.071614  0.011936  0.011936      4.000000
  0.000000  0.023871  0.011936      8.000000
  0.011936  0.023871  0.011936     16.000000
  0.023871  0.023871  0.011936     16.000000
  0.035807  0.023871  0.011936     16.000000
  0.047742  0.023871  0.011936     16.000000
  0.059678  0.023871  0.011936     16.000000
  0.071614  0.023871  0.011936      8.000000
  0.000000  0.035807  0.011936      8.000000
  0.011936  0.035807  0.011936     16.000000
  0.023871  0.035807  0.011936     16.000000
  0.035807  0.035807  0.011936     16.000000
  0.047742  0.035807  0.011936     16.000000
  0.059678  0.035807  0.011936     16.000000
  0.071614  0.035807  0.011936      8.000000
  0.000000  0.047742  0.011936      8.000000
  0.011936  0.047742  0.011936     16.000000
  0.023871  0.047742  0.011936     16.000000
  0.035807  0.047742  0.011936     16.000000
  0.047742  0.047742  0.011936     16.000000
  0.059678  0.047742  0.011936     16.000000
  0.071614  0.047742  0.011936      8.000000
  0.000000  0.059678  0.011936      8.000000
  0.011936  0.059678  0.011936     16.000000
  0.023871  0.059678  0.011936     16.000000
  0.035807  0.059678  0.011936     16.000000
  0.047742  0.059678  0.011936     16.000000
  0.059678  0.059678  0.011936     16.000000
  0.071614  0.059678  0.011936      8.000000
  0.000000  0.071614  0.011936      4.000000
  0.011936  0.071614  0.011936      8.000000
  0.023871  0.071614  0.011936      8.000000
  0.035807  0.071614  0.011936      8.000000
  0.047742  0.071614  0.011936      8.000000
  0.059678  0.071614  0.011936      8.000000
  0.071614  0.071614  0.011936      4.000000
  0.000000  0.023871  0.023871      4.000000
  0.011936  0.023871  0.023871      8.000000
  0.023871  0.023871  0.023871      8.000000
  0.035807  0.023871  0.023871      8.000000
  0.047742  0.023871  0.023871      8.000000
  0.059678  0.023871  0.023871      8.000000
  0.071614  0.023871  0.023871      4.000000
  0.000000  0.035807  0.023871      8.000000
  0.011936  0.035807  0.023871     16.000000
  0.023871  0.035807  0.023871     16.000000
  0.035807  0.035807  0.023871     16.000000
  0.047742  0.035807  0.023871     16.000000
  0.059678  0.035807  0.023871     16.000000
  0.071614  0.035807  0.023871      8.000000
  0.000000  0.047742  0.023871      8.000000
  0.011936  0.047742  0.023871     16.000000
  0.023871  0.047742  0.023871     16.000000
  0.035807  0.047742  0.023871     16.000000
  0.047742  0.047742  0.023871     16.000000
  0.059678  0.047742  0.023871     16.000000
  0.071614  0.047742  0.023871      8.000000
  0.000000  0.059678  0.023871      8.000000
  0.011936  0.059678  0.023871     16.000000
  0.023871  0.059678  0.023871     16.000000
  0.035807  0.059678  0.023871     16.000000
  0.047742  0.059678  0.023871     16.000000
  0.059678  0.059678  0.023871     16.000000
  0.071614  0.059678  0.023871      8.000000
  0.000000  0.071614  0.023871      4.000000
  0.011936  0.071614  0.023871      8.000000
  0.023871  0.071614  0.023871      8.000000
  0.035807  0.071614  0.023871      8.000000
  0.047742  0.071614  0.023871      8.000000
  0.059678  0.071614  0.023871      8.000000
  0.071614  0.071614  0.023871      4.000000
  0.000000  0.035807  0.035807      4.000000
  0.011936  0.035807  0.035807      8.000000
  0.023871  0.035807  0.035807      8.000000
  0.035807  0.035807  0.035807      8.000000
  0.047742  0.035807  0.035807      8.000000
  0.059678  0.035807  0.035807      8.000000
  0.071614  0.035807  0.035807      4.000000
  0.000000  0.047742  0.035807      8.000000
  0.011936  0.047742  0.035807     16.000000
  0.023871  0.047742  0.035807     16.000000
  0.035807  0.047742  0.035807     16.000000
  0.047742  0.047742  0.035807     16.000000
  0.059678  0.047742  0.035807     16.000000
  0.071614  0.047742  0.035807      8.000000
  0.000000  0.059678  0.035807      8.000000
  0.011936  0.059678  0.035807     16.000000
  0.023871  0.059678  0.035807     16.000000
  0.035807  0.059678  0.035807     16.000000
  0.047742  0.059678  0.035807     16.000000
  0.059678  0.059678  0.035807     16.000000
  0.071614  0.059678  0.035807      8.000000
  0.000000  0.071614  0.035807      4.000000
  0.011936  0.071614  0.035807      8.000000
  0.023871  0.071614  0.035807      8.000000
  0.035807  0.071614  0.035807      8.000000
  0.047742  0.071614  0.035807      8.000000
  0.059678  0.071614  0.035807      8.000000
  0.071614  0.071614  0.035807      4.000000
  0.000000  0.047742  0.047742      4.000000
  0.011936  0.047742  0.047742      8.000000
  0.023871  0.047742  0.047742      8.000000
  0.035807  0.047742  0.047742      8.000000
  0.047742  0.047742  0.047742      8.000000
  0.059678  0.047742  0.047742      8.000000
  0.071614  0.047742  0.047742      4.000000
  0.000000  0.059678  0.047742      8.000000
  0.011936  0.059678  0.047742     16.000000
  0.023871  0.059678  0.047742     16.000000
  0.035807  0.059678  0.047742     16.000000
  0.047742  0.059678  0.047742     16.000000
  0.059678  0.059678  0.047742     16.000000
  0.071614  0.059678  0.047742      8.000000
  0.000000  0.071614  0.047742      4.000000
  0.011936  0.071614  0.047742      8.000000
  0.023871  0.071614  0.047742      8.000000
  0.035807  0.071614  0.047742      8.000000
  0.047742  0.071614  0.047742      8.000000
  0.059678  0.071614  0.047742      8.000000
  0.071614  0.071614  0.047742      4.000000
  0.000000  0.059678  0.059678      4.000000
  0.011936  0.059678  0.059678      8.000000
  0.023871  0.059678  0.059678      8.000000
  0.035807  0.059678  0.059678      8.000000
  0.047742  0.059678  0.059678      8.000000
  0.059678  0.059678  0.059678      8.000000
  0.071614  0.059678  0.059678      4.000000
  0.000000  0.071614  0.059678      4.000000
  0.011936  0.071614  0.059678      8.000000
  0.023871  0.071614  0.059678      8.000000
  0.035807  0.071614  0.059678      8.000000
  0.047742  0.071614  0.059678      8.000000
  0.059678  0.071614  0.059678      8.000000
  0.071614  0.071614  0.059678      4.000000
  0.000000  0.071614  0.071614      1.000000
  0.011936  0.071614  0.071614      2.000000
  0.023871  0.071614  0.071614      2.000000
  0.035807  0.071614  0.071614      2.000000
  0.047742  0.071614  0.071614      2.000000
  0.059678  0.071614  0.071614      2.000000
  0.071614  0.071614  0.071614      1.000000
 


--------------------------------------------------------------------------------------------------------




 Dimension of arrays:
   k-Points           NKPTS =    196   number of bands    NBANDS=    212
   number of dos      NEDOS =    301   number of ions     NIONS =     32
   non local maximal  LDIM  =      6   non local SUM 2l+1 LMDIM =     18
   total plane-waves  NPLWV = 262144
   max r-space proj   IRMAX =      1   max aug-charges    IRDMAX= 216433
   dimension x,y,z NGX =    64 NGY =   64 NGZ =   64
   dimension x,y,z NGXF=   128 NGYF=  128 NGZF=  128
   support grid    NGXF=   256 NGYF=  256 NGZF=  256
   ions per type =              32
 NGX,Y,Z   is equivalent  to a cutoff of  15.24, 15.24, 15.24 a.u.
 NGXF,Y,Z  is equivalent  to a cutoff of  30.48, 30.48, 30.48 a.u.


 I would recommend the setting:
   dimension x,y,z NGX =    62 NGY =   62 NGZ =   62
 SYSTEM =  unknown system                          
 POSCAR =  Cu                                      

 Startparameter for this run:
   NWRITE =      2    write-flag & timer
   PREC   = accura    medium, high low
   ISTART =      0    job   : 0-new  1-cont  2-samecut
   ICHARG =      2    charge: 1-file 2-atom 10-const
   ISPIN  =      1    spin polarized calculation?
   LNONCOLLINEAR =      F non collinear calculations
   LSORBIT =      F    spin-orbit coupling
   INIWAV =      1    electr: 0-lowe 1-rand  2-diag
   LASPH  =      F    aspherical Exc in radial PAW
   METAGGA=      F    non-selfconsistent MetaGGA calc.

 Electronic Relaxation 1
   ENCUT  =  750.0 eV  55.12 Ry    7.42 a.u.  15.59 15.59 15.59*2*pi/ulx,y,z
   ENINI  =  750.0     initial cutoff
   ENAUG  =  516.5 eV  augmentation charge cutoff
   NELM   =     60;   NELMIN=  2; NELMDL= -5     # of ELM steps 
   EDIFF  = 0.1E-07   stopping-criterion for ELM
   LREAL  =      F    real-space projection
   LCOMPAT=      F    compatible to vasp.4.4
   LREAL_COMPAT= F    compatible to vasp.4.5.1-3
   GGA_COMPAT  = T    GGA compatible to vasp.4.4-vasp.4.6
   LMAXPAW     = -100 max onsite density
   LMAXMIX     =    2 max onsite mixed and CHGCAR
   VOSKOWN=      0    Vosko Wilk Nusair interpolation
   ROPT   =    0.00000
 Ionic relaxation
   EDIFFG = 0.1E-06   stopping-criterion for IOM
   NSW    =      0    number of steps for IOM
   NBLOCK =      1;   KBLOCK =      1    inner block; outer block 
   IBRION =     -1    ionic relax: 0-MD 1-quasi-New 2-CG
   NFREE  =      0    steps in history (QN), initial steepest desc. (CG)
   ISIF   =      2    stress and relaxation
   IWAVPR =     10    prediction:  0-non 1-charg 2-wave 3-comb
   ISYM   =      2    0-nonsym 1-usesym 2-fastsym
   LCORR  =      T    Harris-Foulkes like correction to forces

   POTIM  =   0.50    time-step for ionic-motion
   TEIN   =    0.0    initial temperature
   TEBEG  =    0.0;   TEEND  =   0.0 temperature during run
   SMASS  =  -3.00    Nose mass-parameter (am)
   estimated Nose-frequenzy (Omega)   =  0.10E-29 period in steps =****** mass=  -0.111E-26a.u.
   NPACO  =    256;   APACO  = 16.0  distance and # of slots for P.C.
   PSTRESS=    0.0 pullay stress

  Mass of Ions in am
   POMASS =  63.55
  Ionic Valenz
   ZVAL   =  11.00
  Atomic Wigner-Seitz radii
   RWIGS  =  -1.00
   NELECT =     352.0000    total number of electrons
   NUPDOWN=      -1.0000    fix difference up-down

 DOS related values:
   EMIN   =  10.00;   EMAX   =-10.00  energy-range for DOS
   ISMEAR =     0;   SIGMA  =   0.01  broadening in eV -4-tet -1-fermi 0-gaus

 Electronic relaxation 2 (details)
   IALGO  =     38    algorithm
   LDIAG  =      T    sub-space diagonalisation
   IMIX   =      4    mixing-type and parameters
     AMIX     =   0.40;   BMIX     =  1.00
     AMIX_MAG =   1.60;   BMIX_MAG =  1.00
     AMIN     =   0.10
     WC   =   100.;   INIMIX=   1;  MIXPRE=   1

 Intra band minimization:
   WEIMIN = 0.0000     energy-eigenvalue tresh-hold
   EBREAK =  0.12E-10  absolut break condition
   DEPER  =   0.30     relativ break condition  

   TIME   =   0.10     timestep for ELM

  volume/ion in A,a.u.               =      10.64        71.77
  Fermi-wavevector in a.u.,eV,Ry     =   1.655570 37.292384  2.740913

 Second variation
   LSECVAR=     F    do a second variation
 
 Write flags
   LWAVE  =      F    write WAVECAR
   LCHARG =      F    write CHGCAR
   LVTOT  =      F    write LOCPOT, local potential
   LELF   =      F    write electronic localiz. function (ELF)
   LORBIT =      0    0 simple, 1 ext, 2 COOP (PROOUT)


 Dipole corrections
   IDIPOL =      0    1-x, 2-y, 3-z
   LDIPOL =      F    correct potential



--------------------------------------------------------------------------------------------------------


 Static calculation
 charge density will be updated during run
 non-spin polarized calculation
 Variant of blocked Davidson
 Davidson routine will perform the subspace rotation
 performe sub-space diagonalisation
    after iterative eigenvector-optimisation
 modified Broyden-mixing scheme, WC =      100.0
 initial mixing is a Kerker type mixing with AMIX =  0.4000 and BMIX =      1.0000
 Hartree-type preconditioning will be used
 using additional bands           36
 reciprocal scheme for non local part
 use partial core corrections
 calculate Harris-corrections to forces 
   (improved forces if not selfconsistent)
 use gradient corrections 
 use of overlap-Matrix (Vanderbilt PP)
 Gauss-broadening in eV      SIGMA  =   0.01


--------------------------------------------------------------------------------------------------------


  energy-cutoff  :      750.00
  volume of cell :      340.35
      direct lattice vectors                 reciprocal lattice vectors
     6.981918359  0.000000000  0.000000000     0.143227112  0.000000000  0.000000000
     0.000000000  6.981918359  0.000000000     0.000000000  0.143227112  0.000000000
     0.000000000  0.000000000  6.981918359     0.000000000  0.000000000  0.143227112

  length of vectors
     6.981918359  6.981918359  6.981918359     0.143227112  0.143227112  0.143227112


 
 k-points in units of 2pi/SCALE and weight: Automatic mesh                          
   0.00000000  0.00000000  0.00000000       0.001
   0.01193559  0.00000000  0.00000000       0.001
   0.02387119  0.00000000  0.00000000       0.001
   0.03580678  0.00000000  0.00000000       0.001
   0.04774237  0.00000000  0.00000000       0.001
   0.05967796  0.00000000  0.00000000       0.001
   0.07161356  0.00000000  0.00000000       0.001
   0.00000000  0.01193559  0.00000000       0.002
   0.01193559  0.01193559  0.00000000       0.005
   0.02387119  0.01193559  0.00000000       0.005
   0.03580678  0.01193559  0.00000000       0.005
   0.04774237  0.01193559  0.00000000       0.005
   0.05967796  0.01193559  0.00000000       0.005
   0.07161356  0.01193559  0.00000000       0.002
   0.00000000  0.02387119  0.00000000       0.002
   0.01193559  0.02387119  0.00000000       0.005
   0.02387119  0.02387119  0.00000000       0.005
   0.03580678  0.02387119  0.00000000       0.005
   0.04774237  0.02387119  0.00000000       0.005
   0.05967796  0.02387119  0.00000000       0.005
   0.07161356  0.02387119  0.00000000       0.002
   0.00000000  0.03580678  0.00000000       0.002
   0.01193559  0.03580678  0.00000000       0.005
   0.02387119  0.03580678  0.00000000       0.005
   0.03580678  0.03580678  0.00000000       0.005
   0.04774237  0.03580678  0.00000000       0.005
   0.05967796  0.03580678  0.00000000       0.005
   0.07161356  0.03580678  0.00000000       0.002
   0.00000000  0.04774237  0.00000000       0.002
   0.01193559  0.04774237  0.00000000       0.005
   0.02387119  0.04774237  0.00000000       0.005
   0.03580678  0.04774237  0.00000000       0.005
   0.04774237  0.04774237  0.00000000       0.005
   0.05967796  0.04774237  0.00000000       0.005
   0.07161356  0.04774237  0.00000000       0.002
   0.00000000  0.05967796  0.00000000       0.002
   0.01193559  0.05967796  0.00000000       0.005
   0.02387119  0.05967796  0.00000000       0.005
   0.03580678  0.05967796  0.00000000       0.005
   0.04774237  0.05967796  0.00000000       0.005
   0.05967796  0.05967796  0.00000000       0.005
   0.07161356  0.05967796  0.00000000       0.002
   0.00000000  0.07161356  0.00000000       0.001
   0.01193559  0.07161356  0.00000000       0.002
   0.02387119  0.07161356  0.00000000       0.002
   0.03580678  0.07161356  0.00000000       0.002
   0.04774237  0.07161356  0.00000000       0.002
   0.05967796  0.07161356  0.00000000       0.002
   0.07161356  0.07161356  0.00000000       0.001
   0.00000000  0.01193559  0.01193559       0.002
   0.01193559  0.01193559  0.01193559       0.005
   0.02387119  0.01193559  0.01193559       0.005
   0.03580678  0.01193559  0.01193559       0.005
   0.04774237  0.01193559  0.01193559       0.005
   0.05967796  0.01193559  0.01193559       0.005
   0.07161356  0.01193559  0.01193559       0.002
   0.00000000  0.02387119  0.01193559       0.005
   0.01193559  0.02387119  0.01193559       0.009
   0.02387119  0.02387119  0.01193559       0.009
   0.03580678  0.02387119  0.01193559       0.009
   0.04774237  0.02387119  0.01193559       0.009
   0.05967796  0.02387119  0.01193559       0.009
   0.07161356  0.02387119  0.01193559       0.005
   0.00000000  0.03580678  0.01193559       0.005
   0.01193559  0.03580678  0.01193559       0.009
   0.02387119  0.03580678  0.01193559       0.009
   0.03580678  0.03580678  0.01193559       0.009
   0.04774237  0.03580678  0.01193559       0.009
   0.05967796  0.03580678  0.01193559       0.009
   0.07161356  0.03580678  0.01193559       0.005
   0.00000000  0.04774237  0.01193559       0.005
   0.01193559  0.04774237  0.01193559       0.009
   0.02387119  0.04774237  0.01193559       0.009
   0.03580678  0.04774237  0.01193559       0.009
   0.04774237  0.04774237  0.01193559       0.009
   0.05967796  0.04774237  0.01193559       0.009
   0.07161356  0.04774237  0.01193559       0.005
   0.00000000  0.05967796  0.01193559       0.005
   0.01193559  0.05967796  0.01193559       0.009
   0.02387119  0.05967796  0.01193559       0.009
   0.03580678  0.05967796  0.01193559       0.009
   0.04774237  0.05967796  0.01193559       0.009
   0.05967796  0.05967796  0.01193559       0.009
   0.07161356  0.05967796  0.01193559       0.005
   0.00000000  0.07161356  0.01193559       0.002
   0.01193559  0.07161356  0.01193559       0.005
   0.02387119  0.07161356  0.01193559       0.005
   0.03580678  0.07161356  0.01193559       0.005
   0.04774237  0.07161356  0.01193559       0.005
   0.05967796  0.07161356  0.01193559       0.005
   0.07161356  0.07161356  0.01193559       0.002
   0.00000000  0.02387119  0.02387119       0.002
   0.01193559  0.02387119  0.02387119       0.005
   0.02387119  0.02387119  0.02387119       0.005
   0.03580678  0.02387119  0.02387119       0.005
   0.04774237  0.02387119  0.02387119       0.005
   0.05967796  0.02387119  0.02387119       0.005
   0.07161356  0.02387119  0.02387119       0.002
   0.00000000  0.03580678  0.02387119       0.005
   0.01193559  0.03580678  0.02387119       0.009
   0.02387119  0.03580678  0.02387119       0.009
   0.03580678  0.03580678  0.02387119       0.009
   0.04774237  0.03580678  0.02387119       0.009
   0.05967796  0.03580678  0.02387119       0.009
   0.07161356  0.03580678  0.02387119       0.005
   0.00000000  0.04774237  0.02387119       0.005
   0.01193559  0.04774237  0.02387119       0.009
   0.02387119  0.04774237  0.02387119       0.009
   0.03580678  0.04774237  0.02387119       0.009
   0.04774237  0.04774237  0.02387119       0.009
   0.05967796  0.04774237  0.02387119       0.009
   0.07161356  0.04774237  0.02387119       0.005
   0.00000000  0.05967796  0.02387119       0.005
   0.01193559  0.05967796  0.02387119       0.009
   0.02387119  0.05967796  0.02387119       0.009
   0.03580678  0.05967796  0.02387119       0.009
   0.04774237  0.05967796  0.02387119       0.009
   0.05967796  0.05967796  0.02387119       0.009
   0.07161356  0.05967796  0.02387119       0.005
   0.00000000  0.07161356  0.02387119       0.002
   0.01193559  0.07161356  0.02387119       0.005
   0.02387119  0.07161356  0.02387119       0.005
   0.03580678  0.07161356  0.02387119       0.005
   0.04774237  0.07161356  0.02387119       0.005
   0.05967796  0.07161356  0.02387119       0.005
   0.07161356  0.07161356  0.02387119       0.002
   0.00000000  0.03580678  0.03580678       0.002
   0.01193559  0.03580678  0.03580678       0.005
   0.02387119  0.03580678  0.03580678       0.005
   0.03580678  0.03580678  0.03580678       0.005
   0.04774237  0.03580678  0.03580678       0.005
   0.05967796  0.03580678  0.03580678       0.005
   0.07161356  0.03580678  0.03580678       0.002
   0.00000000  0.04774237  0.03580678       0.005
   0.01193559  0.04774237  0.03580678       0.009
   0.02387119  0.04774237  0.03580678       0.009
   0.03580678  0.04774237  0.03580678       0.009
   0.04774237  0.04774237  0.03580678       0.009
   0.05967796  0.04774237  0.03580678       0.009
   0.07161356  0.04774237  0.03580678       0.005
   0.00000000  0.05967796  0.03580678       0.005
   0.01193559  0.05967796  0.03580678       0.009
   0.02387119  0.05967796  0.03580678       0.009
   0.03580678  0.05967796  0.03580678       0.009
   0.04774237  0.05967796  0.03580678       0.009
   0.05967796  0.05967796  0.03580678       0.009
   0.07161356  0.05967796  0.03580678       0.005
   0.00000000  0.07161356  0.03580678       0.002
   0.01193559  0.07161356  0.03580678       0.005
   0.02387119  0.07161356  0.03580678       0.005
   0.03580678  0.07161356  0.03580678       0.005
   0.04774237  0.07161356  0.03580678       0.005
   0.05967796  0.07161356  0.03580678       0.005
   0.07161356  0.07161356  0.03580678       0.002
   0.00000000  0.04774237  0.04774237       0.002
   0.01193559  0.04774237  0.04774237       0.005
   0.02387119  0.04774237  0.04774237       0.005
   0.03580678  0.04774237  0.04774237       0.005
   0.04774237  0.04774237  0.04774237       0.005
   0.05967796  0.04774237  0.04774237       0.005
   0.07161356  0.04774237  0.04774237       0.002
   0.00000000  0.05967796  0.04774237       0.005
   0.01193559  0.05967796  0.04774237       0.009
   0.02387119  0.05967796  0.04774237       0.009
   0.03580678  0.05967796  0.04774237       0.009
   0.04774237  0.05967796  0.04774237       0.009
   0.05967796  0.05967796  0.04774237       0.009
   0.07161356  0.05967796  0.04774237       0.005
   0.00000000  0.07161356  0.04774237       0.002
   0.01193559  0.07161356  0.04774237       0.005
   0.02387119  0.07161356  0.04774237       0.005
   0.03580678  0.07161356  0.04774237       0.005
   0.04774237  0.07161356  0.04774237       0.005
   0.05967796  0.07161356  0.04774237       0.005
   0.07161356  0.07161356  0.04774237       0.002
   0.00000000  0.05967796  0.05967796       0.002
   0.01193559  0.05967796  0.05967796       0.005
   0.02387119  0.05967796  0.05967796       0.005
   0.03580678  0.05967796  0.05967796       0.005
   0.04774237  0.05967796  0.05967796       0.005
   0.05967796  0.05967796  0.05967796       0.005
   0.07161356  0.05967796  0.05967796       0.002
   0.00000000  0.07161356  0.05967796       0.002
   0.01193559  0.07161356  0.05967796       0.005
   0.02387119  0.07161356  0.05967796       0.005
   0.03580678  0.07161356  0.05967796       0.005
   0.04774237  0.07161356  0.05967796       0.005
   0.05967796  0.07161356  0.05967796       0.005
   0.07161356  0.07161356  0.05967796       0.002
   0.00000000  0.07161356  0.07161356       0.001
   0.01193559  0.07161356  0.07161356       0.001
   0.02387119  0.07161356  0.07161356       0.001
   0.03580678  0.07161356  0.07161356       0.001
   0.04774237  0.07161356  0.07161356       0.001
   0.05967796  0.07161356  0.07161356       0.001
   0.07161356  0.07161356  0.07161356       0.001
 
 k-points in reciprocal lattice and weights: Automatic mesh                          
   0.00000000  0.00000000  0.00000000       0.001
   0.08333333  0.00000000  0.00000000       0.001
   0.16666667  0.00000000  0.00000000       0.001
   0.25000000  0.00000000  0.00000000       0.001
   0.33333333  0.00000000  0.00000000       0.001
   0.41666667  0.00000000  0.00000000       0.001
   0.50000000  0.00000000  0.00000000       0.001
   0.00000000  0.08333333  0.00000000       0.002
   0.08333333  0.08333333  0.00000000       0.005
   0.16666667  0.08333333  0.00000000       0.005
   0.25000000  0.08333333  0.00000000       0.005
   0.33333333  0.08333333  0.00000000       0.005
   0.41666667  0.08333333  0.00000000       0.005
   0.50000000  0.08333333  0.00000000       0.002
   0.00000000  0.16666667  0.00000000       0.002
   0.08333333  0.16666667  0.00000000       0.005
   0.16666667  0.16666667  0.00000000       0.005
   0.25000000  0.16666667  0.00000000       0.005
   0.33333333  0.16666667  0.00000000       0.005
   0.41666667  0.16666667  0.00000000       0.005
   0.50000000  0.16666667  0.00000000       0.002
   0.00000000  0.25000000  0.00000000       0.002
   0.08333333  0.25000000  0.00000000       0.005
   0.16666667  0.25000000  0.00000000       0.005
   0.25000000  0.25000000  0.00000000       0.005
   0.33333333  0.25000000  0.00000000       0.005
   0.41666667  0.25000000  0.00000000       0.005
   0.50000000  0.25000000  0.00000000       0.002
   0.00000000  0.33333333  0.00000000       0.002
   0.08333333  0.33333333  0.00000000       0.005
   0.16666667  0.33333333  0.00000000       0.005
   0.25000000  0.33333333  0.00000000       0.005
   0.33333333  0.33333333  0.00000000       0.005
   0.41666667  0.33333333  0.00000000       0.005
   0.50000000  0.33333333  0.00000000       0.002
   0.00000000  0.41666667  0.00000000       0.002
   0.08333333  0.41666667  0.00000000       0.005
   0.16666667  0.41666667  0.00000000       0.005
   0.25000000  0.41666667  0.00000000       0.005
   0.33333333  0.41666667  0.00000000       0.005
   0.41666667  0.41666667  0.00000000       0.005
   0.50000000  0.41666667  0.00000000       0.002
   0.00000000  0.50000000  0.00000000       0.001
   0.08333333  0.50000000  0.00000000       0.002
   0.16666667  0.50000000  0.00000000       0.002
   0.25000000  0.50000000  0.00000000       0.002
   0.33333333  0.50000000  0.00000000       0.002
   0.41666667  0.50000000  0.00000000       0.002
   0.50000000  0.50000000  0.00000000       0.001
   0.00000000  0.08333333  0.08333333       0.002
   0.08333333  0.08333333  0.08333333       0.005
   0.16666667  0.08333333  0.08333333       0.005
   0.25000000  0.08333333  0.08333333       0.005
   0.33333333  0.08333333  0.08333333       0.005
   0.41666667  0.08333333  0.08333333       0.005
   0.50000000  0.08333333  0.08333333       0.002
   0.00000000  0.16666667  0.08333333       0.005
   0.08333333  0.16666667  0.08333333       0.009
   0.16666667  0.16666667  0.08333333       0.009
   0.25000000  0.16666667  0.08333333       0.009
   0.33333333  0.16666667  0.08333333       0.009
   0.41666667  0.16666667  0.08333333       0.009
   0.50000000  0.16666667  0.08333333       0.005
   0.00000000  0.25000000  0.08333333       0.005
   0.08333333  0.25000000  0.08333333       0.009
   0.16666667  0.25000000  0.08333333       0.009
   0.25000000  0.25000000  0.08333333       0.009
   0.33333333  0.25000000  0.08333333       0.009
   0.41666667  0.25000000  0.08333333       0.009
   0.50000000  0.25000000  0.08333333       0.005
   0.00000000  0.33333333  0.08333333       0.005
   0.08333333  0.33333333  0.08333333       0.009
   0.16666667  0.33333333  0.08333333       0.009
   0.25000000  0.33333333  0.08333333       0.009
   0.33333333  0.33333333  0.08333333       0.009
   0.41666667  0.33333333  0.08333333       0.009
   0.50000000  0.33333333  0.08333333       0.005
   0.00000000  0.41666667  0.08333333       0.005
   0.08333333  0.41666667  0.08333333       0.009
   0.16666667  0.41666667  0.08333333       0.009
   0.25000000  0.41666667  0.08333333       0.009
   0.33333333  0.41666667  0.08333333       0.009
   0.41666667  0.41666667  0.08333333       0.009
   0.50000000  0.41666667  0.08333333       0.005
   0.00000000  0.50000000  0.08333333       0.002
   0.08333333  0.50000000  0.08333333       0.005
   0.16666667  0.50000000  0.08333333       0.005
   0.25000000  0.50000000  0.08333333       0.005
   0.33333333  0.50000000  0.08333333       0.005
   0.41666667  0.50000000  0.08333333       0.005
   0.50000000  0.50000000  0.08333333       0.002
   0.00000000  0.16666667  0.16666667       0.002
   0.08333333  0.16666667  0.16666667       0.005
   0.16666667  0.16666667  0.16666667       0.005
   0.25000000  0.16666667  0.16666667       0.005
   0.33333333  0.16666667  0.16666667       0.005
   0.41666667  0.16666667  0.16666667       0.005
   0.50000000  0.16666667  0.16666667       0.002
   0.00000000  0.25000000  0.16666667       0.005
   0.08333333  0.25000000  0.16666667       0.009
   0.16666667  0.25000000  0.16666667       0.009
   0.25000000  0.25000000  0.16666667       0.009
   0.33333333  0.25000000  0.16666667       0.009
   0.41666667  0.25000000  0.16666667       0.009
   0.50000000  0.25000000  0.16666667       0.005
   0.00000000  0.33333333  0.16666667       0.005
   0.08333333  0.33333333  0.16666667       0.009
   0.16666667  0.33333333  0.16666667       0.009
   0.25000000  0.33333333  0.16666667       0.009
   0.33333333  0.33333333  0.16666667       0.009
   0.41666667  0.33333333  0.16666667       0.009
   0.50000000  0.33333333  0.16666667       0.005
   0.00000000  0.41666667  0.16666667       0.005
   0.08333333  0.41666667  0.16666667       0.009
   0.16666667  0.41666667  0.16666667       0.009
   0.25000000  0.41666667  0.16666667       0.009
   0.33333333  0.41666667  0.16666667       0.009
   0.41666667  0.41666667  0.16666667       0.009
   0.50000000  0.41666667  0.16666667       0.005
   0.00000000  0.50000000  0.16666667       0.002
   0.08333333  0.50000000  0.16666667       0.005
   0.16666667  0.50000000  0.16666667       0.005
   0.25000000  0.50000000  0.16666667       0.005
   0.33333333  0.50000000  0.16666667       0.005
   0.41666667  0.50000000  0.16666667       0.005
   0.50000000  0.50000000  0.16666667       0.002
   0.00000000  0.25000000  0.25000000       0.002
   0.08333333  0.25000000  0.25000000       0.005
   0.16666667  0.25000000  0.25000000       0.005
   0.25000000  0.25000000  0.25000000       0.005
   0.33333333  0.25000000  0.25000000       0.005
   0.41666667  0.25000000  0.25000000       0.005
   0.50000000  0.25000000  0.25000000       0.002
   0.00000000  0.33333333  0.25000000       0.005
   0.08333333  0.33333333  0.25000000       0.009
   0.16666667  0.33333333  0.25000000       0.009
   0.25000000  0.33333333  0.25000000       0.009
   0.33333333  0.33333333  0.25000000       0.009
   0.41666667  0.33333333  0.25000000       0.009
   0.50000000  0.33333333  0.25000000       0.005
   0.00000000  0.41666667  0.25000000       0.005
   0.08333333  0.41666667  0.25000000       0.009
   0.16666667  0.41666667  0.25000000       0.009
   0.25000000  0.41666667  0.25000000       0.009
   0.33333333  0.41666667  0.25000000       0.009
   0.41666667  0.41666667  0.25000000       0.009
   0.50000000  0.41666667  0.25000000       0.005
   0.00000000  0.50000000  0.25000000       0.002
   0.08333333  0.50000000  0.25000000       0.005
   0.16666667  0.50000000  0.25000000       0.005
   0.25000000  0.50000000  0.25000000       0.005
   0.33333333  0.50000000  0.25000000       0.005
   0.41666667  0.50000000  0.25000000       0.005
   0.50000000  0.50000000  0.25000000       0.002
   0.00000000  0.33333333  0.33333333       0.002
   0.08333333  0.33333333  0.33333333       0.005
   0.16666667  0.33333333  0.33333333       0.005
   0.25000000  0.33333333  0.33333333       0.005
   0.33333333  0.33333333  0.33333333       0.005
   0.41666667  0.33333333  0.33333333       0.005
   0.50000000  0.33333333  0.33333333       0.002
   0.00000000  0.41666667  0.33333333       0.005
   0.08333333  0.41666667  0.33333333       0.009
   0.16666667  0.41666667  0.33333333       0.009
   0.25000000  0.41666667  0.33333333       0.009
   0.33333333  0.41666667  0.33333333       0.009
   0.41666667  0.41666667  0.33333333       0.009
   0.50000000  0.41666667  0.33333333       0.005
   0.00000000  0.50000000  0.33333333       0.002
   0.08333333  0.50000000  0.33333333       0.005
   0.16666667  0.50000000  0.33333333       0.005
   0.25000000  0.50000000  0.33333333       0.005
   0.33333333  0.50000000  0.33333333       0.005
   0.41666667  0.50000000  0.33333333       0.005
   0.50000000  0.50000000  0.33333333       0.002
   0.00000000  0.41666667  0.41666667       0.002
   0.08333333  0.41666667  0.41666667       0.005
   0.16666667  0.41666667  0.41666667       0.005
   0.25000000  0.41666667  0.41666667       0.005
   0.33333333  0.41666667  0.41666667       0.005
   0.41666667  0.41666667  0.41666667       0.005
   0.50000000  0.41666667  0.41666667       0.002
   0.00000000  0.50000000  0.41666667       0.002
   0.08333333  0.50000000  0.41666667       0.005
   0.16666667  0.50000000  0.41666667       0.005
   0.25000000  0.50000000  0.41666667       0.005
   0.33333333  0.50000000  0.41666667       0.005
   0.41666667  0.50000000  0.41666667       0.005
   0.50000000  0.50000000  0.41666667       0.002
   0.00000000  0.50000000  0.50000000       0.001
   0.08333333  0.50000000  0.50000000       0.001
   0.16666667  0.50000000  0.50000000       0.001
   0.25000000  0.50000000  0.50000000       0.001
   0.33333333  0.50000000  0.50000000       0.001
   0.41666667  0.50000000  0.50000000       0.001
   0.50000000  0.50000000  0.50000000       0.001
 
 position of ions in fractional coordinates (direct lattice) 
   0.00143227  0.00000000  0.00000000
   0.50000000  0.00000000  0.00000000
   0.00000000  0.50000000  0.00000000
   0.50000000  0.50000000  0.00000000
   0.00000000  0.00000000  0.50000000
   0.50000000  0.00000000  0.50000000
   0.00000000  0.50000000  0.50000000
   0.50000000  0.50000000  0.50000000
   0.25000000  0.25000000  0.00000000
   0.75000000  0.25000000  0.00000000
   0.25000000  0.75000000  0.00000000
   0.75000000  0.75000000  0.00000000
   0.25000000  0.25000000  0.50000000
   0.75000000  0.25000000  0.50000000
   0.25000000  0.75000000  0.50000000
   0.75000000  0.75000000  0.50000000
   0.25000000  0.00000000  0.25000000
   0.75000000  0.00000000  0.25000000
   0.25000000  0.50000000  0.25000000
   0.75000000  0.50000000  0.25000000
   0.25000000  0.00000000  0.75000000
   0.75000000  0.00000000  0.75000000
   0.25000000  0.50000000  0.75000000
   0.75000000  0.50000000  0.75000000
   0.00000000  0.25000000  0.25000000
   0.50000000  0.25000000  0.25000000
   0.00000000  0.75000000  0.25000000
   0.50000000  0.75000000  0.25000000
   0.00000000  0.25000000  0.75000000
   0.50000000  0.25000000  0.75000000
   0.00000000  0.75000000  0.75000000
   0.50000000  0.75000000  0.75000000
 
 position of ions in cartesian coordinates  (Angst):
   0.01000000  0.00000000  0.00000000
   3.49095918  0.00000000  0.00000000
   0.00000000  3.49095918  0.00000000
   3.49095918  3.49095918  0.00000000
   0.00000000  0.00000000  3.49095918
   3.49095918  0.00000000  3.49095918
   0.00000000  3.49095918  3.49095918
   3.49095918  3.49095918  3.49095918
   1.74547959  1.74547959  0.00000000
   5.23643877  1.74547959  0.00000000
   1.74547959  5.23643877  0.00000000
   5.23643877  5.23643877  0.00000000
   1.74547959  1.74547959  3.49095918
   5.23643877  1.74547959  3.49095918
   1.74547959  5.23643877  3.49095918
   5.23643877  5.23643877  3.49095918
   1.74547959  0.00000000  1.74547959
   5.23643877  0.00000000  1.74547959
   1.74547959  3.49095918  1.74547959
   5.23643877  3.49095918  1.74547959
   1.74547959  0.00000000  5.23643877
   5.23643877  0.00000000  5.23643877
   1.74547959  3.49095918  5.23643877
   5.23643877  3.49095918  5.23643877
   0.00000000  1.74547959  1.74547959
   3.49095918  1.74547959  1.74547959
   0.00000000  5.23643877  1.74547959
   3.49095918  5.23643877  1.74547959
   0.00000000  1.74547959  5.23643877
   3.49095918  1.74547959  5.23643877
   0.00000000  5.23643877  5.23643877
   3.49095918  5.23643877  5.23643877
 


--------------------------------------------------------------------------------------------------------


 k-point  1 :  0.00000.00000.0000  plane waves:  15895
 k-point  2 :  0.08330.00000.0000  plane waves:  15839
 k-point  3 :  0.16670.00000.0000  plane waves:  15887
 k-point  4 :  0.25000.00000.0000  plane waves:  15899
 k-point  5 :  0.33330.00000.0000  plane waves:  15887
 k-point  6 :  0.41670.00000.0000  plane waves:  15868
 k-point  7 :  0.50000.00000.0000  plane waves:  15896
 k-point  8 :  0.00000.08330.0000  plane waves:  15839
 k-point  9 :  0.08330.08330.0000  plane waves:  15854
 k-point 10 :  0.16670.08330.0000  plane waves:  15859
 k-point 11 :  0.25000.08330.0000  plane waves:  15885
 k-point 12 :  0.33330.08330.0000  plane waves:  15896
 k-point 13 :  0.41670.08330.0000  plane waves:  15902
 k-point 14 :  0.50000.08330.0000  plane waves:  15892
 k-point 15 :  0.00000.16670.0000  plane waves:  15887
 k-point 16 :  0.08330.16670.0000  plane waves:  15859
 k-point 17 :  0.16670.16670.0000  plane waves:  15878
 k-point 18 :  0.25000.16670.0000  plane waves:  15885
 k-point 19 :  0.33330.16670.0000  plane waves:  15897
 k-point 20 :  0.41670.16670.0000  plane waves:  15905
 k-point 21 :  0.50000.16670.0000  plane waves:  15916
 k-point 22 :  0.00000.25000.0000  plane waves:  15899
 k-point 23 :  0.08330.25000.0000  plane waves:  15885
 k-point 24 :  0.16670.25000.0000  plane waves:  15885
 k-point 25 :  0.25000.25000.0000  plane waves:  15842
 k-point 26 :  0.33330.25000.0000  plane waves:  15887
 k-point 27 :  0.41670.25000.0000  plane waves:  15873
 k-point 28 :  0.50000.25000.0000  plane waves:  15890
 k-point 29 :  0.00000.33330.0000  plane waves:  15887
 k-point 30 :  0.08330.33330.0000  plane waves:  15896
 k-point 31 :  0.16670.33330.0000  plane waves:  15897
 k-point 32 :  0.25000.33330.0000  plane waves:  15887
 k-point 33 :  0.33330.33330.0000  plane waves:  15870
 k-point 34 :  0.41670.33330.0000  plane waves:  15872
 k-point 35 :  0.50000.33330.0000  plane waves:  15878
 k-point 36 :  0.00000.41670.0000  plane waves:  15868
 k-point 37 :  0.08330.41670.0000  plane waves:  15902
 k-point 38 :  0.16670.41670.0000  plane waves:  15905
 k-point 39 :  0.25000.41670.0000  plane waves:  15873
 k-point 40 :  0.33330.41670.0000  plane waves:  15872
 k-point 41 :  0.41670.41670.0000  plane waves:  15854
 k-point 42 :  0.50000.41670.0000  plane waves:  15856
 k-point 43 :  0.00000.50000.0000  plane waves:  15896
 k-point 44 :  0.08330.50000.0000  plane waves:  15892
 k-point 45 :  0.16670.50000.0000  plane waves:  15916
 k-point 46 :  0.25000.50000.0000  plane waves:  15890
 k-point 47 :  0.33330.50000.0000  plane waves:  15878
 k-point 48 :  0.41670.50000.0000  plane waves:  15856
 k-point 49 :  0.50000.50000.0000  plane waves:  15820
 k-point 50 :  0.00000.08330.0833  plane waves:  15854
 k-point 51 :  0.08330.08330.0833  plane waves:  15843
 k-point 52 :  0.16670.08330.0833  plane waves:  15882
 k-point 53 :  0.25000.08330.0833  plane waves:  15891
 k-point 54 :  0.33330.08330.0833  plane waves:  15887
 k-point 55 :  0.41670.08330.0833  plane waves:  15888
 k-point 56 :  0.50000.08330.0833  plane waves:  15876
 k-point 57 :  0.00000.16670.0833  plane waves:  15859
 k-point 58 :  0.08330.16670.0833  plane waves:  15882
 k-point 59 :  0.16670.16670.0833  plane waves:  15877
 k-point 60 :  0.25000.16670.0833  plane waves:  15885
 k-point 61 :  0.33330.16670.0833  plane waves:  15894
 k-point 62 :  0.41670.16670.0833  plane waves:  15899
 k-point 63 :  0.50000.16670.0833  plane waves:  15880
 k-point 64 :  0.00000.25000.0833  plane waves:  15885
 k-point 65 :  0.08330.25000.0833  plane waves:  15891
 k-point 66 :  0.16670.25000.0833  plane waves:  15885
 k-point 67 :  0.25000.25000.0833  plane waves:  15871
 k-point 68 :  0.33330.25000.0833  plane waves:  15884
 k-point 69 :  0.41670.25000.0833  plane waves:  15880
 k-point 70 :  0.50000.25000.0833  plane waves:  15878
 k-point 71 :  0.00000.33330.0833  plane waves:  15896
 k-point 72 :  0.08330.33330.0833  plane waves:  15887
 k-point 73 :  0.16670.33330.0833  plane waves:  15894
 k-point 74 :  0.25000.33330.0833  plane waves:  15884
 k-point 75 :  0.33330.33330.0833  plane waves:  15877
 k-point 76 :  0.41670.33330.0833  plane waves:  15868
 k-point 77 :  0.50000.33330.0833  plane waves:  15890
 k-point 78 :  0.00000.41670.0833  plane waves:  15902
 k-point 79 :  0.08330.41670.0833  plane waves:  15888
 k-point 80 :  0.16670.41670.0833  plane waves:  15899
 k-point 81 :  0.25000.41670.0833  plane waves:  15880
 k-point 82 :  0.33330.41670.0833  plane waves:  15868
 k-point 83 :  0.41670.41670.0833  plane waves:  15869
 k-point 84 :  0.50000.41670.0833  plane waves:  15852
 k-point 85 :  0.00000.50000.0833  plane waves:  15892
 k-point 86 :  0.08330.50000.0833  plane waves:  15876
 k-point 87 :  0.16670.50000.0833  plane waves:  15880
 k-point 88 :  0.25000.50000.0833  plane waves:  15878
 k-point 89 :  0.33330.50000.0833  plane waves:  15890
 k-point 90 :  0.41670.50000.0833  plane waves:  15852
 k-point 91 :  0.50000.50000.0833  plane waves:  15872
 k-point 92 :  0.00000.16670.1667  plane waves:  15878
 k-point 93 :  0.08330.16670.1667  plane waves:  15877
 k-point 94 :  0.16670.16670.1667  plane waves:  15891
 k-point 95 :  0.25000.16670.1667  plane waves:  15880
 k-point 96 :  0.33330.16670.1667  plane waves:  15874
 k-point 97 :  0.41670.16670.1667  plane waves:  15892
 k-point 98 :  0.50000.16670.1667  plane waves:  15876
 k-point 99 :  0.00000.25000.1667  plane waves:  15885
 k-point ** :  0.08330.25000.1667  plane waves:  15885
 k-point ** :  0.16670.25000.1667  plane waves:  15880
 k-point ** :  0.25000.25000.1667  plane waves:  15875
 k-point ** :  0.33330.25000.1667  plane waves:  15877
 k-point ** :  0.41670.25000.1667  plane waves:  15869
 k-point ** :  0.50000.25000.1667  plane waves:  15880
 k-point ** :  0.00000.33330.1667  plane waves:  15897
 k-point ** :  0.08330.33330.1667  plane waves:  15894
 k-point ** :  0.16670.33330.1667  plane waves:  15874
 k-point ** :  0.25000.33330.1667  plane waves:  15877
 k-point ** :  0.33330.33330.1667  plane waves:  15864
 k-point ** :  0.41670.33330.1667  plane waves:  15866
 k-point ** :  0.50000.33330.1667  plane waves:  15866
 k-point ** :  0.00000.41670.1667  plane waves:  15905
 k-point ** :  0.08330.41670.1667  plane waves:  15899
 k-point ** :  0.16670.41670.1667  plane waves:  15892
 k-point ** :  0.25000.41670.1667  plane waves:  15869
 k-point ** :  0.33330.41670.1667  plane waves:  15866
 k-point ** :  0.41670.41670.1667  plane waves:  15868
 k-point ** :  0.50000.41670.1667  plane waves:  15866
 k-point ** :  0.00000.50000.1667  plane waves:  15916
 k-point ** :  0.08330.50000.1667  plane waves:  15880
 k-point ** :  0.16670.50000.1667  plane waves:  15876
 k-point ** :  0.25000.50000.1667  plane waves:  15880
 k-point ** :  0.33330.50000.1667  plane waves:  15866
 k-point ** :  0.41670.50000.1667  plane waves:  15866
 k-point ** :  0.50000.50000.1667  plane waves:  15844
 k-point ** :  0.00000.25000.2500  plane waves:  15842
 k-point ** :  0.08330.25000.2500  plane waves:  15871
 k-point ** :  0.16670.25000.2500  plane waves:  15875
 k-point ** :  0.25000.25000.2500  plane waves:  15843
 k-point ** :  0.33330.25000.2500  plane waves:  15870
 k-point ** :  0.41670.25000.2500  plane waves:  15863
 k-point ** :  0.50000.25000.2500  plane waves:  15868
 k-point ** :  0.00000.33330.2500  plane waves:  15887
 k-point ** :  0.08330.33330.2500  plane waves:  15884
 k-point ** :  0.16670.33330.2500  plane waves:  15877
 k-point ** :  0.25000.33330.2500  plane waves:  15870
 k-point ** :  0.33330.33330.2500  plane waves:  15858
 k-point ** :  0.41670.33330.2500  plane waves:  15860
 k-point ** :  0.50000.33330.2500  plane waves:  15840
 k-point ** :  0.00000.41670.2500  plane waves:  15873
 k-point ** :  0.08330.41670.2500  plane waves:  15880
 k-point ** :  0.16670.41670.2500  plane waves:  15869
 k-point ** :  0.25000.41670.2500  plane waves:  15863
 k-point ** :  0.33330.41670.2500  plane waves:  15860
 k-point ** :  0.41670.41670.2500  plane waves:  15850
 k-point ** :  0.50000.41670.2500  plane waves:  15856
 k-point ** :  0.00000.50000.2500  plane waves:  15890
 k-point ** :  0.08330.50000.2500  plane waves:  15878
 k-point ** :  0.16670.50000.2500  plane waves:  15880
 k-point ** :  0.25000.50000.2500  plane waves:  15868
 k-point ** :  0.33330.50000.2500  plane waves:  15840
 k-point ** :  0.41670.50000.2500  plane waves:  15856
 k-point ** :  0.50000.50000.2500  plane waves:  15868
 k-point ** :  0.00000.33330.3333  plane waves:  15870
 k-point ** :  0.08330.33330.3333  plane waves:  15877
 k-point ** :  0.16670.33330.3333  plane waves:  15864
 k-point ** :  0.25000.33330.3333  plane waves:  15858
 k-point ** :  0.33330.33330.3333  plane waves:  15870
 k-point ** :  0.41670.33330.3333  plane waves:  15861
 k-point ** :  0.50000.33330.3333  plane waves:  15846
 k-point ** :  0.00000.41670.3333  plane waves:  15872
 k-point ** :  0.08330.41670.3333  plane waves:  15868
 k-point ** :  0.16670.41670.3333  plane waves:  15866
 k-point ** :  0.25000.41670.3333  plane waves:  15860
 k-point ** :  0.33330.41670.3333  plane waves:  15861
 k-point ** :  0.41670.41670.3333  plane waves:  15843
 k-point ** :  0.50000.41670.3333  plane waves:  15836
 k-point ** :  0.00000.50000.3333  plane waves:  15878
 k-point ** :  0.08330.50000.3333  plane waves:  15890
 k-point ** :  0.16670.50000.3333  plane waves:  15866
 k-point ** :  0.25000.50000.3333  plane waves:  15840
 k-point ** :  0.33330.50000.3333  plane waves:  15846
 k-point ** :  0.41670.50000.3333  plane waves:  15836
 k-point ** :  0.50000.50000.3333  plane waves:  15852
 k-point ** :  0.00000.41670.4167  plane waves:  15854
 k-point ** :  0.08330.41670.4167  plane waves:  15869
 k-point ** :  0.16670.41670.4167  plane waves:  15868
 k-point ** :  0.25000.41670.4167  plane waves:  15850
 k-point ** :  0.33330.41670.4167  plane waves:  15843
 k-point ** :  0.41670.41670.4167  plane waves:  15840
 k-point ** :  0.50000.41670.4167  plane waves:  15826
 k-point ** :  0.00000.50000.4167  plane waves:  15856
 k-point ** :  0.08330.50000.4167  plane waves:  15852
 k-point ** :  0.16670.50000.4167  plane waves:  15866
 k-point ** :  0.25000.50000.4167  plane waves:  15856
 k-point ** :  0.33330.50000.4167  plane waves:  15836
 k-point ** :  0.41670.50000.4167  plane waves:  15826
 k-point ** :  0.50000.50000.4167  plane waves:  15864
 k-point ** :  0.00000.50000.5000  plane waves:  15820
 k-point ** :  0.08330.50000.5000  plane waves:  15872
 k-point ** :  0.16670.50000.5000  plane waves:  15844
 k-point ** :  0.25000.50000.5000  plane waves:  15868
 k-point ** :  0.33330.50000.5000  plane waves:  15852
 k-point ** :  0.41670.50000.5000  plane waves:  15864
 k-point ** :  0.50000.50000.5000  plane waves:  15984

 maximum and minimum number of plane-waves per node :  15984 15820

 maximum number of plane-waves:  15984
 maximal index in each direction: 
   IXMAX= 15   IYMAX= 15   IZMAX= 15
   IXMIN=-16   IYMIN=-16   IZMIN=-16

 NGX is ok and might be reduce to  64
 NGY is ok and might be reduce to  64
 NGZ is ok and might be reduce to  64

 parallel 3dFFT wavefunction:
    minimum data exchange during FFTs selected (reduces bandwidth)
 parallel 3dFFT charge:
    minimum data exchange during FFTs selected (reduces bandwidth)

 For storing wavefunctions ******* MBYTES are necessary
 For predicting wavefunctions  117.67 MBYTES are necessary
Broyden mixing: mesh for mixing (old mesh)
   NGX = 31   NGY = 31   NGZ = 31
  (NGX  =128   NGY  =128   NGZ  =128)
 gives a total of  29791 points
 initial charge density was supplied:
 charge density of overlapping atoms calculated
 number of electron  352.0000000 magnetization 
 keeping initial charge density in first step


--------------------------------------------------------------------------------------------------------


 Maximum index for augmentation-charges        52435 (set IRDMAX)


--------------------------------------------------------------------------------------------------------


 First call to EWALD:  gamma=   0.254
 Maximum number of real-space cells 3x 3x 3
 Maximum number of reciprocal cells 3x 3x 3

    FEWALD:  VPU time    0.01: CPU time    0.01


----------------------------------------- Iteration    1(   1)  ---------------------------------------


    POTLOK:  VPU time    0.68: CPU time    0.68
    SETDIJ:  VPU time    1.44: CPU time    1.44
    EDDAV :  VPU time 4714.68: CPU time 4719.44
    DOS   :  VPU time    0.00: CPU time   -0.00
    ------------------------------------------
      LOOP:  VPU time 4717.15: CPU time 4721.92

 eigenvalue-minimisations  : 83176
 total energy-change (2. order) : 0.4154807E+04  (-0.1858087E+05)
 number of electron  352.0000000 magnetization 
 augmentation part   352.0000000 magnetization 

 Free energy of the ion-electron system (eV)
  ---------------------------------------------------
  alpha Z        PSCENC =      3843.96185696
  Ewald energy   TEWEN  =    -36613.61309859
  -1/2 Hartree   DENC   =     -9792.78484124
  -V(xc)+E(xc)   XCENC  =      1414.88856475
  PAW double counting   =     34625.67335558   -39234.46421604
  entropy T*S    EENTRO =        -0.00007121
  eigenvalues    EBANDS =      5399.80528084
  atomic energy  EATOM  =     44511.34040493
  ---------------------------------------------------
  free energy    TOTEN  =      4154.80723598 eV

  energy without entropy =     4154.80730719  energy(sigma->0) =     4154.80727158


--------------------------------------------------------------------------------------------------------




----------------------------------------- Iteration    1(   2)  ---------------------------------------


    EDDAV :  VPU time 4726.99: CPU time 4731.70
    DOS   :  VPU time    0.00: CPU time   -0.00
    ------------------------------------------
      LOOP:  VPU time 4727.35: CPU time 4732.06

 eigenvalue-minimisations  : 83104
 total energy-change (2. order) :-0.3632304E+04  (-0.3493086E+04)
 number of electron  352.0000000 magnetization 
 augmentation part   352.0000000 magnetization 

 Free energy of the ion-electron system (eV)
  ---------------------------------------------------
  alpha Z        PSCENC =      3843.96185696
  Ewald energy   TEWEN  =    -36613.61309859
  -1/2 Hartree   DENC   =     -9792.78484124
  -V(xc)+E(xc)   XCENC  =      1414.88856475
  PAW double counting   =     34625.67335558   -39234.46421604
  entropy T*S    EENTRO =        -0.00032367
  eigenvalues    EBANDS =      1767.50107456
  atomic energy  EATOM  =     44511.34040493
  ---------------------------------------------------
  free energy    TOTEN  =       522.50277723 eV

  energy without entropy =      522.50310090  energy(sigma->0) =      522.50293907


--------------------------------------------------------------------------------------------------------




----------------------------------------- Iteration    1(   3)  ---------------------------------------


    EDDAV :  VPU time 4701.32: CPU time 4706.02
    DOS   :  VPU time    0.00: CPU time   -0.00
    ------------------------------------------
      LOOP:  VPU time 4701.68: CPU time 4706.38

 eigenvalue-minimisations  : 83104
 total energy-change (2. order) :-0.6222181E+03  (-0.5755718E+03)
 number of electron  352.0000000 magnetization 
 augmentation part   352.0000000 magnetization 

 Free energy of the ion-electron system (eV)
  ---------------------------------------------------
  alpha Z        PSCENC =      3843.96185696
  Ewald energy   TEWEN  =    -36613.61309859
  -1/2 Hartree   DENC   =     -9792.78484124
  -V(xc)+E(xc)   XCENC  =      1414.88856475
  PAW double counting   =     34625.67335558   -39234.46421604
  entropy T*S    EENTRO =        -0.00068308
  eigenvalues    EBANDS =      1145.28331751
  atomic energy  EATOM  =     44511.34040493
  ---------------------------------------------------
  free energy    TOTEN  =       -99.71533923 eV

  energy without entropy =      -99.71465615  energy(sigma->0) =      -99.71499769


--------------------------------------------------------------------------------------------------------




----------------------------------------- Iteration    1(   4)  ---------------------------------------


    EDDAV :  VPU time 4866.16: CPU time 4879.15
    DOS   :  VPU time    0.00: CPU time   -0.00
    ------------------------------------------
      LOOP:  VPU time 4866.53: CPU time 4879.52

 eigenvalue-minimisations  : 86140
 total energy-change (2. order) :-0.4452145E+02  (-0.4307100E+02)
 number of electron  352.0000000 magnetization 
 augmentation part   352.0000000 magnetization 

 Free energy of the ion-electron system (eV)
  ---------------------------------------------------
  alpha Z        PSCENC =      3843.96185696
  Ewald energy   TEWEN  =    -36613.61309859
  -1/2 Hartree   DENC   =     -9792.78484124
  -V(xc)+E(xc)   XCENC  =      1414.88856475
  PAW double counting   =     34625.67335558   -39234.46421604
  entropy T*S    EENTRO =        -0.00059804
  eigenvalues    EBANDS =      1100.76178610
  atomic energy  EATOM  =     44511.34040493
  ---------------------------------------------------
  free energy    TOTEN  =      -144.23678559 eV

  energy without entropy =     -144.23618755  energy(sigma->0) =     -144.23648657


--------------------------------------------------------------------------------------------------------




----------------------------------------- Iteration    1(   5)  ---------------------------------------


    EDDAV :  VPU time 4947.61: CPU time 4960.03
    DOS   :  VPU time    0.00: CPU time   -0.00
    CHARGE:  VPU time  133.02: CPU time  133.36
    MIXING:  VPU time    0.02: CPU time    0.02
    ------------------------------------------
      LOOP:  VPU time 5081.00: CPU time 5093.76

 eigenvalue-minimisations  : 87972
 total energy-change (2. order) :-0.5477064E+00  (-0.5460191E+00)
 number of electron  352.0000007 magnetization 
 augmentation part   213.9768036 magnetization 

 Broyden mixing:
  rms(total) = 0.39980E+01    rms(broyden)= 0.39980E+01
  rms(prec ) = 0.59530E+01
  weight for this iteration     100.00

 Free energy of the ion-electron system (eV)
  ---------------------------------------------------
  alpha Z        PSCENC =      3843.96185696
  Ewald energy   TEWEN  =    -36613.61309859
  -1/2 Hartree   DENC   =     -9792.78484124
  -V(xc)+E(xc)   XCENC  =      1414.88856475
  PAW double counting   =     34625.67335558   -39234.46421604
  entropy T*S    EENTRO =        -0.00060392
  eigenvalues    EBANDS =      1100.21408562
  atomic energy  EATOM  =     44511.34040493
  ---------------------------------------------------
  free energy    TOTEN  =      -144.78449196 eV

  energy without entropy =     -144.78388804  energy(sigma->0) =     -144.78419000


--------------------------------------------------------------------------------------------------------




----------------------------------------- Iteration    1(   6)  ---------------------------------------


    POTLOK:  VPU time    0.79: CPU time    0.79
    SETDIJ:  VPU time    1.90: CPU time    1.91
    EDDAV :  VPU time 5047.72: CPU time 5060.11
    DOS   :  VPU time    0.00: CPU time   -0.00
    CHARGE:  VPU time  143.02: CPU time  143.39
    MIXING:  VPU time    0.02: CPU time    0.02
    ------------------------------------------
      LOOP:  VPU time 5193.81: CPU time 5206.57

 eigenvalue-minimisations  : 89604
 total energy-change (2. order) : 0.2115380E+02  (-0.2429505E+02)
 number of electron  352.0000008 magnetization 
 augmentation part   236.1069762 magnetization 

 Broyden mixing:
  rms(total) = 0.13827E+01    rms(broyden)= 0.13827E+01
  rms(prec ) = 0.19239E+01
  weight for this iteration     100.00

 eigenvalues of (default mixing * dielectric matrix)
  average eigenvalue GAMMA=   0.7467
  0.7467

 Free energy of the ion-electron system (eV)
  ---------------------------------------------------
  alpha Z        PSCENC =      3843.96185696
  Ewald energy   TEWEN  =    -36613.61309859
  -1/2 Hartree   DENC   =     -9031.32258658
  -V(xc)+E(xc)   XCENC  =      1375.66393132
  PAW double counting   =     34225.65544718   -38595.74624783
  entropy T*S    EENTRO =        -0.00053557
  eigenvalues    EBANDS =       160.43013790
  atomic energy  EATOM  =     44511.34040493
  ---------------------------------------------------
  free energy    TOTEN  =      -123.63069029 eV

  energy without entropy =     -123.63015472  energy(sigma->0) =     -123.63042250


--------------------------------------------------------------------------------------------------------




----------------------------------------- Iteration    1(   7)  ---------------------------------------


    POTLOK:  VPU time    0.75: CPU time    0.76
    SETDIJ:  VPU time    1.88: CPU time    1.88
    EDDAV :  VPU time 5195.97: CPU time 5208.66
    DOS   :  VPU time    0.00: CPU time   -0.00
    CHARGE:  VPU time  137.13: CPU time  137.47
    MIXING:  VPU time    0.02: CPU time    0.02
    ------------------------------------------
      LOOP:  VPU time 5336.11: CPU time 5349.15

 eigenvalue-minimisations  : 92284
 total energy-change (2. order) : 0.6991164E+01  (-0.3710019E+01)
 number of electron  352.0000008 magnetization 
 augmentation part   228.6826429 magnetization 

 Broyden mixing:
  rms(total) = 0.36434E+00    rms(broyden)= 0.36433E+00
  rms(prec ) = 0.55640E+00
  weight for this iteration     100.00

 eigenvalues of (default mixing * dielectric matrix)
  average eigenvalue GAMMA=   1.3254
  0.6845  1.9664

 Free energy of the ion-electron system (eV)
  ---------------------------------------------------
  alpha Z        PSCENC =      3843.96185696
  Ewald energy   TEWEN  =    -36613.61309859
  -1/2 Hartree   DENC   =     -9201.65089266
  -V(xc)+E(xc)   XCENC  =      1384.82350002
  PAW double counting   =     34933.14939199   -39486.70452814
  entropy T*S    EENTRO =        -0.00049536
  eigenvalues    EBANDS =       512.05433412
  atomic energy  EATOM  =     44511.34040493
[...]
     68       1.3693      2.00000
     69       1.3703      2.00000
     70       1.3715      2.00000
     71       1.3715      2.00000
     72       1.3715      2.00000
     73       1.3716      2.00000
     74       1.3716      2.00000
     75       1.3716      2.00000
     76       1.3716      2.00000
     77       1.3718      2.00000
     78       1.3718      2.00000
     79       1.3718      2.00000
     80       1.3718      2.00000
     81       1.3719      2.00000
     82       1.3719      2.00000
     83       1.3719      2.00000
     84       1.3730      2.00000
     85       1.3740      2.00000
     86       1.3745      2.00000
     87       1.3752      2.00000
     88       1.3752      2.00000
     89       1.5299      2.00000
     90       1.5299      2.00000
     91       1.5303      2.00000
     92       1.5307      2.00000
     93       1.5311      2.00000
     94       1.5311      2.00000
     95       1.5312      2.00000
     96       1.5312      2.00000
     97       1.5316      2.00000
     98       1.5316      2.00000
     99       1.5317      2.00000
    100       1.5319      2.00000
    101       1.5323      2.00000
    102       1.5325      2.00000
    103       1.5329      2.00000
    104       1.5329      2.00000
    105       2.0938      2.00000
    106       2.0949      2.00000
    107       2.0949      2.00000
    108       2.0970      2.00000
    109       2.0971      2.00000
    110       2.0971      2.00000
    111       2.0972      2.00000
    112       2.0973      2.00000
    113       2.0976      2.00000
    114       2.0976      2.00000
    115       2.0976      2.00000
    116       2.0976      2.00000
    117       2.0977      2.00000
    118       2.0977      2.00000
    119       2.0977      2.00000
    120       2.0978      2.00000
    121       2.0980      2.00000
    122       2.0982      2.00000
    123       2.0982      2.00000
    124       2.0982      2.00000
    125       2.0984      2.00000
    126       2.1004      2.00000
    127       2.1004      2.00000
    128       2.1015      2.00000
    129       2.4125      2.00000
    130       2.4140      2.00000
    131       2.4140      2.00000
    132       2.4140      2.00000
    133       2.4147      2.00000
    134       2.4147      2.00000
    135       2.4150      2.00000
    136       2.4151      2.00000
    137       2.4152      2.00000
    138       2.4154      2.00000
    139       2.4156      2.00000
    140       2.4156      2.00000
    141       2.4163      2.00000
    142       2.4163      2.00000
    143       2.4164      2.00000
    144       2.4179      2.00000
    145       3.0307      2.00000
    146       3.0307      2.00000
    147       3.0309      2.00000
    148       3.0310      2.00000
    149       3.0311      2.00000
    150       3.0311      2.00000
    151       3.0311      2.00000
    152       3.0312      2.00000
    153       3.0312      2.00000
    154       3.0313      2.00000
    155       3.0313      2.00000
    156       3.0314      2.00000
    157       3.0316      2.00000
    158       3.0317      2.00000
    159       3.0317      2.00000
    160       3.0317      2.00000
    161       3.0318      2.00000
    162       3.0319      2.00000
    163       3.0319      2.00000
    164       3.0319      2.00000
    165       3.0320      2.00000
    166       3.0321      2.00000
    167       3.0322      2.00000
    168       3.0322      2.00000
    169       5.7738      0.00000
    170       5.7758      0.00000
    171       5.7758      0.00000
    172       5.7791      0.00000
    173       5.7797      0.00000
    174       5.7797      0.00000
    175       5.7797      0.00000
    176       5.7798      0.00000
    177       5.7799      0.00000
    178       5.7799      0.00000
    179       5.7800      0.00000
    180       5.7800      0.00000
    181       5.7802      0.00000
    182       5.7802      0.00000
    183       5.7803      0.00000
    184       5.7804      0.00000
    185       5.7804      0.00000
    186       5.7805      0.00000
    187       5.7806      0.00000
    188       5.7806      0.00000
    189       5.7812      0.00000
    190       5.7844      0.00000
    191       5.7844      0.00000
    192       5.7864      0.00000
    193      12.0443      0.00000
    194      12.0444      0.00000
    195      12.0448      0.00000
    196      12.0504      0.00000
    197      12.0506      0.00000
    198      12.0507      0.00000
    199      12.0510      0.00000
    200      12.0512      0.00000
    201      12.0512      0.00000
    202      12.0513      0.00000
    203      12.0513      0.00000
    204      12.0514      0.00000
    205      12.0516      0.00000
    206      12.0517      0.00000
    207      12.0517      0.00000
    208      12.0518      0.00000
    209      12.0520      0.00000
    210      12.0522      0.00000
    211      12.0524      0.00000
    212      12.0525      0.00000


--------------------------------------------------------------------------------------------------------


 soft charge-density along one line, spin component           1
         0         1         2         3         4         5         6         7         8         9
 total charge-density along one line
 
 pseudopotential strength for first ion, spin component:           1
 -5.910   0.000  -0.000   0.000   0.000  -0.496  -0.000   0.000
  0.000  -5.910  -0.000   0.000  -0.000  -0.000  -0.496   0.000
 -0.000  -0.000  -5.890  -0.000  -0.000   0.000   0.000  -0.505
  0.000   0.000  -0.000  -5.910   0.000  -0.000  -0.000   0.000
  0.000  -0.000  -0.000   0.000  -5.890  -0.000   0.000   0.000
 -0.496  -0.000   0.000  -0.000  -0.000   1.791   0.000  -0.000
 -0.000  -0.496   0.000  -0.000   0.000   0.000   1.791  -0.000
  0.000   0.000  -0.505   0.000   0.000  -0.000  -0.000   1.795
 -0.000  -0.000   0.000  -0.496  -0.000   0.000   0.000  -0.000
 -0.000   0.000   0.000  -0.000  -0.505   0.000  -0.000  -0.000
 -0.000  -0.000   0.000  -0.000  -0.000  -0.000  -0.000  -0.000
  0.000   0.000  -0.000   0.000   0.000  -0.000  -0.000   0.000
  0.000  -0.000   0.000  -0.000   0.000   0.000   0.000   0.000
 -0.000  -0.000  -0.000   0.000  -0.000  -0.000   0.000   0.000
 -0.000  -0.000  -0.000  -0.000   0.000  -0.000  -0.000  -0.000
 -0.000  -0.000  -0.000   0.000   0.000   0.000  -0.000   0.000
  0.000  -0.000  -0.000  -0.000   0.000  -0.000  -0.000   0.000
  0.000   0.000   0.000   0.000  -0.000  -0.000  -0.000  -0.000
 total augmentation occupancy for first ion, spin component:           1
  1.919  -0.000  -0.003  -0.000  -0.001   0.016  -0.000   0.001   0.000   0.001   0.006   0.001   0.001   0.000  -0.000  -0.000
 -0.000   1.922  -0.001  -0.001  -0.003  -0.000   0.012   0.001   0.000   0.001   0.005   0.000   0.000   0.000  -0.000  -0.000
 -0.003  -0.001   1.932   0.000  -0.003   0.001   0.001  -0.041   0.001   0.003   0.013   0.003   0.000  -0.000  -0.000  -0.000
 -0.000  -0.001   0.000   1.924   0.001   0.000   0.000   0.001   0.008   0.000   0.004  -0.000   0.000   0.001  -0.000  -0.000
 -0.001  -0.003  -0.003   0.001   1.921   0.001   0.001   0.003   0.000  -0.031   0.008   0.002   0.000   0.000   0.000   0.000
  0.016  -0.000   0.001   0.000   0.001   0.105   0.000   0.001   0.000  -0.000  -0.002   0.001   0.001  -0.000  -0.000  -0.000
 -0.000   0.012   0.001   0.000   0.001   0.000   0.109  -0.002  -0.000   0.001  -0.001   0.001   0.000   0.000   0.000   0.000
  0.001   0.001  -0.041   0.001   0.003   0.001  -0.002   0.103  -0.002  -0.001  -0.009  -0.000   0.000   0.000  -0.000   0.000
  0.000   0.000   0.001   0.008   0.000   0.000  -0.000  -0.002   0.112  -0.002   0.000   0.001  -0.000   0.001   0.000   0.000
  0.001   0.001   0.003   0.000  -0.031  -0.000   0.001  -0.001  -0.002   0.100  -0.005  -0.000  -0.000  -0.000   0.001   0.000
  0.006   0.005   0.013   0.004   0.008  -0.002  -0.001  -0.009   0.000  -0.005   1.307  -0.421   0.000  -0.000   0.004   0.000
  0.001   0.000   0.003  -0.000   0.002   0.001   0.001  -0.000   0.001  -0.000  -0.421   0.196   0.000   0.000  -0.001   0.000
  0.001   0.000   0.000   0.000   0.000   0.001   0.000   0.000  -0.000  -0.000   0.000   0.000   0.233  -0.001  -0.000  -0.016
  0.000   0.000  -0.000   0.001   0.000  -0.000   0.000   0.000   0.001  -0.000  -0.000   0.000  -0.001   0.236  -0.002  -0.000
 -0.000  -0.000  -0.000  -0.000   0.000  -0.000   0.000  -0.000   0.000   0.001   0.004  -0.001  -0.000  -0.002   0.235  -0.000
 -0.000  -0.000  -0.000  -0.000   0.000  -0.000   0.000   0.000   0.000   0.000   0.000   0.000  -0.016  -0.000  -0.000   0.001
 -0.000  -0.000  -0.000  -0.000   0.000   0.000   0.000  -0.000  -0.000  -0.000   0.000   0.000  -0.000  -0.017  -0.000   0.000
  0.000  -0.000  -0.000   0.000   0.000  -0.000   0.000   0.000  -0.000  -0.000  -0.000   0.000  -0.000  -0.000  -0.017   0.000


------------------------ aborting loop because EDIFF is reached ----------------------------------------




--------------------------------------------------------------------------------------------------------


    CHARGE:  VPU time  153.17: CPU time  153.56
    FORLOC:  VPU time    0.12: CPU time    0.12
    FORNL :  VPU time  823.24: CPU time  824.90
    STRESS:  VPU time 5535.23: CPU time 5542.06
    FORCOR:  VPU time    0.87: CPU time    0.87
    FORHAR:  VPU time    0.30: CPU time    0.30
    MIXING:  VPU time    0.03: CPU time    0.04


--------------------------------------------------------------------------------------------------------



  FREE ENERGIE OF THE ION-ELECTRON SYSTEM (eV)
  ---------------------------------------------------
  free  energy   TOTEN  =      -116.170301 eV

  energy  without entropy=     -116.169359  energy(sigma->0) =     -116.169830
 

  FORCE on cell =-STRESS in cart. coord.  units (eV/reduce length):
  Direction    X        Y        Z        XY       YZ       ZX
  --------------------------------------------------------------------------------------
  Alpha Z   3843.96   3843.96   3843.96
  Ewald   -12204.63 -12204.57 -12204.57      0.00      0.00      0.00
  Hartree   3020.30   3020.34   3020.34     -0.00     -0.00     -0.00
  E(xc)    -2013.37  -2013.37  -2013.37     -0.00     -0.00     -0.00
  Local     4172.84   4172.73   4172.73     -0.00      0.00      0.00
  n-local  -1127.92  -1131.41  -1124.44      1.49      0.91      0.35
  augment   1811.14   1811.14   1811.14     -0.00     -0.00     -0.00
  Kinetic   2546.37   2543.50   2549.24     -0.09     -1.30     -2.52
  -------------------------------------------------------------------------------------
  Total       48.70     48.70     48.70      0.00      0.00     -0.00
  in kB      229.24    229.24    229.24      0.00      0.00     -0.00
  external pressure =      229.24 kB  Pullay stress =        0.00 kB


 VOLUME and BASIS-vectors are now :
 -----------------------------------------------------------------------------
  energy-cutoff  :      750.00
  volume of cell :      340.35
      direct lattice vectors                 reciprocal lattice vectors
     6.981918359  0.000000000  0.000000000     0.143227112  0.000000000  0.000000000
     0.000000000  6.981918359  0.000000000     0.000000000  0.143227112  0.000000000
     0.000000000  0.000000000  6.981918359     0.000000000  0.000000000  0.143227112

  length of vectors
     6.981918359  6.981918359  6.981918359     0.143227112  0.143227112  0.143227112


 FORCES acting on ions
    electron-ion (+dipol)            ewald-force                    non-local-force                 convergence-correction
 -----------------------------------------------------------------------------------------------
   0.653E+01 -.572E-14 0.108E-05   -.665E+01 -.338E-13 0.506E-13   0.845E-02 -.271E-19 0.339E-20   0.403E-04 0.518E-13 -.197E-13
   -.173E+01 -.371E-13 -.109E-05   0.175E+01 -.444E-14 0.166E-12   -.231E-01 0.000E+00 -.136E-19   -.363E-04 0.631E-13 0.740E-14
   0.550E+00 0.367E-12 0.847E-11   -.556E+00 0.178E-14 0.155E-12   0.542E-02 0.000E+00 0.000E+00   -.105E-06 -.617E-13 -.210E-13
   -.442E+00 0.595E-11 0.787E-11   0.436E+00 -.240E-13 -.444E-14   0.620E-02 -.678E-20 0.339E-20   0.926E-06 -.759E-13 0.119E-13
   0.550E+00 -.765E-14 0.421E-09   -.556E+00 -.178E-14 -.764E-13   0.542E-02 -.169E-20 0.678E-20   0.631E-06 0.653E-13 0.596E-13
   -.442E+00 -.276E-13 0.423E-09   0.436E+00 -.355E-14 0.897E-13   0.620E-02 0.508E-20 0.000E+00   0.803E-06 0.737E-13 0.544E-13
   0.230E+00 0.368E-12 -.498E-10   -.229E+00 -.124E-13 0.444E-13   -.555E-03 -.593E-20 0.000E+00   -.366E-04 -.734E-13 0.781E-13
   -.215E+00 -.505E-11 -.472E-10   0.214E+00 -.240E-13 0.147E-12   -.589E-04 0.519E-20 0.000E+00   0.361E-04 -.875E-13 0.649E-13
   -.830E+00 -.160E+01 -.840E-10   0.843E+00 0.162E+01 0.176E-12   0.135E-02 -.443E-02 -.102E-19   0.556E-05 0.657E-05 -.175E-13
   -.837E+00 0.159E+01 -.649E-10   0.849E+00 -.161E+01 0.622E-13   0.164E-02 0.410E-02 0.136E-19   -.691E-05 0.457E-04 -.153E-13
   -.830E+00 0.160E+01 -.840E-10   0.843E+00 -.162E+01 0.109E-12   0.135E-02 0.443E-02 0.136E-19   0.556E-05 -.657E-05 0.161E-13
   -.837E+00 -.159E+01 -.869E-10   0.849E+00 0.161E+01 0.524E-13   0.164E-02 -.410E-02 -.136E-19   -.691E-05 -.457E-04 0.156E-13
   -.231E-01 -.132E+00 0.467E-10   0.254E-01 0.133E+00 -.835E-13   -.216E-02 -.509E-03 0.000E+00   -.155E-04 -.963E-05 0.116E-12
   -.262E-01 0.132E+00 0.546E-10   0.285E-01 -.133E+00 -.266E-13   -.214E-02 0.506E-03 -.678E-20   0.157E-04 0.269E-04 0.631E-13
   -.231E-01 0.132E+00 0.467E-10   0.254E-01 -.133E+00 -.240E-13   -.216E-02 0.509E-03 0.000E+00   -.155E-04 0.963E-05 0.747E-13
   -.262E-01 -.132E+00 0.546E-10   0.285E-01 0.133E+00 0.203E-12   -.214E-02 -.506E-03 0.678E-20   0.157E-04 -.269E-04 0.162E-13
   -.830E+00 0.114E-13 -.160E+01   0.843E+00 -.515E-13 0.162E+01   0.135E-02 -.678E-20 -.443E-02   0.543E-05 0.135E-13 0.667E-05
   -.837E+00 -.259E-13 0.159E+01   0.849E+00 0.533E-14 -.161E+01   0.164E-02 -.678E-20 0.410E-02   -.705E-05 0.461E-13 0.456E-04
   -.231E-01 0.354E-12 -.132E+00   0.254E-01 -.266E-13 0.133E+00   -.216E-02 -.169E-20 -.509E-03   -.155E-04 -.679E-13 -.953E-05
   -.262E-01 -.174E-11 0.132E+00   0.285E-01 -.266E-13 -.133E+00   -.214E-02 -.339E-20 0.506E-03   0.157E-04 -.586E-13 0.268E-04
   -.830E+00 -.989E-15 0.160E+01   0.843E+00 -.329E-13 -.162E+01   0.135E-02 0.136E-19 0.443E-02   0.543E-05 0.495E-13 -.667E-05
   -.837E+00 -.240E-13 -.159E+01   0.849E+00 0.240E-13 0.161E+01   0.164E-02 -.678E-20 -.410E-02   -.705E-05 0.853E-13 -.456E-04
   -.231E-01 0.370E-12 0.132E+00   0.254E-01 0.329E-13 -.133E+00   -.216E-02 -.339E-20 0.509E-03   -.155E-04 -.104E-12 0.953E-05
   -.262E-01 -.712E-12 -.132E+00   0.285E-01 -.240E-13 0.133E+00   -.214E-02 0.508E-20 -.506E-03   0.157E-04 -.984E-13 -.268E-04
   0.104E+01 0.466E-02 0.466E-02   -.105E+01 -.472E-02 -.472E-02   0.585E-02 -.898E-06 -.898E-06   -.324E-06 0.280E-04 0.280E-04
   -.582E+00 -.139E-02 -.139E-02   0.589E+00 0.141E-02 0.141E-02   -.652E-02 -.266E-04 -.266E-04   -.194E-06 0.648E-05 0.648E-05
   0.104E+01 -.466E-02 0.466E-02   -.105E+01 0.472E-02 -.472E-02   0.585E-02 0.898E-06 -.898E-06   -.324E-06 -.280E-04 0.280E-04
   -.582E+00 0.139E-02 -.139E-02   0.589E+00 -.141E-02 0.141E-02   -.652E-02 0.266E-04 -.266E-04   -.194E-06 -.648E-05 0.648E-05
   0.104E+01 0.466E-02 -.466E-02   -.105E+01 -.472E-02 0.472E-02   0.585E-02 -.898E-06 0.898E-06   -.324E-06 0.280E-04 -.280E-04
   -.582E+00 -.139E-02 0.139E-02   0.589E+00 0.141E-02 -.141E-02   -.652E-02 -.266E-04 0.266E-04   -.194E-06 0.648E-05 -.648E-05
   0.104E+01 -.466E-02 -.466E-02   -.105E+01 0.472E-02 0.472E-02   0.585E-02 0.898E-06 0.898E-06   -.324E-06 -.280E-04 -.280E-04
   -.582E+00 0.139E-02 0.139E-02   0.589E+00 -.141E-02 -.141E-02   -.652E-02 0.266E-04 0.266E-04   -.194E-06 -.648E-05 -.648E-05
 -----------------------------------------------------------------------------------------------
   -.692E-05 -.397E-11 -.828E-08   0.183E-12 0.419E-13 -.158E-12   0.192E-04 -.203E-19 0.678E-20   -.153E-05 -.410E-12 0.105E-11
 
 
 POSITION                                       TOTAL-FORCE (eV/Angst)
 -----------------------------------------------------------------------------------
      0.01000      0.00000      0.00000        -0.107493      0.000000     -0.000000
      3.49096      0.00000      0.00000         0.001209      0.000000      0.000000
      0.00000      3.49096      0.00000        -0.000481      0.000000     -0.000000
      3.49096      3.49096      0.00000         0.000566     -0.000000     -0.000000
      0.00000      0.00000      3.49096        -0.000481      0.000000     -0.000000
      3.49096      0.00000      3.49096         0.000566      0.000000      0.000000
      0.00000      3.49096      3.49096         0.000054      0.000000     -0.000000
      3.49096      3.49096      3.49096        -0.000180      0.000000      0.000000
      1.74548      1.74548      0.00000         0.013806      0.016273     -0.000000
      5.23644      1.74548      0.00000         0.013431     -0.015717      0.000000
      1.74548      5.23644      0.00000         0.013806     -0.016273      0.000000
      5.23644      5.23644      0.00000         0.013431      0.015717      0.000000
      1.74548      1.74548      3.49096         0.000187      0.000225     -0.000000
      5.23644      1.74548      3.49096         0.000185     -0.000225     -0.000000
      1.74548      5.23644      3.49096         0.000187     -0.000225      0.000000
      5.23644      5.23644      3.49096         0.000185      0.000225     -0.000000
      1.74548      0.00000      1.74548         0.013806      0.000000      0.016273
      5.23644      0.00000      1.74548         0.013431     -0.000000     -0.015717
      1.74548      3.49096      1.74548         0.000187     -0.000000      0.000225
      5.23644      3.49096      1.74548         0.000185      0.000000     -0.000225
      1.74548      0.00000      5.23644         0.013806      0.000000     -0.016273
      5.23644      0.00000      5.23644         0.013431     -0.000000      0.015717
      1.74548      3.49096      5.23644         0.000187     -0.000000     -0.000225
      5.23644      3.49096      5.23644         0.000185      0.000000      0.000225
      0.00000      1.74548      1.74548        -0.001723     -0.000034     -0.000034
      3.49096      1.74548      1.74548         0.000675      0.000003      0.000003
      0.00000      5.23644      1.74548        -0.001723      0.000034     -0.000034
      3.49096      5.23644      1.74548         0.000675     -0.000003      0.000003
      0.00000      1.74548      5.23644        -0.001723     -0.000034      0.000034
      3.49096      1.74548      5.23644         0.000675      0.000003     -0.000003
      0.00000      5.23644      5.23644        -0.001723      0.000034      0.000034
      3.49096      5.23644      5.23644         0.000675     -0.000003     -0.000003
 -----------------------------------------------------------------------------------
    total drift:                                0.000011     -0.000000     -0.000000


--------------------------------------------------------------------------------------------------------



 mean value of Nose-termostat <S>:     1.000 mean value of <T> :     0.000
 mean temperature <T/S>/<1/S>  :     0.000

     LOOP+:  VPU time********: CPU time********
  
  
 General timing and accounting informations for this job:
 ========================================================
  
                  Total CPU time used (sec):   115676.027
                            User time (sec):    97637.143
                          System time (sec):    18038.884
                         Elapsed time (sec):   115896.972
  
                   Maximum memory used (kb):    16462800.
                   Average memory used (kb):           0.
  
                          Minor page faults:      3330500
                          Major page faults:            0
                 Voluntary context switches:         1026
