<?xml version="1.0" encoding="ISO-8859-1"?>
<modeling>
 <generator>
  <i name="program" type="string">vasp</i>
  <i name="version" type="string">4.6.28 </i>
  <i name="subversion" type="string">25Jul05 complex  parallel</i>
  <i name="platform" type="string">LinuxIFC</i>
  <i name="date" type="string">2017 01 09</i>
  <i name="time" type="string">17:41:43</i>
 </generator>
 <incar>
  <i type="string" name="PREC">accurate</i>
  <i type="int" name="IALGO">    38</i>
  <i type="logical" name="ADDGRID"> T  </i>
  <i name="EDIFF">      0.00000001</i>
  <i type="int" name="IBRION">    -1</i>
  <i name="ENCUT">    750.00000000</i>
  <i type="logical" name="LREAL"> F  </i>
  <i type="int" name="ISMEAR">     0</i>
  <i name="SIGMA">      0.01000000</i>
  <i type="logical" name="LWAVE"> F  </i>
  <i type="logical" name="LCHARG"> F  </i>
 </incar>
 <kpoints>
  <generation param="Gamma">
   <v type="int" name="divisions">      12      12      12</v>
   <v name="usershift">      0.00000000      0.00000000      0.00000000</v>
   <v name="genvec1">      0.08333333      0.00000000      0.00000000</v>
   <v name="genvec2">      0.00000000      0.08333333      0.00000000</v>
   <v name="genvec3">      0.00000000      0.00000000      0.08333333</v>
   <v name="shift">      0.00000000      0.00000000      0.00000000</v>
  </generation>
  <varray name="kpointlist" >
   <v>       0.00000000      0.00000000      0.00000000</v>
   <v>       0.08333333      0.00000000      0.00000000</v>
   <v>       0.16666667      0.00000000      0.00000000</v>
   <v>       0.25000000      0.00000000      0.00000000</v>
   <v>       0.33333333      0.00000000      0.00000000</v>
   <v>       0.41666667      0.00000000      0.00000000</v>
   <v>       0.50000000      0.00000000      0.00000000</v>
   <v>       0.00000000      0.08333333      0.00000000</v>
   <v>       0.08333333      0.08333333      0.00000000</v>
   <v>       0.16666667      0.08333333      0.00000000</v>
   <v>       0.25000000      0.08333333      0.00000000</v>
   <v>       0.33333333      0.08333333      0.00000000</v>
   <v>       0.41666667      0.08333333      0.00000000</v>
   <v>       0.50000000      0.08333333      0.00000000</v>
   <v>       0.00000000      0.16666667      0.00000000</v>
   <v>       0.08333333      0.16666667      0.00000000</v>
   <v>       0.16666667      0.16666667      0.00000000</v>
   <v>       0.25000000      0.16666667      0.00000000</v>
   <v>       0.33333333      0.16666667      0.00000000</v>
   <v>       0.41666667      0.16666667      0.00000000</v>
   <v>       0.50000000      0.16666667      0.00000000</v>
   <v>       0.00000000      0.25000000      0.00000000</v>
   <v>       0.08333333      0.25000000      0.00000000</v>
   <v>       0.16666667      0.25000000      0.00000000</v>
   <v>       0.25000000      0.25000000      0.00000000</v>
   <v>       0.33333333      0.25000000      0.00000000</v>
   <v>       0.41666667      0.25000000      0.00000000</v>
   <v>       0.50000000      0.25000000      0.00000000</v>
   <v>       0.00000000      0.33333333      0.00000000</v>
   <v>       0.08333333      0.33333333      0.00000000</v>
   <v>       0.16666667      0.33333333      0.00000000</v>
   <v>       0.25000000      0.33333333      0.00000000</v>
   <v>       0.33333333      0.33333333      0.00000000</v>
   <v>       0.41666667      0.33333333      0.00000000</v>
   <v>       0.50000000      0.33333333      0.00000000</v>
   <v>       0.00000000      0.41666667      0.00000000</v>
   <v>       0.08333333      0.41666667      0.00000000</v>
   <v>       0.16666667      0.41666667      0.00000000</v>
   <v>       0.25000000      0.41666667      0.00000000</v>
   <v>       0.33333333      0.41666667      0.00000000</v>
   <v>       0.41666667      0.41666667      0.00000000</v>
   <v>       0.50000000      0.41666667      0.00000000</v>
   <v>       0.00000000      0.50000000      0.00000000</v>
   <v>       0.08333333      0.50000000      0.00000000</v>
   <v>       0.16666667      0.50000000      0.00000000</v>
   <v>       0.25000000      0.50000000      0.00000000</v>
   <v>       0.33333333      0.50000000      0.00000000</v>
   <v>       0.41666667      0.50000000      0.00000000</v>
   <v>       0.50000000      0.50000000      0.00000000</v>
   <v>       0.00000000      0.08333333      0.08333333</v>
   <v>       0.08333333      0.08333333      0.08333333</v>
   <v>       0.16666667      0.08333333      0.08333333</v>
   <v>       0.25000000      0.08333333      0.08333333</v>
   <v>       0.33333333      0.08333333      0.08333333</v>
   <v>       0.41666667      0.08333333      0.08333333</v>
   <v>       0.50000000      0.08333333      0.08333333</v>
   <v>       0.00000000      0.16666667      0.08333333</v>
   <v>       0.08333333      0.16666667      0.08333333</v>
   <v>       0.16666667      0.16666667      0.08333333</v>
   <v>       0.25000000      0.16666667      0.08333333</v>
   <v>       0.33333333      0.16666667      0.08333333</v>
   <v>       0.41666667      0.16666667      0.08333333</v>
   <v>       0.50000000      0.16666667      0.08333333</v>
   <v>       0.00000000      0.25000000      0.08333333</v>
   <v>       0.08333333      0.25000000      0.08333333</v>
   <v>       0.16666667      0.25000000      0.08333333</v>
   <v>       0.25000000      0.25000000      0.08333333</v>
   <v>       0.33333333      0.25000000      0.08333333</v>
   <v>       0.41666667      0.25000000      0.08333333</v>
   <v>       0.50000000      0.25000000      0.08333333</v>
   <v>       0.00000000      0.33333333      0.08333333</v>
   <v>       0.08333333      0.33333333      0.08333333</v>
   <v>       0.16666667      0.33333333      0.08333333</v>
   <v>       0.25000000      0.33333333      0.08333333</v>
   <v>       0.33333333      0.33333333      0.08333333</v>
   <v>       0.41666667      0.33333333      0.08333333</v>
   <v>       0.50000000      0.33333333      0.08333333</v>
   <v>       0.00000000      0.41666667      0.08333333</v>
   <v>       0.08333333      0.41666667      0.08333333</v>
   <v>       0.16666667      0.41666667      0.08333333</v>
   <v>       0.25000000      0.41666667      0.08333333</v>
   <v>       0.33333333      0.41666667      0.08333333</v>
   <v>       0.41666667      0.41666667      0.08333333</v>
   <v>       0.50000000      0.41666667      0.08333333</v>
   <v>       0.00000000      0.50000000      0.08333333</v>
   <v>       0.08333333      0.50000000      0.08333333</v>
   <v>       0.16666667      0.50000000      0.08333333</v>
   <v>       0.25000000      0.50000000      0.08333333</v>
   <v>       0.33333333      0.50000000      0.08333333</v>
   <v>       0.41666667      0.50000000      0.08333333</v>
   <v>       0.50000000      0.50000000      0.08333333</v>
   <v>       0.00000000      0.16666667      0.16666667</v>
   <v>       0.08333333      0.16666667      0.16666667</v>
   <v>       0.16666667      0.16666667      0.16666667</v>
   <v>       0.25000000      0.16666667      0.16666667</v>
   <v>       0.33333333      0.16666667      0.16666667</v>
   <v>       0.41666667      0.16666667      0.16666667</v>
   <v>       0.50000000      0.16666667      0.16666667</v>
   <v>       0.00000000      0.25000000      0.16666667</v>
   <v>       0.08333333      0.25000000      0.16666667</v>
   <v>       0.16666667      0.25000000      0.16666667</v>
   <v>       0.25000000      0.25000000      0.16666667</v>
   <v>       0.33333333      0.25000000      0.16666667</v>
   <v>       0.41666667      0.25000000      0.16666667</v>
   <v>       0.50000000      0.25000000      0.16666667</v>
   <v>       0.00000000      0.33333333      0.16666667</v>
   <v>       0.08333333      0.33333333      0.16666667</v>
   <v>       0.16666667      0.33333333      0.16666667</v>
   <v>       0.25000000      0.33333333      0.16666667</v>
   <v>       0.33333333      0.33333333      0.16666667</v>
   <v>       0.41666667      0.33333333      0.16666667</v>
   <v>       0.50000000      0.33333333      0.16666667</v>
   <v>       0.00000000      0.41666667      0.16666667</v>
   <v>       0.08333333      0.41666667      0.16666667</v>
   <v>       0.16666667      0.41666667      0.16666667</v>
   <v>       0.25000000      0.41666667      0.16666667</v>
   <v>       0.33333333      0.41666667      0.16666667</v>
   <v>       0.41666667      0.41666667      0.16666667</v>
   <v>       0.50000000      0.41666667      0.16666667</v>
   <v>       0.00000000      0.50000000      0.16666667</v>
   <v>       0.08333333      0.50000000      0.16666667</v>
   <v>       0.16666667      0.50000000      0.16666667</v>
   <v>       0.25000000      0.50000000      0.16666667</v>
   <v>       0.33333333      0.50000000      0.16666667</v>
   <v>       0.41666667      0.50000000      0.16666667</v>
   <v>       0.50000000      0.50000000      0.16666667</v>
   <v>       0.00000000      0.25000000      0.25000000</v>
   <v>       0.08333333      0.25000000      0.25000000</v>
   <v>       0.16666667      0.25000000      0.25000000</v>
   <v>       0.25000000      0.25000000      0.25000000</v>
   <v>       0.33333333      0.25000000      0.25000000</v>
   <v>       0.41666667      0.25000000      0.25000000</v>
   <v>       0.50000000      0.25000000      0.25000000</v>
   <v>       0.00000000      0.33333333      0.25000000</v>
   <v>       0.08333333      0.33333333      0.25000000</v>
   <v>       0.16666667      0.33333333      0.25000000</v>
   <v>       0.25000000      0.33333333      0.25000000</v>
   <v>       0.33333333      0.33333333      0.25000000</v>
   <v>       0.41666667      0.33333333      0.25000000</v>
   <v>       0.50000000      0.33333333      0.25000000</v>
   <v>       0.00000000      0.41666667      0.25000000</v>
   <v>       0.08333333      0.41666667      0.25000000</v>
   <v>       0.16666667      0.41666667      0.25000000</v>
   <v>       0.25000000      0.41666667      0.25000000</v>
   <v>       0.33333333      0.41666667      0.25000000</v>
   <v>       0.41666667      0.41666667      0.25000000</v>
   <v>       0.50000000      0.41666667      0.25000000</v>
   <v>       0.00000000      0.50000000      0.25000000</v>
   <v>       0.08333333      0.50000000      0.25000000</v>
   <v>       0.16666667      0.50000000      0.25000000</v>
   <v>       0.25000000      0.50000000      0.25000000</v>
   <v>       0.33333333      0.50000000      0.25000000</v>
   <v>       0.41666667      0.50000000      0.25000000</v>
   <v>       0.50000000      0.50000000      0.25000000</v>
   <v>       0.00000000      0.33333333      0.33333333</v>
   <v>       0.08333333      0.33333333      0.33333333</v>
   <v>       0.16666667      0.33333333      0.33333333</v>
   <v>       0.25000000      0.33333333      0.33333333</v>
   <v>       0.33333333      0.33333333      0.33333333</v>
   <v>       0.41666667      0.33333333      0.33333333</v>
   <v>       0.50000000      0.33333333      0.33333333</v>
   <v>       0.00000000      0.41666667      0.33333333</v>
   <v>       0.08333333      0.41666667      0.33333333</v>
   <v>       0.16666667      0.41666667      0.33333333</v>
   <v>       0.25000000      0.41666667      0.33333333</v>
   <v>       0.33333333      0.41666667      0.33333333</v>
   <v>       0.41666667      0.41666667      0.33333333</v>
   <v>       0.50000000      0.41666667      0.33333333</v>
   <v>       0.00000000      0.50000000      0.33333333</v>
   <v>       0.08333333      0.50000000      0.33333333</v>
   <v>       0.16666667      0.50000000      0.33333333</v>
   <v>       0.25000000      0.50000000      0.33333333</v>
   <v>       0.33333333      0.50000000      0.33333333</v>
   <v>       0.41666667      0.50000000      0.33333333</v>
   <v>       0.50000000      0.50000000      0.33333333</v>
   <v>       0.00000000      0.41666667      0.41666667</v>
   <v>       0.08333333      0.41666667      0.41666667</v>
   <v>       0.16666667      0.41666667      0.41666667</v>
   <v>       0.25000000      0.41666667      0.41666667</v>
   <v>       0.33333333      0.41666667      0.41666667</v>
   <v>       0.41666667      0.41666667      0.41666667</v>
   <v>       0.50000000      0.41666667      0.41666667</v>
   <v>       0.00000000      0.50000000      0.41666667</v>
   <v>       0.08333333      0.50000000      0.41666667</v>
   <v>       0.16666667      0.50000000      0.41666667</v>
   <v>       0.25000000      0.50000000      0.41666667</v>
   <v>       0.33333333      0.50000000      0.41666667</v>
   <v>       0.41666667      0.50000000      0.41666667</v>
   <v>       0.50000000      0.50000000      0.41666667</v>
   <v>       0.00000000      0.50000000      0.50000000</v>
   <v>       0.08333333      0.50000000      0.50000000</v>
   <v>       0.16666667      0.50000000      0.50000000</v>
   <v>       0.25000000      0.50000000      0.50000000</v>
   <v>       0.33333333      0.50000000      0.50000000</v>
   <v>       0.41666667      0.50000000      0.50000000</v>
   <v>       0.50000000      0.50000000      0.50000000</v>
  </varray>
  <varray name="weights" >
   <v>       0.00057870</v>
   <v>       0.00115741</v>
   <v>       0.00115741</v>
   <v>       0.00115741</v>
   <v>       0.00115741</v>
   <v>       0.00115741</v>
   <v>       0.00057870</v>
   <v>       0.00231481</v>
   <v>       0.00462963</v>
   <v>       0.00462963</v>
   <v>       0.00462963</v>
   <v>       0.00462963</v>
   <v>       0.00462963</v>
   <v>       0.00231481</v>
   <v>       0.00231481</v>
   <v>       0.00462963</v>
   <v>       0.00462963</v>
   <v>       0.00462963</v>
   <v>       0.00462963</v>
   <v>       0.00462963</v>
   <v>       0.00231481</v>
   <v>       0.00231481</v>
   <v>       0.00462963</v>
   <v>       0.00462963</v>
   <v>       0.00462963</v>
   <v>       0.00462963</v>
   <v>       0.00462963</v>
   <v>       0.00231481</v>
   <v>       0.00231481</v>
   <v>       0.00462963</v>
   <v>       0.00462963</v>
   <v>       0.00462963</v>
   <v>       0.00462963</v>
   <v>       0.00462963</v>
   <v>       0.00231481</v>
   <v>       0.00231481</v>
   <v>       0.00462963</v>
   <v>       0.00462963</v>
   <v>       0.00462963</v>
   <v>       0.00462963</v>
   <v>       0.00462963</v>
   <v>       0.00231481</v>
   <v>       0.00115741</v>
   <v>       0.00231481</v>
   <v>       0.00231481</v>
   <v>       0.00231481</v>
   <v>       0.00231481</v>
   <v>       0.00231481</v>
   <v>       0.00115741</v>
   <v>       0.00231481</v>
   <v>       0.00462963</v>
   <v>       0.00462963</v>
   <v>       0.00462963</v>
   <v>       0.00462963</v>
   <v>       0.00462963</v>
   <v>       0.00231481</v>
   <v>       0.00462963</v>
   <v>       0.00925926</v>
   <v>       0.00925926</v>
   <v>       0.00925926</v>
   <v>       0.00925926</v>
   <v>       0.00925926</v>
   <v>       0.00462963</v>
   <v>       0.00462963</v>
   <v>       0.00925926</v>
   <v>       0.00925926</v>
   <v>       0.00925926</v>
   <v>       0.00925926</v>
   <v>       0.00925926</v>
   <v>       0.00462963</v>
   <v>       0.00462963</v>
   <v>       0.00925926</v>
   <v>       0.00925926</v>
   <v>       0.00925926</v>
   <v>       0.00925926</v>
   <v>       0.00925926</v>
   <v>       0.00462963</v>
   <v>       0.00462963</v>
   <v>       0.00925926</v>
   <v>       0.00925926</v>
   <v>       0.00925926</v>
   <v>       0.00925926</v>
   <v>       0.00925926</v>
   <v>       0.00462963</v>
   <v>       0.00231481</v>
   <v>       0.00462963</v>
   <v>       0.00462963</v>
   <v>       0.00462963</v>
   <v>       0.00462963</v>
   <v>       0.00462963</v>
   <v>       0.00231481</v>
   <v>       0.00231481</v>
   <v>       0.00462963</v>
   <v>       0.00462963</v>
   <v>       0.00462963</v>
   <v>       0.00462963</v>
   <v>       0.00462963</v>
   <v>       0.00231481</v>
   <v>       0.00462963</v>
   <v>       0.00925926</v>
   <v>       0.00925926</v>
   <v>       0.00925926</v>
   <v>       0.00925926</v>
   <v>       0.00925926</v>
   <v>       0.00462963</v>
   <v>       0.00462963</v>
   <v>       0.00925926</v>
   <v>       0.00925926</v>
   <v>       0.00925926</v>
   <v>       0.00925926</v>
   <v>       0.00925926</v>
   <v>       0.00462963</v>
   <v>       0.00462963</v>
   <v>       0.00925926</v>
   <v>       0.00925926</v>
   <v>       0.00925926</v>
   <v>       0.00925926</v>
   <v>       0.00925926</v>
   <v>       0.00462963</v>
   <v>       0.00231481</v>
   <v>       0.00462963</v>
   <v>       0.00462963</v>
   <v>       0.00462963</v>
   <v>       0.00462963</v>
   <v>       0.00462963</v>
   <v>       0.00231481</v>
   <v>       0.00231481</v>
   <v>       0.00462963</v>
   <v>       0.00462963</v>
   <v>       0.00462963</v>
   <v>       0.00462963</v>
   <v>       0.00462963</v>
   <v>       0.00231481</v>
   <v>       0.00462963</v>
   <v>       0.00925926</v>
   <v>       0.00925926</v>
   <v>       0.00925926</v>
   <v>       0.00925926</v>
   <v>       0.00925926</v>
   <v>       0.00462963</v>
   <v>       0.00462963</v>
   <v>       0.00925926</v>
   <v>       0.00925926</v>
   <v>       0.00925926</v>
   <v>       0.00925926</v>
   <v>       0.00925926</v>
   <v>       0.00462963</v>
   <v>       0.00231481</v>
   <v>       0.00462963</v>
   <v>       0.00462963</v>
   <v>       0.00462963</v>
   <v>       0.00462963</v>
   <v>       0.00462963</v>
   <v>       0.00231481</v>
   <v>       0.00231481</v>
   <v>       0.00462963</v>
   <v>       0.00462963</v>
   <v>       0.00462963</v>
   <v>       0.00462963</v>
   <v>       0.00462963</v>
   <v>       0.00231481</v>
   <v>       0.00462963</v>
   <v>       0.00925926</v>
   <v>       0.00925926</v>
   <v>       0.00925926</v>
   <v>       0.00925926</v>
   <v>       0.00925926</v>
   <v>       0.00462963</v>
   <v>       0.00231481</v>
   <v>       0.00462963</v>
   <v>       0.00462963</v>
   <v>       0.00462963</v>
   <v>       0.00462963</v>
   <v>       0.00462963</v>
   <v>       0.00231481</v>
   <v>       0.00231481</v>
   <v>       0.00462963</v>
   <v>       0.00462963</v>
   <v>       0.00462963</v>
   <v>       0.00462963</v>
   <v>       0.00462963</v>
   <v>       0.00231481</v>
   <v>       0.00231481</v>
   <v>       0.00462963</v>
   <v>       0.00462963</v>
   <v>       0.00462963</v>
   <v>       0.00462963</v>
   <v>       0.00462963</v>
   <v>       0.00231481</v>
   <v>       0.00057870</v>
   <v>       0.00115741</v>
   <v>       0.00115741</v>
   <v>       0.00115741</v>
   <v>       0.00115741</v>
   <v>       0.00115741</v>
   <v>       0.00057870</v>
  </varray>
 </kpoints>
 <parameters>
  <separator name="general" >
   <i type="string" name="SYSTEM">unknown system</i>
   <i type="logical" name="LCOMPAT"> F  </i>
  </separator>
  <separator name="electronic" >
   <i type="string" name="PREC">accura</i>
   <i name="ENMAX">    750.00000000</i>
   <i name="ENAUG">    516.45600000</i>
   <i name="EDIFF">      0.00000001</i>
   <i type="int" name="IALGO">    38</i>
   <i type="int" name="IWAVPR">    10</i>
   <i type="int" name="NBANDS">   211</i>
   <i name="NELECT">    352.00000000</i>
   <separator name="electronic smearing" >
    <i type="int" name="ISMEAR">     0</i>
    <i name="SIGMA">      0.01000000</i>
   </separator>
   <separator name="electronic projectors" >
    <i type="logical" name="LREAL"> F  </i>
    <v name="ROPT">      0.00000000</v>
    <i type="int" name="LMAXPAW">  -100</i>
    <i type="int" name="LMAXMIX">     2</i>
   </separator>
   <separator name="electronic startup" >
    <i type="int" name="ISTART">     0</i>
    <i type="int" name="ICHARG">     2</i>
    <i type="int" name="INIWAV">     1</i>
   </separator>
   <separator name="electronic spin" >
    <i type="int" name="ISPIN">     1</i>
    <i type="logical" name="LNONCOLLINEAR"> F  </i>
    <v name="MAGMOM">      1.00000000      1.00000000      1.00000000      1.00000000      1.00000000      1.00000000      1.00000000      1.00000000      1.00000000      1.00000000      1.00000000      1.00000000      1.00000000      1.00000000      1.00000000      1.00000000      1.00000000      1.00000000      1.00000000      1.00000000
      1.00000000      1.00000000      1.00000000      1.00000000      1.00000000      1.00000000      1.00000000      1.00000000      1.00000000      1.00000000      1.00000000      1.00000000</v>
    <i name="NUPDOWN">     -1.00000000</i>
    <i type="logical" name="LSORBIT"> F  </i>
    <v name="SAXIS">      0.00000000      0.00000000      1.00000000</v>
    <i type="logical" name="LSPIRAL"> F  </i>
    <v name="QSPIRAL">      0.00000000      0.00000000      0.00000000</v>
    <i type="logical" name="LZEROZ"> F  </i>
   </separator>
   <separator name="electronic exchange-correlation" >
    <i type="string" name="GGA">--</i>
    <i type="int" name="VOSKOWN">     0</i>
    <i type="logical" name="LASPH"> F  </i>
    <i type="logical" name="LMETAGGA"> F  </i>
    <i type="string" name="GGA2">--</i>
   </separator>
   <separator name="electronic convergence" >
    <i type="int" name="NELM">    60</i>
    <i type="int" name="NELMDL">    -5</i>
    <i type="int" name="NELMIN">     2</i>
    <i name="ENINI">    750.00000000</i>
    <separator name="electronic convergence detail" >
     <i type="logical" name="LDIAG"> T  </i>
     <i name="WEIMIN">      0.00000000</i>
     <i name="EBREAK">      0.00000000</i>
     <i name="DEPER">      0.30000000</i>
     <i type="int" name="NRMM">     4</i>
     <i name="TIME">      0.10000000</i>
    </separator>
   </separator>
   <separator name="electronic mixer" >
    <i name="AMIX">      0.40000000</i>
    <i name="BMIX">      1.00000000</i>
    <i name="AMIN">      0.10000000</i>
    <i name="AMIX_MAG">      1.60000000</i>
    <i name="BMIX_MAG">      1.00000000</i>
    <separator name="electronic mixer details" >
     <i type="int" name="IMIX">     4</i>
     <i type="int" name="MAXMIX">   -45</i>
     <i name="WC">    100.00000000</i>
     <i type="int" name="INIMIX">     1</i>
     <i type="int" name="MIXPRE">     1</i>
     <i type="int" name="MREMOVE">     5</i>
    </separator>
   </separator>
   <separator name="electronic dipolcorrection" >
    <i type="int" name="IDIPOL">     0</i>
    <i type="logical" name="LDIPOL"> F  </i>
    <v name="DIPOL">   -100.00000000</v>
    <i name="EFIELD">      0.00000000</i>
   </separator>
  </separator>
  <separator name="grids" >
   <i type="int" name="NGX">    64</i>
   <i type="int" name="NGY">    64</i>
   <i type="int" name="NGZ">    64</i>
   <i type="int" name="NGXF">   128</i>
   <i type="int" name="NGYF">   128</i>
   <i type="int" name="NGZF">   128</i>
   <i type="logical" name="ADDGRID"> T  </i>
  </separator>
  <separator name="ionic" >
   <i type="int" name="NSW">     0</i>
   <i type="int" name="IBRION">    -1</i>
   <i type="int" name="ISIF">     2</i>
   <i name="PSTRESS">      0.00000000</i>
   <i name="EDIFFG">      0.00000010</i>
   <i type="int" name="NFREE">     0</i>
   <i name="POTIM">      0.50000000</i>
   <i name="SMASS">     -3.00000000</i>
  </separator>
  <separator name="ionic md" >
   <i name="TEBEG">      0.00010000</i>
   <i name="TEEND">      0.00010000</i>
   <i type="int" name="NBLOCK">     1</i>
   <i type="int" name="KBLOCK">     1</i>
   <i type="int" name="NPACO">   256</i>
   <i name="APACO">     16.00000000</i>
  </separator>
  <separator name="symmetry" >
   <i type="int" name="ISYM">     2</i>
   <i name="SYMPREC">      0.00001000</i>
  </separator>
  <separator name="dos" >
   <i type="logical" name="LORBIT"> F  </i>
   <v name="RWIGS">     -1.00000000</v>
   <i type="int" name="NEDOS">   301</i>
   <i name="EMIN">     10.00000000</i>
   <i name="EMAX">    -10.00000000</i>
  </separator>
  <separator name="writing" >
   <i type="int" name="NWRITE">     2</i>
   <i type="logical" name="LWAVE"> F  </i>
   <i type="logical" name="LCHARG"> F  </i>
   <i type="logical" name="LPARD"> F  </i>
   <i type="logical" name="LVTOT"> F  </i>
   <i type="logical" name="LELF"> F  </i>
   <i type="logical" name="LOPTICS"> F  </i>
   <i name="STM">      0.00000000</i>
  </separator>
  <separator name="performance" >
   <i type="int" name="NPAR">     4</i>
   <i type="int" name="NSIM">     4</i>
   <i type="int" name="NBLK">   256</i>
   <i type="logical" name="LPLANE"> T  </i>
   <i type="logical" name="LCRITICAL_MEM"> F  </i>
   <i type="logical" name="LSCALAPACK"> F  </i>
   <i type="logical" name="LSCALU"> F  </i>
   <i type="logical" name="LASYNC"> F  </i>
  </separator>
  <separator name="miscellaneous" >
   <i type="int" name="IDIOT">     3</i>
   <i type="logical" name="LMUSIC"> F  </i>
   <v name="POMASS">     63.54600000</v>
   <i type="logical" name="LCORR"> T  </i>
  </separator>
  <i type="logical" name="LREAL_COMPAT"> F  </i>
  <i type="logical" name="GGA_COMPAT"> T  </i>
  <i type="logical" name="LBERRY"> F  </i>
  <i type="int" name="ICORELEVEL">     0</i>
  <i type="logical" name="LDAU"> F  </i>
  <i type="int" name="I_CONSTRAINED_M">     0</i>
 </parameters>
 <atominfo>
  <atoms>      32</atoms>
  <types>       1</types>
  <array name="atoms" >
   <dimension dim="1">ion</dimension>
   <field type="string">element</field>
   <field type="int">atomtype</field>
   <set>
    <rc><c>Cu</c><c>   1</c></rc>
    <rc><c>Cu</c><c>   1</c></rc>
    <rc><c>Cu</c><c>   1</c></rc>
    <rc><c>Cu</c><c>   1</c></rc>
    <rc><c>Cu</c><c>   1</c></rc>
    <rc><c>Cu</c><c>   1</c></rc>
    <rc><c>Cu</c><c>   1</c></rc>
    <rc><c>Cu</c><c>   1</c></rc>
    <rc><c>Cu</c><c>   1</c></rc>
    <rc><c>Cu</c><c>   1</c></rc>
    <rc><c>Cu</c><c>   1</c></rc>
    <rc><c>Cu</c><c>   1</c></rc>
    <rc><c>Cu</c><c>   1</c></rc>
    <rc><c>Cu</c><c>   1</c></rc>
    <rc><c>Cu</c><c>   1</c></rc>
    <rc><c>Cu</c><c>   1</c></rc>
    <rc><c>Cu</c><c>   1</c></rc>
    <rc><c>Cu</c><c>   1</c></rc>
    <rc><c>Cu</c><c>   1</c></rc>
    <rc><c>Cu</c><c>   1</c></rc>
    <rc><c>Cu</c><c>   1</c></rc>
    <rc><c>Cu</c><c>   1</c></rc>
    <rc><c>Cu</c><c>   1</c></rc>
    <rc><c>Cu</c><c>   1</c></rc>
    <rc><c>Cu</c><c>   1</c></rc>
    <rc><c>Cu</c><c>   1</c></rc>
    <rc><c>Cu</c><c>   1</c></rc>
    <rc><c>Cu</c><c>   1</c></rc>
    <rc><c>Cu</c><c>   1</c></rc>
    <rc><c>Cu</c><c>   1</c></rc>
    <rc><c>Cu</c><c>   1</c></rc>
    <rc><c>Cu</c><c>   1</c></rc>
   </set>
  </array>
  <array name="atomtypes" >
   <dimension dim="1">type</dimension>
   <field type="int">atomspertype</field>
   <field type="string">element</field>
   <field>mass</field>
   <field>valence</field>
   <field type="string">pseudopotential</field>
   <set>
    <rc><c>  32</c><c>Cu</c><c>     63.54600000</c><c>     11.00000000</c><c> PAW_PBE Cu 05Jan2001                   </c></rc>
   </set>
  </array>
 </atominfo>
 <structure name="initialpos" >
  <crystal>
   <varray name="basis" >
    <v>       6.98191836      0.00000000      0.00000000</v>
    <v>       0.00000000      6.98191836      0.00000000</v>
    <v>       0.00000000      0.00000000      6.98191836</v>
   </varray>
   <i name="volume">    340.34885865</i>
   <varray name="rec_basis" >
    <v>       0.14322711      0.00000000      0.00000000</v>
    <v>       0.00000000      0.14322711      0.00000000</v>
    <v>       0.00000000      0.00000000      0.14322711</v>
   </varray>
  </crystal>
  <varray name="positions" >
   <v>       0.00143227      0.00000000      0.00000000</v>
   <v>       0.50000000      0.00000000      0.00000000</v>
   <v>       0.00000000      0.50000000      0.00000000</v>
   <v>       0.50000000      0.50000000      0.00000000</v>
   <v>       0.00000000      0.00000000      0.50000000</v>
   <v>       0.50000000      0.00000000      0.50000000</v>
   <v>       0.00000000      0.50000000      0.50000000</v>
   <v>       0.50000000      0.50000000      0.50000000</v>
   <v>       0.25000000      0.25000000      0.00000000</v>
   <v>       0.75000000      0.25000000      0.00000000</v>
   <v>       0.25000000      0.75000000      0.00000000</v>
   <v>       0.75000000      0.75000000      0.00000000</v>
   <v>       0.25000000      0.25000000      0.50000000</v>
   <v>       0.75000000      0.25000000      0.50000000</v>
   <v>       0.25000000      0.75000000      0.50000000</v>
   <v>       0.75000000      0.75000000      0.50000000</v>
   <v>       0.25000000      0.00000000      0.25000000</v>
   <v>       0.75000000      0.00000000      0.25000000</v>
   <v>       0.25000000      0.50000000      0.25000000</v>
   <v>       0.75000000      0.50000000      0.25000000</v>
   <v>       0.25000000      0.00000000      0.75000000</v>
   <v>       0.75000000      0.00000000      0.75000000</v>
   <v>       0.25000000      0.50000000      0.75000000</v>
   <v>       0.75000000      0.50000000      0.75000000</v>
   <v>       0.00000000      0.25000000      0.25000000</v>
   <v>       0.50000000      0.25000000      0.25000000</v>
   <v>       0.00000000      0.75000000      0.25000000</v>
   <v>       0.50000000      0.75000000      0.25000000</v>
   <v>       0.00000000      0.25000000      0.75000000</v>
   <v>       0.50000000      0.25000000      0.75000000</v>
   <v>       0.00000000      0.75000000      0.75000000</v>
   <v>       0.50000000      0.75000000      0.75000000</v>
  </varray>
 </structure>
 <calculation>
  <scstep>
   <time name="dav"> 4714.68 4719.44</time>
   <time name="total"> 4717.15 4721.92</time>
   <energy>
    <i name="alphaZ">   3843.96185696</i>
    <i name="ewald"> -36613.61309859</i>
    <i name="hartreedc">  -9792.78484124</i>
    <i name="XCdc">   1414.88856475</i>
    <i name="pawpsdc">  34625.67335558</i>
    <i name="pawaedc"> -39234.46421604</i>
    <i name="eentropy">     -0.00007121</i>
    <i name="bandstr">   5399.80528084</i>
    <i name="atom">  44511.34040493</i>
    <i name="e_fr_energy">   4154.80723598</i>
    <i name="e_wo_entrp">   4154.80730719</i>
    <i name="e_0_energy">   4154.80727158</i>
   </energy>
  </scstep>
  <scstep>
   <time name="dav"> 4726.99 4731.70</time>
   <time name="total"> 4727.35 4732.06</time>
   <energy>
    <i name="e_fr_energy">    522.50277723</i>
    <i name="e_wo_entrp">    522.50310090</i>
    <i name="e_0_energy">    522.50293907</i>
   </energy>
  </scstep>
  <scstep>
   <time name="dav"> 4701.32 4706.02</time>
   <time name="total"> 4701.68 4706.38</time>
   <energy>
    <i name="e_fr_energy">    -99.71533923</i>
    <i name="e_wo_entrp">    -99.71465615</i>
    <i name="e_0_energy">    -99.71499769</i>
   </energy>
  </scstep>
  <scstep>
   <time name="dav"> 4866.16 4879.15</time>
   <time name="total"> 4866.53 4879.52</time>
   <energy>
    <i name="e_fr_energy">   -144.23678559</i>
    <i name="e_wo_entrp">   -144.23618755</i>
    <i name="e_0_energy">   -144.23648657</i>
   </energy>
  </scstep>
  <scstep>
   <time name="dav"> 4947.61 4960.03</time>
   <time name="total"> 5081.00 5093.76</time>
   <energy>
    <i name="e_fr_energy">   -144.78449196</i>
    <i name="e_wo_entrp">   -144.78388804</i>
    <i name="e_0_energy">   -144.78419000</i>
   </energy>
  </scstep>
  <scstep>
   <time name="dav"> 5047.72 5060.11</time>
   <time name="total"> 5193.81 5206.57</time>
   <energy>
    <i name="e_fr_energy">   -123.63069029</i>
    <i name="e_wo_entrp">   -123.63015472</i>
    <i name="e_0_energy">   -123.63042250</i>
   </energy>
  </scstep>
  <scstep>
   <time name="dav"> 5195.97 5208.66</time>
   <time name="total"> 5336.11 5349.15</time>
   <energy>
    <i name="e_fr_energy">   -116.63952673</i>
    <i name="e_wo_entrp">   -116.63903138</i>
    <i name="e_0_energy">   -116.63927906</i>
   </energy>
  </scstep>
  <scstep>
   <time name="dav"> 4883.60 4892.05</time>
   <time name="total"> 5025.49 5034.13</time>
   <energy>
    <i name="e_fr_energy">   -116.23687539</i>
    <i name="e_wo_entrp">   -116.23632764</i>
    <i name="e_0_energy">   -116.23660151</i>
   </energy>
  </scstep>
  <scstep>
   <time name="dav"> 5507.47 5518.07</time>
   <time name="total"> 5653.59 5665.14</time>
   <energy>
    <i name="e_fr_energy">   -116.18374902</i>
    <i name="e_wo_entrp">   -116.18299428</i>
    <i name="e_0_energy">   -116.18337165</i>
   </energy>
  </scstep>
  <scstep>
   <time name="dav"> 5446.12 5459.05</time>
   <time name="total"> 5592.72 5606.03</time>
   <energy>
    <i name="e_fr_energy">   -116.16970264</i>
    <i name="e_wo_entrp">   -116.16874809</i>
    <i name="e_0_energy">   -116.16922537</i>
   </energy>
  </scstep>
  <scstep>
   <time name="dav"> 4867.30 4878.70</time>
   <time name="total"> 5012.10 5023.86</time>
   <energy>
    <i name="e_fr_energy">   -116.17040235</i>
    <i name="e_wo_entrp">   -116.16945143</i>
    <i name="e_0_energy">   -116.16992689</i>
   </energy>
  </scstep>
  <scstep>
   <time name="dav"> 5012.57 5023.04</time>
   <time name="total"> 5150.79 5161.59</time>
   <energy>
    <i name="e_fr_energy">   -116.17030950</i>
    <i name="e_wo_entrp">   -116.16936376</i>
    <i name="e_0_energy">   -116.16983663</i>
   </energy>
  </scstep>
  <scstep>
   <time name="dav"> 5235.41 5245.52</time>
   <time name="total"> 5391.63 5402.09</time>
   <energy>
    <i name="e_fr_energy">   -116.17030548</i>
    <i name="e_wo_entrp">   -116.16936116</i>
    <i name="e_0_energy">   -116.16983332</i>
   </energy>
  </scstep>
  <scstep>
   <time name="dav"> 5324.62 5334.97</time>
   <time name="total"> 5478.83 5489.54</time>
   <energy>
    <i name="e_fr_energy">   -116.17029735</i>
    <i name="e_wo_entrp">   -116.16935367</i>
    <i name="e_0_energy">   -116.16982551</i>
   </energy>
  </scstep>
  <scstep>
   <time name="dav"> 5202.15 5208.05</time>
   <time name="total"> 5364.80 5370.94</time>
   <energy>
    <i name="e_fr_energy">   -116.17029421</i>
    <i name="e_wo_entrp">   -116.16935112</i>
    <i name="e_0_energy">   -116.16982266</i>
   </energy>
  </scstep>
  <scstep>
   <time name="dav"> 5417.95 5428.28</time>
   <time name="total"> 5572.71 5583.34</time>
   <energy>
    <i name="e_fr_energy">   -116.17029307</i>
    <i name="e_wo_entrp">   -116.16935165</i>
    <i name="e_0_energy">   -116.16982236</i>
   </energy>
  </scstep>
  <scstep>
   <time name="dav"> 5266.14 5278.40</time>
   <time name="total"> 5424.47 5437.12</time>
   <energy>
    <i name="e_fr_energy">   -116.17029891</i>
    <i name="e_wo_entrp">   -116.16935699</i>
    <i name="e_0_energy">   -116.16982795</i>
   </energy>
  </scstep>
  <scstep>
   <time name="dav"> 5117.20 5126.81</time>
   <time name="total"> 5271.19 5281.10</time>
   <energy>
    <i name="e_fr_energy">   -116.17030002</i>
    <i name="e_wo_entrp">   -116.16935802</i>
    <i name="e_0_energy">   -116.16982902</i>
   </energy>
  </scstep>
  <scstep>
   <time name="dav"> 5048.13 5057.73</time>
   <time name="total"> 5204.44 5214.35</time>
   <energy>
    <i name="e_fr_energy">   -116.17030003</i>
    <i name="e_wo_entrp">   -116.16935813</i>
    <i name="e_0_energy">   -116.16982908</i>
   </energy>
  </scstep>
  <scstep>
   <time name="dav"> 3287.39 3293.77</time>
   <time name="total"> 3442.89 3449.57</time>
   <energy>
    <i name="e_fr_energy">   -116.17030034</i>
    <i name="e_wo_entrp">   -116.16935843</i>
    <i name="e_0_energy">   -116.16982939</i>
   </energy>
  </scstep>
  <scstep>
   <time name="dav"> 3222.81 3229.18</time>
   <time name="total"> 3388.93 3395.62</time>
   <energy>
    <i name="e_fr_energy">   -116.17030054</i>
    <i name="e_wo_entrp">   -116.16935862</i>
    <i name="e_0_energy">   -116.16982958</i>
   </energy>
  </scstep>
  <scstep>
   <time name="dav"> 2817.36 2823.07</time>
   <time name="total"> 2820.64 2826.36</time>
   <energy>
    <i name="alphaZ">   3843.96185696</i>
    <i name="ewald"> -36613.61309859</i>
    <i name="hartreedc">  -9060.97832000</i>
    <i name="XCdc">   1377.95570231</i>
    <i name="pawpsdc">  35741.75797718</i>
    <i name="pawaedc"> -40394.02918674</i>
    <i name="eentropy">     -0.00094194</i>
    <i name="bandstr">    477.43530535</i>
    <i name="atom">  44511.34040493</i>
    <i name="e_fr_energy">   -116.17030054</i>
    <i name="e_wo_entrp">   -116.16935859</i>
    <i name="e_0_energy">   -116.16982956</i>
   </energy>
  </scstep>
  <structure>
   <crystal>
    <varray name="basis" >
     <v>       6.98191836      0.00000000      0.00000000</v>
     <v>       0.00000000      6.98191836      0.00000000</v>
     <v>       0.00000000      0.00000000      6.98191836</v>
    </varray>
    <i name="volume">    340.34885865</i>
    <varray name="rec_basis" >
     <v>       0.14322711      0.00000000      0.00000000</v>
     <v>       0.00000000      0.14322711      0.00000000</v>
     <v>       0.00000000      0.00000000      0.14322711</v>
    </varray>
   </crystal>
   <varray name="positions" >
    <v>       0.00143227      0.00000000      0.00000000</v>
    <v>       0.50000000      0.00000000      0.00000000</v>
    <v>       0.00000000      0.50000000      0.00000000</v>
    <v>       0.50000000      0.50000000      0.00000000</v>
    <v>       0.00000000      0.00000000      0.50000000</v>
    <v>       0.50000000      0.00000000      0.50000000</v>
    <v>       0.00000000      0.50000000      0.50000000</v>
    <v>       0.50000000      0.50000000      0.50000000</v>
    <v>       0.25000000      0.25000000      0.00000000</v>
    <v>       0.75000000      0.25000000      0.00000000</v>
    <v>       0.25000000      0.75000000      0.00000000</v>
    <v>       0.75000000      0.75000000      0.00000000</v>
    <v>       0.25000000      0.25000000      0.50000000</v>
    <v>       0.75000000      0.25000000      0.50000000</v>
    <v>       0.25000000      0.75000000      0.50000000</v>
    <v>       0.75000000      0.75000000      0.50000000</v>
    <v>       0.25000000      0.00000000      0.25000000</v>
    <v>       0.75000000      0.00000000      0.25000000</v>
    <v>       0.25000000      0.50000000      0.25000000</v>
    <v>       0.75000000      0.50000000      0.25000000</v>
    <v>       0.25000000      0.00000000      0.75000000</v>
    <v>       0.75000000      0.00000000      0.75000000</v>
    <v>       0.25000000      0.50000000      0.75000000</v>
    <v>       0.75000000      0.50000000      0.75000000</v>
    <v>       0.00000000      0.25000000      0.25000000</v>
    <v>       0.50000000      0.25000000      0.25000000</v>
    <v>       0.00000000      0.75000000      0.25000000</v>
    <v>       0.50000000      0.75000000      0.25000000</v>
    <v>       0.00000000      0.25000000      0.75000000</v>
    <v>       0.50000000      0.25000000      0.75000000</v>
    <v>       0.00000000      0.75000000      0.75000000</v>
    <v>       0.50000000      0.75000000      0.75000000</v>
   </varray>
  </structure>
  <varray name="forces" >
   <v>      -0.10749263      0.00000000     -0.00000000</v>
   <v>       0.00120863      0.00000000      0.00000000</v>
   <v>      -0.00048094      0.00000000     -0.00000000</v>
   <v>       0.00056617     -0.00000000     -0.00000000</v>
   <v>      -0.00048094      0.00000000     -0.00000000</v>
   <v>       0.00056617      0.00000000      0.00000000</v>
   <v>       0.00005375      0.00000000     -0.00000000</v>
   <v>      -0.00018046      0.00000000      0.00000000</v>
   <v>       0.01380623      0.01627315     -0.00000000</v>
   <v>       0.01343111     -0.01571696      0.00000000</v>
   <v>       0.01380623     -0.01627315      0.00000000</v>
   <v>       0.01343111      0.01571696      0.00000000</v>
   <v>       0.00018665      0.00022469     -0.00000000</v>
   <v>       0.00018472     -0.00022536     -0.00000000</v>
   <v>       0.00018665     -0.00022469      0.00000000</v>
   <v>       0.00018472      0.00022536     -0.00000000</v>
   <v>       0.01380623      0.00000000      0.01627315</v>
   <v>       0.01343111     -0.00000000     -0.01571696</v>
   <v>       0.00018665     -0.00000000      0.00022469</v>
   <v>       0.00018472      0.00000000     -0.00022536</v>
   <v>       0.01380623      0.00000000     -0.01627315</v>
   <v>       0.01343111     -0.00000000      0.01571696</v>
   <v>       0.00018665     -0.00000000     -0.00022469</v>
   <v>       0.00018472      0.00000000      0.00022536</v>
   <v>      -0.00172332     -0.00003450     -0.00003450</v>
   <v>       0.00067467      0.00000277      0.00000277</v>
   <v>      -0.00172332      0.00003450     -0.00003450</v>
   <v>       0.00067467     -0.00000277      0.00000277</v>
   <v>      -0.00172332     -0.00003450      0.00003450</v>
   <v>       0.00067467      0.00000277     -0.00000277</v>
   <v>      -0.00172332      0.00003450      0.00003450</v>
   <v>       0.00067467     -0.00000277     -0.00000277</v>
  </varray>
  <varray name="stress" >
   <v>     229.23511200      0.00000000     -0.00000000</v>
   <v>       0.00000000    229.23545746      0.00000000</v>
   <v>       0.00000000      0.00000000    229.23545746</v>
  </varray>
  <energy>
   <i name="e_fr_energy">   -116.17030054</i>
   <i name="e_wo_entrp">   -116.16982956</i>
   <i name="e_0_energy">     -0.00094194</i>
  </energy>
  <eigenvalues>
   <array>
    <dimension dim="1">band</dimension>
    <dimension dim="2">kpoint</dimension>
    <dimension dim="3">spin</dimension>
    <field>eigene</field>
    <field>occ</field>
    <set>
     <set comment="spin 1">
      <set comment="kpoint 1">
       <r>  -5.4321  1.0000</r>
       <r>  -2.4923  1.0000</r>
       <r>  -2.4889  1.0000</r>
       <r>  -2.4889  1.0000</r>
       <r>  -2.4889  1.0000</r>
       <r>  -2.4889  1.0000</r>
       <r>  -2.4855  1.0000</r>
       <r>  -0.9760  1.0000</r>
       <r>  -0.9760  1.0000</r>
       <r>  -0.9760  1.0000</r>
       <r>  -0.9760  1.0000</r>
       <r>  -0.8133  1.0000</r>
       <r>  -0.8133  1.0000</r>
       <r>  -0.8133  1.0000</r>
       <r>  -0.5015  1.0000</r>
       <r>  -0.4994  1.0000</r>
       <r>  -0.4994  1.0000</r>
       <r>  -0.4981  1.0000</r>
       <r>  -0.4978  1.0000</r>
       <r>  -0.4978  1.0000</r>
       <r>  -0.4978  1.0000</r>
       <r>  -0.4978  1.0000</r>
       <r>  -0.4975  1.0000</r>
       <r>  -0.4962  1.0000</r>
       <r>  -0.4962  1.0000</r>
       <r>  -0.4941  1.0000</r>
       <r>  -0.2891  1.0000</r>
       <r>  -0.2890  1.0000</r>
       <r>  -0.2890  1.0000</r>
       <r>   0.0246  1.0000</r>
       <r>   0.0270  1.0000</r>
       <r>   0.0270  1.0000</r>
       <r>   0.0270  1.0000</r>
       <r>   0.0270  1.0000</r>
       <r>   0.0294  1.0000</r>
       <r>   0.5008  1.0000</r>
       <r>   0.5030  1.0000</r>
       <r>   0.5030  1.0000</r>
       <r>   0.5030  1.0000</r>
       <r>   0.5030  1.0000</r>
       <r>   0.5051  1.0000</r>
       <r>   0.7441  1.0000</r>
       <r>   0.7443  1.0000</r>
       <r>   0.7443  1.0000</r>
       <r>   0.7468  1.0000</r>
       <r>   0.7468  1.0000</r>
       <r>   0.7469  1.0000</r>
       <r>   0.7469  1.0000</r>
       <r>   0.7469  1.0000</r>
       <r>   0.7471  1.0000</r>
       <r>   0.7471  1.0000</r>
       <r>   0.7486  1.0000</r>
       <r>   0.7486  1.0000</r>
       <r>   0.7499  1.0000</r>
       <r>   0.7514  1.0000</r>
       <r>   0.7514  1.0000</r>
       <r>   0.7520  1.0000</r>
       <r>   0.7520  1.0000</r>
       <r>   0.7521  1.0000</r>
       <r>   0.7521  1.0000</r>
       <r>   0.7521  1.0000</r>
       <r>   0.7521  1.0000</r>
       <r>   0.7536  1.0000</r>
       <r>   0.7536  1.0000</r>
       <r>   0.7570  1.0000</r>
       <r>   0.9852  1.0000</r>
       <r>   0.9882  1.0000</r>
       <r>   0.9882  1.0000</r>
       <r>   0.9886  1.0000</r>
       <r>   0.9889  1.0000</r>
       <r>   0.9889  1.0000</r>
       <r>   0.9889  1.0000</r>
       <r>   0.9889  1.0000</r>
       <r>   0.9892  1.0000</r>
       <r>   0.9896  1.0000</r>
       <r>   0.9896  1.0000</r>
       <r>   0.9926  1.0000</r>
       <r>   1.3092  1.0000</r>
       <r>   1.3092  1.0000</r>
       <r>   1.3092  1.0000</r>
       <r>   1.3092  1.0000</r>
       <r>   1.3092  1.0000</r>
       <r>   1.3092  1.0000</r>
       <r>   1.3092  1.0000</r>
       <r>   1.3092  1.0000</r>
       <r>   1.3479  1.0000</r>
       <r>   1.3479  1.0000</r>
       <r>   1.3480  1.0000</r>
       <r>   1.7815  1.0000</r>
       <r>   1.7836  1.0000</r>
       <r>   1.7836  1.0000</r>
       <r>   1.7836  1.0000</r>
       <r>   1.7836  1.0000</r>
       <r>   1.7857  1.0000</r>
       <r>   1.9313  1.0000</r>
       <r>   1.9319  1.0000</r>
       <r>   1.9329  1.0000</r>
       <r>   1.9329  1.0000</r>
       <r>   1.9336  1.0000</r>
       <r>   1.9336  1.0000</r>
       <r>   1.9336  1.0000</r>
       <r>   1.9336  1.0000</r>
       <r>   1.9342  1.0000</r>
       <r>   1.9342  1.0000</r>
       <r>   1.9353  1.0000</r>
       <r>   1.9357  1.0000</r>
       <r>   2.1194  1.0000</r>
       <r>   2.1194  1.0000</r>
       <r>   2.1216  1.0000</r>
       <r>   2.1216  1.0000</r>
       <r>   2.1219  1.0000</r>
       <r>   2.1219  1.0000</r>
       <r>   2.1219  1.0000</r>
       <r>   2.1219  1.0000</r>
       <r>   2.1221  1.0000</r>
       <r>   2.1221  1.0000</r>
       <r>   2.1242  1.0000</r>
       <r>   2.1242  1.0000</r>
       <r>   2.2685  1.0000</r>
       <r>   2.2699  1.0000</r>
       <r>   2.2699  1.0000</r>
       <r>   2.2699  1.0000</r>
       <r>   2.2699  1.0000</r>
       <r>   2.2712  1.0000</r>
       <r>   2.3094  1.0000</r>
       <r>   2.3094  1.0000</r>
       <r>   2.3112  1.0000</r>
       <r>   2.3117  1.0000</r>
       <r>   2.3117  1.0000</r>
       <r>   2.3118  1.0000</r>
       <r>   2.3118  1.0000</r>
       <r>   2.3118  1.0000</r>
       <r>   2.3119  1.0000</r>
       <r>   2.3124  1.0000</r>
       <r>   2.3143  1.0000</r>
       <r>   2.3143  1.0000</r>
       <r>   2.3220  1.0000</r>
       <r>   2.3222  1.0000</r>
       <r>   2.6398  1.0000</r>
       <r>   2.6409  1.0000</r>
       <r>   2.6409  1.0000</r>
       <r>   2.6409  1.0000</r>
       <r>   2.6409  1.0000</r>
       <r>   2.6420  1.0000</r>
       <r>   2.9676  1.0000</r>
       <r>   2.9676  1.0000</r>
       <r>   2.9676  1.0000</r>
       <r>   2.9841  1.0000</r>
       <r>   2.9841  1.0000</r>
       <r>   2.9841  1.0000</r>
       <r>   2.9841  1.0000</r>
       <r>   2.9841  1.0000</r>
       <r>   2.9841  1.0000</r>
       <r>   2.9841  1.0000</r>
       <r>   2.9841  1.0000</r>
       <r>   3.1486  1.0000</r>
       <r>   3.1492  1.0000</r>
       <r>   3.1492  1.0000</r>
       <r>   3.1492  1.0000</r>
       <r>   3.1492  1.0000</r>
       <r>   3.1492  1.0000</r>
       <r>   3.1501  1.0000</r>
       <r>   3.1501  1.0000</r>
       <r>   3.1501  1.0000</r>
       <r>   3.1502  1.0000</r>
       <r>   3.1502  1.0000</r>
       <r>   3.1507  1.0000</r>
       <r>   3.4330  1.0000</r>
       <r>   3.4330  1.0000</r>
       <r>   3.4330  1.0000</r>
       <r>   3.4330  1.0000</r>
       <r>   4.4729  1.0000</r>
       <r>   4.4730  1.0000</r>
       <r>   4.4730  1.0000</r>
       <r>   4.4741  1.0000</r>
       <r>   4.4745  1.0000</r>
       <r>   4.4745  1.0000</r>
       <r>   4.4745  1.0000</r>
       <r>   4.4745  1.0000</r>
       <r>   4.4748  1.0000</r>
       <r>   4.4759  1.0000</r>
       <r>   4.4759  1.0000</r>
       <r>   4.4760  1.0000</r>
       <r>   6.1840  0.0000</r>
       <r>   6.1840  0.0000</r>
       <r>   6.1840  0.0000</r>
       <r>   9.0566  0.0000</r>
       <r>   9.0566  0.0000</r>
       <r>   9.0566  0.0000</r>
       <r>   9.0567  0.0000</r>
       <r>  11.3815  0.0000</r>
       <r>  11.3815  0.0000</r>
       <r>  11.3853  0.0000</r>
       <r>  11.3853  0.0000</r>
       <r>  11.3858  0.0000</r>
       <r>  11.3858  0.0000</r>
       <r>  11.3858  0.0000</r>
       <r>  11.3858  0.0000</r>
       <r>  11.3863  0.0000</r>
       <r>  11.3863  0.0000</r>
       <r>  11.3900  0.0000</r>
       <r>  11.3900  0.0000</r>
       <r>  12.6307  0.0000</r>
       <r>  12.6308  0.0000</r>
       <r>  12.6308  0.0000</r>
       <r>  13.6009  0.0000</r>
       <r>  13.6038  0.0000</r>
       <r>  13.6038  0.0000</r>
       <r>  13.6038  0.0000</r>
       <r>  13.6038  0.0000</r>
       <r>  13.6066  0.0000</r>
       <r>  14.6172  0.0000</r>
      </set>
      <set comment="kpoint 2">
       <r>  -5.4093  1.0000</r>
       <r>  -2.8942  1.0000</r>
       <r>  -2.4705  1.0000</r>
       <r>  -2.4705  1.0000</r>
       <r>  -2.4705  1.0000</r>
       <r>  -2.4705  1.0000</r>
       <r>  -2.0926  1.0000</r>
       <r>  -0.9701  1.0000</r>
       <r>  -0.9701  1.0000</r>
       <r>  -0.9701  1.0000</r>
       <r>  -0.9701  1.0000</r>
       <r>  -0.8125  1.0000</r>
       <r>  -0.8020  1.0000</r>
       <r>  -0.8020  1.0000</r>
       <r>  -0.7183  1.0000</r>
       <r>  -0.7183  1.0000</r>
       <r>  -0.7183  1.0000</r>
       <r>  -0.7183  1.0000</r>
       <r>  -0.5106  1.0000</r>
       <r>  -0.5106  1.0000</r>
       <r>  -0.5106  1.0000</r>
       <r>  -0.5106  1.0000</r>
       <r>  -0.2973  1.0000</r>
       <r>  -0.2973  1.0000</r>
       <r>  -0.2973  1.0000</r>
       <r>  -0.2973  1.0000</r>
       <r>  -0.2825  1.0000</r>
       <r>  -0.2821  1.0000</r>
       <r>  -0.2821  1.0000</r>
       <r>   0.0074  1.0000</r>
       <r>   0.0077  1.0000</r>
       <r>   0.0360  1.0000</r>
       <r>   0.0360  1.0000</r>
       <r>   0.0360  1.0000</r>
       <r>   0.0361  1.0000</r>
       <r>   0.3967  1.0000</r>
       <r>   0.5058  1.0000</r>
       <r>   0.5058  1.0000</r>
       <r>   0.5058  1.0000</r>
       <r>   0.5058  1.0000</r>
       <r>   0.5783  1.0000</r>
       <r>   0.5783  1.0000</r>
       <r>   0.6101  1.0000</r>
       <r>   0.7321  1.0000</r>
       <r>   0.7327  1.0000</r>
       <r>   0.7327  1.0000</r>
       <r>   0.7328  1.0000</r>
       <r>   0.7377  1.0000</r>
       <r>   0.7378  1.0000</r>
       <r>   0.7378  1.0000</r>
       <r>   0.7378  1.0000</r>
       <r>   0.7478  1.0000</r>
       <r>   0.7479  1.0000</r>
       <r>   0.7480  1.0000</r>
       <r>   0.7480  1.0000</r>
       <r>   0.7663  1.0000</r>
       <r>   0.7664  1.0000</r>
       <r>   0.7664  1.0000</r>
       <r>   0.7666  1.0000</r>
       <r>   0.7782  1.0000</r>
       <r>   0.7782  1.0000</r>
       <r>   0.7782  1.0000</r>
       <r>   0.7788  1.0000</r>
       <r>   0.9026  1.0000</r>
       <r>   0.9026  1.0000</r>
       <r>   0.9026  1.0000</r>
       <r>   0.9026  1.0000</r>
       <r>   0.9309  1.0000</r>
       <r>   0.9309  1.0000</r>
       <r>   0.9955  1.0000</r>
       <r>   0.9955  1.0000</r>
       <r>   0.9955  1.0000</r>
       <r>   0.9955  1.0000</r>
       <r>   1.0605  1.0000</r>
       <r>   1.0605  1.0000</r>
       <r>   1.0605  1.0000</r>
       <r>   1.0606  1.0000</r>
       <r>   1.3042  1.0000</r>
       <r>   1.3042  1.0000</r>
       <r>   1.3042  1.0000</r>
       <r>   1.3042  1.0000</r>
       <r>   1.3156  1.0000</r>
       <r>   1.3156  1.0000</r>
       <r>   1.3156  1.0000</r>
       <r>   1.3156  1.0000</r>
       <r>   1.3405  1.0000</r>
       <r>   1.3538  1.0000</r>
       <r>   1.3538  1.0000</r>
       <r>   1.7483  1.0000</r>
       <r>   1.7483  1.0000</r>
       <r>   1.7483  1.0000</r>
       <r>   1.7483  1.0000</r>
       <r>   1.7923  1.0000</r>
       <r>   1.8227  1.0000</r>
       <r>   1.9060  1.0000</r>
       <r>   1.9061  1.0000</r>
       <r>   1.9061  1.0000</r>
       <r>   1.9061  1.0000</r>
       <r>   1.9315  1.0000</r>
       <r>   1.9315  1.0000</r>
       <r>   1.9315  1.0000</r>
       <r>   1.9315  1.0000</r>
       <r>   1.9623  1.0000</r>
       <r>   1.9623  1.0000</r>
       <r>   1.9624  1.0000</r>
       <r>   1.9624  1.0000</r>
       <r>   2.0093  1.0000</r>
       <r>   2.0093  1.0000</r>
       <r>   2.1217  1.0000</r>
       <r>   2.1217  1.0000</r>
       <r>   2.1218  1.0000</r>
       <r>   2.1218  1.0000</r>
       <r>   2.1518  1.0000</r>
       <r>   2.1518  1.0000</r>
       <r>   2.1518  1.0000</r>
       <r>   2.1518  1.0000</r>
       <r>   2.2384  1.0000</r>
       <r>   2.2384  1.0000</r>
       <r>   2.2581  1.0000</r>
       <r>   2.2581  1.0000</r>
       <r>   2.2581  1.0000</r>
       <r>   2.2581  1.0000</r>
       <r>   2.2698  1.0000</r>
       <r>   2.2699  1.0000</r>
       <r>   2.2700  1.0000</r>
       <r>   2.2700  1.0000</r>
       <r>   2.2869  1.0000</r>
       <r>   2.2870  1.0000</r>
       <r>   2.3152  1.0000</r>
       <r>   2.3246  1.0000</r>
       <r>   2.3401  1.0000</r>
       <r>   2.3401  1.0000</r>
       <r>   2.3401  1.0000</r>
       <r>   2.3403  1.0000</r>
       <r>   2.3766  1.0000</r>
       <r>   2.3766  1.0000</r>
       <r>   2.3766  1.0000</r>
       <r>   2.3766  1.0000</r>
       <r>   2.5988  1.0000</r>
       <r>   2.6482  1.0000</r>
       <r>   2.6482  1.0000</r>
       <r>   2.6482  1.0000</r>
       <r>   2.6482  1.0000</r>
       <r>   2.6831  1.0000</r>
       <r>   2.8520  1.0000</r>
       <r>   2.8520  1.0000</r>
       <r>   2.8520  1.0000</r>
       <r>   2.8520  1.0000</r>
       <r>   2.9588  1.0000</r>
       <r>   2.9588  1.0000</r>
       <r>   2.9648  1.0000</r>
       <r>   2.9769  1.0000</r>
       <r>   2.9769  1.0000</r>
       <r>   2.9769  1.0000</r>
       <r>   2.9769  1.0000</r>
       <r>   3.1004  1.0000</r>
       <r>   3.1004  1.0000</r>
       <r>   3.1388  1.0000</r>
       <r>   3.1388  1.0000</r>
       <r>   3.1389  1.0000</r>
       <r>   3.1389  1.0000</r>
       <r>   3.1389  1.0000</r>
       <r>   3.1389  1.0000</r>
       <r>   3.1486  1.0000</r>
       <r>   3.1492  1.0000</r>
       <r>   3.1501  1.0000</r>
       <r>   3.1507  1.0000</r>
       <r>   3.5448  1.0000</r>
       <r>   3.5448  1.0000</r>
       <r>   3.5448  1.0000</r>
       <r>   3.5448  1.0000</r>
       <r>   4.1773  1.0000</r>
       <r>   4.1773  1.0000</r>
       <r>   4.1773  1.0000</r>
       <r>   4.1773  1.0000</r>
       <r>   4.4701  1.0000</r>
       <r>   4.4701  1.0000</r>
       <r>   4.4701  1.0000</r>
       <r>   4.4701  1.0000</r>
       <r>   4.8183  0.0000</r>
       <r>   4.8183  0.0000</r>
       <r>   4.8183  0.0000</r>
       <r>   4.8183  0.0000</r>
       <r>   6.0433  0.0000</r>
       <r>   6.2526  0.0000</r>
       <r>   6.2526  0.0000</r>
       <r>   9.1157  0.0000</r>
       <r>   9.1157  0.0000</r>
       <r>   9.1157  0.0000</r>
       <r>   9.1157  0.0000</r>
       <r>  10.7618  0.0000</r>
       <r>  10.7618  0.0000</r>
       <r>  11.0677  0.0000</r>
       <r>  11.0677  0.0000</r>
       <r>  11.0678  0.0000</r>
       <r>  11.0678  0.0000</r>
       <r>  11.4171  0.0000</r>
       <r>  11.4171  0.0000</r>
       <r>  11.4172  0.0000</r>
       <r>  11.4172  0.0000</r>
       <r>  12.0296  0.0000</r>
       <r>  12.0296  0.0000</r>
       <r>  12.6378  0.0000</r>
       <r>  12.6378  0.0000</r>
       <r>  12.8143  0.0000</r>
       <r>  13.5458  0.0000</r>
       <r>  13.5458  0.0000</r>
       <r>  13.8071  0.0000</r>
       <r>  13.8071  0.0000</r>
       <r>  13.8071  0.0000</r>
       <r>  13.8071  0.0000</r>
       <r>  14.6430  0.0000</r>
      </set>
      <set comment="kpoint 3">
       <r>  -5.3409  1.0000</r>
       <r>  -3.2924  1.0000</r>
       <r>  -2.4158  1.0000</r>
       <r>  -2.4158  1.0000</r>
       <r>  -2.4158  1.0000</r>
       <r>  -2.4158  1.0000</r>
       <r>  -1.7267  1.0000</r>
       <r>  -0.9538  1.0000</r>
       <r>  -0.9528  1.0000</r>
       <r>  -0.9528  1.0000</r>
       <r>  -0.9526  1.0000</r>
       <r>  -0.9526  1.0000</r>
       <r>  -0.9524  1.0000</r>
       <r>  -0.9524  1.0000</r>
       <r>  -0.9514  1.0000</r>
       <r>  -0.8109  1.0000</r>
       <r>  -0.7685  1.0000</r>
       <r>  -0.7684  1.0000</r>
       <r>  -0.5462  1.0000</r>
       <r>  -0.5462  1.0000</r>
       <r>  -0.5462  1.0000</r>
       <r>  -0.5462  1.0000</r>
       <r>  -0.2629  1.0000</r>
       <r>  -0.2612  1.0000</r>
       <r>  -0.2612  1.0000</r>
       <r>  -0.1205  1.0000</r>
       <r>  -0.1205  1.0000</r>
       <r>  -0.1205  1.0000</r>
       <r>  -0.1205  1.0000</r>
       <r>  -0.0474  1.0000</r>
       <r>  -0.0473  1.0000</r>
       <r>   0.0626  1.0000</r>
       <r>   0.0626  1.0000</r>
       <r>   0.0626  1.0000</r>
       <r>   0.0626  1.0000</r>
       <r>   0.2931  1.0000</r>
       <r>   0.4249  1.0000</r>
       <r>   0.4249  1.0000</r>
       <r>   0.5142  1.0000</r>
       <r>   0.5143  1.0000</r>
       <r>   0.5143  1.0000</r>
       <r>   0.5143  1.0000</r>
       <r>   0.7089  1.0000</r>
       <r>   0.7091  1.0000</r>
       <r>   0.7091  1.0000</r>
       <r>   0.7092  1.0000</r>
       <r>   0.7108  1.0000</r>
       <r>   0.7108  1.0000</r>
       <r>   0.7109  1.0000</r>
       <r>   0.7109  1.0000</r>
       <r>   0.7163  1.0000</r>
       <r>   0.7507  1.0000</r>
       <r>   0.7508  1.0000</r>
       <r>   0.7508  1.0000</r>
       <r>   0.7508  1.0000</r>
       <r>   0.7756  1.0000</r>
       <r>   0.7756  1.0000</r>
       <r>   0.7756  1.0000</r>
       <r>   0.7760  1.0000</r>
       <r>   0.8051  1.0000</r>
       <r>   0.8051  1.0000</r>
       <r>   0.8051  1.0000</r>
       <r>   0.8051  1.0000</r>
       <r>   0.8536  1.0000</r>
       <r>   0.8536  1.0000</r>
       <r>   0.8536  1.0000</r>
       <r>   0.8537  1.0000</r>
       <r>   1.0152  1.0000</r>
       <r>   1.0152  1.0000</r>
       <r>   1.0152  1.0000</r>
       <r>   1.0152  1.0000</r>
       <r>   1.1188  1.0000</r>
       <r>   1.1189  1.0000</r>
       <r>   1.1189  1.0000</r>
       <r>   1.1189  1.0000</r>
       <r>   1.1296  1.0000</r>
       <r>   1.1296  1.0000</r>
       <r>   1.2894  1.0000</r>
       <r>   1.2894  1.0000</r>
       <r>   1.2894  1.0000</r>
       <r>   1.2894  1.0000</r>
       <r>   1.3182  1.0000</r>
       <r>   1.3347  1.0000</r>
       <r>   1.3347  1.0000</r>
       <r>   1.3347  1.0000</r>
       <r>   1.3347  1.0000</r>
       <r>   1.3713  1.0000</r>
       <r>   1.3713  1.0000</r>
       <r>   1.6699  1.0000</r>
       <r>   1.6700  1.0000</r>
       <r>   1.6700  1.0000</r>
       <r>   1.6700  1.0000</r>
       <r>   1.8322  1.0000</r>
       <r>   1.8409  1.0000</r>
       <r>   1.8410  1.0000</r>
       <r>   1.8410  1.0000</r>
       <r>   1.8410  1.0000</r>
       <r>   1.9024  1.0000</r>
       <r>   1.9024  1.0000</r>
       <r>   1.9308  1.0000</r>
       <r>   1.9570  1.0000</r>
       <r>   1.9570  1.0000</r>
       <r>   1.9570  1.0000</r>
       <r>   1.9573  1.0000</r>
       <r>   2.0106  1.0000</r>
       <r>   2.0106  1.0000</r>
       <r>   2.0106  1.0000</r>
       <r>   2.0107  1.0000</r>
       <r>   2.1217  1.0000</r>
       <r>   2.1217  1.0000</r>
       <r>   2.1217  1.0000</r>
       <r>   2.1217  1.0000</r>
       <r>   2.2086  1.0000</r>
       <r>   2.2086  1.0000</r>
       <r>   2.2087  1.0000</r>
       <r>   2.2088  1.0000</r>
       <r>   2.2153  1.0000</r>
       <r>   2.2153  1.0000</r>
       <r>   2.2155  1.0000</r>
       <r>   2.2155  1.0000</r>
       <r>   2.2692  1.0000</r>
       <r>   2.2692  1.0000</r>
       <r>   2.2692  1.0000</r>
       <r>   2.2692  1.0000</r>
       <r>   2.2950  1.0000</r>
       <r>   2.3325  1.0000</r>
       <r>   2.3350  1.0000</r>
       <r>   2.3353  1.0000</r>
       <r>   2.3576  1.0000</r>
       <r>   2.3576  1.0000</r>
       <r>   2.4076  1.0000</r>
       <r>   2.4076  1.0000</r>
       <r>   2.4076  1.0000</r>
       <r>   2.4076  1.0000</r>
       <r>   2.4517  1.0000</r>
       <r>   2.4517  1.0000</r>
       <r>   2.4517  1.0000</r>
       <r>   2.4517  1.0000</r>
       <r>   2.5576  1.0000</r>
       <r>   2.6032  1.0000</r>
       <r>   2.6032  1.0000</r>
       <r>   2.6032  1.0000</r>
       <r>   2.6032  1.0000</r>
       <r>   2.6758  1.0000</r>
       <r>   2.6758  1.0000</r>
       <r>   2.6758  1.0000</r>
       <r>   2.6758  1.0000</r>
       <r>   2.7247  1.0000</r>
       <r>   2.9326  1.0000</r>
       <r>   2.9327  1.0000</r>
       <r>   2.9554  1.0000</r>
       <r>   2.9554  1.0000</r>
       <r>   2.9554  1.0000</r>
       <r>   2.9554  1.0000</r>
       <r>   2.9564  1.0000</r>
       <r>   2.9658  1.0000</r>
       <r>   2.9658  1.0000</r>
       <r>   3.1060  1.0000</r>
       <r>   3.1060  1.0000</r>
       <r>   3.1060  1.0000</r>
       <r>   3.1060  1.0000</r>
       <r>   3.1081  1.0000</r>
       <r>   3.1081  1.0000</r>
       <r>   3.1487  1.0000</r>
       <r>   3.1493  1.0000</r>
       <r>   3.1501  1.0000</r>
       <r>   3.1507  1.0000</r>
       <r>   3.7341  1.0000</r>
       <r>   3.7342  1.0000</r>
       <r>   3.7342  1.0000</r>
       <r>   3.7342  1.0000</r>
       <r>   3.9180  1.0000</r>
       <r>   3.9180  1.0000</r>
       <r>   3.9180  1.0000</r>
       <r>   3.9180  1.0000</r>
       <r>   4.4568  1.0000</r>
       <r>   4.4568  1.0000</r>
       <r>   4.4568  1.0000</r>
       <r>   4.4568  1.0000</r>
       <r>   5.2168  0.0000</r>
       <r>   5.2168  0.0000</r>
       <r>   5.2168  0.0000</r>
       <r>   5.2169  0.0000</r>
       <r>   5.6647  0.0000</r>
       <r>   6.4465  0.0000</r>
       <r>   6.4465  0.0000</r>
       <r>   9.2912  0.0000</r>
       <r>   9.2912  0.0000</r>
       <r>   9.2912  0.0000</r>
       <r>   9.2912  0.0000</r>
       <r>  10.1588  0.0000</r>
       <r>  10.1588  0.0000</r>
       <r>  10.3933  0.0000</r>
       <r>  10.3933  0.0000</r>
       <r>  10.3933  0.0000</r>
       <r>  10.3933  0.0000</r>
       <r>  11.5106  0.0000</r>
       <r>  11.5106  0.0000</r>
       <r>  11.5106  0.0000</r>
       <r>  11.5106  0.0000</r>
       <r>  12.6591  0.0000</r>
       <r>  12.6591  0.0000</r>
       <r>  12.6920  0.0000</r>
       <r>  12.6920  0.0000</r>
       <r>  13.3226  0.0000</r>
       <r>  13.4151  0.0000</r>
       <r>  13.4152  0.0000</r>
       <r>  13.9464  0.0000</r>
       <r>  13.9465  0.0000</r>
       <r>  13.9466  0.0000</r>
       <r>  13.9479  0.0000</r>
       <r>  14.0683  0.0000</r>
      </set>
      <set comment="kpoint 4">
       <r>  -5.2275  1.0000</r>
       <r>  -3.6715  1.0000</r>
       <r>  -2.3256  1.0000</r>
       <r>  -2.3255  1.0000</r>
       <r>  -2.3255  1.0000</r>
       <r>  -2.3255  1.0000</r>
       <r>  -1.4145  1.0000</r>
       <r>  -1.1924  1.0000</r>
       <r>  -1.1924  1.0000</r>
       <r>  -1.1924  1.0000</r>
       <r>  -1.1924  1.0000</r>
       <r>  -0.9240  1.0000</r>
       <r>  -0.9240  1.0000</r>
       <r>  -0.9240  1.0000</r>
       <r>  -0.9240  1.0000</r>
       <r>  -0.8119  1.0000</r>
       <r>  -0.7139  1.0000</r>
       <r>  -0.7139  1.0000</r>
       <r>  -0.5978  1.0000</r>
       <r>  -0.5978  1.0000</r>
       <r>  -0.5978  1.0000</r>
       <r>  -0.5978  1.0000</r>
       <r>  -0.2305  1.0000</r>
       <r>  -0.2263  1.0000</r>
       <r>  -0.2263  1.0000</r>
       <r>  -0.1302  1.0000</r>
       <r>  -0.1301  1.0000</r>
       <r>   0.0316  1.0000</r>
       <r>   0.0316  1.0000</r>
       <r>   0.0316  1.0000</r>
       <r>   0.0316  1.0000</r>
       <r>   0.1054  1.0000</r>
       <r>   0.1055  1.0000</r>
       <r>   0.1055  1.0000</r>
       <r>   0.1055  1.0000</r>
       <r>   0.1939  1.0000</r>
       <r>   0.2869  1.0000</r>
       <r>   0.2869  1.0000</r>
       <r>   0.5280  1.0000</r>
       <r>   0.5280  1.0000</r>
       <r>   0.5280  1.0000</r>
       <r>   0.5280  1.0000</r>
       <r>   0.6679  1.0000</r>
       <r>   0.6680  1.0000</r>
       <r>   0.6680  1.0000</r>
       <r>   0.6680  1.0000</r>
       <r>   0.6822  1.0000</r>
       <r>   0.6823  1.0000</r>
       <r>   0.6823  1.0000</r>
       <r>   0.6823  1.0000</r>
       <r>   0.7024  1.0000</r>
       <r>   0.7024  1.0000</r>
       <r>   0.7024  1.0000</r>
       <r>   0.7024  1.0000</r>
       <r>   0.7550  1.0000</r>
       <r>   0.7553  1.0000</r>
       <r>   0.7553  1.0000</r>
       <r>   0.7553  1.0000</r>
       <r>   0.7801  1.0000</r>
       <r>   0.7801  1.0000</r>
       <r>   0.7801  1.0000</r>
       <r>   0.7803  1.0000</r>
       <r>   0.8199  1.0000</r>
       <r>   0.9674  1.0000</r>
       <r>   0.9674  1.0000</r>
       <r>   0.9674  1.0000</r>
       <r>   0.9674  1.0000</r>
       <r>   1.0512  1.0000</r>
       <r>   1.0512  1.0000</r>
       <r>   1.0512  1.0000</r>
       <r>   1.0512  1.0000</r>
       <r>   1.1695  1.0000</r>
       <r>   1.1695  1.0000</r>
       <r>   1.1695  1.0000</r>
       <r>   1.1695  1.0000</r>
       <r>   1.2655  1.0000</r>
       <r>   1.2655  1.0000</r>
       <r>   1.2656  1.0000</r>
       <r>   1.2656  1.0000</r>
       <r>   1.2817  1.0000</r>
       <r>   1.3423  1.0000</r>
       <r>   1.3423  1.0000</r>
       <r>   1.3661  1.0000</r>
       <r>   1.3661  1.0000</r>
       <r>   1.3661  1.0000</r>
       <r>   1.3662  1.0000</r>
       <r>   1.4005  1.0000</r>
       <r>   1.4005  1.0000</r>
       <r>   1.5800  1.0000</r>
       <r>   1.5800  1.0000</r>
       <r>   1.5800  1.0000</r>
       <r>   1.5800  1.0000</r>
       <r>   1.7614  1.0000</r>
       <r>   1.7614  1.0000</r>
       <r>   1.7614  1.0000</r>
       <r>   1.7614  1.0000</r>
       <r>   1.8026  1.0000</r>
       <r>   1.8026  1.0000</r>
       <r>   1.8905  1.0000</r>
       <r>   2.0041  1.0000</r>
       <r>   2.0041  1.0000</r>
       <r>   2.0042  1.0000</r>
       <r>   2.0042  1.0000</r>
       <r>   2.0681  1.0000</r>
       <r>   2.0681  1.0000</r>
       <r>   2.0681  1.0000</r>
       <r>   2.0681  1.0000</r>
       <r>   2.1220  1.0000</r>
       <r>   2.1220  1.0000</r>
       <r>   2.1220  1.0000</r>
       <r>   2.1220  1.0000</r>
       <r>   2.1314  1.0000</r>
       <r>   2.1827  1.0000</r>
       <r>   2.1827  1.0000</r>
       <r>   2.1828  1.0000</r>
       <r>   2.1828  1.0000</r>
       <r>   2.2491  1.0000</r>
       <r>   2.2492  1.0000</r>
       <r>   2.2492  1.0000</r>
       <r>   2.2492  1.0000</r>
       <r>   2.2619  1.0000</r>
       <r>   2.2660  1.0000</r>
       <r>   2.2660  1.0000</r>
       <r>   2.2660  1.0000</r>
       <r>   2.2660  1.0000</r>
       <r>   2.3309  1.0000</r>
       <r>   2.3309  1.0000</r>
       <r>   2.3309  1.0000</r>
       <r>   2.3309  1.0000</r>
       <r>   2.3460  1.0000</r>
       <r>   2.4068  1.0000</r>
       <r>   2.4069  1.0000</r>
       <r>   2.4769  1.0000</r>
       <r>   2.4769  1.0000</r>
       <r>   2.4909  1.0000</r>
       <r>   2.4909  1.0000</r>
       <r>   2.4910  1.0000</r>
       <r>   2.4910  1.0000</r>
       <r>   2.5180  1.0000</r>
       <r>   2.5355  1.0000</r>
       <r>   2.5355  1.0000</r>
       <r>   2.5356  1.0000</r>
       <r>   2.5356  1.0000</r>
       <r>   2.7364  1.0000</r>
       <r>   2.7364  1.0000</r>
       <r>   2.7364  1.0000</r>
       <r>   2.7364  1.0000</r>
       <r>   2.7650  1.0000</r>
       <r>   2.7715  1.0000</r>
       <r>   2.7715  1.0000</r>
       <r>   2.8897  1.0000</r>
       <r>   2.8897  1.0000</r>
       <r>   2.9201  1.0000</r>
       <r>   2.9201  1.0000</r>
       <r>   2.9201  1.0000</r>
       <r>   2.9201  1.0000</r>
       <r>   2.9425  1.0000</r>
       <r>   3.0535  1.0000</r>
       <r>   3.0535  1.0000</r>
       <r>   3.0535  1.0000</r>
       <r>   3.0535  1.0000</r>
       <r>   3.0582  1.0000</r>
       <r>   3.0582  1.0000</r>
       <r>   3.1487  1.0000</r>
       <r>   3.1494  1.0000</r>
       <r>   3.1500  1.0000</r>
       <r>   3.1507  1.0000</r>
       <r>   3.6882  1.0000</r>
       <r>   3.6882  1.0000</r>
       <r>   3.6882  1.0000</r>
       <r>   3.6882  1.0000</r>
       <r>   3.9123  1.0000</r>
       <r>   3.9124  1.0000</r>
       <r>   3.9124  1.0000</r>
       <r>   3.9124  1.0000</r>
       <r>   4.4332  1.0000</r>
       <r>   4.4332  1.0000</r>
       <r>   4.4332  1.0000</r>
       <r>   4.4332  1.0000</r>
       <r>   5.1375  0.0000</r>
       <r>   5.6759  0.0000</r>
       <r>   5.6759  0.0000</r>
       <r>   5.6759  0.0000</r>
       <r>   5.6760  0.0000</r>
       <r>   6.7397  0.0000</r>
       <r>   6.7397  0.0000</r>
       <r>   9.5766  0.0000</r>
       <r>   9.5766  0.0000</r>
       <r>   9.5787  0.0000</r>
       <r>   9.5788  0.0000</r>
       <r>   9.5804  0.0000</r>
       <r>   9.5804  0.0000</r>
       <r>   9.6283  0.0000</r>
       <r>   9.6284  0.0000</r>
       <r>   9.6284  0.0000</r>
       <r>   9.6285  0.0000</r>
       <r>  11.6641  0.0000</r>
       <r>  11.6641  0.0000</r>
       <r>  11.6641  0.0000</r>
       <r>  11.6641  0.0000</r>
       <r>  12.6951  0.0000</r>
       <r>  12.6951  0.0000</r>
       <r>  13.1490  0.0000</r>
       <r>  13.1490  0.0000</r>
       <r>  13.1490  0.0000</r>
       <r>  13.1491  0.0000</r>
       <r>  13.2675  0.0000</r>
       <r>  13.2675  0.0000</r>
       <r>  13.3716  0.0000</r>
       <r>  13.3716  0.0000</r>
       <r>  13.6541  0.0000</r>
       <r>  13.6541  0.0000</r>
      </set>
      <set comment="kpoint 5">
       <r>  -5.0696  1.0000</r>
       <r>  -4.0236  1.0000</r>
       <r>  -2.2015  1.0000</r>
       <r>  -2.2014  1.0000</r>
       <r>  -2.2014  1.0000</r>
       <r>  -2.2014  1.0000</r>
       <r>  -1.4292  1.0000</r>
       <r>  -1.4292  1.0000</r>
       <r>  -1.4292  1.0000</r>
       <r>  -1.4292  1.0000</r>
       <r>  -1.1732  1.0000</r>
       <r>  -0.8851  1.0000</r>
       <r>  -0.8851  1.0000</r>
       <r>  -0.8851  1.0000</r>
       <r>  -0.8851  1.0000</r>
       <r>  -0.8210  1.0000</r>
       <r>  -0.6579  1.0000</r>
       <r>  -0.6579  1.0000</r>
       <r>  -0.6579  1.0000</r>
       <r>  -0.6579  1.0000</r>
       <r>  -0.6402  1.0000</r>
       <r>  -0.6402  1.0000</r>
       <r>  -0.2308  1.0000</r>
       <r>  -0.2308  1.0000</r>
       <r>  -0.1858  1.0000</r>
       <r>  -0.1772  1.0000</r>
       <r>  -0.1772  1.0000</r>
       <r>   0.1007  1.0000</r>
       <r>   0.1574  1.0000</r>
       <r>   0.1574  1.0000</r>
       <r>   0.1575  1.0000</r>
       <r>   0.1576  1.0000</r>
       <r>   0.1618  1.0000</r>
       <r>   0.1618  1.0000</r>
       <r>   0.1618  1.0000</r>
       <r>   0.1618  1.0000</r>
       <r>   0.1644  1.0000</r>
       <r>   0.1644  1.0000</r>
       <r>   0.5466  1.0000</r>
       <r>   0.5466  1.0000</r>
       <r>   0.5466  1.0000</r>
       <r>   0.5467  1.0000</r>
       <r>   0.6030  1.0000</r>
       <r>   0.6032  1.0000</r>
       <r>   0.6032  1.0000</r>
       <r>   0.6032  1.0000</r>
       <r>   0.6125  1.0000</r>
       <r>   0.6125  1.0000</r>
       <r>   0.6125  1.0000</r>
       <r>   0.6126  1.0000</r>
       <r>   0.6534  1.0000</r>
       <r>   0.6535  1.0000</r>
       <r>   0.6535  1.0000</r>
       <r>   0.6535  1.0000</r>
       <r>   0.7606  1.0000</r>
       <r>   0.7609  1.0000</r>
       <r>   0.7609  1.0000</r>
       <r>   0.7609  1.0000</r>
       <r>   0.7805  1.0000</r>
       <r>   0.7806  1.0000</r>
       <r>   0.7806  1.0000</r>
       <r>   0.7809  1.0000</r>
       <r>   0.9186  1.0000</r>
       <r>   1.0609  1.0000</r>
       <r>   1.0609  1.0000</r>
       <r>   1.0609  1.0000</r>
       <r>   1.0609  1.0000</r>
       <r>   1.1531  1.0000</r>
       <r>   1.1531  1.0000</r>
       <r>   1.1531  1.0000</r>
       <r>   1.1531  1.0000</r>
       <r>   1.2194  1.0000</r>
       <r>   1.2194  1.0000</r>
       <r>   1.2194  1.0000</r>
       <r>   1.2194  1.0000</r>
       <r>   1.2315  1.0000</r>
       <r>   1.2339  1.0000</r>
       <r>   1.2339  1.0000</r>
       <r>   1.2339  1.0000</r>
       <r>   1.2340  1.0000</r>
       <r>   1.4094  1.0000</r>
       <r>   1.4094  1.0000</r>
       <r>   1.4094  1.0000</r>
       <r>   1.4094  1.0000</r>
       <r>   1.4410  1.0000</r>
       <r>   1.4410  1.0000</r>
       <r>   1.4916  1.0000</r>
       <r>   1.4916  1.0000</r>
       <r>   1.4916  1.0000</r>
       <r>   1.4916  1.0000</r>
       <r>   1.5681  1.0000</r>
       <r>   1.5681  1.0000</r>
       <r>   1.6793  1.0000</r>
       <r>   1.6794  1.0000</r>
       <r>   1.6794  1.0000</r>
       <r>   1.6794  1.0000</r>
       <r>   1.7109  1.0000</r>
       <r>   1.7109  1.0000</r>
       <r>   1.9584  1.0000</r>
       <r>   2.0586  1.0000</r>
       <r>   2.0586  1.0000</r>
       <r>   2.0586  1.0000</r>
       <r>   2.0586  1.0000</r>
       <r>   2.0637  1.0000</r>
       <r>   2.0637  1.0000</r>
       <r>   2.0638  1.0000</r>
       <r>   2.0638  1.0000</r>
       <r>   2.1233  1.0000</r>
       <r>   2.1233  1.0000</r>
       <r>   2.1233  1.0000</r>
       <r>   2.1234  1.0000</r>
       <r>   2.1251  1.0000</r>
       <r>   2.1251  1.0000</r>
       <r>   2.1251  1.0000</r>
       <r>   2.1251  1.0000</r>
       <r>   2.1591  1.0000</r>
       <r>   2.1592  1.0000</r>
       <r>   2.1592  1.0000</r>
       <r>   2.1592  1.0000</r>
       <r>   2.2171  1.0000</r>
       <r>   2.2547  1.0000</r>
       <r>   2.2549  1.0000</r>
       <r>   2.2551  1.0000</r>
       <r>   2.2551  1.0000</r>
       <r>   2.2575  1.0000</r>
       <r>   2.2575  1.0000</r>
       <r>   2.2576  1.0000</r>
       <r>   2.2579  1.0000</r>
       <r>   2.3643  1.0000</r>
       <r>   2.4395  1.0000</r>
       <r>   2.4804  1.0000</r>
       <r>   2.4932  1.0000</r>
       <r>   2.4932  1.0000</r>
       <r>   2.5429  1.0000</r>
       <r>   2.5429  1.0000</r>
       <r>   2.5780  1.0000</r>
       <r>   2.5780  1.0000</r>
       <r>   2.5780  1.0000</r>
       <r>   2.5780  1.0000</r>
       <r>   2.5942  1.0000</r>
       <r>   2.5942  1.0000</r>
       <r>   2.6259  1.0000</r>
       <r>   2.6259  1.0000</r>
       <r>   2.6259  1.0000</r>
       <r>   2.6259  1.0000</r>
       <r>   2.8033  1.0000</r>
       <r>   2.8311  1.0000</r>
       <r>   2.8311  1.0000</r>
       <r>   2.8359  1.0000</r>
       <r>   2.8359  1.0000</r>
       <r>   2.8359  1.0000</r>
       <r>   2.8360  1.0000</r>
       <r>   2.8719  1.0000</r>
       <r>   2.8719  1.0000</r>
       <r>   2.8719  1.0000</r>
       <r>   2.8719  1.0000</r>
       <r>   2.9234  1.0000</r>
       <r>   2.9846  1.0000</r>
       <r>   2.9846  1.0000</r>
       <r>   2.9847  1.0000</r>
       <r>   2.9847  1.0000</r>
       <r>   2.9907  1.0000</r>
       <r>   2.9907  1.0000</r>
       <r>   3.1487  1.0000</r>
       <r>   3.1494  1.0000</r>
       <r>   3.1499  1.0000</r>
       <r>   3.1506  1.0000</r>
       <r>   3.4815  1.0000</r>
       <r>   3.4815  1.0000</r>
       <r>   3.4815  1.0000</r>
       <r>   3.4815  1.0000</r>
       <r>   4.0627  1.0000</r>
       <r>   4.0627  1.0000</r>
       <r>   4.0627  1.0000</r>
       <r>   4.0627  1.0000</r>
       <r>   4.3973  1.0000</r>
       <r>   4.3973  1.0000</r>
       <r>   4.3973  1.0000</r>
       <r>   4.3973  1.0000</r>
       <r>   4.5427  1.0000</r>
       <r>   6.1981  0.0000</r>
       <r>   6.1981  0.0000</r>
       <r>   6.1981  0.0000</r>
       <r>   6.1981  0.0000</r>
       <r>   7.1064  0.0000</r>
       <r>   7.1064  0.0000</r>
       <r>   8.8605  0.0000</r>
       <r>   8.8605  0.0000</r>
       <r>   8.8605  0.0000</r>
       <r>   8.8606  0.0000</r>
       <r>   9.0221  0.0000</r>
       <r>   9.0221  0.0000</r>
       <r>   9.9709  0.0000</r>
       <r>   9.9709  0.0000</r>
       <r>   9.9709  0.0000</r>
       <r>   9.9709  0.0000</r>
       <r>  11.8747  0.0000</r>
       <r>  11.8747  0.0000</r>
       <r>  11.8747  0.0000</r>
       <r>  11.8747  0.0000</r>
       <r>  12.3866  0.0000</r>
       <r>  12.3866  0.0000</r>
       <r>  12.3866  0.0000</r>
       <r>  12.3866  0.0000</r>
       <r>  12.7466  0.0000</r>
       <r>  12.7466  0.0000</r>
       <r>  13.1280  0.0000</r>
       <r>  13.1280  0.0000</r>
       <r>  13.2134  0.0000</r>
       <r>  13.2135  0.0000</r>
       <r>  13.2135  0.0000</r>
       <r>  13.2135  0.0000</r>
      </set>
      <set comment="kpoint 6">
       <r>  -4.8685  1.0000</r>
       <r>  -4.3430  1.0000</r>
       <r>  -2.0459  1.0000</r>
       <r>  -2.0459  1.0000</r>
       <r>  -2.0459  1.0000</r>
       <r>  -2.0459  1.0000</r>
       <r>  -1.6547  1.0000</r>
       <r>  -1.6547  1.0000</r>
       <r>  -1.6547  1.0000</r>
       <r>  -1.6547  1.0000</r>
       <r>  -1.0064  1.0000</r>
       <r>  -0.8474  1.0000</r>
       <r>  -0.8370  1.0000</r>
       <r>  -0.8370  1.0000</r>
       <r>  -0.8370  1.0000</r>
       <r>  -0.8369  1.0000</r>
       <r>  -0.7206  1.0000</r>
       <r>  -0.7206  1.0000</r>
       <r>  -0.7206  1.0000</r>
       <r>  -0.7206  1.0000</r>
       <r>  -0.5505  1.0000</r>
       <r>  -0.5504  1.0000</r>
       <r>  -0.3397  1.0000</r>
       <r>  -0.3397  1.0000</r>
       <r>  -0.1295  1.0000</r>
       <r>  -0.1138  1.0000</r>
       <r>  -0.1138  1.0000</r>
       <r>   0.0149  1.0000</r>
       <r>   0.0567  1.0000</r>
       <r>   0.0567  1.0000</r>
       <r>   0.2245  1.0000</r>
       <r>   0.2245  1.0000</r>
       <r>   0.2245  1.0000</r>
       <r>   0.2245  1.0000</r>
       <r>   0.2484  1.0000</r>
       <r>   0.2484  1.0000</r>
       <r>   0.2484  1.0000</r>
       <r>   0.2484  1.0000</r>
       <r>   0.5242  1.0000</r>
       <r>   0.5242  1.0000</r>
       <r>   0.5243  1.0000</r>
       <r>   0.5243  1.0000</r>
       <r>   0.5510  1.0000</r>
       <r>   0.5510  1.0000</r>
       <r>   0.5511  1.0000</r>
       <r>   0.5511  1.0000</r>
       <r>   0.5694  1.0000</r>
       <r>   0.5695  1.0000</r>
       <r>   0.5695  1.0000</r>
       <r>   0.5695  1.0000</r>
       <r>   0.6241  1.0000</r>
       <r>   0.6241  1.0000</r>
       <r>   0.6241  1.0000</r>
       <r>   0.6241  1.0000</r>
       <r>   0.7665  1.0000</r>
       <r>   0.7670  1.0000</r>
       <r>   0.7670  1.0000</r>
       <r>   0.7671  1.0000</r>
       <r>   0.7779  1.0000</r>
       <r>   0.7779  1.0000</r>
       <r>   0.7779  1.0000</r>
       <r>   0.7785  1.0000</r>
       <r>   1.0107  1.0000</r>
       <r>   1.1094  1.0000</r>
       <r>   1.1094  1.0000</r>
       <r>   1.1095  1.0000</r>
       <r>   1.1095  1.0000</r>
       <r>   1.1687  1.0000</r>
       <r>   1.1960  1.0000</r>
       <r>   1.1960  1.0000</r>
       <r>   1.1960  1.0000</r>
       <r>   1.1960  1.0000</r>
       <r>   1.2743  1.0000</r>
       <r>   1.2743  1.0000</r>
       <r>   1.2743  1.0000</r>
       <r>   1.2743  1.0000</r>
       <r>   1.3372  1.0000</r>
       <r>   1.3372  1.0000</r>
       <r>   1.3372  1.0000</r>
       <r>   1.3372  1.0000</r>
       <r>   1.4099  1.0000</r>
       <r>   1.4099  1.0000</r>
       <r>   1.4099  1.0000</r>
       <r>   1.4100  1.0000</r>
       <r>   1.4637  1.0000</r>
       <r>   1.4637  1.0000</r>
       <r>   1.4637  1.0000</r>
       <r>   1.4637  1.0000</r>
       <r>   1.4928  1.0000</r>
       <r>   1.4928  1.0000</r>
       <r>   1.6005  1.0000</r>
       <r>   1.6005  1.0000</r>
       <r>   1.6005  1.0000</r>
       <r>   1.6005  1.0000</r>
       <r>   1.6282  1.0000</r>
       <r>   1.6282  1.0000</r>
       <r>   1.7977  1.0000</r>
       <r>   1.7977  1.0000</r>
       <r>   1.7977  1.0000</r>
       <r>   1.7977  1.0000</r>
       <r>   1.8050  1.0000</r>
       <r>   1.8050  1.0000</r>
       <r>   2.0293  1.0000</r>
       <r>   2.1263  1.0000</r>
       <r>   2.1263  1.0000</r>
       <r>   2.1264  1.0000</r>
       <r>   2.1265  1.0000</r>
       <r>   2.1265  1.0000</r>
       <r>   2.1266  1.0000</r>
       <r>   2.1267  1.0000</r>
       <r>   2.1267  1.0000</r>
       <r>   2.1429  1.0000</r>
       <r>   2.1429  1.0000</r>
       <r>   2.1429  1.0000</r>
       <r>   2.1430  1.0000</r>
       <r>   2.1619  1.0000</r>
       <r>   2.1748  1.0000</r>
       <r>   2.1748  1.0000</r>
       <r>   2.1748  1.0000</r>
       <r>   2.1748  1.0000</r>
       <r>   2.2303  1.0000</r>
       <r>   2.2303  1.0000</r>
       <r>   2.2304  1.0000</r>
       <r>   2.2304  1.0000</r>
       <r>   2.2408  1.0000</r>
       <r>   2.2408  1.0000</r>
       <r>   2.2408  1.0000</r>
       <r>   2.2409  1.0000</r>
       <r>   2.2984  1.0000</r>
       <r>   2.2984  1.0000</r>
       <r>   2.3873  1.0000</r>
       <r>   2.4459  1.0000</r>
       <r>   2.5850  1.0000</r>
       <r>   2.5850  1.0000</r>
       <r>   2.6627  1.0000</r>
       <r>   2.6627  1.0000</r>
       <r>   2.6627  1.0000</r>
       <r>   2.6627  1.0000</r>
       <r>   2.7069  1.0000</r>
[...]
       <r>   1.5417  1.0000</r>
       <r>   1.5417  1.0000</r>
       <r>   1.5417  1.0000</r>
       <r>   1.5417  1.0000</r>
       <r>   1.5641  1.0000</r>
       <r>   1.5641  1.0000</r>
       <r>   1.5641  1.0000</r>
       <r>   1.5641  1.0000</r>
       <r>   1.9288  1.0000</r>
       <r>   1.9288  1.0000</r>
       <r>   1.9288  1.0000</r>
       <r>   1.9288  1.0000</r>
       <r>   1.9845  1.0000</r>
       <r>   1.9845  1.0000</r>
       <r>   1.9849  1.0000</r>
       <r>   1.9849  1.0000</r>
       <r>   1.9849  1.0000</r>
       <r>   1.9849  1.0000</r>
       <r>   1.9853  1.0000</r>
       <r>   1.9853  1.0000</r>
       <r>   2.2563  1.0000</r>
       <r>   2.2574  1.0000</r>
       <r>   2.2574  1.0000</r>
       <r>   2.2578  1.0000</r>
       <r>   2.2620  1.0000</r>
       <r>   2.2620  1.0000</r>
       <r>   2.2625  1.0000</r>
       <r>   2.2625  1.0000</r>
       <r>   2.2626  1.0000</r>
       <r>   2.2633  1.0000</r>
       <r>   2.2633  1.0000</r>
       <r>   2.2634  1.0000</r>
       <r>   2.2678  1.0000</r>
       <r>   2.2679  1.0000</r>
       <r>   2.2679  1.0000</r>
       <r>   2.2683  1.0000</r>
       <r>   2.4419  1.0000</r>
       <r>   2.4420  1.0000</r>
       <r>   2.4420  1.0000</r>
       <r>   2.4420  1.0000</r>
       <r>   2.4574  1.0000</r>
       <r>   2.4574  1.0000</r>
       <r>   2.4574  1.0000</r>
       <r>   2.4575  1.0000</r>
       <r>   2.5784  1.0000</r>
       <r>   2.5784  1.0000</r>
       <r>   2.5784  1.0000</r>
       <r>   2.5784  1.0000</r>
       <r>   2.9926  1.0000</r>
       <r>   2.9926  1.0000</r>
       <r>   2.9927  1.0000</r>
       <r>   2.9928  1.0000</r>
       <r>   2.9928  1.0000</r>
       <r>   2.9928  1.0000</r>
       <r>   2.9929  1.0000</r>
       <r>   2.9929  1.0000</r>
       <r>   3.0034  1.0000</r>
       <r>   3.0034  1.0000</r>
       <r>   3.0034  1.0000</r>
       <r>   3.0034  1.0000</r>
       <r>   3.0165  1.0000</r>
       <r>   3.0165  1.0000</r>
       <r>   3.0167  1.0000</r>
       <r>   3.0167  1.0000</r>
       <r>   3.0167  1.0000</r>
       <r>   3.0167  1.0000</r>
       <r>   3.0169  1.0000</r>
       <r>   3.0169  1.0000</r>
       <r>   3.0183  1.0000</r>
       <r>   3.0183  1.0000</r>
       <r>   3.0183  1.0000</r>
       <r>   3.0183  1.0000</r>
       <r>   4.6067  1.0000</r>
       <r>   4.6067  1.0000</r>
       <r>   4.6067  1.0000</r>
       <r>   4.6067  1.0000</r>
       <r>   5.3792  0.0000</r>
       <r>   5.3792  0.0000</r>
       <r>   5.3798  0.0000</r>
       <r>   5.3798  0.0000</r>
       <r>   5.3798  0.0000</r>
       <r>   5.3798  0.0000</r>
       <r>   5.3804  0.0000</r>
       <r>   5.3804  0.0000</r>
       <r>   6.2573  0.0000</r>
       <r>   6.2573  0.0000</r>
       <r>   6.2586  0.0000</r>
       <r>   6.2586  0.0000</r>
       <r>   6.2586  0.0000</r>
       <r>   6.2586  0.0000</r>
       <r>   6.2600  0.0000</r>
       <r>   6.2600  0.0000</r>
       <r>   7.1448  0.0000</r>
       <r>   7.1448  0.0000</r>
       <r>   7.1448  0.0000</r>
       <r>   7.1448  0.0000</r>
       <r>  10.8283  0.0000</r>
       <r>  10.8283  0.0000</r>
       <r>  10.8295  0.0000</r>
       <r>  10.8295  0.0000</r>
       <r>  10.8295  0.0000</r>
       <r>  10.8295  0.0000</r>
       <r>  10.8307  0.0000</r>
       <r>  10.8307  0.0000</r>
       <r>  11.5329  0.0000</r>
       <r>  11.5329  0.0000</r>
       <r>  11.5329  0.0000</r>
       <r>  11.5329  0.0000</r>
       <r>  12.7213  0.0000</r>
       <r>  12.7213  0.0000</r>
       <r>  12.7213  0.0000</r>
       <r>  12.7213  0.0000</r>
       <r>  13.4912  0.0000</r>
       <r>  13.4917  0.0000</r>
       <r>  13.4919  0.0000</r>
       <r>  13.4922  0.0000</r>
      </set>
      <set comment="kpoint 195">
       <r>  -3.3691  1.0000</r>
       <r>  -3.3690  1.0000</r>
       <r>  -3.3690  1.0000</r>
       <r>  -3.3690  1.0000</r>
       <r>  -2.9246  1.0000</r>
       <r>  -2.9246  1.0000</r>
       <r>  -2.9246  1.0000</r>
       <r>  -2.9245  1.0000</r>
       <r>  -0.3711  1.0000</r>
       <r>  -0.3710  1.0000</r>
       <r>  -0.3710  1.0000</r>
       <r>  -0.3709  1.0000</r>
       <r>  -0.3139  1.0000</r>
       <r>  -0.3139  1.0000</r>
       <r>  -0.3136  1.0000</r>
       <r>  -0.3135  1.0000</r>
       <r>  -0.3135  1.0000</r>
       <r>  -0.3135  1.0000</r>
       <r>  -0.3132  1.0000</r>
       <r>  -0.3132  1.0000</r>
       <r>  -0.2311  1.0000</r>
       <r>  -0.2311  1.0000</r>
       <r>  -0.2306  1.0000</r>
       <r>  -0.2304  1.0000</r>
       <r>  -0.2304  1.0000</r>
       <r>  -0.2304  1.0000</r>
       <r>  -0.2297  1.0000</r>
       <r>  -0.2297  1.0000</r>
       <r>  -0.2048  1.0000</r>
       <r>  -0.2048  1.0000</r>
       <r>  -0.2048  1.0000</r>
       <r>  -0.2046  1.0000</r>
       <r>   0.2800  1.0000</r>
       <r>   0.2802  1.0000</r>
       <r>   0.2803  1.0000</r>
       <r>   0.2803  1.0000</r>
       <r>   0.2895  1.0000</r>
       <r>   0.2895  1.0000</r>
       <r>   0.2901  1.0000</r>
       <r>   0.2901  1.0000</r>
       <r>   0.2901  1.0000</r>
       <r>   0.2904  1.0000</r>
       <r>   0.2907  1.0000</r>
       <r>   0.2907  1.0000</r>
       <r>   0.4281  1.0000</r>
       <r>   0.4281  1.0000</r>
       <r>   0.4285  1.0000</r>
       <r>   0.4286  1.0000</r>
       <r>   0.4286  1.0000</r>
       <r>   0.4286  1.0000</r>
       <r>   0.4291  1.0000</r>
       <r>   0.4291  1.0000</r>
       <r>   0.4424  1.0000</r>
       <r>   0.4424  1.0000</r>
       <r>   0.4425  1.0000</r>
       <r>   0.4426  1.0000</r>
       <r>   1.0395  1.0000</r>
       <r>   1.0408  1.0000</r>
       <r>   1.0408  1.0000</r>
       <r>   1.0409  1.0000</r>
       <r>   1.0445  1.0000</r>
       <r>   1.0445  1.0000</r>
       <r>   1.0445  1.0000</r>
       <r>   1.0458  1.0000</r>
       <r>   1.3165  1.0000</r>
       <r>   1.3165  1.0000</r>
       <r>   1.3165  1.0000</r>
       <r>   1.3166  1.0000</r>
       <r>   1.3214  1.0000</r>
       <r>   1.3214  1.0000</r>
       <r>   1.3227  1.0000</r>
       <r>   1.3228  1.0000</r>
       <r>   1.3228  1.0000</r>
       <r>   1.3228  1.0000</r>
       <r>   1.3242  1.0000</r>
       <r>   1.3242  1.0000</r>
       <r>   1.4190  1.0000</r>
       <r>   1.4190  1.0000</r>
       <r>   1.4201  1.0000</r>
       <r>   1.4202  1.0000</r>
       <r>   1.4202  1.0000</r>
       <r>   1.4203  1.0000</r>
       <r>   1.4214  1.0000</r>
       <r>   1.4214  1.0000</r>
       <r>   1.4348  1.0000</r>
       <r>   1.4348  1.0000</r>
       <r>   1.4349  1.0000</r>
       <r>   1.4349  1.0000</r>
       <r>   1.5204  1.0000</r>
       <r>   1.5204  1.0000</r>
       <r>   1.5204  1.0000</r>
       <r>   1.5205  1.0000</r>
       <r>   1.5273  1.0000</r>
       <r>   1.5273  1.0000</r>
       <r>   1.5273  1.0000</r>
       <r>   1.5274  1.0000</r>
       <r>   1.5375  1.0000</r>
       <r>   1.5375  1.0000</r>
       <r>   1.5375  1.0000</r>
       <r>   1.5376  1.0000</r>
       <r>   1.5442  1.0000</r>
       <r>   1.5442  1.0000</r>
       <r>   1.5443  1.0000</r>
       <r>   1.5443  1.0000</r>
       <r>   2.0118  1.0000</r>
       <r>   2.0118  1.0000</r>
       <r>   2.0118  1.0000</r>
       <r>   2.0119  1.0000</r>
       <r>   2.0356  1.0000</r>
       <r>   2.0356  1.0000</r>
       <r>   2.0361  1.0000</r>
       <r>   2.0361  1.0000</r>
       <r>   2.0361  1.0000</r>
       <r>   2.0361  1.0000</r>
       <r>   2.0366  1.0000</r>
       <r>   2.0366  1.0000</r>
       <r>   2.1720  1.0000</r>
       <r>   2.1720  1.0000</r>
       <r>   2.1726  1.0000</r>
       <r>   2.1727  1.0000</r>
       <r>   2.1727  1.0000</r>
       <r>   2.1727  1.0000</r>
       <r>   2.1733  1.0000</r>
       <r>   2.1733  1.0000</r>
       <r>   2.1839  1.0000</r>
       <r>   2.1840  1.0000</r>
       <r>   2.1840  1.0000</r>
       <r>   2.1840  1.0000</r>
       <r>   2.3345  1.0000</r>
       <r>   2.3345  1.0000</r>
       <r>   2.3345  1.0000</r>
       <r>   2.3345  1.0000</r>
       <r>   2.4142  1.0000</r>
       <r>   2.4142  1.0000</r>
       <r>   2.4142  1.0000</r>
       <r>   2.4142  1.0000</r>
       <r>   2.4328  1.0000</r>
       <r>   2.4328  1.0000</r>
       <r>   2.4328  1.0000</r>
       <r>   2.4329  1.0000</r>
       <r>   2.4972  1.0000</r>
       <r>   2.4972  1.0000</r>
       <r>   2.4972  1.0000</r>
       <r>   2.4972  1.0000</r>
       <r>   3.0164  1.0000</r>
       <r>   3.0164  1.0000</r>
       <r>   3.0165  1.0000</r>
       <r>   3.0165  1.0000</r>
       <r>   3.0165  1.0000</r>
       <r>   3.0165  1.0000</r>
       <r>   3.0165  1.0000</r>
       <r>   3.0165  1.0000</r>
       <r>   3.0220  1.0000</r>
       <r>   3.0220  1.0000</r>
       <r>   3.0221  1.0000</r>
       <r>   3.0221  1.0000</r>
       <r>   3.0304  1.0000</r>
       <r>   3.0304  1.0000</r>
       <r>   3.0304  1.0000</r>
       <r>   3.0305  1.0000</r>
       <r>   3.0328  1.0000</r>
       <r>   3.0328  1.0000</r>
       <r>   3.0329  1.0000</r>
       <r>   3.0329  1.0000</r>
       <r>   3.0329  1.0000</r>
       <r>   3.0329  1.0000</r>
       <r>   3.0331  1.0000</r>
       <r>   3.0331  1.0000</r>
       <r>   5.1644  0.0000</r>
       <r>   5.1644  0.0000</r>
       <r>   5.1644  0.0000</r>
       <r>   5.1644  0.0000</r>
       <r>   5.5657  0.0000</r>
       <r>   5.5657  0.0000</r>
       <r>   5.5664  0.0000</r>
       <r>   5.5664  0.0000</r>
       <r>   5.5664  0.0000</r>
       <r>   5.5664  0.0000</r>
       <r>   5.5671  0.0000</r>
       <r>   5.5671  0.0000</r>
       <r>   6.0126  0.0000</r>
       <r>   6.0126  0.0000</r>
       <r>   6.0137  0.0000</r>
       <r>   6.0137  0.0000</r>
       <r>   6.0137  0.0000</r>
       <r>   6.0137  0.0000</r>
       <r>   6.0149  0.0000</r>
       <r>   6.0149  0.0000</r>
       <r>   6.4447  0.0000</r>
       <r>   6.4447  0.0000</r>
       <r>   6.4447  0.0000</r>
       <r>   6.4447  0.0000</r>
       <r>  11.4082  0.0000</r>
       <r>  11.4082  0.0000</r>
       <r>  11.4092  0.0000</r>
       <r>  11.4093  0.0000</r>
       <r>  11.4093  0.0000</r>
       <r>  11.4093  0.0000</r>
       <r>  11.4103  0.0000</r>
       <r>  11.4103  0.0000</r>
       <r>  11.7734  0.0000</r>
       <r>  11.7734  0.0000</r>
       <r>  11.7734  0.0000</r>
       <r>  11.7734  0.0000</r>
       <r>  12.3676  0.0000</r>
       <r>  12.3676  0.0000</r>
       <r>  12.3676  0.0000</r>
       <r>  12.3676  0.0000</r>
       <r>  12.7473  0.0000</r>
       <r>  12.7476  0.0000</r>
       <r>  12.7478  0.0000</r>
       <r>  12.7482  0.0000</r>
      </set>
      <set comment="kpoint 196">
       <r>  -3.1669  1.0000</r>
       <r>  -3.1630  1.0000</r>
       <r>  -3.1630  1.0000</r>
       <r>  -3.1622  1.0000</r>
       <r>  -3.1620  1.0000</r>
       <r>  -3.1613  1.0000</r>
       <r>  -3.1613  1.0000</r>
       <r>  -3.1574  1.0000</r>
       <r>  -0.2746  1.0000</r>
       <r>  -0.2729  1.0000</r>
       <r>  -0.2729  1.0000</r>
       <r>  -0.2721  1.0000</r>
       <r>  -0.2719  1.0000</r>
       <r>  -0.2717  1.0000</r>
       <r>  -0.2706  1.0000</r>
       <r>  -0.2706  1.0000</r>
       <r>  -0.2705  1.0000</r>
       <r>  -0.2704  1.0000</r>
       <r>  -0.2704  1.0000</r>
       <r>  -0.2704  1.0000</r>
       <r>  -0.2702  1.0000</r>
       <r>  -0.2702  1.0000</r>
       <r>  -0.2702  1.0000</r>
       <r>  -0.2701  1.0000</r>
       <r>  -0.2700  1.0000</r>
       <r>  -0.2700  1.0000</r>
       <r>  -0.2689  1.0000</r>
       <r>  -0.2687  1.0000</r>
       <r>  -0.2686  1.0000</r>
       <r>  -0.2678  1.0000</r>
       <r>  -0.2678  1.0000</r>
       <r>  -0.2660  1.0000</r>
       <r>   0.3516  1.0000</r>
       <r>   0.3521  1.0000</r>
       <r>   0.3542  1.0000</r>
       <r>   0.3542  1.0000</r>
       <r>   0.3549  1.0000</r>
       <r>   0.3553  1.0000</r>
       <r>   0.3553  1.0000</r>
       <r>   0.3554  1.0000</r>
       <r>   0.3554  1.0000</r>
       <r>   0.3556  1.0000</r>
       <r>   0.3556  1.0000</r>
       <r>   0.3556  1.0000</r>
       <r>   0.3557  1.0000</r>
       <r>   0.3558  1.0000</r>
       <r>   0.3558  1.0000</r>
       <r>   0.3559  1.0000</r>
       <r>   0.3560  1.0000</r>
       <r>   0.3560  1.0000</r>
       <r>   0.3560  1.0000</r>
       <r>   0.3564  1.0000</r>
       <r>   0.3571  1.0000</r>
       <r>   0.3571  1.0000</r>
       <r>   0.3591  1.0000</r>
       <r>   0.3597  1.0000</r>
       <r>   1.0432  1.0000</r>
       <r>   1.0457  1.0000</r>
       <r>   1.0457  1.0000</r>
       <r>   1.0457  1.0000</r>
       <r>   1.0458  1.0000</r>
       <r>   1.0458  1.0000</r>
       <r>   1.0458  1.0000</r>
       <r>   1.0483  1.0000</r>
       <r>   1.3682  1.0000</r>
       <r>   1.3682  1.0000</r>
       <r>   1.3690  1.0000</r>
       <r>   1.3693  1.0000</r>
       <r>   1.3703  1.0000</r>
       <r>   1.3715  1.0000</r>
       <r>   1.3715  1.0000</r>
       <r>   1.3715  1.0000</r>
       <r>   1.3716  1.0000</r>
       <r>   1.3716  1.0000</r>
       <r>   1.3716  1.0000</r>
       <r>   1.3716  1.0000</r>
       <r>   1.3718  1.0000</r>
       <r>   1.3718  1.0000</r>
       <r>   1.3718  1.0000</r>
       <r>   1.3718  1.0000</r>
       <r>   1.3719  1.0000</r>
       <r>   1.3719  1.0000</r>
       <r>   1.3719  1.0000</r>
       <r>   1.3730  1.0000</r>
       <r>   1.3740  1.0000</r>
       <r>   1.3745  1.0000</r>
       <r>   1.3752  1.0000</r>
       <r>   1.3752  1.0000</r>
       <r>   1.5299  1.0000</r>
       <r>   1.5299  1.0000</r>
       <r>   1.5303  1.0000</r>
       <r>   1.5307  1.0000</r>
       <r>   1.5311  1.0000</r>
       <r>   1.5311  1.0000</r>
       <r>   1.5312  1.0000</r>
       <r>   1.5312  1.0000</r>
       <r>   1.5316  1.0000</r>
       <r>   1.5316  1.0000</r>
       <r>   1.5317  1.0000</r>
       <r>   1.5319  1.0000</r>
       <r>   1.5323  1.0000</r>
       <r>   1.5325  1.0000</r>
       <r>   1.5329  1.0000</r>
       <r>   1.5329  1.0000</r>
       <r>   2.0938  1.0000</r>
       <r>   2.0949  1.0000</r>
       <r>   2.0949  1.0000</r>
       <r>   2.0970  1.0000</r>
       <r>   2.0971  1.0000</r>
       <r>   2.0971  1.0000</r>
       <r>   2.0972  1.0000</r>
       <r>   2.0973  1.0000</r>
       <r>   2.0976  1.0000</r>
       <r>   2.0976  1.0000</r>
       <r>   2.0976  1.0000</r>
       <r>   2.0976  1.0000</r>
       <r>   2.0977  1.0000</r>
       <r>   2.0977  1.0000</r>
       <r>   2.0977  1.0000</r>
       <r>   2.0978  1.0000</r>
       <r>   2.0980  1.0000</r>
       <r>   2.0982  1.0000</r>
       <r>   2.0982  1.0000</r>
       <r>   2.0982  1.0000</r>
       <r>   2.0984  1.0000</r>
       <r>   2.1004  1.0000</r>
       <r>   2.1004  1.0000</r>
       <r>   2.1015  1.0000</r>
       <r>   2.4125  1.0000</r>
       <r>   2.4140  1.0000</r>
       <r>   2.4140  1.0000</r>
       <r>   2.4140  1.0000</r>
       <r>   2.4147  1.0000</r>
       <r>   2.4147  1.0000</r>
       <r>   2.4150  1.0000</r>
       <r>   2.4151  1.0000</r>
       <r>   2.4152  1.0000</r>
       <r>   2.4154  1.0000</r>
       <r>   2.4156  1.0000</r>
       <r>   2.4156  1.0000</r>
       <r>   2.4163  1.0000</r>
       <r>   2.4163  1.0000</r>
       <r>   2.4164  1.0000</r>
       <r>   2.4179  1.0000</r>
       <r>   3.0307  1.0000</r>
       <r>   3.0307  1.0000</r>
       <r>   3.0309  1.0000</r>
       <r>   3.0310  1.0000</r>
       <r>   3.0311  1.0000</r>
       <r>   3.0311  1.0000</r>
       <r>   3.0311  1.0000</r>
       <r>   3.0312  1.0000</r>
       <r>   3.0312  1.0000</r>
       <r>   3.0313  1.0000</r>
       <r>   3.0313  1.0000</r>
       <r>   3.0314  1.0000</r>
       <r>   3.0316  1.0000</r>
       <r>   3.0317  1.0000</r>
       <r>   3.0317  1.0000</r>
       <r>   3.0317  1.0000</r>
       <r>   3.0318  1.0000</r>
       <r>   3.0319  1.0000</r>
       <r>   3.0319  1.0000</r>
       <r>   3.0319  1.0000</r>
       <r>   3.0320  1.0000</r>
       <r>   3.0321  1.0000</r>
       <r>   3.0322  1.0000</r>
       <r>   3.0322  1.0000</r>
       <r>   5.7738  0.0000</r>
       <r>   5.7758  0.0000</r>
       <r>   5.7758  0.0000</r>
       <r>   5.7791  0.0000</r>
       <r>   5.7797  0.0000</r>
       <r>   5.7797  0.0000</r>
       <r>   5.7797  0.0000</r>
       <r>   5.7798  0.0000</r>
       <r>   5.7799  0.0000</r>
       <r>   5.7799  0.0000</r>
       <r>   5.7800  0.0000</r>
       <r>   5.7800  0.0000</r>
       <r>   5.7802  0.0000</r>
       <r>   5.7802  0.0000</r>
       <r>   5.7803  0.0000</r>
       <r>   5.7804  0.0000</r>
       <r>   5.7804  0.0000</r>
       <r>   5.7805  0.0000</r>
       <r>   5.7806  0.0000</r>
       <r>   5.7806  0.0000</r>
       <r>   5.7812  0.0000</r>
       <r>   5.7844  0.0000</r>
       <r>   5.7844  0.0000</r>
       <r>   5.7864  0.0000</r>
       <r>  12.0443  0.0000</r>
       <r>  12.0444  0.0000</r>
       <r>  12.0448  0.0000</r>
       <r>  12.0504  0.0000</r>
       <r>  12.0506  0.0000</r>
       <r>  12.0507  0.0000</r>
       <r>  12.0510  0.0000</r>
       <r>  12.0512  0.0000</r>
       <r>  12.0512  0.0000</r>
       <r>  12.0513  0.0000</r>
       <r>  12.0513  0.0000</r>
       <r>  12.0514  0.0000</r>
       <r>  12.0516  0.0000</r>
       <r>  12.0517  0.0000</r>
       <r>  12.0517  0.0000</r>
       <r>  12.0518  0.0000</r>
       <r>  12.0520  0.0000</r>
       <r>  12.0522  0.0000</r>
       <r>  12.0524  0.0000</r>
       <r>  12.0525  0.0000</r>
      </set>
     </set>
    </set>
   </array>
  </eigenvalues>
 </calculation>
 <structure name="finalpos" >
  <crystal>
   <varray name="basis" >
    <v>       6.98191836      0.00000000      0.00000000</v>
    <v>       0.00000000      6.98191836      0.00000000</v>
    <v>       0.00000000      0.00000000      6.98191836</v>
   </varray>
   <i name="volume">    340.34885865</i>
   <varray name="rec_basis" >
    <v>       0.14322711      0.00000000      0.00000000</v>
    <v>       0.00000000      0.14322711      0.00000000</v>
    <v>       0.00000000      0.00000000      0.14322711</v>
   </varray>
  </crystal>
  <varray name="positions" >
   <v>       0.00143227      0.00000000      0.00000000</v>
   <v>       0.50000000      0.00000000      0.00000000</v>
   <v>       0.00000000      0.50000000      0.00000000</v>
   <v>       0.50000000      0.50000000      0.00000000</v>
   <v>       0.00000000      0.00000000      0.50000000</v>
   <v>       0.50000000      0.00000000      0.50000000</v>
   <v>       0.00000000      0.50000000      0.50000000</v>
   <v>       0.50000000      0.50000000      0.50000000</v>
   <v>       0.25000000      0.25000000      0.00000000</v>
   <v>       0.75000000      0.25000000      0.00000000</v>
   <v>       0.25000000      0.75000000      0.00000000</v>
   <v>       0.75000000      0.75000000      0.00000000</v>
   <v>       0.25000000      0.25000000      0.50000000</v>
   <v>       0.75000000      0.25000000      0.50000000</v>
   <v>       0.25000000      0.75000000      0.50000000</v>
   <v>       0.75000000      0.75000000      0.50000000</v>
   <v>       0.25000000      0.00000000      0.25000000</v>
   <v>       0.75000000      0.00000000      0.25000000</v>
   <v>       0.25000000      0.50000000      0.25000000</v>
   <v>       0.75000000      0.50000000      0.25000000</v>
   <v>       0.25000000      0.00000000      0.75000000</v>
   <v>       0.75000000      0.00000000      0.75000000</v>
   <v>       0.25000000      0.50000000      0.75000000</v>
   <v>       0.75000000      0.50000000      0.75000000</v>
   <v>       0.00000000      0.25000000      0.25000000</v>
   <v>       0.50000000      0.25000000      0.25000000</v>
   <v>       0.00000000      0.75000000      0.25000000</v>
   <v>       0.50000000      0.75000000      0.25000000</v>
   <v>       0.00000000      0.25000000      0.75000000</v>
   <v>       0.50000000      0.25000000      0.75000000</v>
   <v>       0.00000000      0.75000000      0.75000000</v>
   <v>       0.50000000      0.75000000      0.75000000</v>
  </varray>
 </structure>
</modeling>
