32   
1    

1    
  0.0100000000000000   0.0000000000000000   0.0000000000000000
  -0.0592911200   -0.0000000000    0.0000000000
   0.0025777200    0.0000000000   -0.0000000000
  -0.0000312000    0.0000000000   -0.0000000000
   0.0009151500    0.0000000000   -0.0000000000
  -0.0000312000    0.0000000000   -0.0000000000
   0.0009151500    0.0000000000    0.0000000000
   0.0005169800    0.0000000000    0.0000000000
  -0.0000862600   -0.0000000000    0.0000000000
  -0.0013896000    0.0000289200   -0.0000289200
  -0.0003224800   -0.0000051000    0.0000051000
  -0.0013896000   -0.0000289200   -0.0000289200
  -0.0003224800    0.0000051000    0.0000051000
  -0.0013896000    0.0000289200    0.0000289200
  -0.0003224800   -0.0000051000   -0.0000051000
  -0.0013896000   -0.0000289200    0.0000289200
  -0.0003224800    0.0000051000   -0.0000051000
   0.0077705300    0.0000000000   -0.0082357500
   0.0079431800   -0.0000000000    0.0084940500
  -0.0001919200    0.0000000000    0.0001825300
  -0.0001810000    0.0000000000   -0.0001764400
   0.0077705300    0.0000000000    0.0082357500
   0.0079431800    0.0000000000   -0.0084940500
  -0.0001919200    0.0000000000   -0.0001825300
  -0.0001810000    0.0000000000    0.0001764400
   0.0077705300    0.0082357500   -0.0000000000
   0.0079431800   -0.0084940500    0.0000000000
   0.0077705300   -0.0082357500   -0.0000000000
   0.0079431800    0.0084940500   -0.0000000000
  -0.0001919200   -0.0001825300   -0.0000000000
  -0.0001810000    0.0001764400   -0.0000000000
  -0.0001919200    0.0001825300    0.0000000000
  -0.0001810000   -0.0001764400    0.0000000000
