mesh: [    48,    48,    48 ]
nqpoint: 2600   
reciprocal_lattice:
- [   0.25274479,   0.00000000,   0.00000000 ] # a*
- [   0.00000000,   0.25274479,   0.00000000 ] # b*
- [   0.00000000,   0.00000000,   0.25274479 ] # c*
natom:   4      
lattice:
- [     3.956560242279359,     0.000000000000000,     0.000000000000000 ] # a
- [     0.000000000000000,     3.956560242279359,     0.000000000000000 ] # b
- [     0.000000000000000,     0.000000000000000,     3.956560242279359 ] # c
points:
- symbol: Al # 1
  coordinates: [  0.500000000000000,  0.500000000000000,  0.000000000000000 ]
  mass: 26.981539
- symbol: Al # 2
  coordinates: [  0.500000000000000,  0.000000000000000,  0.500000000000000 ]
  mass: 26.981539
- symbol: Al # 3
  coordinates: [  0.000000000000000,  0.500000000000000,  0.500000000000000 ]
  mass: 26.981539
- symbol: Al # 4
  coordinates: [  0.000000000000000,  0.000000000000000,  0.000000000000000 ]
  mass: 26.981539
phonon:
- q-position: [    0.0104167,    0.0104167,    0.0104167 ]
  weight: 8    
  band:
  - # 1
    frequency:     0.1707073999
  - # 2
    frequency:     0.1707073999
  - # 3
    frequency:     0.3526955637
  - # 4
    frequency:     6.5701888478
  - # 5
    frequency:     6.5701888478
  - # 6
    frequency:     6.5701888478
  - # 7
    frequency:     6.5750174061
  - # 8
    frequency:     6.5750174061
  - # 9
    frequency:     6.5750174061
  - # 10
    frequency:    10.5410537922
  - # 11
    frequency:    10.5410537922
  - # 12
    frequency:    10.5410537922

- q-position: [    0.0312500,    0.0104167,    0.0104167 ]
  weight: 24   
  band:
  - # 1
    frequency:     0.3394358329
  - # 2
    frequency:     0.3609144309
  - # 3
    frequency:     0.6512206195
  - # 4
    frequency:     6.5638232104
  - # 5
    frequency:     6.5686401964
  - # 6
    frequency:     6.5746258585
  - # 7
    frequency:     6.5746258585
  - # 8
    frequency:     6.5906255278
  - # 9
    frequency:     6.5906255278
  - # 10
    frequency:    10.5320052509
  - # 11
    frequency:    10.5356697010
  - # 12
    frequency:    10.5356697010

- q-position: [    0.0520833,    0.0104167,    0.0104167 ]
  weight: 24   
  band:
  - # 1
    frequency:     0.5588544512
  - # 2
    frequency:     0.5761513001
  - # 3
    frequency:     0.9980784904
  - # 4
    frequency:     6.5510921314
  - # 5
    frequency:     6.5558860127
  - # 6
    frequency:     6.5867271504
  - # 7
    frequency:     6.5867271504
  - # 8
    frequency:     6.6183120239
  - # 9
    frequency:     6.6183120239
  - # 10
    frequency:    10.5138950147
  - # 11
    frequency:    10.5248969813
  - # 12
    frequency:    10.5248969813

- q-position: [    0.0729167,    0.0104167,    0.0104167 ]
  weight: 24   
  band:
  - # 1
    frequency:     0.7823901916
  - # 2
    frequency:     0.7956933483
  - # 3
    frequency:     1.3580183536
  - # 4
    frequency:     6.5319960717
  - # 5
    frequency:     6.5367553943
  - # 6
    frequency:     6.6055608187
  - # 7
    frequency:     6.6055608187
  - # 8
    frequency:     6.6584137248
  - # 9
    frequency:     6.6584137248
  - # 10
    frequency:    10.4866970530
  - # 11
    frequency:    10.5087268399
  - # 12
    frequency:    10.5087268399

- q-position: [    0.0937500,    0.0104167,    0.0104167 ]
  weight: 24   
  band:
  - # 1
    frequency:     1.0054811461
  - # 2
    frequency:     1.0159591417
  - # 3
    frequency:     1.7218921948
  - # 4
    frequency:     6.5065358956
  - # 5
    frequency:     6.5112493204
  - # 6
    frequency:     6.6304569997
  - # 7
    frequency:     6.6304569997
  - # 8
    frequency:     6.7107318628
  - # 9
    frequency:     6.7107318628
  - # 10
    frequency:    10.4503730087
  - # 11
    frequency:    10.4871467867
  - # 12
    frequency:    10.4871467867

- q-position: [    0.1145833,    0.0104167,    0.0104167 ]
  weight: 24   
  band:
  - # 1
    frequency:     1.2272527843
  - # 2
    frequency:     1.2356967675
  - # 3
    frequency:     2.0860870356
  - # 4
    frequency:     6.4747130751
  - # 5
    frequency:     6.4793694116
  - # 6
    frequency:     6.6608036540
  - # 7
    frequency:     6.6608036540
  - # 8
    frequency:     6.7747631557
  - # 9
    frequency:     6.7747631557
  - # 10
    frequency:    10.4048730122
  - # 11
    frequency:    10.4601414668
  - # 12
    frequency:    10.4601414668

- q-position: [    0.1354167,    0.0104167,    0.0104167 ]
  weight: 24   
  band:
  - # 1
    frequency:     1.4473235365
  - # 2
    frequency:     1.4542372295
  - # 3
    frequency:     2.4487191732
  - # 4
    frequency:     6.4365299589
  - # 5
    frequency:     6.4411181943
  - # 6
    frequency:     6.6959580361
  - # 7
    frequency:     6.6959580361
  - # 8
    frequency:     6.8498212507
  - # 9
    frequency:     6.8498212507
  - # 10
    frequency:    10.3501367487
  - # 11
    frequency:    10.4276937547
  - # 12
    frequency:    10.4276937547

- q-position: [    0.1562500,    0.0104167,    0.0104167 ]
  weight: 24   
  band:
  - # 1
    frequency:     1.6654011301
  - # 2
    frequency:     1.6711150290
  - # 3
    frequency:     2.8085766840
  - # 4
    frequency:     6.3919901014
  - # 5
    frequency:     6.3964994255
  - # 6
    frequency:     6.7352228511
  - # 7
    frequency:     6.7352228511
  - # 8
    frequency:     6.9350975193
  - # 9
    frequency:     6.9350975193
  - # 10
    frequency:    10.2860947608
  - # 11
    frequency:    10.3897861009
  - # 12
    frequency:    10.3897861009

- q-position: [    0.1770833,    0.0104167,    0.0104167 ]
  weight: 24   
  band:
  - # 1
    frequency:     1.8812133627
  - # 2
    frequency:     1.8859532944
  - # 3
    frequency:     3.1647555244
  - # 4
    frequency:     6.3410986487
  - # 5
    frequency:     6.3455184726
  - # 6
    frequency:     6.7778476871
  - # 7
    frequency:     6.7778476871
  - # 8
    frequency:     7.0296985938
  - # 9
    frequency:     7.0296985938
  - # 10
    frequency:    10.2126699691
  - # 11
    frequency:    10.3464021165
  - # 12
    frequency:    10.3464021165

- q-position: [    0.1979167,    0.0104167,    0.0104167 ]
  weight: 24   
  band:
  - # 1
    frequency:     2.0944949440
  - # 2
    frequency:     2.0984211789
  - # 3
    frequency:     3.5165139722
  - # 4
    frequency:     6.2838627750
  - # 5
    frequency:     6.2881827441
  - # 6
    frequency:     6.8230399312
  - # 7
    frequency:     6.8230399312
  - # 8
    frequency:     7.1326745902
  - # 9
    frequency:     7.1326745902
  - # 10
    frequency:    10.1297793878
  - # 11
    frequency:    10.2975283794
  - # 12
    frequency:    10.2975283794

- q-position: [    0.2187500,    0.0104167,    0.0104167 ]
  weight: 24   
  band:
  - # 1
    frequency:     2.3049856910
  - # 2
    frequency:     2.3082158030
  - # 3
    frequency:     3.8632076576
  - # 4
    frequency:     6.2202921652
  - # 5
    frequency:     6.2245021655
  - # 6
    frequency:     6.8699791058
  - # 7
    frequency:     6.8699791058
  - # 8
    frequency:     7.2430425333
  - # 9
    frequency:     7.2430425333
  - # 10
    frequency:    10.0373360101
  - # 11
    frequency:    10.2431564454
  - # 12
    frequency:    10.2431564454

- q-position: [    0.2395833,    0.0104167,    0.0104167 ]
  weight: 24   
  band:
  - # 1
    frequency:     2.5124311491
  - # 2
    frequency:     2.5150538886
  - # 3
    frequency:     4.2042581585
  - # 4
    frequency:     6.1503995374
  - # 5
    frequency:     6.1544896946
  - # 6
    frequency:     6.9178320834
  - # 7
    frequency:     6.9178320834
  - # 8
    frequency:     7.3598063489
  - # 9
    frequency:     7.3598063489
  - # 10
    frequency:     9.9352508394
  - # 11
    frequency:    10.1832850462
  - # 12
    frequency:    10.1832850462

- q-position: [    0.2604167,    0.0104167,    0.0104167 ]
  weight: 24   
  band:
  - # 1
    frequency:     2.7165836225
  - # 2
    frequency:     2.7186676610
  - # 3
    frequency:     4.5391369392
  - # 4
    frequency:     6.0742011975
  - # 5
    frequency:     6.0781618691
  - # 6
    frequency:     6.9657679793
  - # 7
    frequency:     6.9657679793
  - # 8
    frequency:     7.4819738248
  - # 9
    frequency:     7.4819738248
  - # 10
    frequency:     9.8234350352
  - # 11
    frequency:    10.1179224530
  - # 12
    frequency:    10.1179224530

- q-position: [    0.2812500,    0.0104167,    0.0104167 ]
  weight: 24   
  band:
  - # 1
    frequency:     2.9172031515
  - # 2
    frequency:     2.9188027881
  - # 3
    frequency:     4.8673568263
  - # 4
    frequency:     5.9917176203
  - # 5
    frequency:     5.9955393804
  - # 6
    frequency:     7.0129721075
  - # 7
    frequency:     7.0129721075
  - # 8
    frequency:     7.6085707099
  - # 9
    frequency:     7.6085707099
  - # 10
    frequency:     9.7018021480
  - # 11
    frequency:    10.0470889881
  - # 12
    frequency:    10.0470889881

- q-position: [    0.3020833,    0.0104167,    0.0104167 ]
  weight: 24   
  band:
  - # 1
    frequency:     3.1140583449
  - # 2
    frequency:     3.1152173471
  - # 3
    frequency:     5.1884673906
  - # 4
    frequency:     5.9029740498
  - # 5
    frequency:     5.9066476658
  - # 6
    frequency:     7.0586586808
  - # 7
    frequency:     7.0586586808
  - # 8
    frequency:     7.7386521182
  - # 9
    frequency:     7.7386521182
  - # 10
    frequency:     9.5702704127
  - # 11
    frequency:     9.9708196637
  - # 12
    frequency:     9.9708196637

- q-position: [    0.3229167,    0.0104167,    0.0104167 ]
  weight: 24   
  band:
  - # 1
    frequency:     3.3069270665
  - # 2
    frequency:     3.3076813292
  - # 3
    frequency:     5.5020524256
  - # 4
    frequency:     5.8080011100
  - # 5
    frequency:     5.8115175120
  - # 6
    frequency:     7.1020821110
  - # 7
    frequency:     7.1020821110
  - # 8
    frequency:     7.8713114524
  - # 9
    frequency:     7.8713114524
  - # 10
    frequency:     9.4287650714
  - # 11
    frequency:     9.8891669286
  - # 12
    frequency:     9.8891669286

- q-position: [    0.3437500,    0.0104167,    0.0104167 ]
  weight: 24   
  band:
  - # 1
    frequency:     3.4955969933
  - # 2
    frequency:     3.4959764239
  - # 3
    frequency:     5.7068354206
  - # 4
    frequency:     5.7101856626
  - # 5
    frequency:     5.8077285695
  - # 6
    frequency:     7.1425468757
  - # 7
    frequency:     7.1425468757
  - # 8
    frequency:     8.0056871087
  - # 9
    frequency:     8.0056871087
  - # 10
    frequency:     9.2772206987
  - # 11
    frequency:     9.8022035046
  - # 12
    frequency:     9.8022035046

- q-position: [    0.3645833,    0.0104167,    0.0104167 ]
  weight: 24   
  band:
  - # 1
    frequency:     3.6798660605
  - # 2
    frequency:     3.6798959456
  - # 3
    frequency:     5.5995202088
  - # 4
    frequency:     5.6026954217
  - # 5
    frequency:     6.1051445386
  - # 6
    frequency:     7.1794159883
  - # 7
    frequency:     7.1794159883
  - # 8
    frequency:     8.1409672485
  - # 9
    frequency:     8.1409672485
  - # 10
    frequency:     9.1155835000
  - # 11
    frequency:     9.7100252975
  - # 12
    frequency:     9.7100252975

- q-position: [    0.3854167,    0.0104167,    0.0104167 ]
  weight: 24   
  band:
  - # 1
    frequency:     3.8592448223
  - # 2
    frequency:     3.8595428046
  - # 3
    frequency:     5.4861059109
  - # 4
    frequency:     5.4890972468
  - # 5
    frequency:     6.3939806678
  - # 6
    frequency:     7.2121181510
  - # 7
    frequency:     7.2121181510
  - # 8
    frequency:     8.2763929177
  - # 9
    frequency:     8.2763929177
  - # 10
    frequency:     8.9438135601
  - # 11
    frequency:     9.6127543707
  - # 12
    frequency:     9.6127543707

- q-position: [    0.4062500,    0.0104167,    0.0104167 ]
  weight: 24   
  band:
  - # 1
    frequency:     4.0338395972
  - # 2
    frequency:     4.0344466155
  - # 3
    frequency:     5.3666507560
  - # 4
    frequency:     5.3694493231
  - # 5
    frequency:     6.6739485722
  - # 6
    frequency:     7.2401536945
  - # 7
    frequency:     7.2401536945
  - # 8
    frequency:     8.4112597668
  - # 9
    frequency:     8.4112597668
  - # 10
    frequency:     8.7618870139
  - # 11
    frequency:     9.5105419883
  - # 12
    frequency:     9.5105419883

- q-position: [    0.4270833,    0.0104167,    0.0104167 ]
  weight: 24   
  band:
  - # 1
    frequency:     4.2035084161
  - # 2
    frequency:     4.2044079012
  - # 3
    frequency:     5.2412213253
  - # 4
    frequency:     5.2438181124
  - # 5
    frequency:     6.9447908147
  - # 6
    frequency:     7.2630994156
  - # 7
    frequency:     7.2630994156
  - # 8
    frequency:     8.5449185416
  - # 9
    frequency:     8.5449185416
  - # 10
    frequency:     8.5697981207
  - # 11
    frequency:     9.4035717853
  - # 12
    frequency:     9.4035717853

- q-position: [    0.4479167,    0.0104167,    0.0104167 ]
  weight: 24   
  band:
  - # 1
    frequency:     4.3680909823
  - # 2
    frequency:     4.3692681714
  - # 3
    frequency:     5.1098930817
  - # 4
    frequency:     5.1122788710
  - # 5
    frequency:     7.2062805085
  - # 6
    frequency:     7.2806124207
  - # 7
    frequency:     7.2806124207
  - # 8
    frequency:     8.3675612202
  - # 9
    frequency:     8.6767742296
  - # 10
    frequency:     8.6767742296
  - # 11
    frequency:     9.2920633802
  - # 12
    frequency:     9.2920633802

- q-position: [    0.4687500,    0.0104167,    0.0104167 ]
  weight: 24   
  band:
  - # 1
    frequency:     4.5274384670
  - # 2
    frequency:     4.5288800436
  - # 3
    frequency:     4.9727508619
  - # 4
    frequency:     4.9749161278
  - # 5
    frequency:     7.2924330737
  - # 6
    frequency:     7.2924330737
  - # 7
    frequency:     7.4582208059
  - # 8
    frequency:     8.1552125527
  - # 9
    frequency:     8.8062819325
  - # 10
    frequency:     8.8062819325
  - # 11
    frequency:     9.1762785211
  - # 12
    frequency:     9.1762785211

- q-position: [    0.4895833,    0.0104167,    0.0104167 ]
  weight: 24   
  band:
  - # 1
    frequency:     4.6814133702
  - # 2
    frequency:     4.6831071742
  - # 3
    frequency:     4.8298893275
  - # 4
    frequency:     4.8318241193
  - # 5
    frequency:     7.2983871315
  - # 6
    frequency:     7.2983871315
  - # 7
    frequency:     7.7004442440
  - # 8
    frequency:     7.9328119300
  - # 9
    frequency:     8.9329037152
  - # 10
    frequency:     8.9329037152
  - # 11
    frequency:     9.0565656425
  - # 12
    frequency:     9.0565656425

- q-position: [    0.0312500,    0.0312500,    0.0104167 ]
  weight: 24   
  band:
  - # 1
    frequency:     0.4013881038
  - # 2
    frequency:     0.4767605035
  - # 3
    frequency:     0.8757574127
  - # 4
    frequency:     6.5682356811
  - # 5
    frequency:     6.5682356811
  - # 6
    frequency:     6.5709405123
  - # 7
    frequency:     6.5842220822
  - # 8
    frequency:     6.5842220822
  - # 9
    frequency:     6.6141422712
  - # 10
    frequency:    10.5266771588
  - # 11
    frequency:    10.5266771588
  - # 12
    frequency:    10.5302782616

- q-position: [    0.0520833,    0.0312500,    0.0104167 ]
  weight: 48   
  band:
  - # 1
    frequency:     0.5663454565
  - # 2
    frequency:     0.6548944356
  - # 3
    frequency:     1.1723601088
  - # 4
    frequency:     6.5554555194
  - # 5
    frequency:     6.5714159108
  - # 6
    frequency:     6.5757801692
  - # 7
    frequency:     6.5802606858
  - # 8
    frequency:     6.6118837557
  - # 9
    frequency:     6.6486683397
  - # 10
    frequency:    10.5086788683
  - # 11
    frequency:    10.5160167262
  - # 12
    frequency:    10.5194909427

- q-position: [    0.0729167,    0.0312500,    0.0104167 ]
  weight: 48   
  band:
  - # 1
    frequency:     0.7727260354
  - # 2
    frequency:     0.8545393232
  - # 3
    frequency:     1.4975108813
  - # 4
    frequency:     6.5362858289
  - # 5
    frequency:     6.5522085150
  - # 6
    frequency:     6.5888414906
  - # 7
    frequency:     6.5989661542
  - # 8
    frequency:     6.6519630751
  - # 9
    frequency:     6.6939224631
  - # 10
    frequency:    10.4816486990
  - # 11
    frequency:    10.5000157365
  - # 12
    frequency:    10.5032991437

- q-position: [    0.0937500,    0.0312500,    0.0104167 ]
  weight: 48   
  band:
  - # 1
    frequency:     0.9907916992
  - # 2
    frequency:     1.0628216101
  - # 3
    frequency:     1.8365636446
  - # 4
    frequency:     6.5107274657
  - # 5
    frequency:     6.5266022999
  - # 6
    frequency:     6.6093810080
  - # 7
    frequency:     6.6236853787
  - # 8
    frequency:     6.7042593574
  - # 9
    frequency:     6.7497943481
  - # 10
    frequency:    10.4455481548
  - # 11
    frequency:    10.4786625599
  - # 12
    frequency:    10.4816906608

- q-position: [    0.1145833,    0.0312500,    0.0104167 ]
  weight: 48   
  band:
  - # 1
    frequency:     1.2115624015
  - # 2
    frequency:     1.2746717492
  - # 3
    frequency:     2.1824466771
  - # 4
    frequency:     6.4787818914
  - # 5
    frequency:     6.4946007566
  - # 6
    frequency:     6.6365705890
  - # 7
    frequency:     6.6538091911
  - # 8
    frequency:     6.7682680095
  - # 9
    frequency:     6.8160151975
  - # 10
    frequency:    10.4003272014
  - # 11
    frequency:    10.4519429806
  - # 12
    frequency:    10.4546505150

- q-position: [    0.1354167,    0.0312500,    0.0104167 ]
  weight: 48   
  band:
  - # 1
    frequency:     1.4320249844
  - # 2
    frequency:     1.4876809164
  - # 3
    frequency:     2.5311201455
  - # 4
    frequency:     6.4404514426
  - # 5
    frequency:     6.4562087011
  - # 6
    frequency:     6.6695397410
  - # 7
    frequency:     6.6886971439
  - # 8
    frequency:     6.8433021896
  - # 9
    frequency:     6.8921473097
  - # 10
    frequency:    10.3459253510
  - # 11
    frequency:    10.4198412842
  - # 12
    frequency:    10.4221620419

- q-position: [    0.1562500,    0.0312500,    0.0104167 ]
  weight: 48   
  band:
  - # 1
    frequency:     1.6509589744
  - # 2
    frequency:     1.7004984007
  - # 3
    frequency:     2.8800180661
  - # 4
    frequency:     6.3957396614
  - # 5
    frequency:     6.4114325671
  - # 6
    frequency:     6.7073903955
  - # 7
    frequency:     6.7276538910
  - # 8
    frequency:     6.9285532980
  - # 9
    frequency:     6.9776052072
  - # 10
    frequency:    10.2822729861
  - # 11
    frequency:    10.3823415954
  - # 12
    frequency:    10.3842082330

- q-position: [    0.1770833,    0.0312500,    0.0104167 ]
  weight: 48   
  band:
  - # 1
    frequency:     1.8677451403
  - # 2
    frequency:     1.9122548112
  - # 3
    frequency:     3.2273670343
  - # 4
    frequency:     6.3446516829
  - # 5
    frequency:     6.3602807504
  - # 6
    frequency:     6.7492061198
  - # 7
    frequency:     6.7699307630
  - # 8
    frequency:     7.0231282878
  - # 9
    frequency:     7.0716844171
  - # 10
    frequency:    10.2092929047
  - # 11
    frequency:    10.3394294517
  - # 12
    frequency:    10.3407733143

- q-position: [    0.1979167,    0.0312500,    0.0104167 ]
  weight: 48   
  band:
  - # 1
    frequency:     2.0819866027
  - # 2
    frequency:     2.1223252424
  - # 3
    frequency:     3.5718514371
  - # 4
    frequency:     6.2871946747
  - # 5
    frequency:     6.3027639989
  - # 6
    frequency:     6.7940605993
  - # 7
    frequency:     6.8147367321
  - # 8
    frequency:     7.1260777581
  - # 9
    frequency:     7.1735912769
  - # 10
    frequency:    10.1269020640
  - # 11
    frequency:    10.2910935971
  - # 12
    frequency:    10.2918445463

- q-position: [    0.2187500,    0.0312500,    0.0104167 ]
  weight: 48   
  band:
  - # 1
    frequency:     2.2933763186
  - # 2
    frequency:     2.3302211063
  - # 3
    frequency:     3.9124371150
  - # 4
    frequency:     6.2233783230
  - # 5
    frequency:     6.2388958448
  - # 6
    frequency:     6.8410267753
  - # 7
    frequency:     6.8612527488
  - # 8
    frequency:     7.2364193016
  - # 9
    frequency:     7.2824708751
  - # 10
    frequency:    10.0350134984
  - # 11
    frequency:    10.2373279789
  - # 12
    frequency:    10.2374142298

- q-position: [    0.2395833,    0.0312500,    0.0104167 ]
  weight: 48   
  band:
  - # 1
    frequency:     2.5016473533
  - # 2
    frequency:     2.5355363861
  - # 3
    frequency:     4.2482736542
  - # 4
    frequency:     6.1532153589
  - # 5
    frequency:     6.1686930744
  - # 6
    frequency:     6.8891867701
  - # 7
    frequency:     6.9086469399
  - # 8
    frequency:     7.3531574444
  - # 9
    frequency:     7.3974318272
  - # 10
    frequency:     9.9335383837
  - # 11
    frequency:    10.1774818979
  - # 12
    frequency:    10.1781339286

- q-position: [    0.2604167,    0.0312500,    0.0104167 ]
  weight: 48   
  band:
  - # 1
    frequency:     2.7065533943
  - # 2
    frequency:     2.7379190838
  - # 3
    frequency:     4.5786379817
  - # 4
    frequency:     6.0767221178
  - # 5
    frequency:     6.0921762295
  - # 6
    frequency:     6.9376422488
  - # 7
    frequency:     6.9560894811
  - # 8
    frequency:     7.4753005670
  - # 9
    frequency:     7.5175674352
  - # 10
    frequency:     9.8223882222
  - # 11
    frequency:    10.1120566785
  - # 12
    frequency:    10.1135225077

- q-position: [    0.2812500,    0.0312500,    0.0104167 ]
  weight: 48   
  band:
  - # 1
    frequency:     2.9078610490
  - # 2
    frequency:     2.9370552196
  - # 3
    frequency:     4.9029006597
  - # 4
    frequency:     5.9939191242
  - # 5
    frequency:     6.0093701356
  - # 6
    frequency:     6.9855247475
  - # 7
    frequency:     7.0027665378
  - # 8
    frequency:     7.6018749679
  - # 9
    frequency:     7.6419732314
  - # 10
    frequency:     9.7014771190
  - # 11
    frequency:    10.0411598063
  - # 12
    frequency:    10.0435170006

- q-position: [    0.3020833,    0.0312500,    0.0104167 ]
  weight: 48   
  band:
  - # 1
    frequency:     3.1053469420
  - # 2
    frequency:     3.1326594699
  - # 3
    frequency:     5.2205051386
  - # 4
    frequency:     5.9048316938
  - # 5
    frequency:     5.9203044519
  - # 6
    frequency:     7.0320055499
  - # 7
    frequency:     7.0478929596
  - # 8
    frequency:     7.7319362288
  - # 9
    frequency:     7.7697611381
  - # 10
    frequency:     9.5707241199
  - # 11
    frequency:     9.9648272715
  - # 12
    frequency:     9.9681555355

- q-position: [    0.3229167,    0.0312500,    0.0104167 ]
  weight: 48   
  band:
  - # 1
    frequency:     3.2987968160
  - # 2
    frequency:     3.3244694900
  - # 3
    frequency:     5.5309546454
  - # 4
    frequency:     5.8094905437
  - # 5
    frequency:     5.8250142377
  - # 6
    frequency:     7.0763048065
  - # 7
    frequency:     7.0907235862
  - # 8
    frequency:     7.8645780902
  - # 9
    frequency:     7.9000705852
  - # 10
    frequency:     9.4300555850
  - # 11
    frequency:     9.8831125891
  - # 12
    frequency:     9.8874938199

- q-position: [    0.3437500,    0.0312500,    0.0104167 ]
  weight: 48   
  band:
  - # 1
    frequency:     3.4880054578
  - # 2
    frequency:     3.5122423636
  - # 3
    frequency:     5.7079324031
  - # 4
    frequency:     5.7235405309
  - # 5
    frequency:     5.8338036872
  - # 6
    frequency:     7.1176997096
  - # 7
    frequency:     7.1305631311
  - # 8
    frequency:     7.9989390872
  - # 9
    frequency:     8.0320769566
  - # 10
    frequency:     9.2794075687
  - # 11
    frequency:     9.7960896870
  - # 12
    frequency:     9.8016079815

- q-position: [    0.3645833,    0.0312500,    0.0104167 ]
  weight: 48   
  band:
  - # 1
    frequency:     3.6727769388
  - # 2
    frequency:     3.6957523170
  - # 3
    frequency:     5.6002006133
  - # 4
    frequency:     5.6159309321
  - # 5
    frequency:     6.1286523991
  - # 6
    frequency:     7.1555316373
  - # 7
    frequency:     7.1667746833
  - # 8
    frequency:     8.1342072024
  - # 9
    frequency:     8.1649977188
  - # 10
    frequency:     9.1187281817
  - # 11
    frequency:     9.7038559259
  - # 12
    frequency:     9.7105975253

- q-position: [    0.3854167,    0.0312500,    0.0104167 ]
  weight: 48   
  band:
  - # 1
    frequency:     3.8529249437
  - # 2
    frequency:     3.8747891986
  - # 3
    frequency:     5.4863457099
  - # 4
    frequency:     5.5022401917
  - # 5
    frequency:     6.4151426614
  - # 6
    frequency:     7.1892122530
  - # 7
    frequency:     7.1987869044
  - # 8
    frequency:     8.2696227539
  - # 9
    frequency:     8.2980965142
  - # 10
    frequency:     8.9479799093
  - # 11
    frequency:     9.6065353149
  - # 12
    frequency:     9.6145884560

- q-position: [    0.4062500,    0.0312500,    0.0104167 ]
  weight: 48   
  band:
  - # 1
    frequency:     4.0282730862
  - # 2
    frequency:     4.0491574276
  - # 3
    frequency:     5.3664259782
  - # 4
    frequency:     5.3825307933
  - # 5
    frequency:     6.6929553223
  - # 6
    frequency:     7.2182285946
  - # 7
    frequency:     7.2261000292
  - # 8
    frequency:     8.4044795936
  - # 9
    frequency:     8.4306853122
  - # 10
    frequency:     8.7671418663
  - # 11
    frequency:     9.5042821377
  - # 12
    frequency:     9.5137367466

- q-position: [    0.4270833,    0.0312500,    0.0104167 ]
  weight: 48   
  band:
  - # 1
    frequency:     4.1986551682
  - # 2
    frequency:     4.2186752290
  - # 3
    frequency:     5.2405079734
  - # 4
    frequency:     5.2568735293
  - # 5
    frequency:     6.9618080969
  - # 6
    frequency:     7.2421472175
  - # 7
    frequency:     7.2482907788
  - # 8
    frequency:     8.5381242157
  - # 9
    frequency:     8.5621241325
  - # 10
    frequency:     8.5762119677
  - # 11
    frequency:     9.3972857471
  - # 12
    frequency:     9.4082327793

- q-position: [    0.4479167,    0.0312500,    0.0104167 ]
  weight: 48   
  band:
  - # 1
    frequency:     4.3639153643
  - # 2
    frequency:     4.3831740375
  - # 3
    frequency:     5.1086669994
  - # 4
    frequency:     5.1253480643
  - # 5
    frequency:     7.2214538694
  - # 6
    frequency:     7.2606174645
  - # 7
    frequency:     7.2650162993
  - # 8
    frequency:     8.3752090007
  - # 9
    frequency:     8.6699503232
  - # 10
    frequency:     8.6918152533
  - # 11
    frequency:     9.2857798382
  - # 12
    frequency:     9.2983094062

- q-position: [    0.4687500,    0.0312500,    0.0104167 ]
  weight: 48   
  band:
  - # 1
    frequency:     4.5239083275
  - # 2
    frequency:     4.5424979983
  - # 3
    frequency:     4.9709875405
  - # 4
    frequency:     4.9880434812
  - # 5
    frequency:     7.2733739355
  - # 6
    frequency:     7.2760172266
  - # 7
    frequency:     7.4716792115
  - # 8
    frequency:     8.1641745859
  - # 9
    frequency:     8.7993727817
  - # 10
    frequency:     8.8191702185
  - # 11
    frequency:     9.1700780725
  - # 12
    frequency:     9.1842698574

- q-position: [    0.4895833,    0.0312500,    0.0104167 ]
  weight: 48   
  band:
  - # 1
    frequency:     4.6784992152
  - # 2
    frequency:     4.6965035136
  - # 3
    frequency:     4.8275636389
  - # 4
    frequency:     4.8450588068
  - # 5
    frequency:     7.2802382227
  - # 6
    frequency:     7.2811199608
  - # 7
    frequency:     7.7123029956
  - # 8
    frequency:     7.9431750195
  - # 9
    frequency:     8.9255394943
  - # 10
    frequency:     8.9431300898
  - # 11
    frequency:     9.0510557500
  - # 12
    frequency:     9.0667770870

- q-position: [    0.0520833,    0.0520833,    0.0104167 ]
  weight: 24   
  band:
  - # 1
    frequency:     0.6507602014
  - # 2
    frequency:     0.7942422266
  - # 3
    frequency:     1.4262311402
  - # 4
    frequency:     6.5673280347
  - # 5
    frequency:     6.5673280347
  - # 6
    frequency:     6.5721810880
  - # 7
    frequency:     6.5990288311
  - # 8
    frequency:     6.5990288311
  - # 9
    frequency:     6.6907995260
  - # 10
    frequency:    10.4982428815
  - # 11
    frequency:    10.4982428815
  - # 12
    frequency:    10.5086746181

- q-position: [    0.0729167,    0.0520833,    0.0104167 ]
  weight: 48   
  band:
  - # 1
    frequency:     0.8051371957
  - # 2
    frequency:     0.9657918966
  - # 3
    frequency:     1.7166356043
  - # 4
    frequency:     6.5479298460
  - # 5
    frequency:     6.5770776088
  - # 6
    frequency:     6.5797504979
  - # 7
    frequency:     6.5857776683
  - # 8
    frequency:     6.6390643237
  - # 9
    frequency:     6.7429936188
  - # 10
    frequency:    10.4715490689
  - # 11
    frequency:    10.4825799414
  - # 12
    frequency:    10.4924397903

- q-position: [    0.0937500,    0.0520833,    0.0104167 ]
  weight: 48   
  band:
  - # 1
    frequency:     0.9959681786
  - # 2
    frequency:     1.1545127994
  - # 3
    frequency:     2.0270283722
  - # 4
    frequency:     6.5220673236
  - # 5
    frequency:     6.5540536905
  - # 6
    frequency:     6.5901181801
  - # 7
    frequency:     6.6101441804
  - # 8
    frequency:     6.6913177676
  - # 9
    frequency:     6.8047773515
  - # 10
    frequency:    10.4358964432
  - # 11
    frequency:    10.4616800626
  - # 12
    frequency:    10.4707748244

- q-position: [    0.1145833,    0.0520833,    0.0104167 ]
  weight: 48   
  band:
  - # 1
    frequency:     1.2030142831
  - # 2
    frequency:     1.3524425380
  - # 3
    frequency:     2.3491286279
  - # 4
    frequency:     6.4897424963
  - # 5
    frequency:     6.5219451076
  - # 6
    frequency:     6.6106674211
  - # 7
    frequency:     6.6398242003
  - # 8
    frequency:     6.7552819648
  - # 9
    frequency:     6.8757250327
  - # 10
    frequency:    10.3912345477
  - # 11
    frequency:    10.4355311998
  - # 12
    frequency:    10.4436654886

- q-position: [    0.1354167,    0.0520833,    0.0104167 ]
  weight: 48   
  band:
  - # 1
    frequency:     1.4166718361
  - # 2