  36  36   0   0
  0.1711627E+02  0.8820702E-09  0.8820702E-09  0.9115400E-09  0.5000000E-15
  1.000000000000000E-004
  CAR 
 unknown system                          
      8.88238324    -29.15064148  301      6.05092014      1.00000000
    -29.151  0.0000E+00  0.0000E+00
    -29.024  0.0000E+00  0.0000E+00
    -28.897  0.0000E+00  0.0000E+00
    -28.770  0.0000E+00  0.0000E+00
    -28.644  0.0000E+00  0.0000E+00
    -28.517  0.0000E+00  0.0000E+00
    -28.390  0.0000E+00  0.0000E+00
    -28.263  0.0000E+00  0.0000E+00
    -28.136  0.0000E+00  0.0000E+00
    -28.010  0.0000E+00  0.0000E+00
    -27.883  0.0000E+00  0.0000E+00
    -27.756  0.0000E+00  0.0000E+00
    -27.629  0.0000E+00  0.0000E+00
    -27.503  0.0000E+00  0.0000E+00
    -27.376  0.4846E+01  0.6143E+00
    -27.249  0.8906E+02  0.1310E+02
    -27.122  0.1310E+03  0.4785E+02
    -26.995  0.1166E+03  0.7203E+02
    -26.869  0.1940E+03  0.1064E+03
    -26.742  0.3496E+03  0.1714E+03
    -26.615  0.1372E+03  0.2159E+03
    -26.488  0.0000E+00  0.2160E+03
    -26.362  0.0000E+00  0.2160E+03
    -26.235  0.0000E+00  0.2160E+03
    -26.108  0.0000E+00  0.2160E+03
    -25.981  0.0000E+00  0.2160E+03
    -25.854  0.0000E+00  0.2160E+03
    -25.728  0.0000E+00  0.2160E+03
    -25.601  0.0000E+00  0.2160E+03
    -25.474  0.0000E+00  0.2160E+03
    -25.347  0.0000E+00  0.2160E+03
    -25.221  0.0000E+00  0.2160E+03
    -25.094  0.0000E+00  0.2160E+03
    -24.967  0.0000E+00  0.2160E+03
    -24.840  0.0000E+00  0.2160E+03
    -24.713  0.0000E+00  0.2160E+03
    -24.587  0.0000E+00  0.2160E+03
    -24.460  0.0000E+00  0.2160E+03
    -24.333  0.0000E+00  0.2160E+03
    -24.206  0.0000E+00  0.2160E+03
    -24.080  0.0000E+00  0.2160E+03
    -23.953  0.0000E+00  0.2160E+03
    -23.826  0.0000E+00  0.2160E+03
    -23.699  0.0000E+00  0.2160E+03
    -23.572  0.0000E+00  0.2160E+03
    -23.446  0.0000E+00  0.2160E+03
    -23.319  0.0000E+00  0.2160E+03
    -23.192  0.0000E+00  0.2160E+03
    -23.065  0.0000E+00  0.2160E+03
    -22.939  0.0000E+00  0.2160E+03
    -22.812  0.0000E+00  0.2160E+03
    -22.685  0.0000E+00  0.2160E+03
    -22.558  0.0000E+00  0.2160E+03
    -22.431  0.0000E+00  0.2160E+03
    -22.305  0.0000E+00  0.2160E+03
    -22.178  0.0000E+00  0.2160E+03
    -22.051  0.0000E+00  0.2160E+03
    -21.924  0.0000E+00  0.2160E+03
    -21.798  0.0000E+00  0.2160E+03
    -21.671  0.0000E+00  0.2160E+03
    -21.544  0.0000E+00  0.2160E+03
    -21.417  0.0000E+00  0.2160E+03
    -21.290  0.0000E+00  0.2160E+03
    -21.164  0.0000E+00  0.2160E+03
    -21.037  0.0000E+00  0.2160E+03
    -20.910  0.0000E+00  0.2160E+03
    -20.783  0.0000E+00  0.2160E+03
    -20.657  0.0000E+00  0.2160E+03
    -20.530  0.0000E+00  0.2160E+03
    -20.403  0.0000E+00  0.2160E+03
    -20.276  0.0000E+00  0.2160E+03
    -20.149  0.0000E+00  0.2160E+03
    -20.023  0.0000E+00  0.2160E+03
    -19.896  0.0000E+00  0.2160E+03
    -19.769  0.0000E+00  0.2160E+03
    -19.642  0.0000E+00  0.2160E+03
    -19.516  0.0000E+00  0.2160E+03
    -19.389  0.0000E+00  0.2160E+03
    -19.262  0.0000E+00  0.2160E+03
    -19.135  0.0000E+00  0.2160E+03
    -19.009  0.0000E+00  0.2160E+03
    -18.882  0.0000E+00  0.2160E+03
    -18.755  0.0000E+00  0.2160E+03
    -18.628  0.0000E+00  0.2160E+03
    -18.501  0.0000E+00  0.2160E+03
    -18.375  0.0000E+00  0.2160E+03
    -18.248  0.0000E+00  0.2160E+03
    -18.121  0.0000E+00  0.2160E+03
    -17.994  0.0000E+00  0.2160E+03
    -17.868  0.0000E+00  0.2160E+03
    -17.741  0.0000E+00  0.2160E+03
    -17.614  0.0000E+00  0.2160E+03
    -17.487  0.0000E+00  0.2160E+03
    -17.360  0.0000E+00  0.2160E+03
    -17.234  0.0000E+00  0.2160E+03
    -17.107  0.0000E+00  0.2160E+03
    -16.980  0.0000E+00  0.2160E+03
    -16.853  0.0000E+00  0.2160E+03
    -16.727  0.0000E+00  0.2160E+03
    -16.600  0.0000E+00  0.2160E+03
    -16.473  0.0000E+00  0.2160E+03
    -16.346  0.0000E+00  0.2160E+03
    -16.219  0.0000E+00  0.2160E+03
    -16.093  0.0000E+00  0.2160E+03
    -15.966  0.0000E+00  0.2160E+03
    -15.839  0.0000E+00  0.2160E+03
    -15.712  0.0000E+00  0.2160E+03
    -15.586  0.0000E+00  0.2160E+03
    -15.459  0.0000E+00  0.2160E+03
    -15.332  0.0000E+00  0.2160E+03
    -15.205  0.0000E+00  0.2160E+03
    -15.078  0.0000E+00  0.2160E+03
    -14.952  0.0000E+00  0.2160E+03
    -14.825  0.0000E+00  0.2160E+03
    -14.698  0.0000E+00  0.2160E+03
    -14.571  0.0000E+00  0.2160E+03
    -14.445  0.0000E+00  0.2160E+03
    -14.318  0.0000E+00  0.2160E+03
    -14.191  0.0000E+00  0.2160E+03
    -14.064  0.0000E+00  0.2160E+03
    -13.937  0.0000E+00  0.2160E+03
    -13.811  0.0000E+00  0.2160E+03
    -13.684  0.0000E+00  0.2160E+03
    -13.557  0.0000E+00  0.2160E+03
    -13.430  0.0000E+00  0.2160E+03
    -13.304  0.0000E+00  0.2160E+03
    -13.177  0.0000E+00  0.2160E+03
    -13.050  0.0000E+00  0.2160E+03
    -12.923  0.0000E+00  0.2160E+03
    -12.796  0.0000E+00  0.2160E+03
    -12.670  0.0000E+00  0.2160E+03
    -12.543  0.0000E+00  0.2160E+03
    -12.416  0.0000E+00  0.2160E+03
    -12.289  0.0000E+00  0.2160E+03
    -12.163  0.0000E+00  0.2160E+03
    -12.036  0.0000E+00  0.2160E+03
    -11.909  0.0000E+00  0.2160E+03
    -11.782  0.0000E+00  0.2160E+03
    -11.655  0.0000E+00  0.2160E+03
    -11.529  0.0000E+00  0.2160E+03
    -11.402  0.0000E+00  0.2160E+03
    -11.275  0.0000E+00  0.2160E+03
    -11.148  0.0000E+00  0.2160E+03
    -11.022  0.0000E+00  0.2160E+03
    -10.895  0.0000E+00  0.2160E+03
    -10.768  0.0000E+00  0.2160E+03
    -10.641  0.0000E+00  0.2160E+03
    -10.514  0.0000E+00  0.2160E+03
    -10.388  0.0000E+00  0.2160E+03
    -10.261  0.0000E+00  0.2160E+03
    -10.134  0.0000E+00  0.2160E+03
    -10.007  0.0000E+00  0.2160E+03
     -9.881  0.0000E+00  0.2160E+03
     -9.754  0.0000E+00  0.2160E+03
     -9.627  0.0000E+00  0.2160E+03
     -9.500  0.0000E+00  0.2160E+03
     -9.373  0.0000E+00  0.2160E+03
     -9.247  0.0000E+00  0.2160E+03
     -9.120  0.0000E+00  0.2160E+03
     -8.993  0.0000E+00  0.2160E+03
     -8.866  0.0000E+00  0.2160E+03
     -8.740  0.0000E+00  0.2160E+03
     -8.613  0.0000E+00  0.2160E+03
     -8.486  0.0000E+00  0.2160E+03
     -8.359  0.0000E+00  0.2160E+03
     -8.232  0.0000E+00  0.2160E+03
     -8.106  0.0000E+00  0.2160E+03
     -7.979  0.0000E+00  0.2160E+03
     -7.852  0.0000E+00  0.2160E+03
     -7.725  0.0000E+00  0.2160E+03
     -7.599  0.0000E+00  0.2160E+03
     -7.472  0.0000E+00  0.2160E+03
     -7.345  0.0000E+00  0.2160E+03
     -7.218  0.0000E+00  0.2160E+03
     -7.091  0.0000E+00  0.2160E+03
     -6.965  0.0000E+00  0.2160E+03
     -6.838  0.0000E+00  0.2160E+03
     -6.711  0.0000E+00  0.2160E+03
     -6.584  0.0000E+00  0.2160E+03
     -6.458  0.0000E+00  0.2160E+03
     -6.331  0.0000E+00  0.2160E+03
     -6.204  0.0000E+00  0.2160E+03
     -6.077  0.0000E+00  0.2160E+03
     -5.950  0.0000E+00  0.2160E+03
     -5.824  0.0000E+00  0.2160E+03
     -5.697  0.0000E+00  0.2160E+03
     -5.570  0.0000E+00  0.2160E+03
     -5.443  0.0000E+00  0.2160E+03
     -5.317  0.0000E+00  0.2160E+03
     -5.190  0.0000E+00  0.2160E+03
     -5.063  0.0000E+00  0.2160E+03
     -4.936  0.0000E+00  0.2160E+03
     -4.810  0.0000E+00  0.2160E+03
     -4.683  0.0000E+00  0.2160E+03
     -4.556  0.0000E+00  0.2160E+03
     -4.429  0.0000E+00  0.2160E+03
     -4.302  0.0000E+00  0.2160E+03
     -4.176  0.0000E+00  0.2160E+03
     -4.049  0.0000E+00  0.2160E+03
     -3.922  0.0000E+00  0.2160E+03
     -3.795  0.0000E+00  0.2160E+03
     -3.669  0.0000E+00  0.2160E+03
     -3.542  0.0000E+00  0.2160E+03
     -3.415  0.0000E+00  0.2160E+03
     -3.288  0.0000E+00  0.2160E+03
     -3.161  0.0000E+00  0.2160E+03
     -3.035  0.0000E+00  0.2160E+03
     -2.908  0.0000E+00  0.2160E+03
     -2.781  0.0000E+00  0.2160E+03
     -2.654  0.0000E+00  0.2160E+03
     -2.528  0.0000E+00  0.2160E+03
     -2.401  0.0000E+00  0.2160E+03
     -2.274  0.0000E+00  0.2160E+03
     -2.147  0.0000E+00  0.2160E+03
     -2.020  0.0000E+00  0.2160E+03
     -1.894  0.0000E+00  0.2160E+03
     -1.767  0.0000E+00  0.2160E+03
     -1.640  0.0000E+00  0.2160E+03
     -1.513  0.0000E+00  0.2160E+03
     -1.387  0.0000E+00  0.2160E+03
     -1.260  0.0000E+00  0.2160E+03
     -1.133  0.0000E+00  0.2160E+03
     -1.006  0.0000E+00  0.2160E+03
     -0.879  0.0000E+00  0.2160E+03
     -0.753  0.0000E+00  0.2160E+03
     -0.626  0.0000E+00  0.2160E+03
     -0.499  0.0000E+00  0.2160E+03
     -0.372  0.0000E+00  0.2160E+03
     -0.246  0.0000E+00  0.2160E+03
     -0.119  0.6439E-01  0.2160E+03
      0.008  0.6618E+00  0.2161E+03
      0.135  0.9731E+00  0.2163E+03
      0.262  0.1191E+01  0.2165E+03
      0.388  0.1996E+01  0.2169E+03
      0.515  0.1543E+01  0.2172E+03
      0.642  0.2204E+01  0.2175E+03
      0.769  0.2318E+01  0.2181E+03
      0.895  0.1470E+01  0.2183E+03
      1.022  0.3206E+01  0.2189E+03
      1.149  0.3348E+01  0.2195E+03
      1.276  0.8419E+00  0.2198E+03
      1.403  0.5239E+01  0.2208E+03
      1.529  0.2509E+01  0.2212E+03
      1.656  0.3548E+01  0.2220E+03
      1.783  0.3778E+01  0.2228E+03
      1.910  0.4728E+01  0.2234E+03
      2.036  0.4508E+01  0.2244E+03
      2.163  0.4072E+01  0.2253E+03
      2.290  0.3863E+01  0.2264E+03
      2.417  0.5276E+01  0.2271E+03
      2.544  0.6891E+01  0.2286E+03
      2.670  0.7122E+01  0.2300E+03
      2.797  0.6966E+01  0.2311E+03
      2.924  0.7448E+01  0.2326E+03
      3.051  0.1121E+02  0.2347E+03
      3.177  0.1374E+02  0.2370E+03
      3.304  0.1592E+02  0.2397E+03
      3.431  0.1633E+02  0.2427E+03
      3.558  0.2752E+02  0.2485E+03
      3.685  0.2387E+02  0.2523E+03
      3.811  0.2412E+02  0.2567E+03
      3.938  0.2454E+02  0.2612E+03
      4.065  0.1800E+02  0.2665E+03
      4.192  0.3091E+02  0.2727E+03
      4.318  0.4225E+02  0.2802E+03
      4.445  0.3359E+02  0.2873E+03
      4.572  0.1964E+02  0.2917E+03
      4.699  0.2577E+02  0.2969E+03
      4.826  0.2143E+02  0.3018E+03
      4.952  0.3114E+02  0.3089E+03
      5.079  0.2713E+02  0.3142E+03
      5.206  0.4658E+02  0.3229E+03
      5.333  0.3474E+02  0.3304E+03
      5.459  0.4582E+02  0.3394E+03
      5.586  0.3296E+02  0.3472E+03
      5.713  0.1809E+02  0.3506E+03
      5.840  0.2169E+02  0.3543E+03
      5.967  0.9355E+01  0.3568E+03
      6.093  0.2415E+02  0.3614E+03
      6.220  0.4306E+02  0.3684E+03
      6.347  0.4281E+02  0.3781E+03
      6.474  0.5513E+02  0.3889E+03
      6.600  0.4276E+02  0.3977E+03
      6.727  0.4521E+02  0.4063E+03
      6.854  0.5495E+02  0.4167E+03
      6.981  0.5188E+02  0.4281E+03
      7.108  0.1260E+02  0.4319E+03
      7.234  0.0000E+00  0.4320E+03
      7.361  0.0000E+00  0.4320E+03
      7.488  0.0000E+00  0.4320E+03
      7.615  0.0000E+00  0.4320E+03
      7.741  0.0000E+00  0.4320E+03
      7.868  0.0000E+00  0.4320E+03
      7.995  0.0000E+00  0.4320E+03
      8.122  0.0000E+00  0.4320E+03
      8.248  0.0000E+00  0.4320E+03
      8.375  0.0000E+00  0.4320E+03
      8.502  0.0000E+00  0.4320E+03
      8.629  0.0000E+00  0.4320E+03
      8.756  0.0000E+00  0.4320E+03
      8.882  0.0000E+00  0.4320E+03
