   36   36    1    1
  0.1711627E+02  0.8820702E-09  0.8820702E-09  0.9115400E-09  0.5000000E-15
  1.000000000000000E-004
  CAR 
 unknown system                          
  360  123  216
 
  0.0000000E+00  0.0000000E+00  0.0000000E+00  0.4081633E-02
   1      -27.4219
   2      -27.2160
   3      -27.2159
   4      -27.2159
   5      -27.2157
   6      -27.2103
   7      -27.2099
   8      -27.2094
   9      -27.2093
  10      -27.2093
  11      -27.2090
  12      -27.2052
  13      -27.2050
  14      -27.2049
  15      -27.2048
  16      -27.2048
  17      -27.2048
  18      -27.2047
  19      -27.2046
  20      -27.2016
  21      -27.2015
  22      -27.2013
  23      -27.2012
  24      -27.1222
  25      -27.1217
  26      -27.0841
  27      -27.0839
  28      -27.0830
  29      -27.0829
  30      -27.0828
  31      -27.0827
  32      -27.0453
  33      -27.0446
  34      -26.9969
  35      -26.9966
  36      -26.9948
  37      -26.9945
  38      -26.9922
  39      -26.9918
  40      -26.9917
  41      -26.9913
  42      -26.9671
  43      -26.9666
  44      -26.9620
  45      -26.9617
  46      -26.9566
  47      -26.9565
  48      -26.9564
  49      -26.9563
  50      -26.9558
  51      -26.9557
  52      -26.8588
  53      -26.8584
  54      -26.8557
  55      -26.8557
  56      -26.8453
  57      -26.8452
  58      -26.8451
  59      -26.8449
  60      -26.8053
  61      -26.8052
  62      -26.8049
  63      -26.8048
  64      -26.8030
  65      -26.8027
  66      -26.8027
  67      -26.8025
  68      -26.8025
  69      -26.8025
  70      -26.8021
  71      -26.8019
  72      -26.7680
  73      -26.7675
  74      -26.7675
  75      -26.7672
  76      -26.7642
  77      -26.7640
  78      -26.7638
  79      -26.7638
  80      -26.7637
  81      -26.7634
  82      -26.7554
  83      -26.7551
  84      -26.7550
  85      -26.7550
  86      -26.7549
  87      -26.7548
  88      -26.7546
  89      -26.7546
  90      -26.7429
  91      -26.7383
  92      -26.7382
  93      -26.7382
  94      -26.7381
  95      -26.7329
  96      -26.6824
  97      -26.6822
  98      -26.6754
  99      -26.6752
 100      -26.6705
 101      -26.6703
 102      -26.6637
 103      -26.6635
 104      -26.6635
 105      -26.6633
 106      -26.6473
 107      -26.6212
 108      -26.6174
 109       -0.1476
 110        1.7778
 111        1.7780
 112        2.4045
 113        2.4047
 114        2.4049
 115        2.4052
 116        2.4211
 117        2.4214
 118        3.3203
 119        3.3205
 120        3.3207
 121        3.3208
 122        3.3209
 123        3.3210
 124        3.3213
 125        3.3216
 126        3.3344
 127        3.3346
 128        3.3346
 129        3.3352
 130        3.3368
 131        4.2414
 132        4.2421
 133        4.2505
 134        4.2509
 135        4.2511
 136        4.2517
 137        4.2686
 138        4.2702
 139        4.5680
 140        4.5682
 141        4.5792
 142        4.5794
 143        4.6150
 144        4.6162
 145        4.6397
 146        4.6400
 147        4.6401
 148        4.6415
 149        4.6885
 150        4.6886
 151        4.7521
 152        4.7532
 153        4.7539
 154        4.7549
 155        4.9382
 156        4.9395
 157        4.9395
 158        4.9409
 159        5.3526
 160        5.3539
 161        5.3541
 162        5.3547
 163        5.3619
 164        5.3636
 165        5.3637
 166        5.3641
 167        5.3642
 168        5.3643
 169        5.3646
 170        5.3654
 171        5.3658
 172        5.3666
 173        5.3668
 174        5.3682
 175        5.3820
 176        5.3836
 177        5.8253
 178        5.8255
 179        5.8255
 180        5.8257
 181        6.2065
 182        6.2094
 183        6.2581
 184        6.2592
 185        6.3136
 186        6.3152
 187        6.5896
 188        6.5906
 189        6.6159
 190        6.6160
 191        6.6290
 192        6.6300
 193        6.6304
 194        6.6310
 195        6.6312
 196        6.6314
 197        6.6319
 198        6.6324
 199        6.6441
 200        6.6443
 201        6.6447
 202        6.6454
 203        6.6703
 204        6.6713
 205        6.6719
 206        6.6728
 207        6.6755
 208        6.6762
 209        6.7351
 210        6.8283
 211        6.9062
 212        6.9080
 213        6.9127
 214        6.9204
 215        6.9298
 216        6.9314
 
  0.1428571E+00  0.0000000E+00  0.0000000E+00  0.8163265E-02
   1      -27.4166
   2      -27.2567
   3      -27.2436
   4      -27.2435
   5      -27.2307
   6      -27.2301
   7      -27.2238
   8      -27.2237
   9      -27.2210
  10      -27.2209
  11      -27.2208
  12      -27.2208
  13      -27.2204
  14      -27.2204
  15      -27.1840
  16      -27.1838
  17      -27.1837
  18      -27.1828
  19      -27.1805
  20      -27.1803
  21      -27.1631
  22      -27.1623
  23      -27.1621
  24      -27.1368
  25      -27.1274
  26      -27.1247
  27      -27.1113
  28      -27.1087
  29      -27.0512
  30      -27.0507
  31      -27.0473
  32      -27.0466
  33      -27.0187
  34      -27.0092
  35      -27.0059
  36      -27.0051
  37      -27.0046
  38      -27.0009
  39      -26.9844
  40      -26.9832
  41      -26.9819
  42      -26.9816
  43      -26.9816
  44      -26.9810
  45      -26.9795
  46      -26.9792
  47      -26.9357
  48      -26.9346
  49      -26.9296
  50      -26.9249
  51      -26.8975
  52      -26.8660
  53      -26.8610
  54      -26.8565
  55      -26.8447
  56      -26.8442
  57      -26.8442
  58      -26.8349
  59      -26.8259
  60      -26.8167
  61      -26.8166
  62      -26.8124
  63      -26.8122
  64      -26.8073
  65      -26.8071
  66      -26.8064
  67      -26.8063
  68      -26.8049
  69      -26.8047
  70      -26.7993
  71      -26.7942
  72      -26.7941
  73      -26.7855
  74      -26.7813
  75      -26.7670
  76      -26.7667
  77      -26.7659
  78      -26.7657
  79      -26.7586
  80      -26.7584
  81      -26.7547
  82      -26.7545
  83      -26.7536
  84      -26.7517
  85      -26.7509
  86      -26.7474
  87      -26.7472
  88      -26.7408
  89      -26.7406
  90      -26.7395
  91      -26.7395
  92      -26.7389
  93      -26.7389
  94      -26.7375
  95      -26.7372
  96      -26.6881
  97      -26.6879
  98      -26.6809
  99      -26.6785
 100      -26.6784
 101      -26.6742
 102      -26.6715
 103      -26.6711
 104      -26.6649
 105      -26.6543
 106      -26.6499
 107      -26.6311
 108      -26.6193
 109       -0.0839
 110        1.8314
 111        1.8316
 112        1.8502
 113        2.1722
 114        2.1851
 115        2.7064
 116        2.7250
 117        2.9188
 118        3.1302
 119        3.1304
 120        3.2707
 121        3.2710
 122        3.2826
 123        3.2828
 124        3.3855
 125        3.4142
 126        3.4145
 127        3.4189
 128        3.4192
 129        3.4281
 130        3.4284
 131        4.1360
 132        4.2183
 133        4.2282
 134        4.2673
 135        4.2760
 136        4.2892
 137        4.3087
 138        4.3183
 139        4.4214
 140        4.4249
 141        4.4347
 142        4.4964
 143        4.5201
 144        4.5209
 145        4.5230
 146        4.5234
 147        4.5244
 148        4.5834
 149        4.6134
 150        4.7127
 151        4.7362
 152        4.7459
 153        4.7656
 154        4.9263
 155        5.1675
 156        5.1683
 157        5.1760
 158        5.1767
 159        5.3018
 160        5.3161
 161        5.3172
 162        5.3218
 163        5.3273
 164        5.3461
 165        5.3498
 166        5.3508
 167        5.3512
 168        5.3519
 169        5.3753
 170        5.3982
 171        5.3994
 172        5.4013
 173        5.4022
 174        5.4214
 175        5.4225
 176        5.4342
 177        5.8136
 178        5.8138
 179        5.8171
 180        5.8174
 181        6.1392
 182        6.1418
 183        6.1921
 184        6.2388
 185        6.3715
 186        6.4211
 187        6.4885
 188        6.4891
 189        6.4911
 190        6.4919
 191        6.4943
 192        6.5213
 193        6.5218
 194        6.5334
 195        6.5412
 196        6.6097
 197        6.6265
 198        6.6364
 199        6.6365
 200        6.6486
 201        6.6590
 202        6.6596
 203        6.7005
 204        6.7010
 205        6.7041
 206        6.7045
 207        6.7847
 208        6.8268
 209        6.8332
 210        6.8583
 211        6.8760
 212        6.8838
 213        6.8884
 214        6.8905
 215        6.9236
 216        6.9311
 
  0.2857143E+00  0.0000000E+00  0.0000000E+00  0.8163265E-02
   1      -27.4011
   2      -27.3020
   3      -27.2726
   4      -27.2726
   5      -27.2448
   6      -27.2445
   7      -27.2371
   8      -27.2370
   9      -27.2349
  10      -27.2348
  11      -27.2314
  12      -27.2314
  13      -27.2306
  14      -27.2306
  15      -27.1758
  16      -27.1652
  17      -27.1650
  18      -27.1626
  19      -27.1624
  20      -27.1531
  21      -27.1515
  22      -27.1364
  23      -27.1320
  24      -27.1306
  25      -27.1268
  26      -27.1235
  27      -27.1221
  28      -27.1218
  29      -27.0540
  30      -27.0534
  31      -27.0434
  32      -27.0402
  33      -27.0395
  34      -27.0225
  35      -27.0182
  36      -27.0165
  37      -27.0147
  38      -27.0093
  39      -27.0063
  40      -26.9582
  41      -26.9571
  42      -26.9540
  43      -26.9537
  44      -26.9503
  45      -26.9496
  46      -26.9493
  47      -26.9341
  48      -26.9330
  49      -26.8948
  50      -26.8898
  51      -26.8818
  52      -26.8741
  53      -26.8723
  54      -26.8432
  55      -26.8430
  56      -26.8371
  57      -26.8370
  58      -26.8329
  59      -26.8284
  60      -26.8236
  61      -26.8185
  62      -26.8130
  63      -26.8128
  64      -26.8117
  65      -26.8110
  66      -26.8108
  67      -26.8101
  68      -26.8079
  69      -26.8078
  70      -26.8074
  71      -26.8048
  72      -26.8029
  73      -26.7799
  74      -26.7791
  75      -26.7791
  76      -26.7755
  77      -26.7752
  78      -26.7607
  79      -26.7606
  80      -26.7557
  81      -26.7556
  82      -26.7486
  83      -26.7462
  84      -26.7461
  85      -26.7441
  86      -26.7428
  87      -26.7427
  88      -26.7423
  89      -26.7416
  90      -26.7415
  91      -26.7413
  92      -26.7412
  93      -26.7254
  94      -26.7252
  95      -26.7103
  96      -26.7055
  97      -26.7054
  98      -26.7028
  99      -26.6970
 100      -26.6859
 101      -26.6858
 102      -26.6804
 103      -26.6773
 104      -26.6757
 105      -26.6616
 106      -26.6575
 107      -26.6447
 108      -26.6227
 109        0.1045
 110        1.3075
 111        1.9876
 112        1.9878
 113        2.0155
 114        2.0238
 115        2.8526
 116        2.8528
 117        3.0640
 118        3.0833
 119        3.2527
 120        3.2529
 121        3.2608
 122        3.2610
 123        3.3358
 124        3.4555
 125        3.4558
 126        3.5259
 127        3.5556
 128        3.5560
 129        3.5679
 130        3.5682
 131        4.0013
 132        4.1852
 133        4.1912
 134        4.2006
 135        4.2358
 136        4.2363
 137        4.2374
 138        4.2377
 139        4.2392
 140        4.2515
 141        4.2726
 142        4.2733
 143        4.2892
 144        4.4007
 145        4.4038
 146        4.4131
 147        4.4287
 148        4.4824
 149        4.5095
 150        4.8266
 151        4.8461
 152        4.8647
 153        4.8777
 154        5.2044
 155        5.2264
 156        5.2726
 157        5.2766
 158        5.2777
 159        5.2861
 160        5.3101
 161        5.3195
 162        5.3660
 163        5.3671
 164        5.3707
 165        5.3718
 166        5.4122
 167        5.4134
 168        5.4140
 169        5.4149
 170        5.4345
 171        5.4356
 172        5.4368
 173        5.4376
 174        5.5087
 175        5.5100
 176        5.5959
 177        5.8363
 178        5.8367
 179        5.8415
 180        5.8419
 181        5.9857
 182        5.9879
 183        6.1707
 184        6.2146
 185        6.3379
 186        6.3383
 187        6.3596
 188        6.3600
 189        6.3738
 190        6.3909
 191        6.4145
 192        6.4562
 193        6.4787
 194        6.4791
 195        6.5038
 196        6.5305
 197        6.5311
 198        6.5487
 199        6.5527
 200        6.5656
 201        6.5669
 202        6.5679
 203        6.5850
 204        6.6483
 205        6.6484
 206        6.7696
 207        6.7947
 208        6.7948
 209        6.8342
 210        6.8371
 211        6.8424
 212        6.8675
 213        6.8895
 214        6.9465
 215        6.9877
 216        7.1467
 
  0.4285714E+00  0.0000000E+00  0.0000000E+00  0.8163265E-02
   1      -27.3760
   2      -27.3424
   3      -27.2881
   4      -27.2881
   5      -27.2520
   6      -27.2518
   7      -27.2427
   8      -27.2426
   9      -27.2411
  10      -27.2411
  11      -27.2402
  12      -27.2402
  13      -27.2391
  14      -27.2391
  15      -27.1961
  16      -27.1537
  17      -27.1534
  18      -27.1526
  19      -27.1524
  20      -27.1422
  21      -27.1408
  22      -27.1372
  23      -27.1361
  24      -27.1187
  25      -27.1166
  26      -27.0991
  27      -27.0898
  28      -27.0894
  29      -27.0818
  30      -27.0791
  31      -27.0674
  32      -27.0669
  33      -27.0575
  34      -27.0292
  35      -27.0249
  36      -27.0246
  37      -27.0208
  38      -26.9828
  39      -26.9802
  40      -26.9521
  41      -26.9496
  42      -26.9307
  43      -26.9275
  44      -26.9169
  45      -26.9167
  46      -26.9113
  47      -26.9110
  48      -26.9040
  49      -26.8985
  50      -26.8838
  51      -26.8783
  52      -26.8782
  53      -26.8780
  54      -26.8718
  55      -26.8716
  56      -26.8626
  57      -26.8575
  58      -26.8473
  59      -26.8334
  60      -26.8284
  61      -26.8253
  62      -26.8166
  63      -26.8164
  64      -26.8157
  65      -26.8155
  66      -26.8082
  67      -26.8081
  68      -26.8035
  69      -26.8022
  70      -26.7838
  71      -26.7799
  72      -26.7796
  73      -26.7724
  74      -26.7693
  75      -26.7680
  76      -26.7644
  77      -26.7571
  78      -26.7571
  79      -26.7539
  80      -26.7538
  81      -26.7505
  82      -26.7504
  83      -26.7476
  84      -26.7476
  85      -26.7454
  86      -26.7453
  87      -26.7411
  88      -26.7411
  89      -26.7396
  90      -26.7395
  91      -26.7389
  92      -26.7382
  93      -26.7344
  94      -26.7306
  95      -26.7305
  96      -26.7298
  97      -26.7103
  98      -26.7101
  99      -26.7090
 100      -26.6967
 101      -26.6966
 102      -26.6905
 103      -26.6885
 104      -26.6878
 105      -26.6804
 106      -26.6701
 107      -26.6358
 108      -26.6283
 109        0.4096
 110        0.8176
 111        1.9380
 112        1.9409
 113        2.2311
 114        2.2313
 115        2.5341
 116        2.5342
 117        3.2512
 118        3.2513
 119        3.2541
 120        3.2542
 121        3.4555
 122        3.4645
 123        3.4649
 124        3.4743
 125        3.6172
 126        3.7375
 127        3.7436
 128        3.7439
 129        3.7529
 130        3.7532
 131        3.8459
 132        3.8634
 133        3.8663
 134        3.9727
 135        3.9731
 136        3.9782
 137        3.9786
 138        3.9811
 139        4.1982
 140        4.2923
 141        4.2968
 142        4.3132
 143        4.3148
 144        4.3332
 145        4.3594
 146        4.3808
 147        4.4027
 148        4.4853
 149        4.4900
 150        4.9402
 151        4.9449
 152        4.9521
 153        4.9709
 154        5.0820
 155        5.1016
 156        5.2244
 157        5.2345
 158        5.2537
 159        5.2549
 160        5.3309
 161        5.4119
 162        5.4130
 163        5.4206
 164        5.4216
 165        5.4543
 166        5.4557
 167        5.4563
 168        5.4569
 169        5.4613
 170        5.4622
 171        5.4707
 172        5.4717
 173        5.6403
 174        5.6418
 175        5.6709
 176        5.8072
 177        5.8091
 178        5.8364
 179        6.0209
 180        6.0212
 181        6.0424
 182        6.0427
 183        6.1063
 184        6.1151
 185        6.1977
 186        6.2386
 187        6.2542
 188        6.2545
 189        6.2621
 190        6.2624
 191        6.2688
 192        6.2934
 193        6.2938
 194        6.3080
 195        6.3230
 196        6.3234
 197        6.4167
 198        6.5240
 199        6.5297
 200        6.5387
 201        6.5389
 202        6.6102
 203        6.6102
 204        6.6408
 205        6.6881
 206        6.7404
 207        6.7600
 208        6.8058
 209        6.8296
 210        6.8422
 211        6.9275
 212        6.9440
 213        6.9442
 214        7.0595
 215        7.1227
 216        7.1536
 
 -0.5421011E-19  0.1428571E+00  0.0000000E+00  0.8163265E-02
   1      -27.4166
   2      -27.2568
   3      -27.2435
   4      -27.2435
   5      -27.2307
   6      -27.2301
   7      -27.2238
   8      -27.2237
   9      -27.2210
  10      -27.2209
  11      -27.2208
  12      -27.2208
  13      -27.2204
  14      -27.2203
  15      -27.1841
  16      -27.1839
  17      -27.1838
  18      -27.1827
  19      -27.1805
  20      -27.1803
  21      -27.1631
  22      -27.1623
  23      -27.1621
  24      -27.1369
  25      -27.1274
  26      -27.1247
  27      -27.1114
  28      -27.1087
  29      -27.0513
  30      -27.0507
  31      -27.0473
  32      -27.0466
  33      -27.0187
  34      -27.0092
  35      -27.0059
  36      -27.0051
  37      -27.0047
  38      -27.0008
  39      -26.9844
  40      -26.9832
  41      -26.9820
  42      -26.9816
  43      -26.9816
  44      -26.9810
  45      -26.9795
  46      -26.9791
  47      -26.9358
  48      -26.9346
  49      -26.9297
  50      -26.9248
  51      -26.8975
  52      -26.8660
  53      -26.8610
  54      -26.8565
  55      -26.8447
  56      -26.8443
  57      -26.8441
  58      -26.8348
  59      -26.8259
  60      -26.8168
  61      -26.8166
  62      -26.8123
  63      -26.8122
  64      -26.8073
  65      -26.8071
  66      -26.8065
  67      -26.8063
  68      -26.8048
  69      -26.8047
  70      -26.7992
  71      -26.7942
  72      -26.7941
  73      -26.7856
  74      -26.7813
  75      -26.7670
  76      -26.7667
  77      -26.7659
  78      -26.7657
  79      -26.7585
  80      -26.7584
  81      -26.7547
  82      -26.7545
  83      -26.7537
  84      -26.7516
  85      -26.7509
  86      -26.7474
  87      -26.7472
  88      -26.7408
  89      -26.7406
  90      -26.7395
  91      -26.7395
  92      -26.7389
  93      -26.7388
  94      -26.7376
  95      -26.7371
  96      -26.6881
  97      -26.6879
  98      -26.6809
  99      -26.6785
 100      -26.6784
 101      -26.6742
 102      -26.6715
 103      -26.6711
 104      -26.6649
 105      -26.6543
 106      -26.6499
 107      -26.6311
 108      -26.6192
 109       -0.0839
 110        1.8314
 111        1.8316
 112        1.8501
 113        2.1722
 114        2.1852
 115        2.7065
 116        2.7250
 117        2.9187
 118        3.1302
 119        3.1304
 120        3.2707
 121        3.2709
 122        3.2826
 123        3.2828
 124        3.3855
 125        3.4141
 126        3.4144
 127        3.4190
 128        3.4193
 129        3.4280
 130        3.4284
 131        4.1359
 132        4.2183
 133        4.2284
 134        4.2672
 135        4.2761
 136        4.2890
 137        4.3087
 138        4.3185
 139        4.4210
 140        4.4249
 141        4.4347
 142        4.4964
 143        4.5199
 144        4.5207
 145        4.5231
 146        4.5234
 147        4.5248
 148        4.5834
 149        4.6135
 150        4.7127
 151        4.7362
 152        4.7459
 153        4.7660
 154        4.9259
 155        5.1675
 156        5.1683
 157        5.1762
 158        5.1769
 159        5.3017
 160        5.3159
 161        5.3170
 162        5.3218
 163        5.3273
 164        5.3459
 165        5.3499
 166        5.3510
 167        5.3512
 168        5.3523
 169        5.3753
 170        5.3982
 171        5.3994
 172        5.4012
 173        5.4023
 174        5.4213
 175        5.4224
 176        5.4343
 177        5.8135
 178        5.8137
 179        5.8172
 180        5.8175
 181        6.1392
 182        6.1418
 183        6.1920
 184        6.2390
 185        6.3711
 186        6.4212
 187        6.4882
 188        6.4888
 189        6.4915
 190        6.4920
 191        6.4943
 192        6.5214
 193        6.5218
 194        6.5332
 195        6.5415
 196        6.6095
 197        6.6266
 198        6.6364
 199        6.6364
 200        6.6485
 201        6.6587
 202        6.6593
 203        6.7005
 204        6.7010
 205        6.7042
 206        6.7045
 207        6.7844
 208        6.8271
 209        6.8334
 210        6.8551
 211        6.8679
 212        6.8842
 213        6.8883
 214        6.8892
 215        6.9178
 216        6.9237
 
  0.1428571E+00  0.1428571E+00  0.0000000E+00  0.8163265E-02
   1      -27.4062
   2      -27.2767
   3      -27.2766
   4      -27.2574
   5      -27.2573
   6      -27.2572
   7      -27.2571
   8      -27.2316
   9      -27.2316
  10      -27.2242
  11      -27.2241
  12      -27.2007
  13      -27.2006
  14      -27.2004
  15      -27.2003
  16      -27.1985
  17      -27.1981
  18      -27.1554
  19      -27.1554
  20      -27.1427
  21      -27.1425
  22      -27.1424
  23      -27.1424
  24      -27.1421
  25      -27.1391
  26      -27.1389
  27      -27.1202
  28      -27.0778
  29      -27.0776
  30      -27.0518
  31      -27.0512
  32      -27.0357
  33      -27.0271
  34      -27.0253
  35      -27.0227
  36      -27.0226
  37      -27.0049
  38      -26.9849
  39      -26.9848
  40      -26.9826
  41      -26.9749
  42      -26.9748
  43      -26.9614
  44      -26.9611
  45      -26.9607
  46      -26.9604
  47      -26.9516
  48      -26.9041
  49      -26.8987
  50      -26.8798
  51      -26.8796
  52      -26.8720
  53      -26.8719
  54      -26.8558
  55      -26.8558
  56      -26.8301
  57      -26.8299
  58      -26.8297
  59      -26.8296
  60      -26.8264
  61      -26.8183
  62      -26.8182
  63      -26.8181
  64      -26.8179
  65      -26.8172
  66      -26.8169
  67      -26.8164
  68      -26.8097
  69      -26.8096
  70      -26.7919
  71      -26.7918
  72      -26.7916
  73      -26.7914
  74      -26.7721
  75      -26.7717
  76      -26.7707
  77      -26.7663
  78      -26.7661
  79      -26.7660
  80      -26.7659
  81      -26.7553
  82      -26.7551
  83      -26.7550
  84      -26.7549
  85      -26.7450
  86      -26.7422
  87      -26.7422
  88      -26.7401
  89      -26.7401
  90      -26.7341
  91      -26.7339
  92      -26.7338
  93      -26.7337
  94      -26.7250
  95      -26.7246
  96      -26.7004
  97      -26.7003
  98      -26.6927
  99      -26.6925
 100      -26.6827
 101      -26.6825
 102      -26.6815
 103      -26.6814
 104      -26.6550
 105      -26.6550
 106      -26.6548
 107      -26.6508
 108      -26.6217
 109        0.0416
 110        1.6183
 111        1.6188
 112        1.9359
 113        1.9361
 114        2.5751
 115        2.5753
 116        3.0324
 117        3.0325
 118        3.0328
 119        3.0329
 120        3.1774
 121        3.1778
 122        3.4593
 123        3.4594
 124        3.4596
 125        3.4601
 126        3.4787
 127        3.4788
 128        3.4790
 129        3.4795
 130        3.4800
 131        4.0992
 132        4.0994
 133        4.2273
 134        4.2541
 135        4.2793
 136        4.2800
 137        4.2905
 138        4.2910
 139        4.3008
 140        4.3022
 141        4.3422
 142        4.3430
 143        4.3491
 144        4.3496
 145        4.3604
 146        4.3611
 147        4.4499
 148        4.6025
 149        4.6036
 150        4.6373
 151        4.7117
 152        4.8678
 153        5.0738
 154        5.0747
 155        5.2385
 156        5.2399
 157        5.2897
 158        5.2900
 159        5.3104
 160        5.3110
 161        5.3116
 162        5.3125
 163        5.3168
 164        5.3176
 165        5.3943
 166        5.3958
 167        5.3972
 168        5.3984
 169        5.3989
 170        5.3991
 171        5.4605
 172        5.4617
 173        5.4619
 174        5.4632
 175        5.4652
 176        5.4662
 177        5.8200
 178        5.8205
 179        5.8282
 180        5.8284
 181        6.0283
 182        6.0306
 183        6.1830
 184        6.1992
 185        6.4236
 186        6.4243
 187        6.4248
 188        6.4257
 189        6.4367
 190        6.4372
 191        6.4375
 192        6.4380
 193        6.4451
 194        6.4528
 195        6.4539
 196        6.4627
 197        6.4632
 198        6.4867
 199        6.5027
 200        6.6406
 201        6.6408
 202        6.6661
 203        6.7749
 204        6.7750
 205        6.7854
 206        6.7868
 207        6.7945
 208        6.7958
 209        6.8190
 210        6.8200
 211        6.8982
 212        6.8986
 213        6.8988
 214        6.8991
 215        6.9717
 216        6.9807
 
  0.2857143E+00  0.1428571E+00  0.0000000E+00  0.8163265E-02
   1      -27.3859
   2      -27.3195
   3      -27.2889
   4      -27.2794
   5      -27.2794
   6      -27.2628
   7      -27.2628
   8      -27.2465
   9      -27.2465
  10      -27.2270
  11      -27.2269
  12      -27.2160
  13      -27.2159
  14      -27.2072
  15      -27.1854
  16      -27.1851
  17      -27.1850
  18      -27.1645
  19      -27.1614
  20      -27.1584
  21      -27.1282
  22      -27.1279
  23      -27.1136
  24      -27.1118
  25      -27.1063
  26      -27.1060
  27      -27.1056
  28      -27.0975
  29      -27.0774
  30      -27.0619
  31      -27.0614
  32      -27.0557
  33      -27.0480
  34      -27.0420
  35      -27.0328
  36      -27.0325
  37      -27.0227
  38      -27.0085
  39      -26.9844
  40      -26.9546
  41      -26.9515
  42      -26.9294
  43      -26.9291
  44      -26.9273
  45      -26.9271
  46      -26.9221
  47      -26.9175
  48      -26.8910
  49      -26.8869
  50      -26.8814
  51      -26.8789
  52      -26.8736
  53      -26.8638
  54      -26.8614
  55      -26.8612
  56      -26.8461
  57      -26.8460
  58      -26.8422
  59      -26.8403
  60      -26.8400
  61      -26.8384
  62      -26.8372
  63      -26.8267
  64      -26.8216
  65      -26.8215
  66      -26.8053
  67      -26.7973
  68      -26.7949
  69      -26.7918
  70      -26.7916
  71      -26.7855
  72      -26.7791
  73      -26.7775
  74      -26.7723
  75      -26.7723
  76      -26.7703
  77      -26.7702
  78      -26.7664
  79      -26.7625
  80      -26.7586
  81      -26.7586
  82      -26.7521
  83      -26.7521
  84      -26.7482
  85      -26.7481
  86      -26.7472
  87      -26.7472
  88      -26.7426
  89      -26.7425
  90      -26.7305
  91      -26.7303
  92      -26.7231
  93      -26.7212
  94      -26.7211
  95      -26.7196
  96      -26.7195
  97      -26.7171
  98      -26.7082
  99      -26.7037
 100      -26.7001
 101      -26.6920
 102      -26.6918
 103      -26.6861
 104      -26.6858
 105      -26.6652
 106      -26.6636
 107      -26.6450
 108      -26.6278
 109        0.2879
 110        1.0992
 111        1.4784
 112        2.1360
 113        2.1362
 114        2.4843
 115        2.7285
 116        2.7286
 117        2.9766
 118        2.9767
 119        3.0160
 120        3.4771
 121        3.4992
 122        3.4994
 123        3.4999
 124        3.5002
 125        3.5295
 126        3.5998
 127        3.6002
 128        3.6567
 129        3.6650
 130        3.6652
 131        3.8836
 132        3.9657
 133        4.0175
 134        4.0180
 135        4.0886
 136        4.1203
 137        4.1207
 138        4.1212
 139        4.1263
 140        4.2323
 141        4.2412
 142        4.2905
 143        4.2948
 144        4.3058
 145        4.3471
 146        4.4305
 147        4.4843
 148        4.5264
 149        4.5940
 150        4.6890
 151        4.7923
 152        5.0036
 153        5.0828
 154        5.1052
 155        5.1867
 156        5.2118
 157        5.2815
 158        5.2827
 159        5.2982
 160        5.3450
 161        5.3462
 162        5.4229
 163        5.4238
 164        5.4326
 165        5.4332
 166        5.4368
 167        5.4490
 168        5.4499
 169        5.4611
 170        5.4623
 171        5.4636
 172        5.4966
 173        5.4977
 174        5.5641
 175        5.5655
 176        5.6756
 177        5.8678
 178        5.8694
 179        5.8705
 180        5.8716
 181        6.0324
 182        6.0327
 183        6.1946
 184        6.2003
 185        6.2029
 186        6.2225
 187        6.2228
 188        6.2555
 189        6.2559
 190        6.2744
 191        6.3140
 192        6.3762
 193        6.3781
 194        6.3784
 195        6.3981
 196        6.4143
 197        6.4818
 198        6.4821
 199        6.6100
 200        6.6155
 201        6.6155
 202        6.6342
 203        6.6778
 204        6.6784
 205        6.7248
 206        6.7408
 207        6.7445
 208        6.8309
 209        6.8705
 210        6.8992
 211        6.8998
 212        6.9201
 213        6.9280
 214        6.9444
 215        7.0801
 216        7.0862
 
  0.4285714E+00  0.1428571E+00  0.0000000E+00  0.8163265E-02
   1      -27.3566
   2      -27.3565
   3      -27.2931
   4      -27.2872
   5      -27.2872
   6      -27.2594
   7      -27.2594
   8      -27.2576
   9      -27.2575
  10      -27.2254
  11      -27.2253
  12      -27.2248
  13      -27.2247
  14      -27.2101
  15      -27.1958
  16      -27.1800
  17      -27.1798
  18      -27.1682
  19      -27.1638
  20      -27.1223
  21      -27.1220
  22      -27.1213
  23      -27.1197
  24      -27.1108
  25      -27.1052
  26      -27.0926
  27      -27.0855
  28      -27.0824
  29      -27.0797
  30      -27.0793