       N       E                     dE             d eps       ncg     rms          rms(c)
DAV:   1     0.500338521641E+04    0.50034E+04   -0.17169E+05 53768   0.181E+03
DAV:   2     0.923184926280E+02   -0.49111E+04   -0.48347E+04 53136   0.640E+02
DAV:   3    -0.291979076499E+03   -0.38430E+03   -0.36155E+03 77400   0.163E+02
DAV:   4    -0.322962522131E+03   -0.30983E+02   -0.30144E+02 72512   0.405E+01
DAV:   5    -0.323872518536E+03   -0.91000E+00   -0.89070E+00 69528   0.621E+00    0.356E+01
DAV:   6    -0.286029037381E+03    0.37843E+02   -0.11742E+02 57856   0.369E+01    0.914E+00
DAV:   7    -0.284112715282E+03    0.19163E+01   -0.15599E+01 70304   0.116E+01    0.350E+00
DAV:   8    -0.284185732212E+03   -0.73017E-01   -0.27725E+00 70784   0.675E+00    0.373E+00
DAV:   9    -0.284012935612E+03    0.17280E+00   -0.99546E-01 74776   0.455E+00    0.167E+00
DAV:  10    -0.283954427897E+03    0.58508E-01   -0.15094E-01 71072   0.144E+00    0.950E-01
DAV:  11    -0.283926907760E+03    0.27520E-01   -0.20052E-01 62936   0.155E+00    0.246E-01
DAV:  12    -0.283927722861E+03   -0.81510E-03   -0.94816E-03 71696   0.357E-01    0.263E-01
DAV:  13    -0.283926507726E+03    0.12151E-02   -0.29941E-03 68256   0.202E-01    0.128E-01
DAV:  14    -0.283926139748E+03    0.36798E-03   -0.12126E-03 68496   0.140E-01    0.446E-02
DAV:  15    -0.283926132293E+03    0.74550E-05   -0.12987E-04 71416   0.547E-02    0.294E-02
DAV:  16    -0.283926124919E+03    0.73742E-05   -0.37439E-05 73136   0.287E-02    0.211E-02
DAV:  17    -0.283926098054E+03    0.26865E-04   -0.18857E-05 70984   0.174E-02    0.124E-02
DAV:  18    -0.283926076613E+03    0.21441E-04   -0.11088E-05 70712   0.142E-02    0.312E-03
DAV:  19    -0.283926072029E+03    0.45837E-05   -0.15458E-06 73408   0.532E-03    0.223E-03
DAV:  20    -0.283926069169E+03    0.28604E-05   -0.49065E-07 71936   0.335E-03    0.575E-04
DAV:  21    -0.283926069112E+03    0.56789E-07   -0.58385E-08 54832   0.105E-03    0.520E-04
DAV:  22    -0.283926069121E+03   -0.90440E-08   -0.16391E-08 38560   0.773E-04
   1 F= -.28392607E+03 E0= -.28392530E+03  d E =-.154150E-02
