 vasp.4.6.28 25Jul05 complex 
 executed on             LinuxIFC date 2016.11.25  11:39:48
 running on    4 nodes
 distr:  one band on    1 nodes,    4 groups


--------------------------------------------------------------------------------------------------------


 INCAR:
 POTCAR:   PAW_PBE Ti_pv 07Sep2000                
 POTCAR:   PAW_PBE Ti_pv 07Sep2000                
   VRHFIN =Ti: d3 s1                                                            
   LEXCH  = PE                                                                  
   EATOM  =  1042.3781 eV,   76.6126 Ry                                         
                                                                                
   TITEL  = PAW_PBE Ti_pv 07Sep2000                                             
   LULTRA =        F    use ultrasoft PP ?                                      
   IUNSCR =        1    unscreen: 0-lin 1-nonlin 2-no                           
   RPACOR =    2.200    partial core radius                                     
   POMASS =   47.880; ZVAL   =   10.000    mass and valenz                      
   RCORE  =    2.500    outmost cutoff radius                                   
   RWIGS  =    2.500; RWIGS  =    1.323    wigner-seitz radius (au A)           
   ENMAX  =  222.338; ENMIN  =  166.753 eV                                      
   RCLOC  =    1.701    cutoff for local pot                                    
   LCOR   =        T    correct aug charges                                     
   LPAW   =        T    paw PP                                                  
   EAUG   =  482.848                                                            
   DEXC   =    -.008                                                            
   RMAX   =    3.092    core radius for proj-oper                               
   RAUG   =    1.300    factor for augmentation sphere                          
   RDEP   =    2.538    radius for radial grids                                 
   QCUT   =   -4.042; QGAM   =    8.085    optimization parameters              
                                                                                
   Description                                                                  
     l     E      TYP  RCUT    TYP  RCUT                                        
     1   .000     23  2.300                                                     
     1  -.100     23  2.300                                                     
     2   .000     23  2.500                                                     
     2   .000     23  2.500                                                     
     0   .000     23  2.500                                                     
     0  1.500     23  2.500                                                     
     3   .000      7   .000                                                     
  local pseudopotential read in
  partial core-charges read in
  atomic valenz-charges read in
  non local Contribution for L=           1  read in
    real space projection operators read in
  non local Contribution for L=           1  read in
    real space projection operators read in
  non local Contribution for L=           2  read in
    real space projection operators read in
  non local Contribution for L=           2  read in
    real space projection operators read in
  non local Contribution for L=           0  read in
    real space projection operators read in
  non local Contribution for L=           0  read in
    real space projection operators read in
    PAW grid and wavefunctions read in
 
   number of l-projection  operators is LMAX  =           6
   number of lm-projection operators is LMMAX =          18
 

 ----------------------------------------------------------------------------- 
|                                                                             |
|  ADVICE TO THIS USER RUNNING 'VASP/VAMP'   (HEAR YOUR MASTER'S VOICE ...):  |
|                                                                             |
|      You have a (more or less) 'large supercell' and for larger cells       |
|      it might be more efficient to use real space projection operators      |
|      So try LREAL= Auto  in the INCAR   file.                               |
|      Mind: If you want to do an extremely accurate calculations keep the    |
|      reciprocal projection scheme          (i.e. LREAL=.FALSE.)             |
|                                                                             |
 ----------------------------------------------------------------------------- 

 PAW_PBE Ti_pv 07Sep2000                :
 energy of atom  1       EATOM=-1042.3781
 kinetic energy error for atom=    0.0024 (will be added to EATOM!!)
 
 EXHCAR: internal setup
 exchange correlation table for  LEXCH =        8
   RHO(1)=    0.500       N(1)  =     2000
   RHO(2)=  100.500       N(2)  =     4000
 
 POSCAR: Ti                                      
  positions in direct lattice
  No initial velocities read in
 


--------------------------------------------------------------------------------------------------------


 ion  position               nearest neighbor table
   1  0.110  0.223  0.124-  30 2.83  31 2.84  21 2.84  28 2.84  22 2.85  19 2.86   3 2.93   4 2.94
                             7 2.94   2 2.95   9 2.95   5 2.96
   2  0.444  0.223  0.125-  19 2.84  28 2.84  23 2.84  32 2.84  29 2.85  20 2.85   3 2.94   8 2.94
                             5 2.94   1 2.95   7 2.95   6 2.95
   3  0.777  0.223  0.125-  20 2.84  29 2.84  24 2.84  33 2.84  30 2.85  21 2.85   1 2.93   2 2.94
                             9 2.94   6 2.94   8 2.95   4 2.95
   4  0.111  0.556  0.125-  24 2.84  33 2.84  25 2.84  34 2.84  22 2.85  31 2.85   1 2.94   6 2.94
                             5 2.94   7 2.94   3 2.95   8 2.95
   5  0.444  0.556  0.125-  22 2.84  31 2.84  26 2.84  35 2.84  32 2.85  23 2.85   4 2.94   6 2.94
                             2 2.94   8 2.94   9 2.95   1 2.96
   6  0.777  0.556  0.125-  23 2.84  32 2.84  27 2.84  36 2.84  33 2.85  24 2.85   4 2.94   5 2.94
                             3 2.94   9 2.94   7 2.95   2 2.95
   7  0.111  0.889  0.125-  27 2.84  36 2.84  28 2.84  19 2.84  34 2.85  25 2.85   9 2.94   8 2.94
                             4 2.94   1 2.94   2 2.95   6 2.95
   8  0.444  0.889  0.125-  25 2.84  34 2.84  29 2.84  20 2.84  26 2.85  35 2.85   7 2.94   9 2.94
                             2 2.94   5 2.94   3 2.95   4 2.95
   9  0.777  0.889  0.125-  26 2.84  35 2.84  30 2.84  21 2.84  27 2.85  36 2.85   7 2.94   8 2.94
                             3 2.94   6 2.94   1 2.95   5 2.95
  10  0.111  0.223  0.625-  21 2.84  30 2.84  22 2.84  31 2.84  19 2.85  28 2.85  12 2.94  11 2.94
                            16 2.94  13 2.94  18 2.95  14 2.95
  11  0.444  0.223  0.625-  19 2.84  28 2.84  23 2.84  32 2.84  29 2.85  20 2.85  10 2.94  12 2.94
                            17 2.94  14 2.94  16 2.95  15 2.95
  12  0.777  0.223  0.625-  20 2.84  29 2.84  24 2.84  33 2.84  30 2.85  21 2.85  10 2.94  11 2.94
                            18 2.94  15 2.94  17 2.95  13 2.95
  13  0.111  0.556  0.625-  24 2.84  33 2.84  25 2.84  34 2.84  22 2.85  31 2.85  15 2.94  14 2.94
                            10 2.94  16 2.94  12 2.95  17 2.95
  14  0.444  0.556  0.625-  22 2.84  31 2.84  26 2.84  35 2.84  32 2.85  23 2.85  13 2.94  15 2.94
                            11 2.94  17 2.94  10 2.95  18 2.95
  15  0.777  0.556  0.625-  23 2.84  32 2.84  27 2.84  36 2.84  33 2.85  24 2.85  13 2.94  14 2.94
                            12 2.94  18 2.94  16 2.95  11 2.95
  16  0.111  0.889  0.625-  27 2.84  36 2.84  28 2.84  19 2.84  34 2.85  25 2.85  18 2.94  17 2.94
                            10 2.94  13 2.94  11 2.95  15 2.95
  17  0.444  0.889  0.625-  25 2.84  34 2.84  29 2.84  20 2.84  26 2.85  35 2.85  16 2.94  18 2.94
                            11 2.94  14 2.94  12 2.95  13 2.95
  18  0.777  0.889  0.625-  26 2.84  35 2.84  30 2.84  21 2.84  27 2.85  36 2.85  16 2.94  17 2.94
                            12 2.94  15 2.94  10 2.95  14 2.95
  19  0.223  0.111  0.375-   2 2.84  11 2.84   7 2.84  16 2.84  10 2.85   1 2.86  21 2.94  20 2.94
                            25 2.94  22 2.94  27 2.95  23 2.95
  20  0.556  0.111  0.375-   3 2.84  12 2.84   8 2.84  17 2.84   2 2.85  11 2.85  19 2.94  21 2.94
                            26 2.94  23 2.94  25 2.95  24 2.95
  21  0.889  0.111  0.375-  10 2.84   9 2.84  18 2.84   1 2.84  12 2.85   3 2.85  19 2.94  20 2.94
                            27 2.94  24 2.94  26 2.95  22 2.95
  22  0.223  0.444  0.375-   5 2.84  14 2.84  10 2.84  13 2.85   4 2.85   1 2.85  24 2.94  23 2.94
                            19 2.94  25 2.94  21 2.95  26 2.95
  23  0.556  0.444  0.375-   6 2.84  15 2.84  11 2.84   2 2.84  14 2.85   5 2.85  22 2.94  24 2.94
                            20 2.94  26 2.94  19 2.95  27 2.95
  24  0.889  0.444  0.375-   4 2.84  13 2.84  12 2.84   3 2.84   6 2.85  15 2.85  22 2.94  23 2.94
                            21 2.94  27 2.94  25 2.95  20 2.95
  25  0.223  0.777  0.375-   8 2.84  17 2.84  13 2.84   4 2.84  16 2.85   7 2.85  27 2.94  26 2.94
                            19 2.94  22 2.94  20 2.95  24 2.95
  26  0.556  0.777  0.375-   9 2.84  18 2.84  14 2.84   5 2.84  17 2.85   8 2.85  25 2.94  27 2.94
                            20 2.94  23 2.94  21 2.95  22 2.95
  27  0.889  0.777  0.375-   7 2.84  16 2.84  15 2.84   6 2.84   9 2.85  18 2.85  25 2.94  26 2.94
                            21 2.94  24 2.94  19 2.95  23 2.95
  28  0.223  0.111  0.875-   2 2.84  11 2.84   7 2.84  16 2.84   1 2.84  10 2.85  30 2.94  29 2.94
                            34 2.94  31 2.94  36 2.95  32 2.95
  29  0.556  0.111  0.875-   3 2.84  12 2.84   8 2.84  17 2.84   2 2.85  11 2.85  28 2.94  30 2.94
                            35 2.94  32 2.94  34 2.95  33 2.95
  30  0.889  0.111  0.875-   1 2.83  10 2.84   9 2.84  18 2.84  12 2.85   3 2.85  28 2.94  29 2.94
                            36 2.94  33 2.94  35 2.95  31 2.95
  31  0.223  0.444  0.875-   1 2.84   5 2.84  14 2.84  10 2.84  13 2.85   4 2.85  33 2.94  32 2.94
                            28 2.94  34 2.94  30 2.95  35 2.95
  32  0.556  0.444  0.875-   6 2.84  15 2.84  11 2.84   2 2.84  14 2.85   5 2.85  31 2.94  33 2.94
                            29 2.94  35 2.94  28 2.95  36 2.95
  33  0.889  0.444  0.875-   4 2.84  13 2.84  12 2.84   3 2.84   6 2.85  15 2.85  31 2.94  32 2.94
                            30 2.94  36 2.94  34 2.95  29 2.95
  34  0.223  0.777  0.875-   8 2.84  17 2.84  13 2.84   4 2.84  16 2.85   7 2.85  36 2.94  35 2.94
                            28 2.94  31 2.94  29 2.95  33 2.95
  35  0.556  0.777  0.875-   9 2.84  18 2.84  14 2.84   5 2.84  17 2.85   8 2.85  34 2.94  36 2.94
                            29 2.94  32 2.94  30 2.95  31 2.95
  36  0.889  0.777  0.875-   7 2.84  16 2.84  15 2.84   6 2.84   9 2.85  18 2.85  34 2.94  35 2.94
                            30 2.94  33 2.94  28 2.95  32 2.95
 
  LATTYP: Found a base centered orthorhombic cell.
 ALAT       =     8.8635622795
 B/A-ratio  =     1.7208744689
 C/A-ratio  =     1.0284126669
  
  Lattice vectors:
  
 A1 = (   8.8206670999,   0.0247654402,   0.0000000000)
 A2 = (  -4.3888858705,   7.6513046101,   0.0000000000)
 A3 = (   0.0000000000,   0.0000000000,   9.1153997220)
 Subroutine PRICEL returns:
 Original cell was already a primitive cell.
 

Analysis of symmetry for initial positions (statically):

 Routine SETGRP: Setting up the symmetry group for a 
 base centered orthorhombic supercell.


 Subroutine GETGRP returns: Found  1 space group operations
 (whereof  1 operations were pure point group operations)
 out of a pool of  8 trial point group operations.


The static configuration has the point symmetry C_1 .

Analysis of symmetry for dynamics (positions and initial velocities):

 Subroutine DYNSYM returns: Found  1 space group operations
 (whereof  1 operations were pure point group operations)
 out of a pool of  1 trial space group operations
 (whereof  1 operations were pure point group operations)
 and found also     1 'primitive' translations


The dynamic configuration has the point symmetry C_1 .
 
 
 KPOINTS: Automatic mesh                          

Automatic generation of k-mesh.
 generate k-points for:   7   7   5
 
 Subroutine IBZKPT returns following result:
 ===========================================
 
 Found    123 irreducible k-points:
 
 Following reciprocal coordinates:
            Coordinates               Weight
  0.000000  0.000000  0.000000      1.000000
  0.142857  0.000000  0.000000      2.000000
  0.285714  0.000000  0.000000      2.000000
  0.428571  0.000000  0.000000      2.000000
 -0.000000  0.142857  0.000000      2.000000
  0.142857  0.142857  0.000000      2.000000
  0.285714  0.142857  0.000000      2.000000
  0.428571  0.142857  0.000000      2.000000
 -0.428571  0.142857  0.000000      2.000000
 -0.285714  0.142857  0.000000      2.000000
 -0.142857  0.142857  0.000000      2.000000
  0.000000  0.285714  0.000000      2.000000
  0.142857  0.285714  0.000000      2.000000
  0.285714  0.285714  0.000000      2.000000
  0.428571  0.285714  0.000000      2.000000
 -0.428571  0.285714  0.000000      2.000000
 -0.285714  0.285714  0.000000      2.000000
 -0.142857  0.285714  0.000000      2.000000
  0.000000  0.428571  0.000000      2.000000
  0.142857  0.428571  0.000000      2.000000
  0.285714  0.428571  0.000000      2.000000
  0.428571  0.428571  0.000000      2.000000
 -0.428571  0.428571  0.000000      2.000000
 -0.285714  0.428571  0.000000      2.000000
 -0.142857  0.428571  0.000000      2.000000
  0.000000  0.000000  0.200000      2.000000
  0.142857  0.000000  0.200000      2.000000
  0.285714  0.000000  0.200000      2.000000
  0.428571  0.000000  0.200000      2.000000
 -0.428571  0.000000  0.200000      2.000000
 -0.285714  0.000000  0.200000      2.000000
 -0.142857  0.000000  0.200000      2.000000
 -0.000000  0.142857  0.200000      2.000000
  0.142857  0.142857  0.200000      2.000000
  0.285714  0.142857  0.200000      2.000000
  0.428571  0.142857  0.200000      2.000000
 -0.428571  0.142857  0.200000      2.000000
 -0.285714  0.142857  0.200000      2.000000
 -0.142857  0.142857  0.200000      2.000000
  0.000000  0.285714  0.200000      2.000000
  0.142857  0.285714  0.200000      2.000000
  0.285714  0.285714  0.200000      2.000000
  0.428571  0.285714  0.200000      2.000000
 -0.428571  0.285714  0.200000      2.000000
 -0.285714  0.285714  0.200000      2.000000
 -0.142857  0.285714  0.200000      2.000000
  0.000000  0.428571  0.200000      2.000000
  0.142857  0.428571  0.200000      2.000000
  0.285714  0.428571  0.200000      2.000000
  0.428571  0.428571  0.200000      2.000000
 -0.428571  0.428571  0.200000      2.000000
 -0.285714  0.428571  0.200000      2.000000
 -0.142857  0.428571  0.200000      2.000000
 -0.000000 -0.428571  0.200000      2.000000
  0.142857 -0.428571  0.200000      2.000000
  0.285714 -0.428571  0.200000      2.000000
  0.428571 -0.428571  0.200000      2.000000
 -0.428571 -0.428571  0.200000      2.000000
 -0.285714 -0.428571  0.200000      2.000000
 -0.142857 -0.428571  0.200000      2.000000
 -0.000000 -0.285714  0.200000      2.000000
  0.142857 -0.285714  0.200000      2.000000
  0.285714 -0.285714  0.200000      2.000000
  0.428571 -0.285714  0.200000      2.000000
 -0.428571 -0.285714  0.200000      2.000000
 -0.285714 -0.285714  0.200000      2.000000
 -0.142857 -0.285714  0.200000      2.000000
  0.000000 -0.142857  0.200000      2.000000
  0.142857 -0.142857  0.200000      2.000000
  0.285714 -0.142857  0.200000      2.000000
  0.428571 -0.142857  0.200000      2.000000
 -0.428571 -0.142857  0.200000      2.000000
 -0.285714 -0.142857  0.200000      2.000000
 -0.142857 -0.142857  0.200000      2.000000
  0.000000  0.000000  0.400000      2.000000
  0.142857  0.000000  0.400000      2.000000
  0.285714  0.000000  0.400000      2.000000
  0.428571  0.000000  0.400000      2.000000
 -0.428571  0.000000  0.400000      2.000000
 -0.285714  0.000000  0.400000      2.000000
 -0.142857  0.000000  0.400000      2.000000
 -0.000000  0.142857  0.400000      2.000000
  0.142857  0.142857  0.400000      2.000000
  0.285714  0.142857  0.400000      2.000000
  0.428571  0.142857  0.400000      2.000000
 -0.428571  0.142857  0.400000      2.000000
 -0.285714  0.142857  0.400000      2.000000
 -0.142857  0.142857  0.400000      2.000000
  0.000000  0.285714  0.400000      2.000000
  0.142857  0.285714  0.400000      2.000000
  0.285714  0.285714  0.400000      2.000000
  0.428571  0.285714  0.400000      2.000000
 -0.428571  0.285714  0.400000      2.000000
 -0.285714  0.285714  0.400000      2.000000
 -0.142857  0.285714  0.400000      2.000000
  0.000000  0.428571  0.400000      2.000000
  0.142857  0.428571  0.400000      2.000000
  0.285714  0.428571  0.400000      2.000000
  0.428571  0.428571  0.400000      2.000000
 -0.428571  0.428571  0.400000      2.000000
 -0.285714  0.428571  0.400000      2.000000
 -0.142857  0.428571  0.400000      2.000000
 -0.000000 -0.428571  0.400000      2.000000
  0.142857 -0.428571  0.400000      2.000000
  0.285714 -0.428571  0.400000      2.000000
  0.428571 -0.428571  0.400000      2.000000
 -0.428571 -0.428571  0.400000      2.000000
 -0.285714 -0.428571  0.400000      2.000000
 -0.142857 -0.428571  0.400000      2.000000
 -0.000000 -0.285714  0.400000      2.000000
  0.142857 -0.285714  0.400000      2.000000
  0.285714 -0.285714  0.400000      2.000000
  0.428571 -0.285714  0.400000      2.000000
 -0.428571 -0.285714  0.400000      2.000000
 -0.285714 -0.285714  0.400000      2.000000
 -0.142857 -0.285714  0.400000      2.000000
  0.000000 -0.142857  0.400000      2.000000
  0.142857 -0.142857  0.400000      2.000000
  0.285714 -0.142857  0.400000      2.000000
  0.428571 -0.142857  0.400000      2.000000
 -0.428571 -0.142857  0.400000      2.000000
 -0.285714 -0.142857  0.400000      2.000000
 -0.142857 -0.142857  0.400000      2.000000
 
 Following cartesian coordinates:
            Coordinates               Weight
  0.000000  0.000000  0.000000      1.000000
  0.016170  0.009275  0.000000      2.000000
  0.032339  0.018550  0.000000      2.000000
  0.048509  0.027825  0.000000      2.000000
 -0.000052  0.018641  0.000000      2.000000
  0.016117  0.027916  0.000000      2.000000
  0.032287  0.037191  0.000000      2.000000
  0.048457  0.046466  0.000000      2.000000
 -0.048561 -0.009184  0.000000      2.000000
 -0.032392  0.000091  0.000000      2.000000
 -0.016222  0.009366  0.000000      2.000000
 -0.000105  0.037282  0.000000      2.000000
  0.016065  0.046557  0.000000      2.000000
  0.032235  0.055832  0.000000      2.000000
  0.048404  0.065107  0.000000      2.000000
 -0.048614  0.009456  0.000000      2.000000
 -0.032444  0.018732  0.000000      2.000000
 -0.016274  0.028007  0.000000      2.000000
 -0.000157  0.055923  0.000000      2.000000
  0.016013  0.065198  0.000000      2.000000
  0.032182  0.074473  0.000000      2.000000
  0.048352  0.083748  0.000000      2.000000
 -0.048666  0.028097  0.000000      2.000000
 -0.032496  0.037373  0.000000      2.000000
 -0.016327  0.046648  0.000000      2.000000
  0.000000  0.000000  0.021941      2.000000
  0.016170  0.009275  0.021941      2.000000
  0.032339  0.018550  0.021941      2.000000
  0.048509  0.027825  0.021941      2.000000
 -0.048509 -0.027825  0.021941      2.000000
 -0.032339 -0.018550  0.021941      2.000000
 -0.016170 -0.009275  0.021941      2.000000
 -0.000052  0.018641  0.021941      2.000000
  0.016117  0.027916  0.021941      2.000000
  0.032287  0.037191  0.021941      2.000000
  0.048457  0.046466  0.021941      2.000000
 -0.048561 -0.009184  0.021941      2.000000
 -0.032392  0.000091  0.021941      2.000000
 -0.016222  0.009366  0.021941      2.000000
 -0.000105  0.037282  0.021941      2.000000
  0.016065  0.046557  0.021941      2.000000
  0.032235  0.055832  0.021941      2.000000
  0.048404  0.065107  0.021941      2.000000
 -0.048614  0.009456  0.021941      2.000000
 -0.032444  0.018732  0.021941      2.000000
 -0.016274  0.028007  0.021941      2.000000
 -0.000157  0.055923  0.021941      2.000000
  0.016013  0.065198  0.021941      2.000000
  0.032182  0.074473  0.021941      2.000000
  0.048352  0.083748  0.021941      2.000000
 -0.048666  0.028097  0.021941      2.000000
 -0.032496  0.037373  0.021941      2.000000
 -0.016327  0.046648  0.021941      2.000000
  0.000157 -0.055923  0.021941      2.000000
  0.016327 -0.046648  0.021941      2.000000
  0.032496 -0.037373  0.021941      2.000000
  0.048666 -0.028097  0.021941      2.000000
 -0.048352 -0.083748  0.021941      2.000000
 -0.032182 -0.074473  0.021941      2.000000
 -0.016013 -0.065198  0.021941      2.000000
  0.000105 -0.037282  0.021941      2.000000
  0.016274 -0.028007  0.021941      2.000000
  0.032444 -0.018732  0.021941      2.000000
  0.048614 -0.009456  0.021941      2.000000
 -0.048404 -0.065107  0.021941      2.000000
 -0.032235 -0.055832  0.021941      2.000000
 -0.016065 -0.046557  0.021941      2.000000
  0.000052 -0.018641  0.021941      2.000000
  0.016222 -0.009366  0.021941      2.000000
  0.032392 -0.000091  0.021941      2.000000
  0.048561  0.009184  0.021941      2.000000
 -0.048457 -0.046466  0.021941      2.000000
 -0.032287 -0.037191  0.021941      2.000000
 -0.016117 -0.027916  0.021941      2.000000
  0.000000  0.000000  0.043882      2.000000
  0.016170  0.009275  0.043882      2.000000
  0.032339  0.018550  0.043882      2.000000
  0.048509  0.027825  0.043882      2.000000
 -0.048509 -0.027825  0.043882      2.000000
 -0.032339 -0.018550  0.043882      2.000000
 -0.016170 -0.009275  0.043882      2.000000
 -0.000052  0.018641  0.043882      2.000000
  0.016117  0.027916  0.043882      2.000000
  0.032287  0.037191  0.043882      2.000000
  0.048457  0.046466  0.043882      2.000000
 -0.048561 -0.009184  0.043882      2.000000
 -0.032392  0.000091  0.043882      2.000000
 -0.016222  0.009366  0.043882      2.000000
 -0.000105  0.037282  0.043882      2.000000
  0.016065  0.046557  0.043882      2.000000
  0.032235  0.055832  0.043882      2.000000
  0.048404  0.065107  0.043882      2.000000
 -0.048614  0.009456  0.043882      2.000000
 -0.032444  0.018732  0.043882      2.000000
 -0.016274  0.028007  0.043882      2.000000
 -0.000157  0.055923  0.043882      2.000000
  0.016013  0.065198  0.043882      2.000000
  0.032182  0.074473  0.043882      2.000000
  0.048352  0.083748  0.043882      2.000000
 -0.048666  0.028097  0.043882      2.000000
 -0.032496  0.037373  0.043882      2.000000
 -0.016327  0.046648  0.043882      2.000000
  0.000157 -0.055923  0.043882      2.000000
  0.016327 -0.046648  0.043882      2.000000
  0.032496 -0.037373  0.043882      2.000000
  0.048666 -0.028097  0.043882      2.000000
 -0.048352 -0.083748  0.043882      2.000000
 -0.032182 -0.074473  0.043882      2.000000
 -0.016013 -0.065198  0.043882      2.000000
  0.000105 -0.037282  0.043882      2.000000
  0.016274 -0.028007  0.043882      2.000000
  0.032444 -0.018732  0.043882      2.000000
  0.048614 -0.009456  0.043882      2.000000
 -0.048404 -0.065107  0.043882      2.000000
 -0.032235 -0.055832  0.043882      2.000000
 -0.016065 -0.046557  0.043882      2.000000
  0.000052 -0.018641  0.043882      2.000000
  0.016222 -0.009366  0.043882      2.000000
  0.032392 -0.000091  0.043882      2.000000
  0.048561  0.009184  0.043882      2.000000
 -0.048457 -0.046466  0.043882      2.000000
 -0.032287 -0.037191  0.043882      2.000000
 -0.016117 -0.027916  0.043882      2.000000
 


--------------------------------------------------------------------------------------------------------




 Dimension of arrays:
   k-Points           NKPTS =    123   number of bands    NBANDS=    216
   number of dos      NEDOS =    301   number of ions     NIONS =     36
   non local maximal  LDIM  =      6   non local SUM 2l+1 LMDIM =     18
   total plane-waves  NPLWV = 286720
   max r-space proj   IRMAX =      1   max aug-charges    IRDMAX=  18263
   dimension x,y,z NGX =    64 NGY =   64 NGZ =   70
   dimension x,y,z NGXF=   128 NGYF=  128 NGZF=  140
   support grid    NGXF=   128 NGYF=  128 NGZF=  140
   ions per type =              36
 NGX,Y,Z   is equivalent  to a cutoff of  12.06, 12.06, 12.77 a.u.
 NGXF,Y,Z  is equivalent  to a cutoff of  24.12, 24.12, 25.53 a.u.


 I would recommend the setting:
   dimension x,y,z NGX =    64 NGY =   64 NGZ =   66
 SYSTEM =  unknown system                          
 POSCAR =  Ti                                      

 Startparameter for this run:
   NWRITE =      2    write-flag & timer
   PREC   = accura    medium, high low
   ISTART =      0    job   : 0-new  1-cont  2-samecut
   ICHARG =      2    charge: 1-file 2-atom 10-const
   ISPIN  =      1    spin polarized calculation?
   LNONCOLLINEAR =      F non collinear calculations
   LSORBIT =      F    spin-orbit coupling
   INIWAV =      1    electr: 0-lowe 1-rand  2-diag
   LASPH  =      F    aspherical Exc in radial PAW
   METAGGA=      F    non-selfconsistent MetaGGA calc.

 Electronic Relaxation 1
   ENCUT  =  500.0 eV  36.75 Ry    6.06 a.u.  16.08 16.08 16.62*2*pi/ulx,y,z
   ENINI  =  500.0     initial cutoff
   ENAUG  =  482.8 eV  augmentation charge cutoff
   NELM   =     60;   NELMIN=  2; NELMDL=  0     # of ELM steps 
   EDIFF  = 0.1E-07   stopping-criterion for ELM
   LREAL  =      F    real-space projection
   LCOMPAT=      F    compatible to vasp.4.4
   LREAL_COMPAT= F    compatible to vasp.4.5.1-3
   GGA_COMPAT  = T    GGA compatible to vasp.4.4-vasp.4.6
   LMAXPAW     = -100 max onsite density
   LMAXMIX     =    2 max onsite mixed and CHGCAR
   VOSKOWN=      0    Vosko Wilk Nusair interpolation
   ROPT   =    0.00000
 Ionic relaxation
   EDIFFG = 0.1E-06   stopping-criterion for IOM
   NSW    =      0    number of steps for IOM
   NBLOCK =      1;   KBLOCK =      1    inner block; outer block 
   IBRION =     -1    ionic relax: 0-MD 1-quasi-New 2-CG
   NFREE  =      0    steps in history (QN), initial steepest desc. (CG)
   ISIF   =      2    stress and relaxation
   IWAVPR =     10    prediction:  0-non 1-charg 2-wave 3-comb
   ISYM   =      2    0-nonsym 1-usesym 2-fastsym
   LCORR  =      T    Harris-Foulkes like correction to forces

   POTIM  =   0.50    time-step for ionic-motion
   TEIN   =    0.0    initial temperature
   TEBEG  =    0.0;   TEEND  =   0.0 temperature during run
   SMASS  =  -3.00    Nose mass-parameter (am)
   estimated Nose-frequenzy (Omega)   =  0.10E-29 period in steps =****** mass=  -0.178E-26a.u.
   NPACO  =    256;   APACO  = 16.0  distance and # of slots for P.C.
   PSTRESS=    0.0 pullay stress

  Mass of Ions in am
   POMASS =  47.88
  Ionic Valenz
   ZVAL   =  10.00
  Atomic Wigner-Seitz radii
   RWIGS  =  -1.00
   NELECT =     360.0000    total number of electrons
   NUPDOWN=      -1.0000    fix difference up-down

 DOS related values:
   EMIN   =  10.00;   EMAX   =-10.00  energy-range for DOS
   ISMEAR =     0;   SIGMA  =   0.01  broadening in eV -4-tet -1-fermi 0-gaus

 Electronic relaxation 2 (details)
   IALGO  =     38    algorithm
   LDIAG  =      T    sub-space diagonalisation
   IMIX   =      4    mixing-type and parameters
     AMIX     =   0.40;   BMIX     =  1.00
     AMIX_MAG =   1.60;   BMIX_MAG =  1.00
     AMIN     =   0.10
     WC   =   100.;   INIMIX=   1;  MIXPRE=   1

 Intra band minimization:
   WEIMIN = 0.0000     energy-eigenvalue tresh-hold
   EBREAK =  0.12E-10  absolut break condition
   DEPER  =   0.30     relativ break condition  

   TIME   =   0.10     timestep for ELM

  volume/ion in A,a.u.               =      17.12       115.51
  Fermi-wavevector in a.u.,eV,Ry     =   1.368585 25.484057  1.873025

 Second variation
   LSECVAR=     F    do a second variation
 
 Write flags
   LWAVE  =      F    write WAVECAR
   LCHARG =      F    write CHGCAR
   LVTOT  =      F    write LOCPOT, local potential
   LELF   =      F    write electronic localiz. function (ELF)
   LORBIT =      0    0 simple, 1 ext, 2 COOP (PROOUT)


 Dipole corrections
   IDIPOL =      0    1-x, 2-y, 3-z
   LDIPOL =      F    correct potential



--------------------------------------------------------------------------------------------------------


 Static calculation
 charge density will be updated during run
 non-spin polarized calculation
 Variant of blocked Davidson
 Davidson routine will perform the subspace rotation
 performe sub-space diagonalisation
    after iterative eigenvector-optimisation
 modified Broyden-mixing scheme, WC =      100.0
 initial mixing is a Kerker type mixing with AMIX =  0.4000 and BMIX =      1.0000
 Hartree-type preconditioning will be used
 using additional bands           36
 reciprocal scheme for non local part
 use partial core corrections
 calculate Harris-corrections to forces 
   (improved forces if not selfconsistent)
 use gradient corrections 
 use of overlap-Matrix (Vanderbilt PP)
 Gauss-broadening in eV      SIGMA  =   0.01


--------------------------------------------------------------------------------------------------------


  energy-cutoff  :      500.00
  volume of cell :      616.19
      direct lattice vectors                 reciprocal lattice vectors
     8.820667100  0.024765440  0.000000000     0.113187820  0.064925977  0.000000000
    -4.388885871  7.651304610  0.000000000    -0.000366362  0.130486516  0.000000000
     0.000000000  0.000000000  9.115399722     0.000000000  0.000000000  0.109704460

  length of vectors
     8.820701866  8.820701867  9.115399722     0.130487030  0.130487030  0.109704460


 
 k-points in units of 2pi/SCALE and weight: Automatic mesh                          
   0.00000000  0.00000000  0.00000000       0.004
   0.01616969  0.00927514  0.00000000       0.008
   0.03233938  0.01855028  0.00000000       0.008
   0.04850907  0.02782542  0.00000000       0.008
  -0.00005234  0.01864093  0.00000000       0.008
   0.01611735  0.02791607  0.00000000       0.008
   0.03228704  0.03719121  0.00000000       0.008
   0.04845673  0.04646635  0.00000000       0.008
  -0.04856140 -0.00918449  0.00000000       0.008
  -0.03239171  0.00009065  0.00000000       0.008
  -0.01622203  0.00936579  0.00000000       0.008
  -0.00010467  0.03728186  0.00000000       0.008
   0.01606501  0.04655700  0.00000000       0.008
   0.03223470  0.05583214  0.00000000       0.008
   0.04840439  0.06510728  0.00000000       0.008
  -0.04861374  0.00945644  0.00000000       0.008
  -0.03244405  0.01873158  0.00000000       0.008
  -0.01627436  0.02800672  0.00000000       0.008
  -0.00015701  0.05592279  0.00000000       0.008
   0.01601268  0.06519793  0.00000000       0.008
   0.03218236  0.07447307  0.00000000       0.008
   0.04835205  0.08374821  0.00000000       0.008
  -0.04866608  0.02809737  0.00000000       0.008
  -0.03249639  0.03737251  0.00000000       0.008
  -0.01632670  0.04664765  0.00000000       0.008
   0.00000000  0.00000000  0.02194089       0.008
   0.01616969  0.00927514  0.02194089       0.008
   0.03233938  0.01855028  0.02194089       0.008
   0.04850907  0.02782542  0.02194089       0.008
  -0.04850907 -0.02782542  0.02194089       0.008
  -0.03233938 -0.01855028  0.02194089       0.008
  -0.01616969 -0.00927514  0.02194089       0.008
  -0.00005234  0.01864093  0.02194089       0.008
   0.01611735  0.02791607  0.02194089       0.008
   0.03228704  0.03719121  0.02194089       0.008
   0.04845673  0.04646635  0.02194089       0.008
  -0.04856140 -0.00918449  0.02194089       0.008
  -0.03239171  0.00009065  0.02194089       0.008
  -0.01622203  0.00936579  0.02194089       0.008
  -0.00010467  0.03728186  0.02194089       0.008
   0.01606501  0.04655700  0.02194089       0.008
   0.03223470  0.05583214  0.02194089       0.008
   0.04840439  0.06510728  0.02194089       0.008
  -0.04861374  0.00945644  0.02194089       0.008
  -0.03244405  0.01873158  0.02194089       0.008
  -0.01627436  0.02800672  0.02194089       0.008
  -0.00015701  0.05592279  0.02194089       0.008
   0.01601268  0.06519793  0.02194089       0.008
   0.03218236  0.07447307  0.02194089       0.008
   0.04835205  0.08374821  0.02194089       0.008
  -0.04866608  0.02809737  0.02194089       0.008
  -0.03249639  0.03737251  0.02194089       0.008
  -0.01632670  0.04664765  0.02194089       0.008
   0.00015701 -0.05592279  0.02194089       0.008
   0.01632670 -0.04664765  0.02194089       0.008
   0.03249639 -0.03737251  0.02194089       0.008
   0.04866608 -0.02809737  0.02194089       0.008
  -0.04835205 -0.08374821  0.02194089       0.008
  -0.03218236 -0.07447307  0.02194089       0.008
  -0.01601268 -0.06519793  0.02194089       0.008
   0.00010467 -0.03728186  0.02194089       0.008
   0.01627436 -0.02800672  0.02194089       0.008
   0.03244405 -0.01873158  0.02194089       0.008
   0.04861374 -0.00945644  0.02194089       0.008
  -0.04840439 -0.06510728  0.02194089       0.008
  -0.03223470 -0.05583214  0.02194089       0.008
  -0.01606501 -0.04655700  0.02194089       0.008
   0.00005234 -0.01864093  0.02194089       0.008
   0.01622203 -0.00936579  0.02194089       0.008
   0.03239171 -0.00009065  0.02194089       0.008
   0.04856140  0.00918449  0.02194089       0.008
  -0.04845673 -0.04646635  0.02194089       0.008
  -0.03228704 -0.03719121  0.02194089       0.008
  -0.01611735 -0.02791607  0.02194089       0.008
   0.00000000  0.00000000  0.04388178       0.008
   0.01616969  0.00927514  0.04388178       0.008
   0.03233938  0.01855028  0.04388178       0.008
   0.04850907  0.02782542  0.04388178       0.008
  -0.04850907 -0.02782542  0.04388178       0.008
  -0.03233938 -0.01855028  0.04388178       0.008
  -0.01616969 -0.00927514  0.04388178       0.008
  -0.00005234  0.01864093  0.04388178       0.008
   0.01611735  0.02791607  0.04388178       0.008
   0.03228704  0.03719121  0.04388178       0.008
   0.04845673  0.04646635  0.04388178       0.008
  -0.04856140 -0.00918449  0.04388178       0.008
  -0.03239171  0.00009065  0.04388178       0.008
  -0.01622203  0.00936579  0.04388178       0.008
  -0.00010467  0.03728186  0.04388178       0.008
   0.01606501  0.04655700  0.04388178       0.008
   0.03223470  0.05583214  0.04388178       0.008
   0.04840439  0.06510728  0.04388178       0.008
  -0.04861374  0.00945644  0.04388178       0.008
  -0.03244405  0.01873158  0.04388178       0.008
  -0.01627436  0.02800672  0.04388178       0.008
  -0.00015701  0.05592279  0.04388178       0.008
   0.01601268  0.06519793  0.04388178       0.008
   0.03218236  0.07447307  0.04388178       0.008
   0.04835205  0.08374821  0.04388178       0.008
  -0.04866608  0.02809737  0.04388178       0.008
  -0.03249639  0.03737251  0.04388178       0.008
  -0.01632670  0.04664765  0.04388178       0.008
   0.00015701 -0.05592279  0.04388178       0.008
   0.01632670 -0.04664765  0.04388178       0.008
   0.03249639 -0.03737251  0.04388178       0.008
   0.04866608 -0.02809737  0.04388178       0.008
  -0.04835205 -0.08374821  0.04388178       0.008
  -0.03218236 -0.07447307  0.04388178       0.008
  -0.01601268 -0.06519793  0.04388178       0.008
   0.00010467 -0.03728186  0.04388178       0.008
   0.01627436 -0.02800672  0.04388178       0.008
   0.03244405 -0.01873158  0.04388178       0.008
   0.04861374 -0.00945644  0.04388178       0.008
  -0.04840439 -0.06510728  0.04388178       0.008
  -0.03223470 -0.05583214  0.04388178       0.008
  -0.01606501 -0.04655700  0.04388178       0.008
   0.00005234 -0.01864093  0.04388178       0.008
   0.01622203 -0.00936579  0.04388178       0.008
   0.03239171 -0.00009065  0.04388178       0.008
   0.04856140  0.00918449  0.04388178       0.008
  -0.04845673 -0.04646635  0.04388178       0.008
  -0.03228704 -0.03719121  0.04388178       0.008
  -0.01611735 -0.02791607  0.04388178       0.008
 
 k-points in reciprocal lattice and weights: Automatic mesh                          
   0.00000000  0.00000000  0.00000000       0.004
   0.14285714  0.00000000  0.00000000       0.008
   0.28571429  0.00000000  0.00000000       0.008
   0.42857143  0.00000000  0.00000000       0.008
  -0.00000000  0.14285714  0.00000000       0.008
   0.14285714  0.14285714  0.00000000       0.008
   0.28571429  0.14285714  0.00000000       0.008
   0.42857143  0.14285714  0.00000000       0.008
  -0.42857143  0.14285714  0.00000000       0.008
  -0.28571429  0.14285714  0.00000000       0.008
  -0.14285714  0.14285714  0.00000000       0.008
   0.00000000  0.28571429  0.00000000       0.008
   0.14285714  0.28571429  0.00000000       0.008
   0.28571429  0.28571429  0.00000000       0.008
   0.42857143  0.28571429  0.00000000       0.008
  -0.42857143  0.28571429  0.00000000       0.008
  -0.28571429  0.28571429  0.00000000       0.008
  -0.14285714  0.28571429  0.00000000       0.008
   0.00000000  0.42857143  0.00000000       0.008
   0.14285714  0.42857143  0.00000000       0.008
   0.28571429  0.42857143  0.00000000       0.008
   0.42857143  0.42857143  0.00000000       0.008
  -0.42857143  0.42857143  0.00000000       0.008
  -0.28571429  0.42857143  0.00000000       0.008
  -0.14285714  0.42857143  0.00000000       0.008
   0.00000000  0.00000000  0.20000000       0.008
   0.14285714  0.00000000  0.20000000       0.008
   0.28571429  0.00000000  0.20000000       0.008
   0.42857143  0.00000000  0.20000000       0.008
  -0.42857143  0.00000000  0.20000000       0.008
  -0.28571429  0.00000000  0.20000000       0.008
  -0.14285714  0.00000000  0.20000000       0.008
  -0.00000000  0.14285714  0.20000000       0.008
   0.14285714  0.14285714  0.20000000       0.008
   0.28571429  0.14285714  0.20000000       0.008
   0.42857143  0.14285714  0.20000000       0.008
  -0.42857143  0.14285714  0.20000000       0.008
  -0.28571429  0.14285714  0.20000000       0.008
  -0.14285714  0.14285714  0.20000000       0.008
   0.00000000  0.28571429  0.20000000       0.008
   0.14285714  0.28571429  0.20000000       0.008
   0.28571429  0.28571429  0.20000000       0.008
   0.42857143  0.28571429  0.20000000       0.008
  -0.42857143  0.28571429  0.20000000       0.008
  -0.28571429  0.28571429  0.20000000       0.008
  -0.14285714  0.28571429  0.20000000       0.008
   0.00000000  0.42857143  0.20000000       0.008
   0.14285714  0.42857143  0.20000000       0.008
   0.28571429  0.42857143  0.20000000       0.008
   0.42857143  0.42857143  0.20000000       0.008
  -0.42857143  0.42857143  0.20000000       0.008
  -0.28571429  0.42857143  0.20000000       0.008
  -0.14285714  0.42857143  0.20000000       0.008
  -0.00000000 -0.42857143  0.20000000       0.008
   0.14285714 -0.42857143  0.20000000       0.008
   0.28571429 -0.42857143  0.20000000       0.008
   0.42857143 -0.42857143  0.20000000       0.008
  -0.42857143 -0.42857143  0.20000000       0.008
  -0.28571429 -0.42857143  0.20000000       0.008
  -0.14285714 -0.42857143  0.20000000       0.008
  -0.00000000 -0.28571429  0.20000000       0.008
   0.14285714 -0.28571429  0.20000000       0.008
   0.28571429 -0.28571429  0.20000000       0.008
   0.42857143 -0.28571429  0.20000000       0.008
  -0.42857143 -0.28571429  0.20000000       0.008
  -0.28571429 -0.28571429  0.20000000       0.008
  -0.14285714 -0.28571429  0.20000000       0.008
   0.00000000 -0.14285714  0.20000000       0.008
   0.14285714 -0.14285714  0.20000000       0.008
   0.28571429 -0.14285714  0.20000000       0.008
   0.42857143 -0.14285714  0.20000000       0.008
  -0.42857143 -0.14285714  0.20000000       0.008
  -0.28571429 -0.14285714  0.20000000       0.008
  -0.14285714 -0.14285714  0.20000000       0.008
   0.00000000  0.00000000  0.40000000       0.008
   0.14285714  0.00000000  0.40000000       0.008
   0.28571429  0.00000000  0.40000000       0.008
   0.42857143  0.00000000  0.40000000       0.008
  -0.42857143  0.00000000  0.40000000       0.008
  -0.28571429  0.00000000  0.40000000       0.008
  -0.14285714  0.00000000  0.40000000       0.008
  -0.00000000  0.14285714  0.40000000       0.008
   0.14285714  0.14285714  0.40000000       0.008
   0.28571429  0.14285714  0.40000000       0.008
   0.42857143  0.14285714  0.40000000       0.008
  -0.42857143  0.14285714  0.40000000       0.008
  -0.28571429  0.14285714  0.40000000       0.008
  -0.14285714  0.14285714  0.40000000       0.008
   0.00000000  0.28571429  0.40000000       0.008
   0.14285714  0.28571429  0.40000000       0.008
   0.28571429  0.28571429  0.40000000       0.008
   0.42857143  0.28571429  0.40000000       0.008
  -0.42857143  0.28571429  0.40000000       0.008
  -0.28571429  0.28571429  0.40000000       0.008
  -0.14285714  0.28571429  0.40000000       0.008
   0.00000000  0.42857143  0.40000000       0.008
   0.14285714  0.42857143  0.40000000       0.008
   0.28571429  0.42857143  0.40000000       0.008
   0.42857143  0.42857143  0.40000000       0.008
  -0.42857143  0.42857143  0.40000000       0.008
  -0.28571429  0.42857143  0.40000000       0.008
  -0.14285714  0.42857143  0.40000000       0.008
  -0.00000000 -0.42857143  0.40000000       0.008
   0.14285714 -0.42857143  0.40000000       0.008
   0.28571429 -0.42857143  0.40000000       0.008
   0.42857143 -0.42857143  0.40000000       0.008
  -0.42857143 -0.42857143  0.40000000       0.008
  -0.28571429 -0.42857143  0.40000000       0.008
  -0.14285714 -0.42857143  0.40000000       0.008
  -0.00000000 -0.28571429  0.40000000       0.008
   0.14285714 -0.28571429  0.40000000       0.008
   0.28571429 -0.28571429  0.40000000       0.008
   0.42857143 -0.28571429  0.40000000       0.008
  -0.42857143 -0.28571429  0.40000000       0.008
  -0.28571429 -0.28571429  0.40000000       0.008
  -0.14285714 -0.28571429  0.40000000       0.008
   0.00000000 -0.14285714  0.40000000       0.008
   0.14285714 -0.14285714  0.40000000       0.008
   0.28571429 -0.14285714  0.40000000       0.008
   0.42857143 -0.14285714  0.40000000       0.008
  -0.42857143 -0.14285714  0.40000000       0.008
  -0.28571429 -0.14285714  0.40000000       0.008
  -0.14285714 -0.14285714  0.40000000       0.008
 
 position of ions in fractional coordinates (direct lattice) 
   0.10995503  0.22258994  0.12421163
   0.44407673  0.22258994  0.12500000
   0.77741006  0.22258994  0.12500000
   0.11074339  0.55592327  0.12500000
   0.44407673  0.55592327  0.12500000
   0.77741006  0.55592327  0.12500000
   0.11074339  0.88925661  0.12500000
   0.44407673  0.88925661  0.12500000
   0.77741006  0.88925661  0.12500000
   0.11074339  0.22258994  0.62500000
   0.44407673  0.22258994  0.62500000
   0.77741006  0.22258994  0.62500000
   0.11074339  0.55592327  0.62500000
   0.44407673  0.55592327  0.62500000
   0.77741006  0.55592327  0.62500000
   0.11074339  0.88925661  0.62500000
   0.44407673  0.88925661  0.62500000
   0.77741006  0.88925661  0.62500000
   0.22258994  0.11074339  0.37500000
   0.55592327  0.11074339  0.37500000
   0.88925661  0.11074339  0.37500000
   0.22258994  0.44407673  0.37500000
   0.55592327  0.44407673  0.37500000
   0.88925661  0.44407673  0.37500000
   0.22258994  0.77741006  0.37500000
   0.55592327  0.77741006  0.37500000
   0.88925661  0.77741006  0.37500000
   0.22258994  0.11074339  0.87500000
   0.55592327  0.11074339  0.87500000
   0.88925661  0.11074339  0.87500000
   0.22258994  0.44407673  0.87500000
   0.55592327  0.44407673  0.87500000
   0.88925661  0.44407673  0.87500000
   0.22258994  0.77741006  0.87500000
   0.55592327  0.77741006  0.87500000
   0.88925661  0.77741006  0.87500000
 
 position of ions in cartesian coordinates  (Angst):
  -0.00704514  1.70582651  1.13223869
   2.94013115  1.71410118  1.13942497
   5.88035352  1.72235633  1.13942497
  -1.46305318  4.25628090  1.13942497
   1.47716919  4.26453605  1.13942497
   4.41739156  4.27279120  1.13942497
  -2.92601513  6.80671577  1.13942497
   0.01420723  6.81497092  1.13942497
   2.95442960  6.82322607  1.13942497
  -0.00009122  1.70584603  5.69712483
   2.94013115  1.71410118  5.69712483
   5.88035352  1.72235633  5.69712483
  -1.46305318  4.25628090  5.69712483
   1.47716919  4.26453605  5.69712483
   4.41739156  4.27279120  5.69712483
  -2.92601513  6.80671577  5.69712483
   0.01420723  6.81497092  5.69712483
   2.95442960  6.82322607  5.69712483
   1.47735163  0.85284398  3.41827490
   4.41757399  0.86109913  3.41827490
   7.35779636  0.86935428  3.41827490
   0.01438967  3.40327885  3.41827490
   2.95461204  3.41153400  3.41827490
   5.89483440  3.41978915  3.41827490
  -1.44857229  5.95371372  3.41827490
   1.49165008  5.96196887  3.41827490
   4.43187245  5.97022402  3.41827490
   1.47735163  0.85284398  7.97597476
   4.41757399  0.86109913  7.97597476
   7.35779636  0.86935428  7.97597476
   0.01438967  3.40327885  7.97597476
   2.95461204  3.41153400  7.97597476
   5.89483440  3.41978915  7.97597476
  -1.44857229  5.95371372  7.97597476
   1.49165008  5.96196887  7.97597476
   4.43187245  5.97022402  7.97597476
 


--------------------------------------------------------------------------------------------------------


 k-point  1 :  0.00000.00000.0000  plane waves:  15623
 k-point  2 :  0.14290.00000.0000  plane waves:  15631
 k-point  3 :  0.28570.00000.0000  plane waves:  15639
 k-point  4 :  0.42860.00000.0000  plane waves:  15650
 k-point  5 :  -.00000.14290.0000  plane waves:  15631
 k-point  6 :  0.14290.14290.0000  plane waves:  15612
 k-point  7 :  0.28570.14290.0000  plane waves:  15644
 k-point  8 :  0.42860.14290.0000  plane waves:  15676
 k-point  9 :  -.42860.14290.0000  plane waves:  15640
 k-point 10 :  -.28570.14290.0000  plane waves:  15632
 k-point 11 :  -.14290.14290.0000  plane waves:  15626
 k-point 12 :  0.00000.28570.0000  plane waves:  15639
 k-point 13 :  0.14290.28570.0000  plane waves:  15644
 k-point 14 :  0.28570.28570.0000  plane waves:  15682
 k-point 15 :  0.42860.28570.0000  plane waves:  15673
 k-point 16 :  -.42860.28570.0000  plane waves:  15667
 k-point 17 :  -.28570.28570.0000  plane waves:  15678
 k-point 18 :  -.14290.28570.0000  plane waves:  15632
 k-point 19 :  0.00000.42860.0000  plane waves:  15650
 k-point 20 :  0.14290.42860.0000  plane waves:  15676
 k-point 21 :  0.28570.42860.0000  plane waves:  15673
 k-point 22 :  0.42860.42860.0000  plane waves:  15678
 k-point 23 :  -.42860.42860.0000  plane waves:  15670
 k-point 24 :  -.28570.42860.0000  plane waves:  15667
 k-point 25 :  -.14290.42860.0000  plane waves:  15640
 k-point 26 :  0.00000.00000.2000  plane waves:  15617
 k-point 27 :  0.14290.00000.2000  plane waves:  15618
 k-point 28 :  0.28570.00000.2000  plane waves:  15642
 k-point 29 :  0.42860.00000.2000  plane waves:  15639
 k-point 30 :  -.42860.00000.2000  plane waves:  15639
 k-point 31 :  -.28570.00000.2000  plane waves:  15642
 k-point 32 :  -.14290.00000.2000  plane waves:  15618
 k-point 33 :  -.00000.14290.2000  plane waves:  15618
 k-point 34 :  0.14290.14290.2000  plane waves:  15652
 k-point 35 :  0.28570.14290.2000  plane waves:  15651
 k-point 36 :  0.42860.14290.2000  plane waves:  15650
 k-point 37 :  -.42860.14290.2000  plane waves:  15649
 k-point 38 :  -.28570.14290.2000  plane waves:  15636
 k-point 39 :  -.14290.14290.2000  plane waves:  15640
 k-point 40 :  0.00000.28570.2000  plane waves:  15642
 k-point 41 :  0.14290.28570.2000  plane waves:  15651
 k-point 42 :  0.28570.28570.2000  plane waves:  15657
 k-point 43 :  0.42860.28570.2000  plane waves:  15642
 k-point 44 :  -.42860.28570.2000  plane waves:  15663
 k-point 45 :  -.28570.28570.2000  plane waves:  15636
 k-point 46 :  -.14290.28570.2000  plane waves:  15636
 k-point 47 :  0.00000.42860.2000  plane waves:  15639
 k-point 48 :  0.14290.42860.2000  plane waves:  15650
 k-point 49 :  0.28570.42860.2000  plane waves:  15642
 k-point 50 :  0.42860.42860.2000  plane waves:  15649
 k-point 51 :  -.42860.42860.2000  plane waves:  15660
 k-point 52 :  -.28570.42860.2000  plane waves:  15663
 k-point 53 :  -.14290.42860.2000  plane waves:  15649
 k-point 54 :  -.0000-.42860.2000  plane waves:  15639
 k-point 55 :  0.1429-.42860.2000  plane waves:  15649
 k-point 56 :  0.2857-.42860.2000  plane waves:  15663
 k-point 57 :  0.4286-.42860.2000  plane waves:  15660
 k-point 58 :  -.4286-.42860.2000  plane waves:  15649
 k-point 59 :  -.2857-.42860.2000  plane waves:  15642
 k-point 60 :  -.1429-.42860.2000  plane waves:  15650
 k-point 61 :  -.0000-.28570.2000  plane waves:  15642
 k-point 62 :  0.1429-.28570.2000  plane waves:  15636
 k-point 63 :  0.2857-.28570.2000  plane waves:  15636
 k-point 64 :  0.4286-.28570.2000  plane waves:  15663
 k-point 65 :  -.4286-.28570.2000  plane waves:  15642
 k-point 66 :  -.2857-.28570.2000  plane waves:  15657
 k-point 67 :  -.1429-.28570.2000  plane waves:  15651
 k-point 68 :  0.0000-.14290.2000  plane waves:  15618
 k-point 69 :  0.1429-.14290.2000  plane waves:  15640
 k-point 70 :  0.2857-.14290.2000  plane waves:  15636
 k-point 71 :  0.4286-.14290.2000  plane waves:  15649
 k-point 72 :  -.4286-.14290.2000  plane waves:  15650
 k-point 73 :  -.2857-.14290.2000  plane waves:  15651
 k-point 74 :  -.1429-.14290.2000  plane waves:  15652
 k-point 75 :  0.00000.00000.4000  plane waves:  15606
 k-point 76 :  0.14290.00000.4000  plane waves:  15627
 k-point 77 :  0.28570.00000.4000  plane waves:  15641
 k-point 78 :  0.42860.00000.4000  plane waves:  15657
 k-point 79 :  -.42860.00000.4000  plane waves:  15657
 k-point 80 :  -.28570.00000.4000  plane waves:  15641
 k-point 81 :  -.14290.00000.4000  plane waves:  15627
 k-point 82 :  -.00000.14290.4000  plane waves:  15627
 k-point 83 :  0.14290.14290.4000  plane waves:  15642
 k-point 84 :  0.28570.14290.4000  plane waves:  15647
 k-point 85 :  0.42860.14290.4000  plane waves:  15622
 k-point 86 :  -.42860.14290.4000  plane waves:  15642
 k-point 87 :  -.28570.14290.4000  plane waves:  15628
 k-point 88 :  -.14290.14290.4000  plane waves:  15626
 k-point 89 :  0.00000.28570.4000  plane waves:  15641
 k-point 90 :  0.14290.28570.4000  plane waves:  15647
 k-point 91 :  0.28570.28570.4000  plane waves:  15631
 k-point 92 :  0.42860.28570.4000  plane waves:  15636
 k-point 93 :  -.42860.28570.4000  plane waves:  15630
 k-point 94 :  -.28570.28570.4000  plane waves:  15633
 k-point 95 :  -.14290.28570.4000  plane waves:  15628
 k-point 96 :  0.00000.42860.4000  plane waves:  15657
 k-point 97 :  0.14290.42860.4000  plane waves:  15622
 k-point 98 :  0.28570.42860.4000  plane waves:  15636
 k-point 99 :  0.42860.42860.4000  plane waves:  15651
 k-point ** :  -.42860.42860.4000  plane waves:  15646
 k-point ** :  -.28570.42860.4000  plane waves:  15630
 k-point ** :  -.14290.42860.4000  plane waves:  15642
 k-point ** :  -.0000-.42860.4000  plane waves:  15657
 k-point ** :  0.1429-.42860.4000  plane waves:  15642
 k-point ** :  0.2857-.42860.4000  plane waves:  15630
 k-point ** :  0.4286-.42860.4000  plane waves:  15646
 k-point ** :  -.4286-.42860.4000  plane waves:  15651
 k-point ** :  -.2857-.42860.4000  plane waves:  15636
 k-point ** :  -.1429-.42860.4000  plane waves:  15622
 k-point ** :  -.0000-.28570.4000  plane waves:  15641
 k-point ** :  0.1429-.28570.4000  plane waves:  15628
 k-point ** :  0.2857-.28570.4000  plane waves:  15633
 k-point ** :  0.4286-.28570.4000  plane waves:  15630
 k-point ** :  -.4286-.28570.4000  plane waves:  15636
 k-point ** :  -.2857-.28570.4000  plane waves:  15631
 k-point ** :  -.1429-.28570.4000  plane waves:  15647
 k-point ** :  0.0000-.14290.4000  plane waves:  15627
 k-point ** :  0.1429-.14290.4000  plane waves:  15626
 k-point ** :  0.2857-.14290.4000  plane waves:  15628
 k-point ** :  0.4286-.14290.4000  plane waves:  15642
 k-point ** :  -.4286-.14290.4000  plane waves:  15622
 k-point ** :  -.2857-.14290.4000  plane waves:  15647
 k-point ** :  -.1429-.14290.4000  plane waves:  15642

 maximum and minimum number of plane-waves per node :  15682 15606

 maximum number of plane-waves:  15682
 maximal index in each direction: 
   IXMAX= 16   IYMAX= 16   IZMAX= 16
   IXMIN=-16   IYMIN=-16   IZMIN=-17

 WARNING: wrap around error must be expected set NGX to  66
 WARNING: wrap around error must be expected set NGY to  66
 NGZ is ok and might be reduce to  68

 parallel 3dFFT wavefunction:
    minimum data exchange during FFTs selected (reduces bandwidth)
 parallel 3dFFT charge:
    minimum data exchange during FFTs selected (reduces bandwidth)

 For storing wavefunctions 6649.42 MBYTES are necessary
 For predicting wavefunctions  118.58 MBYTES are necessary
Broyden mixing: mesh for mixing (old mesh)
   NGX = 33   NGY = 33   NGZ = 33
  (NGX  =128   NGY  =128   NGZ  =140)
 gives a total of  35937 points
 initial charge density was supplied:
 charge density of overlapping atoms calculated
 number of electron  360.0000000 magnetization 
 keeping initial charge density in first step


--------------------------------------------------------------------------------------------------------


 Maximum index for augmentation-charges         4406 (set IRDMAX)


--------------------------------------------------------------------------------------------------------


 First call to EWALD:  gamma=   0.208
 Maximum number of real-space cells 3x 3x 3
 Maximum number of reciprocal cells 3x 3x 3

    FEWALD:  VPU time    0.01: CPU time    0.01


----------------------------------------- Iteration    1(   1)  ---------------------------------------


    POTLOK:  VPU time    0.90: CPU time    0.91
    SETDIJ:  VPU time    0.07: CPU time    0.07
    EDDAV :  VPU time 2719.95: CPU time 2722.13
    DOS   :  VPU time    0.00: CPU time   -0.00
    ------------------------------------------
      LOOP:  VPU time 2721.19: CPU time 2723.36

 eigenvalue-minimisations  : 53768
 total energy-change (2. order) : 0.5003385E+04  (-0.1716939E+05)
 number of electron  360.0000000 magnetization 
 augmentation part   360.0000000 magnetization 

 Free energy of the ion-electron system (eV)
  ---------------------------------------------------
  alpha Z        PSCENC =      2293.44647913
  Ewald energy   TEWEN  =    -29036.14034853
  -1/2 Hartree   DENC   =     -7928.62953773
  -V(xc)+E(xc)   XCENC  =      1294.39693089
  PAW double counting   =     25711.31321228   -25685.71707589
  entropy T*S    EENTRO =        -0.00089167
  eigenvalues    EBANDS =       829.19221005
  atomic energy  EATOM  =     37525.52423787
  ---------------------------------------------------
  free energy    TOTEN  =      5003.38521641 eV

  energy without entropy =     5003.38610807  energy(sigma->0) =     5003.38566224


--------------------------------------------------------------------------------------------------------




----------------------------------------- Iteration    1(   2)  ---------------------------------------


    EDDAV :  VPU time 2693.23: CPU time 2697.16
    DOS   :  VPU time    0.00: CPU time   -0.00
    ------------------------------------------
      LOOP:  VPU time 2693.48: CPU time 2697.43

 eigenvalue-minimisations  : 53136
 total energy-change (2. order) :-0.4911067E+04  (-0.4834706E+04)
 number of electron  360.0000000 magnetization 
 augmentation part   360.0000000 magnetization 

 Free energy of the ion-electron system (eV)
  ---------------------------------------------------
  alpha Z        PSCENC =      2293.44647913
  Ewald energy   TEWEN  =    -29036.14034853
  -1/2 Hartree   DENC   =     -7928.62953773
  -V(xc)+E(xc)   XCENC  =      1294.39693089
  PAW double counting   =     25711.31321228   -25685.71707589
  entropy T*S    EENTRO =        -0.00159787
  eigenvalues    EBANDS =     -4081.87380753
  atomic energy  EATOM  =     37525.52423787
  ---------------------------------------------------
  free energy    TOTEN  =        92.31849263 eV

  energy without entropy =       92.32009050  energy(sigma->0) =       92.31929156


--------------------------------------------------------------------------------------------------------




----------------------------------------- Iteration    1(   3)  ---------------------------------------


    EDDAV :  VPU time 3656.63: CPU time 3660.35
    DOS   :  VPU time    0.00: CPU time   -0.00
    ------------------------------------------
      LOOP:  VPU time 3656.88: CPU time 3660.61

 eigenvalue-minimisations  : 77400
 total energy-change (2. order) :-0.3842976E+03  (-0.3615475E+03)
 number of electron  360.0000000 magnetization 
 augmentation part   360.0000000 magnetization 

 Free energy of the ion-electron system (eV)
  ---------------------------------------------------
  alpha Z        PSCENC =      2293.44647913
  Ewald energy   TEWEN  =    -29036.14034853
  -1/2 Hartree   DENC   =     -7928.62953773
  -V(xc)+E(xc)   XCENC  =      1294.39693089
  PAW double counting   =     25711.31321228   -25685.71707589
  entropy T*S    EENTRO =        -0.00137425
  eigenvalues    EBANDS =     -4466.17160027
  atomic energy  EATOM  =     37525.52423787
  ---------------------------------------------------
  free energy    TOTEN  =      -291.97907650 eV

  energy without entropy =     -291.97770225  energy(sigma->0) =     -291.97838937


--------------------------------------------------------------------------------------------------------




----------------------------------------- Iteration    1(   4)  ---------------------------------------


    EDDAV :  VPU time 3467.70: CPU time 3473.63
    DOS   :  VPU time    0.00: CPU time   -0.00
    ------------------------------------------
      LOOP:  VPU time 3467.95: CPU time 3473.89

 eigenvalue-minimisations  : 72512
 total energy-change (2. order) :-0.3098345E+02  (-0.3014364E+02)
 number of electron  360.0000000 magnetization 
 augmentation part   360.0000000 magnetization 

 Free energy of the ion-electron system (eV)
  ---------------------------------------------------
  alpha Z        PSCENC =      2293.44647913
  Ewald energy   TEWEN  =    -29036.14034853
  -1/2 Hartree   DENC   =     -7928.62953773
  -V(xc)+E(xc)   XCENC  =      1294.39693089
  PAW double counting   =     25711.31321228   -25685.71707589
  entropy T*S    EENTRO =        -0.00102800
  eigenvalues    EBANDS =     -4497.15539216
  atomic energy  EATOM  =     37525.52423787
  ---------------------------------------------------
  free energy    TOTEN  =      -322.96252213 eV

  energy without entropy =     -322.96149413  energy(sigma->0) =     -322.96200813


--------------------------------------------------------------------------------------------------------




----------------------------------------- Iteration    1(   5)  ---------------------------------------


    EDDAV :  VPU time 3388.39: CPU time 3393.23
    DOS   :  VPU time    0.00: CPU time   -0.00
    CHARGE:  VPU time  101.74: CPU time  101.88
    MIXING:  VPU time    0.01: CPU time    0.01
    ------------------------------------------
      LOOP:  VPU time 3490.40: CPU time 3495.38

 eigenvalue-minimisations  : 69528
 total energy-change (2. order) :-0.9099964E+00  (-0.8907034E+00)
 number of electron  360.0000031 magnetization 
 augmentation part   157.4051258 magnetization 

 Broyden mixing:
  rms(total) = 0.35608E+01    rms(broyden)= 0.35607E+01
  rms(prec ) = 0.50988E+01
  weight for this iteration     100.00

 Free energy of the ion-electron system (eV)
  ---------------------------------------------------
  alpha Z        PSCENC =      2293.44647913
  Ewald energy   TEWEN  =    -29036.14034853
  -1/2 Hartree   DENC   =     -7928.62953773
  -V(xc)+E(xc)   XCENC  =      1294.39693089
  PAW double counting   =     25711.31321228   -25685.71707589
  entropy T*S    EENTRO =        -0.00124810
  eigenvalues    EBANDS =     -4498.06516846
  atomic energy  EATOM  =     37525.52423787
  ---------------------------------------------------
  free energy    TOTEN  =      -323.87251854 eV

  energy without entropy =     -323.87127044  energy(sigma->0) =     -323.87189449


--------------------------------------------------------------------------------------------------------




----------------------------------------- Iteration    1(   6)  ---------------------------------------


    POTLOK:  VPU time    0.85: CPU time    0.86
    SETDIJ:  VPU time    0.07: CPU time    0.07
    EDDAV :  VPU time 2883.39: CPU time 2887.33
    DOS   :  VPU time    0.00: CPU time   -0.00
    CHARGE:  VPU time  105.67: CPU time  105.77
    MIXING:  VPU time    0.03: CPU time    0.03
    ------------------------------------------
      LOOP:  VPU time 2990.27: CPU time 2994.31

 eigenvalue-minimisations  : 57856
 total energy-change (2. order) : 0.3784348E+02  (-0.1174178E+02)
 number of electron  360.0000033 magnetization 
 augmentation part   166.6533330 magnetization 

 Broyden mixing:
  rms(total) = 0.91379E+00    rms(broyden)= 0.91376E+00
  rms(prec ) = 0.13241E+01
  weight for this iteration     100.00

 eigenvalues of (default mixing * dielectric matrix)
  average eigenvalue GAMMA=   1.2695
  1.2695

 Free energy of the ion-electron system (eV)
  ---------------------------------------------------
  alpha Z        PSCENC =      2293.44647913
  Ewald energy   TEWEN  =    -29036.14034853
  -1/2 Hartree   DENC   =     -7226.85939873
  -V(xc)+E(xc)   XCENC  =      1257.15222943
  PAW double counting   =     24969.24657838   -25011.87554496
  entropy T*S    EENTRO =        -0.00196511
  eigenvalues    EBANDS =     -5056.52130487
  atomic energy  EATOM  =     37525.52423787
  ---------------------------------------------------
  free energy    TOTEN  =      -286.02903738 eV

  energy without entropy =     -286.02707227  energy(sigma->0) =     -286.02805483


--------------------------------------------------------------------------------------------------------




----------------------------------------- Iteration    1(   7)  ---------------------------------------


    POTLOK:  VPU time    1.06: CPU time    1.06
    SETDIJ:  VPU time    0.07: CPU time    0.07
    EDDAV :  VPU time 3042.95: CPU time 3047.18
    DOS   :  VPU time    0.00: CPU time   -0.00
    CHARGE:  VPU time  105.58: CPU time  105.78
    MIXING:  VPU time    0.02: CPU time    0.02
    ------------------------------------------
      LOOP:  VPU time 3149.94: CPU time 3154.38

 eigenvalue-minimisations  : 70304
 total energy-change (2. order) : 0.1916322E+01  (-0.1559908E+01)
 number of electron  360.0000034 magnetization 
 augmentation part   170.0097660 magnetization 

 Broyden mixing:
  rms(total) = 0.35015E+00    rms(broyden)= 0.35014E+00
  rms(prec ) = 0.42040E+00
  weight for this iteration     100.00

 eigenvalues of (default mixing * dielectric matrix)
  average eigenvalue GAMMA=   1.8549
  1.4083  2.3014

 Free energy of the ion-electron system (eV)
  ---------------------------------------------------
  alpha Z        PSCENC =      2293.44647913
  Ewald energy   TEWEN  =    -29036.14034853
  -1/2 Hartree   DENC   =     -7016.19812649
  -V(xc)+E(xc)   XCENC  =      1246.69629550
  PAW double counting   =     25131.31797753   -25213.25792759
  entropy T*S    EENTRO =        -0.00155571
  eigenvalues    EBANDS =     -5215.49974700
  atomic energy  EATOM  =     37525.52423787
  ---------------------------------------------------
  free energy    TOTEN  =      -284.11271528 eV

  energy without entropy =     -284.11115957  energy(sigma->0) =     -284.11193742


--------------------------------------------------------------------------------------------------------




----------------------------------------- Iteration    1(   8)  ---------------------------------------


    POTLOK:  VPU time    0.99: CPU time    0.99
    SETDIJ:  VPU time    0.07: CPU time    0.07
    EDDAV :  VPU time 3461.84: CPU time 3467.12
    DOS   :  VPU time    0.00: CPU time   -0.00
    CHARGE:  VPU time   74.96: CPU time   75.08
    MIXING:  VPU time    0.03: CPU time    0.03
    ------------------------------------------
      LOOP:  VPU time 3538.14: CPU time 3543.57

 eigenvalue-minimisations  : 70784
 total energy-change (2. order) :-0.7301693E-01  (-0.2772495E+00)
 number of electron  360.0000034 magnetization 
 augmentation part   169.0886578 magnetization 

 Broyden mixing:
  rms(total) = 0.37263E+00    rms(broyden)= 0.37263E+00
  rms(prec ) = 0.81774E+00
  weight for this iteration     100.00

 eigenvalues of (default mixing * dielectric matrix)
  average eigenvalue GAMMA=   1.3765
  2.5142  1.3679  0.2475

 Free energy of the ion-electron system (eV)
  ---------------------------------------------------
  alpha Z        PSCENC =      2293.44647913
  Ewald energy   TEWEN  =    -29036.14034853
  -1/2 Hartree   DENC   =     -7053.24668215
  -V(xc)+E(xc)   XCENC  =      1249.65920642
  PAW double counting   =     25664.44801583   -25762.79158572
  entropy T*S    EENTRO =        -0.00163241
  eigenvalues    EBANDS =     -5165.08342267
  atomic energy  EATOM  =     37525.52423787
  ---------------------------------------------------
  free energy    TOTEN  =      -284.18573221 eV

  energy without entropy =     -284.18409981  energy(sigma->0) =     -284.18491601


--------------------------------------------------------------------------------------------------------




----------------------------------------- Iteration    1(   9)  ---------------------------------------


    POTLOK:  VPU time    1.07: CPU time    1.07
    SETDIJ:  VPU time    0.08: CPU time    0.08
    EDDAV :  VPU time 3564.18: CPU time 3570.26
    DOS   :  VPU time    0.00: CPU time   -0.00
    CHARGE:  VPU time   71.45: CPU time   71.57
    MIXING:  VPU time    0.03: CPU time    0.03
    ------------------------------------------
      LOOP:  VPU time 3637.06: CPU time 3643.27

 eigenvalue-minimisations  : 74776
 total energy-change (2. order) : 0.1727966E+00  (-0.9954598E-01)
 number of electron  360.0000034 magnetization 
 augmentation part   169.0274372 magnetization 

 Broyden mixing:
  rms(total) = 0.16682E+00    rms(broyden)= 0.16681E+00
  rms(prec ) = 0.24307E+00
  weight for this iteration     100.00

 eigenvalues of (default mixing * dielectric matrix)
  average eigenvalue GAMMA=   1.1697
  2.5599  1.2915  0.5976  0.2299

 Free energy of the ion-electron system (eV)
  ---------------------------------------------------
  alpha Z        PSCENC =      2293.44647913
  Ewald energy   TEWEN  =    -29036.14034853
  -1/2 Hartree   DENC   =     -7051.27802911
  -V(xc)+E(xc)   XCENC  =      1249.83846456
  PAW double counting   =     25789.84530185   -25893.22342252
  entropy T*S    EENTRO =        -0.00188747
  eigenvalues    EBANDS =     -5162.02373141
  atomic energy  EATOM  =     37525.52423787
  ---------------------------------------------------
  free energy    TOTEN  =      -284.01293561 eV

  energy without entropy =     -284.01104815  energy(sigma->0) =     -284.01199188


--------------------------------------------------------------------------------------------------------




----------------------------------------- Iteration    1(  10)  ---------------------------------------


    POTLOK:  VPU time    1.06: CPU time    1.06
    SETDIJ:  VPU time    0.08: CPU time    0.08
    EDDAV :  VPU time 3319.16: CPU time 3324.76
    DOS   :  VPU time   -0.00: CPU time   -0.00
    CHARGE:  VPU time   94.46: CPU time   94.63
    MIXING:  VPU time    0.02: CPU time    0.02
    ------------------------------------------
      LOOP:  VPU time 3415.03: CPU time 3420.81

 eigenvalue-minimisations  : 71072
 total energy-change (2. order) : 0.5850771E-01  (-0.1509412E-01)
 number of electron  360.0000034 magnetization 
 augmentation part   169.2743265 magnetization 

 Broyden mixing:
  rms(total) = 0.94973E-01    rms(broyden)= 0.94972E-01
  rms(prec ) = 0.13927E+00
  weight for this iteration     100.00

 eigenvalues of (default mixing * dielectric matrix)
  average eigenvalue GAMMA=   1.0943
  2.5938  1.1992  1.1992  0.2397  0.2397

 Free energy of the ion-electron system (eV)
  ---------------------------------------------------
  alpha Z        PSCENC =      2293.44647913
  Ewald energy   TEWEN  =    -29036.14034853
  -1/2 Hartree   DENC   =     -7035.16259798
  -V(xc)+E(xc)   XCENC  =      1248.97509036
  PAW double counting   =     25762.56160573   -25866.44824762
  entropy T*S    EENTRO =        -0.00193228
  eigenvalues    EBANDS =     -5176.70871458
  atomic energy  EATOM  =     37525.52423787
  ---------------------------------------------------
  free energy    TOTEN  =      -283.95442790 eV

  energy without entropy =     -283.95249561  energy(sigma->0) =     -283.95346176


--------------------------------------------------------------------------------------------------------




----------------------------------------- Iteration    1(  11)  ---------------------------------------


    POTLOK:  VPU time    0.66: CPU time    0.66
    SETDIJ:  VPU time    0.06: CPU time    0.06
    EDDAV :  VPU time 2953.77: CPU time 2958.80
    DOS   :  VPU time    0.00: CPU time   -0.00
    CHARGE:  VPU time   99.13: CPU time   99.32
    MIXING:  VPU time    0.02: CPU time    0.02
    ------------------------------------------
      LOOP:  VPU time 3053.90: CPU time 3059.12

 eigenvalue-minimisations  : 62936
 total energy-change (2. order) : 0.2752014E-01  (-0.2005235E-01)
 number of electron  360.0000034 magnetization 
 augmentation part   169.6670865 magnetization 

 Broyden mixing:
  rms(total) = 0.24638E-01    rms(broyden)= 0.24636E-01
  rms(prec ) = 0.38504E-01
  weight for this iteration     100.00

 eigenvalues of (default mixing * dielectric matrix)
  average eigenvalue GAMMA=   0.9957
  2.5902  1.2642  1.2642  0.3686  0.2253  0.2617

 Free energy of the ion-electron system (eV)
  ---------------------------------------------------
  alpha Z        PSCENC =      2293.44647913
  Ewald energy   TEWEN  =    -29036.14034853
  -1/2 Hartree   DENC   =     -7012.93996228
  -V(xc)+E(xc)   XCENC  =      1247.76823166
  PAW double counting   =     25718.49917774   -25822.46251186
  entropy T*S    EENTRO =        -0.00148442
  eigenvalues    EBANDS =     -5197.62072708
  atomic energy  EATOM  =     37525.52423787
  ---------------------------------------------------
  free energy    TOTEN  =      -283.92690776 eV

  energy without entropy =     -283.92542334  energy(sigma->0) =     -283.92616555


--------------------------------------------------------------------------------------------------------




----------------------------------------- Iteration    1(  12)  ---------------------------------------


    POTLOK:  VPU time    0.94: CPU time    0.94
    SETDIJ:  VPU time    0.08: CPU time    0.08
    EDDAV :  VPU time 3239.14: CPU time 3243.50
    DOS   :  VPU time    0.00: CPU time   -0.00
    CHARGE:  VPU time   94.51: CPU time   94.74
    MIXING:  VPU time    0.04: CPU time    0.04
    ------------------------------------------
      LOOP:  VPU time 3334.97: CPU time 3339.55

 eigenvalue-minimisations  : 71696
 total energy-change (2. order) :-0.8151011E-03  (-0.9481550E-03)
 number of electron  360.0000034 magnetization 
 augmentation part   169.6956189 magnetization 

 Broyden mixing:
  rms(total) = 0.26290E-01    rms(broyden)= 0.26290E-01
  rms(prec ) = 0.36522E-01
  weight for this iteration     100.00

 eigenvalues of (default mixing * dielectric matrix)
  average eigenvalue GAMMA=   1.0468
  2.5525  1.9064  1.1945  0.9178  0.2239  0.2665  0.2665

 Free energy of the ion-electron system (eV)
  ---------------------------------------------------
  alpha Z        PSCENC =      2293.44647913
  Ewald energy   TEWEN  =    -29036.14034853
  -1/2 Hartree   DENC   =     -7012.24898469
  -V(xc)+E(xc)   XCENC  =      1247.72958929
  PAW double counting   =     25716.57110286   -25820.08153512
  entropy T*S    EENTRO =        -0.00147194
  eigenvalues    EBANDS =     -5198.72679174
  atomic energy  EATOM  =     37525.52423787
  ---------------------------------------------------
  free energy    TOTEN  =      -283.92772286 eV

  energy without entropy =     -283.92625092  energy(sigma->0) =     -283.92698689


--------------------------------------------------------------------------------------------------------




----------------------------------------- Iteration    1(  13)  ---------------------------------------


    POTLOK:  VPU time    0.99: CPU time    0.99
    SETDIJ:  VPU time    0.07: CPU time    0.07
    EDDAV :  VPU time 3353.02: CPU time 3357.90
    DOS   :  VPU time    0.00: CPU time   -0.00
    CHARGE:  VPU time  107.07: CPU time  107.27
    MIXING:  VPU time    0.02: CPU time    0.03
    ------------------------------------------
      LOOP:  VPU time 3461.44: CPU time 3466.53

 eigenvalue-minimisations  : 68256
 total energy-change (2. order) : 0.1215136E-02  (-0.2994087E-03)
 number of electron  360.0000034 magnetization 
 augmentation part   169.6554474 magnetization 

 Broyden mixing:
  rms(total) = 0.12834E-01    rms(broyden)= 0.12834E-01
  rms(prec ) = 0.19023E-01
  weight for this iteration     100.00

 eigenvalues of (default mixing * dielectric matrix)
  average eigenvalue GAMMA=   1.0042
  2.5108  2.2980  1.0676  1.0676  0.3380  0.2263  0.2492  0.2761

 Free energy of the ion-electron system (eV)
  ---------------------------------------------------
  alpha Z        PSCENC =      2293.44647913
  Ewald energy   TEWEN  =    -29036.14034853
  -1/2 Hartree   DENC   =     -7015.84517981
  -V(xc)+E(xc)   XCENC  =      1247.92437089
  PAW double counting   =     25722.61451645   -25824.84904253
  entropy T*S    EENTRO =        -0.00150865
  eigenvalues    EBANDS =     -5196.60003255
  atomic energy  EATOM  =     37525.52423787
  ---------------------------------------------------
  free energy    TOTEN  =      -283.92650773 eV

  energy without entropy =     -283.92499907  energy(sigma->0) =     -283.92575340


--------------------------------------------------------------------------------------------------------




----------------------------------------- Iteration    1(  14)  ---------------------------------------


    POTLOK:  VPU time    1.02: CPU time    1.02
    SETDIJ:  VPU time    0.08: CPU time    0.08
    EDDAV :  VPU time 3268.29: CPU time 3273.78
    DOS   :  VPU time    0.00: CPU time   -0.00
    CHARGE:  VPU time  107.93: CPU time  108.13
    MIXING:  VPU time    0.03: CPU time    0.03
    ------------------------------------------
      LOOP:  VPU time 3377.61: CPU time 3383.31

 eigenvalue-minimisations  : 68496
 total energy-change (2. order) : 0.3679776E-03  (-0.1212600E-03)
 number of electron  360.0000034 magnetization 
 augmentation part   169.6301651 magnetization 

 Broyden mixing:
  rms(total) = 0.44613E-02    rms(broyden)= 0.44610E-02
  rms(prec ) = 0.74257E-02
  weight for this iteration     100.00

 eigenvalues of (default mixing * dielectric matrix)
  average eigenvalue GAMMA=   0.9819
  2.6054  1.9975  1.2491  0.9826  0.9826  0.2243  0.2698  0.2698  0.2562

 Free energy of the ion-electron system (eV)
  ---------------------------------------------------
  alpha Z        PSCENC =      2293.44647913
  Ewald energy   TEWEN  =    -29036.14034853
  -1/2 Hartree   DENC   =     -7017.91670093
  -V(xc)+E(xc)   XCENC  =      1248.03810760
  PAW double counting   =     25726.55131572   -25828.08741255
  entropy T*S    EENTRO =        -0.00153337
  eigenvalues    EBANDS =     -5195.34028469
  atomic energy  EATOM  =     37525.52423787
  ---------------------------------------------------
  free energy    TOTEN  =      -283.92613975 eV

  energy without entropy =     -283.92460637  energy(sigma->0) =     -283.92537306


--------------------------------------------------------------------------------------------------------




----------------------------------------- Iteration    1(  15)  ---------------------------------------


    POTLOK:  VPU time    0.97: CPU time    0.97
    SETDIJ:  VPU time    0.07: CPU time    0.07
    EDDAV :  VPU time 3433.25: CPU time 3437.11
    DOS   :  VPU time   -0.00: CPU time   -0.00
    CHARGE:  VPU time   93.33: CPU time   93.42
    MIXING:  VPU time    0.04: CPU time    0.04
    ------------------------------------------
      LOOP:  VPU time 3527.92: CPU time 3531.87

 eigenvalue-minimisations  : 71416
 total energy-change (2. order) : 0.7455019E-05  (-0.1298662E-04)
 number of electron  360.0000034 magnetization 
 augmentation part   169.6284252 magnetization 

 Broyden mixing:
  rms(total) = 0.29384E-02    rms(broyden)= 0.29384E-02
  rms(prec ) = 0.48184E-02
  weight for this iteration     100.00

 eigenvalues of (default mixing * dielectric matrix)
  average eigenvalue GAMMA=   0.9284
  2.6151  1.8978  1.3664  1.0468  1.0468  0.2979  0.2979  0.2238  0.2459  0.2459

 Free energy of the ion-electron system (eV)
  ---------------------------------------------------
  alpha Z        PSCENC =      2293.44647913
  Ewald energy   TEWEN  =    -29036.14034853
  -1/2 Hartree   DENC   =     -7018.02592590
  -V(xc)+E(xc)   XCENC  =      1248.04675757
  PAW double counting   =     25727.47404136   -25828.99532902
  entropy T*S    EENTRO =        -0.00153472
  eigenvalues    EBANDS =     -5195.25451007
  atomic energy  EATOM  =     37525.52423787
  ---------------------------------------------------
  free energy    TOTEN  =      -283.92613229 eV

  energy without entropy =     -283.92459758  energy(sigma->0) =     -283.92536494


--------------------------------------------------------------------------------------------------------




----------------------------------------- Iteration    1(  16)  ---------------------------------------


    POTLOK:  VPU time    0.97: CPU time    0.97
    SETDIJ:  VPU time    0.07: CPU time    0.08
    EDDAV :  VPU time 3538.85: CPU time 3544.28
    DOS   :  VPU time   -0.00: CPU time   -0.00
    CHARGE:  VPU time  107.92: CPU time  108.12
    MIXING:  VPU time    0.03: CPU time    0.03
    ------------------------------------------
      LOOP:  VPU time 3648.10: CPU time 3653.73

 eigenvalue-minimisations  : 73136
 total energy-change (2. order) : 0.7374183E-05  (-0.3743868E-05)
 number of electron  360.0000034 magnetization 
 augmentation part   169.6273695 magnetization 

 Broyden mixing:
  rms(total) = 0.21148E-02    rms(broyden)= 0.21148E-02
  rms(prec ) = 0.30188E-02
  weight for this iteration     100.00

 eigenvalues of (default mixing * dielectric matrix)
  average eigenvalue GAMMA=   0.9755
  2.6098  1.9025  1.9025  1.1137  1.1137  0.8298  0.2854  0.2600  0.2600  0.2268
  0.2268

 Free energy of the ion-electron system (eV)
  ---------------------------------------------------
  alpha Z        PSCENC =      2293.44647913
  Ewald energy   TEWEN  =    -29036.14034853
  -1/2 Hartree   DENC   =     -7018.08539083
  -V(xc)+E(xc)   XCENC  =      1248.05073127
  PAW double counting   =     25727.69261687   -25829.19347966
  entropy T*S    EENTRO =        -0.00153554
  eigenvalues    EBANDS =     -5195.21943551
  atomic energy  EATOM  =     37525.52423787
  ---------------------------------------------------
  free energy    TOTEN  =      -283.92612492 eV

  energy without entropy =     -283.92458938  energy(sigma->0) =     -283.92535715


--------------------------------------------------------------------------------------------------------




----------------------------------------- Iteration    1(  17)  ---------------------------------------


    POTLOK:  VPU time    0.95: CPU time    0.95
    SETDIJ:  VPU time    0.08: CPU time    0.08
    EDDAV :  VPU time 3139.24: CPU time 3141.75
    DOS   :  VPU time    0.00: CPU time   -0.00
    CHARGE:  VPU time   99.53: CPU time   99.62
    MIXING:  VPU time    0.03: CPU time    0.03
    ------------------------------------------
      LOOP:  VPU time 3240.07: CPU time 3242.68

 eigenvalue-minimisations  : 70984
 total energy-change (2. order) : 0.2686519E-04  (-0.1885741E-05)
 number of electron  360.0000034 magnetization 
 augmentation part   169.6245037 magnetization 

 Broyden mixing:
[...]
     97     -26.7047      2.00000
     98     -26.7046      2.00000
     99     -26.6986      2.00000
    100     -26.6984      2.00000
    101     -26.6880      2.00000
    102     -26.6877      2.00000
    103     -26.6704      2.00000
    104     -26.6702      2.00000
    105     -26.6590      2.00000
    106     -26.6471      2.00000
    107     -26.6459      2.00000
    108     -26.6335      2.00000
    109       0.3844      2.00000
    110       0.7933      2.00000
    111       1.8709      2.00000
    112       1.8713      2.00000
    113       2.1727      2.00000
    114       2.1731      2.00000
    115       2.7288      2.00000
    116       2.7289      2.00000
    117       2.9150      2.00000
    118       2.9151      2.00000
    119       3.0392      2.00000
    120       3.1627      2.00000
    121       3.1629      2.00000
    122       3.2022      2.00000
    123       3.2024      2.00000
    124       3.3331      2.00000
    125       3.9020      2.00000
    126       3.9027      2.00000
    127       3.9778      2.00000
    128       3.9786      2.00000
    129       4.0356      2.00000
    130       4.0365      2.00000
    131       4.0805      2.00000
    132       4.0813      2.00000
    133       4.0918      2.00000
    134       4.1009      2.00000
    135       4.2657      2.00000
    136       4.2662      2.00000
    137       4.2714      2.00000
    138       4.3049      2.00000
    139       4.3104      2.00000
    140       4.3131      2.00000
    141       4.3139      2.00000
    142       4.3307      2.00000
    143       4.5279      2.00000
    144       4.5493      2.00000
    145       4.6217      2.00000
    146       4.6221      2.00000
    147       4.6373      2.00000
    148       4.6377      2.00000
    149       4.7358      2.00000
    150       4.7386      2.00000
    151       4.8261      2.00000
    152       4.8265      2.00000
    153       4.8388      2.00000
    154       4.8476      2.00000
    155       4.8482      2.00000
    156       4.8772      2.00000
    157       4.8774      2.00000
    158       4.8787      2.00000
    159       4.9415      2.00000
    160       4.9475      2.00000
    161       4.9526      2.00000
    162       4.9532      2.00000
    163       5.0470      2.00000
    164       5.1861      2.00000
    165       5.2534      2.00000
    166       5.2542      2.00000
    167       5.3709      2.00000
    168       5.3725      2.00000
    169       5.3751      2.00000
    170       5.3763      2.00000
    171       5.5002      2.00000
    172       5.5018      2.00000
    173       5.5730      2.00000
    174       5.5738      2.00000
    175       5.6684      2.00000
    176       5.6692      2.00000
    177       5.9130      2.00000
    178       5.9655      2.00000
    179       5.9854      2.00000
    180       6.1109      0.00000
    181       6.1499      0.00000
    182       6.1575      0.00000
    183       6.2005      0.00000
    184       6.2211      0.00000
    185       6.2472      0.00000
    186       6.3479      0.00000
    187       6.3495      0.00000
    188       6.3532      0.00000
    189       6.3536      0.00000
    190       6.3815      0.00000
    191       6.3988      0.00000
    192       6.4089      0.00000
    193       6.4388      0.00000
    194       6.4396      0.00000
    195       6.5183      0.00000
    196       6.5196      0.00000
    197       6.6058      0.00000
    198       6.6063      0.00000
    199       6.6172      0.00000
    200       6.6374      0.00000
    201       6.6378      0.00000
    202       6.6967      0.00000
    203       6.7664      0.00000
    204       6.7963      0.00000
    205       6.7972      0.00000
    206       6.8397      0.00000
    207       6.8406      0.00000
    208       6.8642      0.00000
    209       6.9091      0.00000
    210       6.9097      0.00000
    211       6.9104      0.00000
    212       6.9116      0.00000
    213       6.9504      0.00000
    214       6.9584      0.00000
    215       7.0230      0.00000
    216       7.0412      0.00000


--------------------------------------------------------------------------------------------------------


 soft charge-density along one line, spin component           1
         0         1         2         3         4         5         6         7         8         9
 total charge-density along one line
 
 pseudopotential strength for first ion, spin component:           1
-28.914  -0.000  -0.000  12.880   0.000   0.000   0.001   0.001
 -0.000 -28.972   0.000   0.000  12.922  -0.000   0.000  -0.000
 -0.000   0.000 -28.914   0.000  -0.000  12.879   0.005   0.000
 12.880   0.000   0.000  -0.786  -0.000  -0.000  -0.001  -0.001
  0.000  12.922  -0.000  -0.000  -0.812   0.000  -0.000   0.000
  0.000  -0.000  12.879  -0.000   0.000  -0.786  -0.003  -0.000
  0.001   0.000   0.005  -0.001  -0.000  -0.003  -2.806   0.000
  0.001  -0.000   0.000  -0.001   0.000  -0.000   0.000  -2.835
  0.000   0.001  -0.001  -0.000  -0.001   0.000  -0.000   0.000
  0.000   0.001   0.001  -0.000  -0.001  -0.001  -0.000  -0.000
  0.006  -0.000   0.001  -0.003   0.000  -0.001  -0.000  -0.000
  0.000   0.000   0.001  -0.000  -0.000  -0.001   0.539   0.000
  0.000  -0.000   0.000  -0.000   0.000  -0.000   0.000   0.533
  0.000   0.000  -0.000  -0.000  -0.000   0.000   0.000   0.000
  0.000   0.000   0.000  -0.000  -0.000  -0.000  -0.000  -0.000
  0.001  -0.000   0.000  -0.001   0.000  -0.000  -0.000  -0.000
  0.000  -0.001  -0.001  -0.000   0.000   0.000   0.000   0.000
 -0.000   0.000   0.000   0.000  -0.000  -0.000  -0.000  -0.000
 total augmentation occupancy for first ion, spin component:           1
  1.977  -0.000  -0.000   0.006  -0.000   0.000  -0.000  -0.000  -0.000   0.000  -0.016   0.000   0.000  -0.000   0.000   0.007
 -0.000   1.978   0.000  -0.000   0.003   0.000  -0.000   0.000  -0.001  -0.000   0.000   0.000   0.000   0.000   0.000  -0.000
 -0.000   0.000   1.977   0.000   0.000   0.006  -0.016   0.000   0.000  -0.000  -0.000   0.007   0.000  -0.000   0.000   0.000
  0.006  -0.000   0.000   0.193  -0.000   0.000  -0.001  -0.001  -0.000   0.000  -0.068   0.001   0.001   0.000  -0.000   0.020
 -0.000   0.003   0.000  -0.000   0.171   0.000   0.000  -0.000  -0.001  -0.000  -0.000  -0.000  -0.000   0.001   0.001   0.000
  0.000   0.000   0.006   0.000   0.000   0.193  -0.068   0.000   0.001  -0.001  -0.001   0.020  -0.000  -0.000   0.001   0.001
 -0.000  -0.000  -0.016  -0.001   0.000  -0.068   0.595   0.000   0.001  -0.000  -0.001  -0.282  -0.000   0.001   0.000   0.001
 -0.000   0.000   0.000  -0.001  -0.000   0.000   0.000   0.485   0.000  -0.000  -0.000  -0.000  -0.253  -0.000   0.001   0.000
 -0.000  -0.001   0.000  -0.000  -0.001   0.001   0.001   0.000   0.650  -0.000  -0.000   0.001  -0.000  -0.301   0.000  -0.000
  0.000  -0.000  -0.000   0.000  -0.000  -0.001  -0.000  -0.000  -0.000   0.486   0.000   0.000   0.001   0.000  -0.254  -0.000
 -0.016   0.000  -0.000  -0.068  -0.000  -0.001  -0.001  -0.000  -0.000   0.000   0.595   0.001   0.000  -0.000  -0.000  -0.281
  0.000   0.000   0.007   0.001  -0.000   0.020  -0.282  -0.000   0.001   0.000   0.001   0.154   0.000  -0.001  -0.000  -0.001
  0.000   0.000   0.000   0.001  -0.000  -0.000  -0.000  -0.253  -0.000   0.001   0.000   0.000   0.150   0.000  -0.001  -0.000
 -0.000   0.000  -0.000   0.000   0.001  -0.000   0.001  -0.000  -0.301   0.000  -0.000  -0.001   0.000   0.160  -0.000   0.000
  0.000   0.000   0.000  -0.000   0.001   0.001   0.000   0.001   0.000  -0.254  -0.000  -0.000  -0.001  -0.000   0.150   0.000
  0.007  -0.000   0.000   0.020   0.000   0.001   0.001   0.000  -0.000  -0.000  -0.281  -0.001  -0.000   0.000   0.000   0.153
 -0.000  -0.001  -0.001  -0.001  -0.002  -0.000   0.001  -0.000   0.058  -0.000   0.001  -0.000  -0.000  -0.030   0.000  -0.000
  0.000  -0.001  -0.001  -0.000   0.000   0.000  -0.000   0.000   0.015   0.000  -0.000   0.000  -0.000  -0.006  -0.000   0.000


------------------------ aborting loop because EDIFF is reached ----------------------------------------




--------------------------------------------------------------------------------------------------------


    CHARGE:  VPU time  107.28: CPU time  107.39
    FORLOC:  VPU time    0.18: CPU time    0.18
    FORNL :  VPU time  645.87: CPU time  646.72
    STRESS:  VPU time 2401.76: CPU time 2405.67
    FORCOR:  VPU time    1.09: CPU time    1.09
    FORHAR:  VPU time    0.40: CPU time    0.41
    MIXING:  VPU time    0.04: CPU time    0.04


--------------------------------------------------------------------------------------------------------



  FREE ENERGIE OF THE ION-ELECTRON SYSTEM (eV)
  ---------------------------------------------------
  free  energy   TOTEN  =      -283.926069 eV

  energy  without entropy=     -283.924528  energy(sigma->0) =     -283.925298
 

  FORCE on cell =-STRESS in cart. coord.  units (eV/reduce length):
  Direction    X        Y        Z        XY       YZ       ZX
  --------------------------------------------------------------------------------------
  Alpha Z   2293.45   2293.45   2293.45
  Ewald    -9877.85  -9888.91  -9269.47     -9.06      0.00     -0.01
  Hartree   2255.51   2250.33   2512.77     -4.23      0.00     -0.01
  E(xc)    -1697.23  -1697.23  -1696.69     -0.00     -0.00     -0.00
  Local     2689.07   2705.28   1891.88     13.28     -0.00      0.02
  n-local   -861.57   -861.43   -845.17      0.13      0.00     -0.00
  augment   1839.24   1838.96   1810.42     -0.25      0.00     -0.00
  Kinetic   3363.29   3362.45   3315.12     -0.72      0.00     -0.00
  -------------------------------------------------------------------------------------
  Total        3.90      2.90     12.30     -0.85     -0.00      0.00
  in kB       10.15      7.54     31.99     -2.20     -0.00      0.00
  external pressure =       16.56 kB  Pullay stress =        0.00 kB


 VOLUME and BASIS-vectors are now :
 -----------------------------------------------------------------------------
  energy-cutoff  :      500.00
  volume of cell :      616.19
      direct lattice vectors                 reciprocal lattice vectors
     8.820667100  0.024765440  0.000000000     0.113187820  0.064925977  0.000000000
    -4.388885871  7.651304610  0.000000000    -0.000366362  0.130486516  0.000000000
     0.000000000  0.000000000  9.115399722     0.000000000  0.000000000  0.109704460

  length of vectors
     8.820701866  8.820701867  9.115399722     0.130487030  0.130487030  0.109704460


 FORCES acting on ions
    electron-ion (+dipol)            ewald-force                    non-local-force                 convergence-correction
 -----------------------------------------------------------------------------------------------
   -.210E+01 -.996E-01 -.257E+01   0.218E+01 0.764E-01 0.264E+01   -.353E-01 0.221E-01 -.125E-01   0.288E-03 0.944E-04 -.501E-04
   0.107E+01 -.858E-01 -.392E+00   -.103E+01 0.689E-01 0.390E+00   -.449E-01 0.214E-01 0.102E-02   -.141E-03 0.124E-04 -.322E-03
   0.107E+01 -.967E-01 -.398E+00   -.103E+01 0.689E-01 0.395E+00   -.452E-01 0.237E-01 0.118E-02   -.160E-03 0.292E-04 -.918E-04
   0.140E+00 -.619E+00 -.397E+00   -.102E+00 0.601E+00 0.394E+00   -.422E-01 0.263E-01 0.118E-02   0.131E-03 0.137E-03 -.188E-03
   0.153E+00 0.429E+00 -.388E+00   -.114E+00 -.455E+00 0.385E+00   -.419E-01 0.180E-01 0.111E-02   -.207E-04 -.505E-04 -.218E-03
   0.331E+00 -.948E-01 -.136E+00   -.294E+00 0.724E-01 0.139E+00   -.394E-01 0.223E-01 -.365E-02   -.127E-03 -.116E-04 -.287E-03
   0.141E+00 -.627E+00 -.394E+00   -.105E+00 0.603E+00 0.391E+00   -.394E-01 0.239E-01 0.104E-02   0.113E-03 0.896E-04 -.316E-03
   0.331E+00 -.936E-01 -.138E+00   -.294E+00 0.713E-01 0.139E+00   -.385E-01 0.228E-01 -.120E-02   -.985E-04 -.932E-04 -.269E-03
   0.146E+00 0.433E+00 -.391E+00   -.110E+00 -.454E+00 0.388E+00   -.389E-01 0.213E-01 0.114E-02   -.298E-04 -.179E-03 -.114E-03
   0.384E-01 -.948E-01 0.458E+00   0.329E-02 0.722E-01 -.475E+00   -.386E-01 0.222E-01 0.270E-02   0.885E-04 0.851E-04 0.639E-04
   0.224E+00 -.956E-01 0.197E+00   -.186E+00 0.713E-01 -.199E+00   -.388E-01 0.236E-01 0.115E-02   -.411E-04 0.178E-04 0.330E-03
   0.224E+00 -.918E-01 0.199E+00   -.186E+00 0.713E-01 -.200E+00   -.389E-01 0.215E-01 0.114E-02   -.630E-04 0.113E-04 0.919E-04
   0.139E+00 -.144E+00 0.198E+00   -.101E+00 0.121E+00 -.200E+00   -.390E-01 0.230E-01 0.113E-02   0.848E-04 0.408E-04 0.193E-03
   0.141E+00 -.447E-01 0.196E+00   -.103E+00 0.233E-01 -.197E+00   -.383E-01 0.214E-01 0.135E-02   -.407E-04 0.178E-04 0.227E-03
   0.210E+00 -.940E-01 0.121E+00   -.169E+00 0.716E-01 -.118E+00   -.397E-01 0.225E-01 -.234E-02   -.607E-04 -.236E-04 0.287E-03
   0.139E+00 -.140E+00 0.198E+00   -.101E+00 0.120E+00 -.199E+00   -.394E-01 0.219E-01 0.115E-02   0.622E-04 0.287E-04 0.312E-03
   0.209E+00 -.938E-01 0.117E+00   -.169E+00 0.714E-01 -.118E+00   -.389E-01 0.230E-01 0.119E-02   0.216E-05 -.655E-04 0.270E-03
   0.141E+00 -.475E-01 0.197E+00   -.103E+00 0.229E-01 -.198E+00   -.385E-01 0.233E-01 0.135E-02   -.809E-04 -.851E-04 0.114E-03
   0.340E+00 -.409E+00 0.100E+01   -.390E+00 0.438E+00 -.100E+01   0.370E-01 -.221E-01 -.920E-02   -.524E-04 0.554E-04 -.103E-03
   0.589E-01 0.757E-01 0.169E-01   -.987E-01 -.532E-01 -.171E-01   0.398E-01 -.228E-01 0.547E-03   -.262E-04 -.451E-04 -.153E-04
   -.719E+00 -.154E-01 -.190E-01   0.682E+00 0.389E-01 0.162E-01   0.398E-01 -.222E-01 0.401E-02   0.977E-04 0.527E-04 0.702E-04
   -.528E+00 0.708E+00 0.502E+00   0.490E+00 -.694E+00 -.506E+00   0.383E-01 -.234E-01 -.233E-02   0.301E-04 0.517E-05 -.391E-04
   0.121E+00 0.291E+00 0.170E+00   -.162E+00 -.270E+00 -.175E+00   0.436E-01 -.202E-01 0.665E-02   -.128E-03 -.127E-04 -.846E-04
   -.156E+00 0.532E-01 -.866E-01   0.115E+00 -.295E-01 0.880E-01   0.415E-01 -.228E-01 -.204E-02   0.115E-03 0.172E-04 0.325E-04
   -.119E+00 -.635E-02 0.331E-01   0.803E-01 0.293E-01 -.344E-01   0.386E-01 -.231E-01 0.166E-02   0.611E-04 -.584E-04 -.561E-04
   -.150E+00 0.215E+00 0.268E-02   0.111E+00 -.193E+00 -.193E-02   0.388E-01 -.219E-01 -.320E-03   -.658E-04 -.932E-04 -.121E-04
   -.223E+00 -.628E-01 0.427E-01   0.184E+00 0.851E-01 -.443E-01   0.402E-01 -.235E-01 0.222E-02   0.263E-04 0.443E-04 -.270E-04
   -.714E+00 0.196E+00 -.289E-01   0.677E+00 -.175E+00 0.266E-01   0.392E-01 -.233E-01 0.402E-02   0.224E-03 -.149E-04 0.100E-03
   0.618E-01 0.115E+00 0.179E-01   -.101E+00 -.929E-01 -.182E-01   0.397E-01 -.227E-01 0.607E-03   -.286E-03 -.684E-04 0.141E-04
   0.336E+00 0.610E+00 0.102E+01   -.388E+00 -.594E+00 -.102E+01   0.385E-01 -.230E-01 -.877E-02   0.810E-04 -.619E-04 -.738E-04
   -.545E+00 -.515E+00 0.486E+00   0.506E+00 0.546E+00 -.490E+00   0.384E-01 -.216E-01 -.258E-02   0.191E-03 0.170E-03 0.280E-04
   -.147E+00 0.135E+00 -.850E-01   0.106E+00 -.114E+00 0.867E-01   0.414E-01 -.215E-01 -.227E-02   -.903E-04 -.440E-04 0.767E-04
   0.127E+00 -.110E+00 0.178E+00   -.167E+00 0.133E+00 -.182E+00   0.433E-01 -.238E-01 0.617E-02   -.824E-04 0.188E-03 -.318E-04
   -.153E+00 -.280E-01 0.167E-02   0.114E+00 0.508E-01 -.856E-03   0.385E-01 -.231E-01 -.534E-03   0.246E-04 0.778E-04 0.557E-04
   -.117E+00 0.197E+00 0.312E-01   0.783E-01 -.175E+00 -.326E-01   0.389E-01 -.219E-01 0.183E-02   -.122E-03 -.192E-03 0.112E-04
   -.222E+00 0.250E+00 0.434E-01   0.183E+00 -.227E+00 -.449E-01   0.403E-01 -.210E-01 0.215E-02   0.116E-03 -.843E-04 0.296E-04
 -----------------------------------------------------------------------------------------------
   0.101E-04 -.125E-03 0.148E-04   0.183E-12 0.301E-12 0.200E-12   0.204E-04 0.265E-03 -.208E-04   0.197E-04 -.828E-05 0.792E-05
 
 
 POSITION                                       TOTAL-FORCE (eV/Angst)
 -----------------------------------------------------------------------------------
     -0.00705      1.70583      1.13224         0.045342     -0.000987      0.053031
      2.94013      1.71410      1.13942        -0.009596      0.004442     -0.001777
      5.88035      1.72236      1.13942        -0.009730     -0.004073     -0.001794
     -1.46305      4.25628      1.13942        -0.003350      0.007700     -0.001796
      1.47717      4.26454      1.13942        -0.002370     -0.008111     -0.001583
      4.41739      4.27279      1.13942        -0.001922     -0.000076     -0.000774
     -2.92602      6.80672      1.13942        -0.003450     -0.000049     -0.001788
      0.01421      6.81497      1.13942        -0.001576      0.000395     -0.000776
      2.95443      6.82323      1.13942        -0.002548      0.000743     -0.001591
     -0.00009      1.70585      5.69712         0.003127     -0.000327     -0.013265
      2.94013      1.71410      5.69712        -0.001383     -0.000639      0.000020
      5.88035      1.72236      5.69712        -0.001387      0.001009      0.000049
     -1.46305      4.25628      5.69712        -0.000891     -0.000753      0.000029
      1.47717      4.26454      5.69712         0.000222     -0.000009      0.000250
      4.41739      4.27279      5.69712         0.000770      0.000030      0.000978
     -2.92602      6.80672      5.69712        -0.001018      0.001651      0.000014
      0.01421      6.81497      5.69712         0.001108      0.000508      0.000974
      2.95443      6.82323      5.69712         0.000094     -0.001436      0.000263
      1.47735      0.85284      3.41827        -0.012891      0.007097     -0.013055
      4.41757      0.86110      3.41827         0.000015     -0.000283      0.000360
      7.35780      0.86935      3.41827         0.003200      0.001387      0.001327
      0.01439      3.40328      3.41827         0.000049     -0.008940     -0.006128
      2.95461      3.41153      3.41827         0.002638      0.001113      0.001742
      5.89483      3.41979      3.41827         0.000554      0.000846     -0.000598
     -1.44857      5.95371      3.41827        -0.000385     -0.000238      0.000344
      1.49165      5.96197      3.41827        -0.000198      0.000180      0.000425
      4.43187      5.97022      3.41827         0.001357     -0.001137      0.000607
      1.47735      0.85284      7.97597         0.002558     -0.001794      0.001810
      4.41757      0.86110      7.97597        -0.000016     -0.000285      0.000322
      7.35780      0.86935      7.97597        -0.012588     -0.007767     -0.014023
      0.01439      3.40328      7.97597         0.000104      0.009123     -0.006268
      2.95461      3.41153      7.97597         0.000338     -0.000267     -0.000499
      5.89483      3.41979      7.97597         0.002966     -0.000548      0.001716
     -1.44857      5.95371      7.97597        -0.000393     -0.000208      0.000336
      1.49165      5.96197      7.97597        -0.000147      0.000151      0.000475
      4.43187      5.97022      7.97597         0.001396      0.001553      0.000642
 -----------------------------------------------------------------------------------
    total drift:                                0.000050      0.000132      0.000002


--------------------------------------------------------------------------------------------------------



 mean value of Nose-termostat <S>:     1.000 mean value of <T> :     0.000
 mean temperature <T/S>/<1/S>  :     0.000

     LOOP+:  VPU time75190.68: CPU time75295.81
  
  
 General timing and accounting informations for this job:
 ========================================================
  
                  Total CPU time used (sec):    75550.045
                            User time (sec):    72678.312
                          System time (sec):     2871.732
                         Elapsed time (sec):    75655.439
  
                   Maximum memory used (kb):    11077916.
                   Average memory used (kb):           0.
  
                          Minor page faults:      2276304
                          Major page faults:            0
                 Voluntary context switches:         1072
