 running on    4 nodes
 distr:  one band on    1 nodes,    4 groups
 vasp.4.6.28 25Jul05 complex 
 POSCAR found :  1 types and   32 ions

 ----------------------------------------------------------------------------- 
|                                                                             |
|  ADVICE TO THIS USER RUNNING 'VASP/VAMP'   (HEAR YOUR MASTER'S VOICE ...):  |
|                                                                             |
|      You have a (more or less) 'large supercell' and for larger cells       |
|      it might be more efficient to use real space projection operators      |
|      So try LREAL= Auto  in the INCAR   file.                               |
|      Mind: If you want to do an extremely accurate calculations keep the    |
|      reciprocal projection scheme          (i.e. LREAL=.FALSE.)             |
|                                                                             |
 ----------------------------------------------------------------------------- 

 LDA part: xc-table for Pade appr. of Perdew
 POSCAR, INCAR and KPOINTS ok, starting setup
 FFT: planning ...           1
 reading WAVECAR
 WARNING: random wavefunctions but no delay for mixing, default for NELMDL
 entering main loop
       N       E                     dE             d eps       ncg     rms          rms(c)
DAV:   1     0.419849930660E+04    0.41985E+04   -0.18519E+05 83176   0.344E+03
DAV:   2     0.540367002740E+03   -0.36581E+04   -0.35159E+04 83104   0.753E+02
DAV:   3    -0.960170617828E+02   -0.63638E+03   -0.58933E+03 83104   0.287E+02
DAV:   4    -0.142471386169E+03   -0.46454E+02   -0.44939E+02 85984   0.900E+01
DAV:   5    -0.143051377127E+03   -0.57999E+00   -0.57828E+00 87832   0.107E+01    0.400E+01
DAV:   6    -0.121187300514E+03    0.21864E+02   -0.23178E+02 89792   0.902E+01    0.127E+01
DAV:   7    -0.114909365901E+03    0.62779E+01   -0.34031E+01 92220   0.349E+01    0.381E+00
DAV:   8    -0.114464066918E+03    0.44530E+00   -0.38347E-01 85664   0.230E+00    0.171E+00
DAV:   9    -0.114415819619E+03    0.48247E-01   -0.29106E-02 97172   0.185E+00    0.910E-01
DAV:  10    -0.114400554043E+03    0.15266E-01   -0.54020E-02 99656   0.139E+00    0.955E-02
DAV:  11    -0.114401254281E+03   -0.70024E-03   -0.58656E-03 85040   0.462E-01    0.799E-02
DAV:  12    -0.114401182370E+03    0.71911E-04   -0.60868E-04 88188   0.275E-01    0.369E-02
DAV:  13    -0.114401180068E+03    0.23019E-05   -0.65247E-05 91428   0.641E-02    0.244E-02
DAV:  14    -0.114401168629E+03    0.11439E-04   -0.36965E-05 91984   0.421E-02    0.122E-02
DAV:  15    -0.114401165333E+03    0.32965E-05   -0.12996E-05 88556   0.359E-02    0.788E-03
DAV:  16    -0.114401164847E+03    0.48567E-06   -0.12962E-05 91644   0.224E-02    0.348E-03
DAV:  17    -0.114401170234E+03   -0.53870E-05   -0.16842E-06 90308   0.103E-02    0.101E-03
DAV:  18    -0.114401170668E+03   -0.43414E-06   -0.18382E-07 86608   0.463E-03    0.601E-04
DAV:  19    -0.114401170750E+03   -0.82015E-07   -0.35607E-08 69972   0.209E-03    0.235E-04
DAV:  20    -0.114401171077E+03   -0.32711E-06   -0.10888E-08 43988   0.106E-03    0.191E-04
DAV:  21    -0.114401171222E+03   -0.14438E-06   -0.69828E-09 43792   0.898E-04    0.494E-05
DAV:  22    -0.114401171197E+03    0.25168E-07   -0.30910E-09 43692   0.410E-04    0.137E-04
DAV:  23    -0.114401171203E+03   -0.66502E-08   -0.76118E-10 43564   0.205E-04
   1 F= -.11440117E+03 E0= -.11440090E+03  d E =-.549000E-03
