  32  32   0   0
  0.1030698E+02  0.6909190E-09  0.6909190E-09  0.6909190E-09  0.5000000E-15
  1.000000000000000E-004
  CAR 
 unknown system                          
     16.28235041     -6.41684350  301      5.10948973      1.00000000
     -6.417  0.0000E+00  0.0000E+00
     -6.341  0.0000E+00  0.0000E+00
     -6.266  0.0000E+00  0.0000E+00
     -6.190  0.0000E+00  0.0000E+00
     -6.114  0.0000E+00  0.0000E+00
     -6.039  0.0000E+00  0.0000E+00
     -5.963  0.0000E+00  0.0000E+00
     -5.887  0.0000E+00  0.0000E+00
     -5.812  0.0000E+00  0.0000E+00
     -5.736  0.0000E+00  0.0000E+00
     -5.660  0.0000E+00  0.0000E+00
     -5.585  0.0000E+00  0.0000E+00
     -5.509  0.0000E+00  0.0000E+00
     -5.433  0.7495E-13  0.5671E-14
     -5.358  0.8223E-01  0.6222E-02
     -5.282  0.4259E+00  0.3844E-01
     -5.206  0.7513E+00  0.9585E-01
     -5.131  0.1144E+01  0.1824E+00
     -5.055  0.1270E+01  0.2785E+00
     -4.979  0.8317E+00  0.3534E+00
     -4.904  0.1475E+01  0.4674E+00
     -4.828  0.1139E+01  0.5536E+00
     -4.752  0.2125E+01  0.7144E+00
     -4.677  0.1833E+01  0.8551E+00
     -4.601  0.1497E+01  0.9686E+00
     -4.525  0.1666E+01  0.1107E+01
     -4.450  0.2101E+01  0.1267E+01
     -4.374  0.2190E+01  0.1432E+01
     -4.298  0.1847E+01  0.1575E+01
     -4.223  0.2772E+01  0.1785E+01
     -4.147  0.2918E+01  0.2016E+01
     -4.071  0.1758E+01  0.2150E+01
     -3.996  0.2522E+01  0.2349E+01
     -3.920  0.2442E+01  0.2534E+01
     -3.844  0.2949E+01  0.2779E+01
     -3.769  0.2262E+01  0.2950E+01
     -3.693  0.3649E+01  0.3233E+01
     -3.617  0.2337E+01  0.3411E+01
     -3.542  0.3579E+01  0.3681E+01
     -3.466  0.3418E+01  0.3944E+01
     -3.390  0.4363E+01  0.4275E+01
     -3.315  0.2703E+01  0.4486E+01
     -3.239  0.2271E+01  0.4671E+01
     -3.163  0.4767E+01  0.5040E+01
     -3.088  0.3239E+01  0.5287E+01
     -3.012  0.4324E+01  0.5616E+01
     -2.936  0.3214E+01  0.5864E+01
     -2.861  0.4028E+01  0.6184E+01
     -2.785  0.4205E+01  0.6510E+01
     -2.709  0.3823E+01  0.6809E+01
     -2.634  0.4200E+01  0.7136E+01
     -2.558  0.5121E+01  0.7534E+01
     -2.482  0.4345E+01  0.7863E+01
     -2.407  0.5039E+01  0.8248E+01
     -2.331  0.4287E+01  0.8574E+01
     -2.255  0.5979E+01  0.9041E+01
     -2.180  0.5806E+01  0.9487E+01
     -2.104  0.4907E+01  0.9858E+01
     -2.028  0.4903E+01  0.1024E+02
     -1.953  0.5244E+01  0.1064E+02
     -1.877  0.8473E+01  0.1128E+02
     -1.801  0.5511E+01  0.1171E+02
     -1.726  0.4887E+01  0.1209E+02
     -1.650  0.7698E+01  0.1268E+02
     -1.574  0.7484E+01  0.1326E+02
     -1.499  0.9270E+01  0.1396E+02
     -1.423  0.6063E+01  0.1445E+02
     -1.347  0.9390E+01  0.1516E+02
     -1.272  0.9718E+01  0.1591E+02
     -1.196  0.8995E+01  0.1660E+02
     -1.120  0.9668E+01  0.1733E+02
     -1.045  0.1395E+02  0.1839E+02
     -0.969  0.1345E+02  0.1942E+02
     -0.893  0.1434E+02  0.2052E+02
     -0.818  0.2168E+02  0.2218E+02
     -0.742  0.2305E+02  0.2395E+02
     -0.666  0.3047E+02  0.2629E+02
     -0.591  0.2935E+02  0.2860E+02
     -0.515  0.3589E+02  0.3135E+02
     -0.439  0.2996E+02  0.3365E+02
     -0.364  0.3502E+02  0.3636E+02
     -0.288  0.3642E+02  0.3914E+02
     -0.212  0.3583E+02  0.4190E+02
     -0.137  0.3809E+02  0.4482E+02
     -0.061  0.4797E+02  0.4849E+02
      0.015  0.5298E+02  0.5255E+02
      0.090  0.5527E+02  0.5677E+02
      0.166  0.6512E+02  0.6175E+02
      0.242  0.6759E+02  0.6694E+02
      0.317  0.6029E+02  0.7159E+02
      0.393  0.5941E+02  0.7617E+02
      0.469  0.5630E+02  0.8049E+02
      0.544  0.5169E+02  0.8446E+02
      0.620  0.5977E+02  0.8905E+02
      0.696  0.5301E+02  0.9312E+02
      0.771  0.5148E+02  0.9707E+02
      0.847  0.5209E+02  0.1010E+03
      0.923  0.6052E+02  0.1057E+03
      0.998  0.6793E+02  0.1109E+03
      1.074  0.6475E+02  0.1159E+03
      1.150  0.8289E+02  0.1222E+03
      1.225  0.7776E+02  0.1282E+03
      1.301  0.8381E+02  0.1347E+03
      1.377  0.7936E+02  0.1407E+03
      1.452  0.9133E+02  0.1478E+03
      1.528  0.1092E+03  0.1562E+03
      1.604  0.9289E+02  0.1634E+03
      1.679  0.1004E+03  0.1711E+03
      1.755  0.1298E+03  0.1810E+03
      1.831  0.1053E+03  0.1892E+03
      1.906  0.8220E+02  0.1956E+03
      1.982  0.7776E+02  0.2015E+03
      2.058  0.6561E+02  0.2066E+03
      2.133  0.6535E+02  0.2116E+03
      2.209  0.6548E+02  0.2167E+03
      2.285  0.7352E+02  0.2223E+03
      2.360  0.8816E+02  0.2291E+03
      2.436  0.9035E+02  0.2360E+03
      2.512  0.1000E+03  0.2437E+03
      2.587  0.9470E+02  0.2510E+03
      2.663  0.8425E+02  0.2576E+03
      2.738  0.8226E+02  0.2639E+03
      2.814  0.7956E+02  0.2700E+03
      2.890  0.8188E+02  0.2763E+03
      2.965  0.8239E+02  0.2826E+03
      3.041  0.8950E+02  0.2895E+03
      3.117  0.1012E+03  0.2972E+03
      3.192  0.1311E+03  0.3073E+03
      3.268  0.1733E+03  0.3206E+03
      3.344  0.1083E+03  0.3290E+03
      3.419  0.6822E+02  0.3343E+03
      3.495  0.1668E+02  0.3357E+03
      3.571  0.1270E+02  0.3367E+03
      3.646  0.1249E+02  0.3377E+03
      3.722  0.8164E+01  0.3383E+03
      3.798  0.1618E+02  0.3395E+03
      3.873  0.8379E+01  0.3402E+03
      3.949  0.9949E+01  0.3410E+03
      4.025  0.1084E+02  0.3418E+03
      4.100  0.1122E+02  0.3426E+03
      4.176  0.8092E+01  0.3433E+03
      4.252  0.1177E+02  0.3441E+03
      4.327  0.1082E+02  0.3450E+03
      4.403  0.7840E+01  0.3456E+03
      4.479  0.8456E+01  0.3462E+03
      4.554  0.1314E+02  0.3472E+03
      4.630  0.7585E+01  0.3478E+03
      4.706  0.8108E+01  0.3484E+03
      4.781  0.9179E+01  0.3492E+03
      4.857  0.1087E+02  0.3500E+03
      4.933  0.6906E+01  0.3505E+03
      5.008  0.9257E+01  0.3512E+03
      5.084  0.8467E+01  0.3519E+03
      5.160  0.8944E+01  0.3526E+03
      5.235  0.8873E+01  0.3533E+03
      5.311  0.1053E+02  0.3541E+03
      5.387  0.5659E+01  0.3545E+03
      5.462  0.6442E+01  0.3550E+03
      5.538  0.8631E+01  0.3556E+03
      5.614  0.1070E+02  0.3565E+03
      5.689  0.8298E+01  0.3571E+03
      5.765  0.7918E+01  0.3577E+03
      5.841  0.8813E+01  0.3584E+03
      5.916  0.5586E+01  0.3588E+03
      5.992  0.8444E+01  0.3595E+03
      6.068  0.8804E+01  0.3601E+03
      6.143  0.6842E+01  0.3607E+03
      6.219  0.9310E+01  0.3614E+03
      6.295  0.6184E+01  0.3619E+03
      6.370  0.7651E+01  0.3625E+03
      6.446  0.7620E+01  0.3631E+03
      6.522  0.8291E+01  0.3637E+03
      6.597  0.9616E+01  0.3644E+03
      6.673  0.3860E+01  0.3647E+03
      6.749  0.9409E+01  0.3654E+03
      6.824  0.7138E+01  0.3660E+03
      6.900  0.5946E+01  0.3665E+03
      6.976  0.9845E+01  0.3672E+03
      7.051  0.7331E+01  0.3678E+03
      7.127  0.6239E+01  0.3683E+03
      7.203  0.7615E+01  0.3688E+03
      7.278  0.2628E+01  0.3691E+03
      7.354  0.9094E+01  0.3697E+03
      7.430  0.7636E+01  0.3703E+03
      7.505  0.7384E+01  0.3709E+03
      7.581  0.5263E+01  0.3713E+03
      7.657  0.7520E+01  0.3719E+03
      7.732  0.5962E+01  0.3723E+03
      7.808  0.5534E+01  0.3728E+03
      7.884  0.5271E+01  0.3732E+03
      7.959  0.5493E+01  0.3736E+03
      8.035  0.3062E+01  0.3738E+03
      8.111  0.1203E+02  0.3748E+03
      8.186  0.3802E+01  0.3751E+03
      8.262  0.5512E+01  0.3755E+03
      8.338  0.5714E+01  0.3759E+03
      8.413  0.4529E+01  0.3763E+03
      8.489  0.3530E+01  0.3765E+03
      8.565  0.6872E+01  0.3771E+03
      8.640  0.3791E+01  0.3773E+03
      8.716  0.3892E+01  0.3776E+03
      8.792  0.6931E+01  0.3782E+03
      8.867  0.6764E+01  0.3787E+03
      8.943  0.2187E+01  0.3789E+03
      9.019  0.2938E+01  0.3791E+03
      9.094  0.4037E+01  0.3794E+03
      9.170  0.2867E+01  0.3796E+03
      9.246  0.5395E+01  0.3800E+03
      9.321  0.4308E+01  0.3804E+03
      9.397  0.4325E+01  0.3807E+03
      9.473  0.3107E+01  0.3809E+03
      9.548  0.2850E+01  0.3811E+03
      9.624  0.7256E+01  0.3817E+03
      9.700  0.4889E+01  0.3821E+03
      9.775  0.7341E+01  0.3826E+03
      9.851  0.9158E+01  0.3833E+03
      9.927  0.9332E+01  0.3841E+03
     10.002  0.5608E+01  0.3845E+03
     10.078  0.1235E+02  0.3854E+03
     10.154  0.7058E+01  0.3860E+03
     10.229  0.7320E+01  0.3865E+03
     10.305  0.1009E+02  0.3873E+03
     10.381  0.7995E+01  0.3879E+03
     10.456  0.9623E+01  0.3887E+03
     10.532  0.6082E+01  0.3891E+03
     10.608  0.1143E+02  0.3900E+03
     10.683  0.8280E+01  0.3906E+03
     10.759  0.9069E+01  0.3913E+03
     10.835  0.9087E+01  0.3920E+03
     10.910  0.1035E+02  0.3928E+03
     10.986  0.7724E+01  0.3934E+03
     11.062  0.8820E+01  0.3941E+03
     11.137  0.8054E+01  0.3947E+03
     11.213  0.6650E+01  0.3952E+03
     11.289  0.8336E+01  0.3958E+03
     11.364  0.7848E+01  0.3964E+03
     11.440  0.9781E+01  0.3972E+03
     11.516  0.7377E+01  0.3977E+03
     11.591  0.7611E+01  0.3983E+03
     11.667  0.6482E+01  0.3988E+03
     11.743  0.7570E+01  0.3994E+03
     11.818  0.8938E+01  0.4001E+03
     11.894  0.7210E+01  0.4006E+03
     11.970  0.7041E+01  0.4012E+03
     12.045  0.6112E+01  0.4017E+03
     12.121  0.6690E+01  0.4022E+03
     12.196  0.6625E+01  0.4027E+03
     12.272  0.6031E+01  0.4031E+03
     12.348  0.1135E+02  0.4040E+03
     12.423  0.6026E+01  0.4045E+03
     12.499  0.4613E+01  0.4048E+03
     12.575  0.7255E+01  0.4054E+03
     12.650  0.7629E+01  0.4060E+03
     12.726  0.5546E+01  0.4064E+03
     12.802  0.7590E+01  0.4070E+03
     12.877  0.4946E+01  0.4074E+03
     12.953  0.7355E+01  0.4079E+03
     13.029  0.8286E+01  0.4086E+03
     13.104  0.4931E+01  0.4090E+03
     13.180  0.4904E+01  0.4093E+03
     13.256  0.1104E+02  0.4102E+03
     13.331  0.6023E+01  0.4106E+03
     13.407  0.1130E+02  0.4115E+03
     13.483  0.9399E+01  0.4122E+03
     13.558  0.1049E+02  0.4130E+03
     13.634  0.7601E+01  0.4136E+03
     13.710  0.8913E+01  0.4143E+03
     13.785  0.6959E+01  0.4148E+03
     13.861  0.4350E+01  0.4152E+03
     13.937  0.8593E+01  0.4158E+03
     14.012  0.9997E+01  0.4166E+03
     14.088  0.1062E+02  0.4174E+03
     14.164  0.1309E+02  0.4184E+03
     14.239  0.1136E+02  0.4193E+03
     14.315  0.8035E+01  0.4199E+03
     14.391  0.8244E+01  0.4205E+03
     14.466  0.5530E+01  0.4210E+03
     14.542  0.5604E+01  0.4214E+03
     14.618  0.9345E+01  0.4221E+03
     14.693  0.5662E+01  0.4225E+03
     14.769  0.6351E+01  0.4230E+03
     14.845  0.6787E+01  0.4235E+03
     14.920  0.2347E+01  0.4237E+03
     14.996  0.1048E+01  0.4238E+03
     15.072  0.8894E+00  0.4239E+03
     15.147  0.1173E+01  0.4240E+03
     15.223  0.1833E+00  0.4240E+03
     15.299  0.2905E+00  0.4240E+03
     15.374  0.0000E+00  0.4240E+03
     15.450  0.0000E+00  0.4240E+03
     15.526  0.0000E+00  0.4240E+03
     15.601  0.0000E+00  0.4240E+03
     15.677  0.0000E+00  0.4240E+03
     15.753  0.0000E+00  0.4240E+03
     15.828  0.0000E+00  0.4240E+03
     15.904  0.0000E+00  0.4240E+03
     15.980  0.0000E+00  0.4240E+03
     16.055  0.0000E+00  0.4240E+03
     16.131  0.0000E+00  0.4240E+03
     16.207  0.0000E+00  0.4240E+03
     16.282  0.0000E+00  0.4240E+03
