   32   32    1    1
  0.1030698E+02  0.6909190E-09  0.6909190E-09  0.6909190E-09  0.5000000E-15
  1.000000000000000E-004
  CAR 
 unknown system                          
  352  196  212
 
  0.0000000E+00  0.0000000E+00  0.0000000E+00  0.5787037E-03
   1       -5.3851
   2       -2.3891
   3       -2.3857
   4       -2.3857
   5       -2.3857
   6       -2.3857
   7       -2.3822
   8       -0.8719
   9       -0.8719
  10       -0.8719
  11       -0.8719
  12       -0.7225
  13       -0.7225
  14       -0.7225
  15       -0.3658
  16       -0.3637
  17       -0.3637
  18       -0.3624
  19       -0.3621
  20       -0.3621
  21       -0.3620
  22       -0.3620
  23       -0.3617
  24       -0.3604
  25       -0.3604
  26       -0.3583
  27       -0.1749
  28       -0.1748
  29       -0.1748
  30        0.1484
  31        0.1509
  32        0.1509
  33        0.1509
  34        0.1509
  35        0.1534
  36        0.6527
  37        0.6550
  38        0.6550
  39        0.6551
  40        0.6551
  41        0.6573
  42        0.9073
  43        0.9076
  44        0.9076
  45        0.9102
  46        0.9102
  47        0.9103
  48        0.9103
  49        0.9103
  50        0.9105
  51        0.9105
  52        0.9121
  53        0.9121
  54        0.9136
  55        0.9152
  56        0.9152
  57        0.9158
  58        0.9158
  59        0.9158
  60        0.9158
  61        0.9159
  62        0.9159
  63        0.9174
  64        0.9174
  65        0.9210
  66        1.1575
  67        1.1606
  68        1.1606
  69        1.1610
  70        1.1614
  71        1.1614
  72        1.1614
  73        1.1614
  74        1.1617
  75        1.1621
  76        1.1621
  77        1.1653
  78        1.5016
  79        1.5016
  80        1.5016
  81        1.5017
  82        1.5017
  83        1.5017
  84        1.5017
  85        1.5017
  86        1.5436
  87        1.5436
  88        1.5436
  89        1.9972
  90        1.9994
  91        1.9994
  92        1.9994
  93        1.9994
  94        2.0016
  95        2.1537
  96        2.1543
  97        2.1554
  98        2.1554
  99        2.1561
 100        2.1561
 101        2.1561
 102        2.1561
 103        2.1567
 104        2.1567
 105        2.1579
 106        2.1583
 107        2.3524
 108        2.3524
 109        2.3547
 110        2.3547
 111        2.3549
 112        2.3549
 113        2.3550
 114        2.3550
 115        2.3552
 116        2.3552
 117        2.3574
 118        2.3574
 119        2.5082
 120        2.5096
 121        2.5096
 122        2.5097
 123        2.5097
 124        2.5111
 125        2.5522
 126        2.5522
 127        2.5541
 128        2.5546
 129        2.5546
 130        2.5547
 131        2.5547
 132        2.5547
 133        2.5548
 134        2.5553
 135        2.5573
 136        2.5573
 137        2.5663
 138        2.5665
 139        2.8996
 140        2.9008
 141        2.9008
 142        2.9008
 143        2.9008
 144        2.9019
 145        3.2437
 146        3.2438
 147        3.2438
 148        3.2610
 149        3.2610
 150        3.2610
 151        3.2610
 152        3.2610
 153        3.2610
 154        3.2610
 155        3.2610
 156        3.4339
 157        3.4345
 158        3.4345
 159        3.4345
 160        3.4345
 161        3.4345
 162        3.4354
 163        3.4355
 164        3.4355
 165        3.4355
 166        3.4356
 167        3.4361
 168        3.6422
 169        3.6422
 170        3.6422
 171        3.6422
 172        4.8012
 173        4.8013
 174        4.8013
 175        4.8025
 176        4.8028
 177        4.8028
 178        4.8028
 179        4.8028
 180        4.8032
 181        4.8043
 182        4.8043
 183        4.8044
 184        6.4708
 185        6.4708
 186        6.4709
 187        9.5468
 188        9.5468
 189        9.5468
 190        9.5468
 191       11.8279
 192       11.8279
 193       11.8317
 194       11.8317
 195       11.8323
 196       11.8323
 197       11.8323
 198       11.8323
 199       11.8328
 200       11.8328
 201       11.8366
 202       11.8366
 203       13.1814
 204       13.1814
 205       13.1814
 206       14.0815
 207       14.0844
 208       14.0844
 209       14.0844
 210       14.0844
 211       14.0872
 212       15.2506
 
  0.8333333E-01  0.0000000E+00  0.0000000E+00  0.1157407E-02
   1       -5.3617
   2       -2.7964
   3       -2.3670
   4       -2.3669
   5       -2.3669
   6       -2.3669
   7       -1.9856
   8       -0.8656
   9       -0.8656
  10       -0.8656
  11       -0.8656
  12       -0.7214
  13       -0.7108
  14       -0.7107
  15       -0.5855
  16       -0.5855
  17       -0.5855
  18       -0.5855
  19       -0.3759
  20       -0.3759
  21       -0.3759
  22       -0.3759
  23       -0.1680
  24       -0.1676
  25       -0.1676
  26       -0.1590
  27       -0.1590
  28       -0.1590
  29       -0.1589
  30        0.1306
  31        0.1308
  32        0.1603
  33        0.1603
  34        0.1603
  35        0.1605
  36        0.5435
  37        0.6580
  38        0.6580
  39        0.6580
  40        0.6581
  41        0.7339
  42        0.7339
  43        0.7676
  44        0.8949
  45        0.8956
  46        0.8956
  47        0.8957
  48        0.9008
  49        0.9009
  50        0.9009
  51        0.9009
  52        0.9113
  53        0.9114
  54        0.9114
  55        0.9114
  56        0.9307
  57        0.9308
  58        0.9308
  59        0.9310
  60        0.9430
  61        0.9430
  62        0.9430
  63        0.9436
  64        1.0704
  65        1.0705
  66        1.0705
  67        1.0705
  68        1.1028
  69        1.1028
  70        1.1685
  71        1.1685
  72        1.1685
  73        1.1685
  74        1.2370
  75        1.2370
  76        1.2370
  77        1.2371
  78        1.4963
  79        1.4963
  80        1.4963
  81        1.4963
  82        1.5083
  83        1.5083
  84        1.5083
  85        1.5084
  86        1.5357
  87        1.5497
  88        1.5497
  89        1.9623
  90        1.9624
  91        1.9624
  92        1.9624
  93        2.0085
  94        2.0404
  95        2.1272
  96        2.1273
  97        2.1273
  98        2.1273
  99        2.1539
 100        2.1539
 101        2.1539
 102        2.1539
 103        2.1862
 104        2.1862
 105        2.1863
 106        2.1863
 107        2.2368
 108        2.2368
 109        2.3548
 110        2.3548
 111        2.3549
 112        2.3549
 113        2.3863
 114        2.3863
 115        2.3863
 116        2.3863
 117        2.4773
 118        2.4773
 119        2.4983
 120        2.4983
 121        2.4983
 122        2.4983
 123        2.5095
 124        2.5097
 125        2.5097
 126        2.5097
 127        2.5275
 128        2.5276
 129        2.5591
 130        2.5690
 131        2.5843
 132        2.5843
 133        2.5843
 134        2.5845
 135        2.6227
 136        2.6227
 137        2.6228
 138        2.6228
 139        2.8566
 140        2.9084
 141        2.9084
 142        2.9085
 143        2.9085
 144        2.9451
 145        3.1068
 146        3.1068
 147        3.1068
 148        3.1068
 149        3.2345
 150        3.2345
 151        3.2408
 152        3.2534
 153        3.2534
 154        3.2534
 155        3.2534
 156        3.3823
 157        3.3823
 158        3.4236
 159        3.4236
 160        3.4237
 161        3.4237
 162        3.4237
 163        3.4237
 164        3.4339
 165        3.4345
 166        3.4355
 167        3.4361
 168        3.7768
 169        3.7769
 170        3.7769
 171        3.7769
 172        4.4974
 173        4.4974
 174        4.4974
 175        4.4974
 176        4.7979
 177        4.7979
 178        4.7979
 179        4.7979
 180        5.1551
 181        5.1551
 182        5.1551
 183        5.1551
 184        6.3305
 185        6.5431
 186        6.5431
 187        9.6056
 188        9.6056
 189        9.6056
 190        9.6056
 191       11.1938
 192       11.1938
 193       11.5114
 194       11.5114
 195       11.5114
 196       11.5115
 197       11.8645
 198       11.8645
 199       11.8645
 200       11.8645
 201       12.4903
 202       12.4903
 203       13.1882
 204       13.1882
 205       13.3650
 206       14.0356
 207       14.0356
 208       14.2964
 209       14.2964
 210       14.2964
 211       14.2964
 212       15.1665
 
  0.1666667E+00  0.0000000E+00  0.0000000E+00  0.1157407E-02
   1       -5.2918
   2       -3.2008
   3       -2.3111
   4       -2.3111
   5       -2.3111
   6       -2.3111
   7       -1.6182
   8       -0.8472
   9       -0.8471
  10       -0.8471
  11       -0.8471
  12       -0.8230
  13       -0.8230
  14       -0.8230
  15       -0.8229
  16       -0.7190
  17       -0.6759
  18       -0.6759
  19       -0.4141
  20       -0.4141
  21       -0.4141
  22       -0.4141
  23       -0.1475
  24       -0.1456
  25       -0.1456
  26        0.0203
  27        0.0203
  28        0.0203
  29        0.0203
  30        0.0736
  31        0.0737
  32        0.1882
  33        0.1882
  34        0.1882
  35        0.1882
  36        0.4349
  37        0.5733
  38        0.5733
  39        0.6668
  40        0.6669
  41        0.6669
  42        0.6669
  43        0.8707
  44        0.8709
  45        0.8709
  46        0.8710
  47        0.8730
  48        0.8731
  49        0.8731
  50        0.8731
  51        0.8791
  52        0.9143
  53        0.9144
  54        0.9144
  55        0.9144
  56        0.9404
  57        0.9404
  58        0.9404
  59        0.9408
  60        0.9680
  61        0.9680
  62        0.9680
  63        0.9680
  64        1.0211
  65        1.0211
  66        1.0211
  67        1.0212
  68        1.1899
  69        1.1899
  70        1.1899
  71        1.1899
  72        1.2988
  73        1.2989
  74        1.2989
  75        1.2989
  76        1.3105
  77        1.3105
  78        1.4805
  79        1.4805
  80        1.4806
  81        1.4806
  82        1.5123
  83        1.5283
  84        1.5283
  85        1.5283
  86        1.5284
  87        1.5681
  88        1.5681
  89        1.8801
  90        1.8801
  91        1.8802
  92        1.8802
  93        2.0503
  94        2.0591
  95        2.0591
  96        2.0591
  97        2.0591
  98        2.1248
  99        2.1248
 100        2.1530
 101        2.1806
 102        2.1807
 103        2.1807
 104        2.1809
 105        2.2367
 106        2.2367
 107        2.2368
 108        2.2368
 109        2.3548
 110        2.3548
 111        2.3548
 112        2.3548
 113        2.4457
 114        2.4457
 115        2.4458
 116        2.4458
 117        2.4534
 118        2.4534
 119        2.4535
 120        2.4535
 121        2.5088
 122        2.5088
 123        2.5089
 124        2.5089
 125        2.5378
 126        2.5769
 127        2.5780
 128        2.5787
 129        2.6024
 130        2.6024
 131        2.6551
 132        2.6551
 133        2.6551
 134        2.6551
 135        2.7015
 136        2.7015
 137        2.7015
 138        2.7015
 139        2.8134
 140        2.8386
 141        2.8386
 142        2.8386
 143        2.8386
 144        2.9373
 145        2.9373
 146        2.9373
 147        2.9373
 148        2.9887
 149        3.2069
 150        3.2069
 151        3.2308
 152        3.2308
 153        3.2308
 154        3.2308
 155        3.2320
 156        3.2388
 157        3.2388
 158        3.3891
 159        3.3891
 160        3.3891
 161        3.3891
 162        3.3913
 163        3.3913
 164        3.4339
 165        3.4346
 166        3.4354
 167        3.4361
 168        3.9878
 169        3.9878
 170        3.9878
 171        3.9878
 172        4.2299
 173        4.2300
 174        4.2300
 175        4.2300
 176        4.7828
 177        4.7829
 178        4.7829
 179        4.7829
 180        5.5625
 181        5.5625
 182        5.5625
 183        5.5625
 184        5.9513
 185        6.7467
 186        6.7467
 187        9.7806
 188        9.7806
 189        9.7806
 190        9.7806
 191       10.5763
 192       10.5763
 193       10.8286
 194       10.8286
 195       10.8286
 196       10.8287
 197       11.9606
 198       11.9606
 199       11.9606
 200       11.9606
 201       13.1668
 202       13.1668
 203       13.2086
 204       13.2086
 205       13.8745
 206       13.9206
 207       13.9207
 208       14.4747
 209       14.4748
 210       14.4750
 211       14.4756
 212       14.5889
 
  0.2500000E+00  0.0000000E+00  0.0000000E+00  0.1157407E-02
   1       -5.1757
   2       -3.5868
   3       -2.2191
   4       -2.2191
   5       -2.2191
   6       -2.2191
   7       -1.3065
   8       -1.0663
   9       -1.0663
  10       -1.0663
  11       -1.0663
  12       -0.8168
  13       -0.8168
  14       -0.8168
  15       -0.8168
  16       -0.7186
  17       -0.6192
  18       -0.6192
  19       -0.4694
  20       -0.4693
  21       -0.4693
  22       -0.4693
  23       -0.1136
  24       -0.1090
  25       -0.1090
  26       -0.0124
  27       -0.0124
  28        0.1744
  29        0.1744
  30        0.1744
  31        0.1745
  32        0.2331
  33        0.2331
  34        0.2331
  35        0.2331
  36        0.3309
  37        0.4289
  38        0.4289
  39        0.6812
  40        0.6813
  41        0.6813
  42        0.6813
  43        0.8288
  44        0.8289
  45        0.8289
  46        0.8289
  47        0.8427
  48        0.8429
  49        0.8429
  50        0.8429
  51        0.8604
  52        0.8604
  53        0.8604
  54        0.8604
  55        0.9188
  56        0.9191
  57        0.9191
  58        0.9191
  59        0.9451
  60        0.9451
  61        0.9451
  62        0.9453
  63        0.9879
  64        1.1379
  65        1.1379
  66        1.1379
  67        1.1380
  68        1.2293
  69        1.2293
  70        1.2293
  71        1.2293
  72        1.3526
  73        1.3526
  74        1.3526
  75        1.3526
  76        1.4551
  77        1.4551
  78        1.4551
  79        1.4552
  80        1.4738
  81        1.5331
  82        1.5331
  83        1.5613
  84        1.5613
  85        1.5613
  86        1.5614
  87        1.5987
  88        1.5987
  89        1.7856
  90        1.7856
  91        1.7856
  92        1.7856
  93        1.9757
  94        1.9757
  95        1.9757
  96        1.9758
  97        2.0201
  98        2.0201
  99        2.1117
 100        2.2300
 101        2.2301
 102        2.2301
 103        2.2301
 104        2.2970
 105        2.2970
 106        2.2970
 107        2.2970
 108        2.3551
 109        2.3551
 110        2.3551
 111        2.3552
 112        2.3610
 113        2.4191
 114        2.4191
 115        2.4191
 116        2.4191
 117        2.4880
 118        2.4881
 119        2.4881
 120        2.4881
 121        2.5028
 122        2.5053
 123        2.5053
 124        2.5054
 125        2.5054
 126        2.5528
 127        2.5528
 128        2.5528
 129        2.5528
 130        2.5914
 131        2.6534
 132        2.6534
 133        2.7276
 134        2.7276
 135        2.7426
 136        2.7426
 137        2.7426
 138        2.7426
 139        2.7718
 140        2.7896
 141        2.7896
 142        2.7896
 143        2.7896
 144        3.0006
 145        3.0006
 146        3.0006
 147        3.0007
 148        3.0310
 149        3.0328
 150        3.0328
 151        3.1616
 152        3.1616
 153        3.1937
 154        3.1937
 155        3.1937
 156        3.1937
 157        3.2174
 158        3.3339
 159        3.3339
 160        3.3339
 161        3.3339
 162        3.3387
 163        3.3387
 164        3.4339
 165        3.4346
 166        3.4353
 167        3.4361
 168        3.9922
 169        3.9922
 170        3.9922
 171        3.9923
 172        4.1824
 173        4.1825
 174        4.1825
 175        4.1825
 176        4.7563
 177        4.7563
 178        4.7563
 179        4.7563
 180        5.4209
 181        6.0309
 182        6.0309
 183        6.0309
 184        6.0309
 185        7.0529
 186        7.0529
 187        9.9811
 188        9.9811
 189       10.0519
 190       10.0521
 191       10.0521
 192       10.0524
 193       10.0679
 194       10.0682
 195       10.0682
 196       10.0684
 197       12.1183
 198       12.1183
 199       12.1183
 200       12.1183
 201       13.2430
 202       13.2430
 203       13.6680
 204       13.6680
 205       13.6680
 206       13.6681
 207       13.7857
 208       13.7857
 209       13.8602
 210       13.8602
 211       14.1571
 212       14.1571
 
  0.3333333E+00  0.0000000E+00  0.0000000E+00  0.1157407E-02
   1       -5.0142
   2       -3.9458
   3       -2.0927
   4       -2.0926
   5       -2.0926
   6       -2.0926
   7       -1.3068
   8       -1.3068
   9       -1.3068
  10       -1.3068
  11       -1.0675
  12       -0.7754
  13       -0.7754
  14       -0.7754
  15       -0.7754
  16       -0.7259
  17       -0.5426
  18       -0.5426
  19       -0.5337
  20       -0.5337
  21       -0.5337
  22       -0.5337
  23       -0.1171
  24       -0.1171
  25       -0.0668
  26       -0.0575
  27       -0.0575
  28        0.2332
  29        0.2922
  30        0.2922
  31        0.2922
  32        0.2922
  33        0.3001
  34        0.3001
  35        0.3019
  36        0.3019
  37        0.3023
  38        0.3023
  39        0.7008
  40        0.7008
  41        0.7008
  42        0.7009
  43        0.7568
  44        0.7569
  45        0.7569
  46        0.7569
  47        0.7717
  48        0.7717
  49        0.7717
  50        0.7718
  51        0.8126
  52        0.8127
  53        0.8127
  54        0.8127
  55        0.9246
  56        0.9250
  57        0.9250
  58        0.9250
  59        0.9455
  60        0.9456
  61        0.9456
  62        0.9460
  63        1.0916
  64        1.2351
  65        1.2351
  66        1.2352
  67        1.2352
  68        1.3356
  69        1.3356
  70        1.3356
  71        1.3356
  72        1.4055
  73        1.4055
  74        1.4055
  75        1.4055
  76        1.4208
  77        1.4213
  78        1.4213
  79        1.4214
  80        1.4215
  81        1.6066
  82        1.6067
  83        1.6067
  84        1.6067
  85        1.6411
  86        1.6411
  87        1.6926
  88        1.6926
  89        1.6926
  90        1.6926
  91        1.7693
  92        1.7693
  93        1.8897
  94        1.8897
  95        1.8897
  96        1.8897
  97        1.9240
  98        1.9240
  99        2.1831
 100        2.2698
 101        2.2699
 102        2.2699
 103        2.2699
 104        2.2927
 105        2.2927
 106        2.2927
 107        2.2927
 108        2.3564
 109        2.3564
 110        2.3565
 111        2.3566
 112        2.3568
 113        2.3568
 114        2.3569
 115        2.3569
 116        2.3943
 117        2.3943
 118        2.3943
 119        2.3943
 120        2.4556
 121        2.4936
 122        2.4939
 123        2.4941
 124        2.4941
 125        2.4963
 126        2.4963
 127        2.4964
 128        2.4967
 129        2.6106
 130        2.6784
 131        2.7324
 132        2.7441
 133        2.7441
 134        2.7916
 135        2.7916
 136        2.8340
 137        2.8340
 138        2.8340
 139        2.8340
 140        2.8508
 141        2.8508
 142        2.8845
 143        2.8845
 144        2.8845
 145        2.8845
 146        3.0712
 147        3.0998
 148        3.0999
 149        3.1047
 150        3.1047
 151        3.1047
 152        3.1048
 153        3.1429
 154        3.1429
 155        3.1429
 156        3.1430
 157        3.1973
 158        3.2614
 159        3.2614
 160        3.2614
 161        3.2614
 162        3.2677
 163        3.2677
 164        3.4340
 165        3.4348
 166        3.4352
 167        3.4360
 168        3.7777
 169        3.7777
 170        3.7777
 171        3.7777
 172        4.3466
 173        4.3466
 174        4.3466
 175        4.3466
 176        4.7160
 177        4.7161
 178        4.7161
 179        4.7161
 180        4.8200
 181        6.5630
 182        6.5630
 183        6.5630
 184        6.5630
 185        7.4341
 186        7.4341
 187        9.2722
 188        9.2722
 189        9.2722
 190        9.2722
 191        9.4100
 192        9.4100
 193       10.4608
 194       10.4608
 195       10.4608
 196       10.4608
 197       12.3346
 198       12.3346
 199       12.3346
 200       12.3346
 201       12.8966
 202       12.8966
 203       12.8966
 204       12.8966
 205       13.2924
 206       13.2924
 207       13.6552
 208       13.6552
 209       13.7064
 210       13.7064
 211       13.7064
 212       13.7064
 
  0.4166667E+00  0.0000000E+00  0.0000000E+00  0.1157407E-02
   1       -4.8086
   2       -4.2717
   3       -1.9342
   4       -1.9342
   5       -1.9342
   6       -1.9342
   7       -1.5361
   8       -1.5361
   9       -1.5361
  10       -1.5361
  11       -0.9035
  12       -0.7499
  13       -0.7244
  14       -0.7244
  15       -0.7243
  16       -0.7243
  17       -0.6005
  18       -0.6005
  19       -0.6005
  20       -0.6005
  21       -0.4493
  22       -0.4493
  23       -0.2303
  24       -0.2303
  25       -0.0079
  26        0.0090
  27        0.0090
  28        0.1433
  29        0.1877
  30        0.1877
  31        0.3584
  32        0.3585
  33        0.3585
  34        0.3585
  35        0.3919
  36        0.3920
  37        0.3920
  38        0.3920
  39        0.6761
  40        0.6761
  41        0.6761
  42        0.6761
  43        0.7082
  44        0.7082
  45        0.7082
  46        0.7083
  47        0.7247
  48        0.7248
  49        0.7248
  50        0.7248
  51        0.7820
  52        0.7820
  53        0.7820
  54        0.7820
  55        0.9308
  56        0.9314
  57        0.9314
  58        0.9314
  59        0.9427
  60        0.9428
  61        0.9428
  62        0.9435
  63        1.1886
  64        1.2881
  65        1.2881
  66        1.2881
  67        1.2881
  68        1.3549
  69        1.3808
  70        1.3808
  71        1.3808
  72        1.3808
  73        1.4635
  74        1.4635
  75        1.4635
  76        1.4636
  77        1.5246
  78        1.5246
  79        1.5246
  80        1.5246
  81        1.6066
  82        1.6066
  83        1.6066
  84        1.6067
  85        1.6636
  86        1.6636
  87        1.6636
  88        1.6636
  89        1.6954
  90        1.6954
  91        1.8070
  92        1.8070
  93        1.8070
  94        1.8070
  95        1.8373
  96        1.8373
  97        1.9998
  98        1.9998
  99        1.9998
 100        1.9998
 101        2.0171
 102        2.0171
 103        2.2578
 104        2.3588
 105        2.3588
 106        2.3588
 107        2.3588
 108        2.3598
 109        2.3598
 110        2.3598
 111        2.3599
 112        2.3772
 113        2.3772
 114        2.3772
 115        2.3772
 116        2.3975
 117        2.4090
 118        2.4090
 119        2.4090
 120        2.4090
 121        2.4680
 122        2.4680
 123        2.4680
 124        2.4680
 125        2.4785
 126        2.4785
 127        2.4786
 128        2.4786
 129        2.5345
 130        2.5345
 131        2.6347
 132        2.6961
 133        2.8407
 134        2.8407
 135        2.9230
 136        2.9230
 137        2.9230
 138        2.9230
 139        2.9693
 140        2.9693
 141        2.9830
 142        2.9830
 143        2.9830
 144        2.9830
 145        3.0236
 146        3.0237
 147        3.0798
 148        3.0798
 149        3.0798
 150        3.0798
 151        3.1051
 152        3.1086
 153        3.1722
 154        3.1758
 155        3.1758
 156        3.1758
 157        3.1758
 158        3.1806
 159        3.1806
 160        3.2421
 161        3.2421
 162        3.2421
 163        3.2421
 164        3.4340
 165        3.4349
 166        3.4351
 167        3.4360
 168        3.5819
 169        3.5819
 170        3.5819
 171        3.5819
 172        4.2066
 173        4.4787
 174        4.4787
 175        4.4787
 176        4.4787
 177        4.6592
 178        4.6592
 179        4.6592
 180        4.6592
 181        7.1581
 182        7.1581
 183        7.1582
 184        7.1582
 185        7.8709
 186        7.8709
 187        8.5205
 188        8.5205
 189        8.5205
 190        8.5205
 191        8.8654
 192        8.8654
 193       10.9504
 194       10.9504
 195       10.9504
 196       10.9504
 197       12.1788
 198       12.1788
 199       12.1788
 200       12.1788
 201       12.6055
 202       12.6055
 203       12.6055
 204       12.6055
 205       13.2953
 206       13.2953
 207       13.2954
 208       13.2954
 209       13.3575
 210       13.3575
 211       13.5388
 212       13.5388
 
  0.5000000E+00  0.0000000E+00  0.0000000E+00  0.5787037E-03
   1       -4.5621
   2       -4.5585
   3       -1.7510
   4       -1.7481
   5       -1.7481
   6       -1.7480
   7       -1.7463
   8       -1.7462
   9       -1.7462
  10       -1.7434
  11       -0.8044
  12       -0.8027
  13       -0.6671
  14       -0.6671
  15       -0.6660
  16       -0.6655
  17       -0.6649
  18       -0.6645
  19       -0.6633
  20       -0.6633
  21       -0.3455
  22       -0.3442
  23       -0.3425
  24       -0.3413
  25        0.0611
  26        0.0640
  27        0.0893
  28        0.0893
  29        0.0920
  30        0.0920
  31        0.4080
  32        0.4088
  33        0.4088
  34        0.4091
  35        0.4101
  36        0.4104
  37        0.4104
  38        0.4111
  39        0.6587
  40        0.6592
  41        0.6593
  42        0.6593
  43        0.6597
  44        0.6597
  45        0.6598
  46        0.6603
  47        0.7501
  48        0.7511
  49        0.7511
  50        0.7518
  51        0.7526
  52        0.7533
  53        0.7533
  54        0.7542
  55        0.9348
  56        0.9369
  57        0.9369
  58        0.9373
  59        0.9380
  60        0.9385
  61        0.9385
  62        0.9406
  63        1.2766
  64        1.2772
  65        1.3347
  66        1.3350
  67        1.3350
  68        1.3358
  69        1.3358
  70        1.3365
  71        1.3365
  72        1.3369
  73        1.5290
  74        1.5290
  75        1.5291
  76        1.5298
  77        1.5305
  78        1.5311
  79        1.5313
  80        1.5313
  81        1.7288
  82        1.7292
  83        1.7292
  84        1.7305
  85        1.7313
  86        1.7325
  87        1.7325
  88        1.7330
  89        1.7481
  90        1.7491
  91        1.7491
  92        1.7492
  93        1.7496
  94        1.7497
  95        1.7497
  96        1.7507
  97        1.7598
  98        1.7598
  99        1.7622
 100        1.7622
 101        2.2731
 102        2.2731
 103        2.2744
 104        2.2744
 105        2.3299
 106        2.3311
 107        2.3657
 108        2.3657
 109        2.3659
 110        2.3662
 111        2.3664
 112        2.3666
 113        2.3668
 114        2.3668
 115        2.4184
 116        2.4193
 117        2.4193
 118        2.4193
 119        2.4204
 120        2.4206
 121        2.4206
 122        2.4214
 123        2.4486
 124        2.4491
 125        2.4494
 126        2.4494
 127        2.4503
 128        2.4503
 129        2.4507
 130        2.4512
 131        2.6623
 132        2.6644
 133        2.9357
 134        2.9357
 135        2.9360
 136        2.9360
 137        3.0050
 138        3.0052
 139        3.0053
 140        3.0053
 141        3.0062
 142        3.0062
 143        3.0064
 144        3.0067
 145        3.0795
 146        3.0795
 147        3.0801
 148        3.0801
 149        3.0809
 150        3.0809
 151        3.0811
 152        3.0812
 153        3.0819
 154        3.0819
 155        3.0829
 156        3.0829
 157        3.1423
 158        3.1425
 159        3.4018
 160        3.4027
 161        3.4027
 162        3.4028
 163        3.4031
 164        3.4033
 165        3.4033
 166        3.4041
 167        3.4340
 168        3.4350
 169        3.4350
 170        3.4360
 171        3.6221
 172        3.6252
 173        4.5801
 174        4.5803
 175        4.5810
 176        4.5810
 177        4.5820
 178        4.5820
 179        4.5827
 180        4.5829
 181        7.8087
 182        7.8103
 183        7.8103
 184        7.8123
 185        7.8132
 186        7.8152
 187        7.8152
 188        7.8167
 189        8.3488
 190        8.3488
 191        8.3525
 192        8.3525
 193       11.5233
 194       11.5244
 195       11.5244
 196       11.5261
 197       11.5269
 198       11.5286
 199       11.5286
 200       11.5298
 201       12.9247
 202       12.9247
 203       12.9267
 204       12.9269
 205       12.9274
 206       12.9276
 207       12.9296
 208       12.9296
 209       13.4393
 210       13.4394
 211       13.4396
 212       13.4397
 
  0.0000000E+00  0.8333333E-01  0.0000000E+00  0.2314815E-02
   1       -5.3617
   2       -2.7964
   3       -2.3695
   4       -2.3669
   5       -2.3669
   6       -2.3644
   7       -1.9856
   8       -0.8657
   9       -0.8657
  10       -0.8656
  11       -0.8656
  12       -0.7214
  13       -0.7108
  14       -0.7107
  15       -0.5876
  16       -0.5855
  17       -0.5855
  18       -0.5834
  19       -0.3772
  20       -0.3760
  21       -0.3757
  22       -0.3745
  23       -0.1681
  24       -0.1676
  25       -0.1676
  26       -0.1608
  27       -0.1590
  28       -0.1589
  29       -0.1571
  30        0.1307
  31        0.1308
  32        0.1586
  33        0.1603
  34        0.1603
  35        0.1621
  36        0.5436
  37        0.6562
  38        0.6580
  39        0.6581
  40        0.6599
  41        0.7338
  42        0.7338
  43        0.7676
  44        0.8936
  45        0.8954
  46        0.8957
  47        0.8970
  48        0.8995
  49        0.9009
  50        0.9011
  51        0.9024
  52        0.9093
  53        0.9114
  54        0.9114
  55        0.9135
  56        0.9290
  57        0.9307
  58        0.9308