 vasp.4.6.28 25Jul05 complex 
 executed on             LinuxIFC date 2017.01.09  17:41:28
 running on    4 nodes
 distr:  one band on    1 nodes,    4 groups


--------------------------------------------------------------------------------------------------------


 INCAR:
 POTCAR:   PAW_PBE Cu 05Jan2001                   
 POTCAR:   PAW_PBE Cu 05Jan2001                   
   VRHFIN =Cu: d10 p1                                                           
   LEXCH  = PE                                                                  
   EATOM  =  1390.9800 eV,  102.2341 Ry                                         
                                                                                
   TITEL  = PAW_PBE Cu 05Jan2001                                                
   LULTRA =        F    use ultrasoft PP ?                                      
   IUNSCR =        1    unscreen: 0-lin 1-nonlin 2-no                           
   RPACOR =    2.000    partial core radius                                     
   POMASS =   63.546; ZVAL   =   11.000    mass and valenz                      
   RCORE  =    2.300    outmost cutoff radius                                   
   RWIGS  =    2.480; RWIGS  =    1.312    wigner-seitz radius (au A)           
   ENMAX  =  273.214; ENMIN  =  204.910 eV                                      
   RCLOC  =    1.712    cutoff for local pot                                    
   LCOR   =        T    correct aug charges                                     
   LPAW   =        T    paw PP                                                  
   EAUG   =  516.456                                                            
   DEXC   =    -.008                                                            
   RMAX   =    2.789    core radius for proj-oper                               
   RAUG   =    1.300    factor for augmentation sphere                          
   RDEP   =    2.302    radius for radial grids                                 
   QCUT   =   -4.481; QGAM   =    8.962    optimization parameters              
                                                                                
   Description                                                                  
     l     E      TYP  RCUT    TYP  RCUT                                        
     2   .000     23  2.300                                                     
     2   .000     23  2.300                                                     
     0   .000     23  2.300                                                     
     0   .000     23  2.300                                                     
     1  -.200     23  2.300                                                     
     1   .000     23  2.300                                                     
     3   .000      7   .000                                                     
  local pseudopotential read in
  partial core-charges read in
  atomic valenz-charges read in
  non local Contribution for L=           2  read in
    real space projection operators read in
  non local Contribution for L=           2  read in
    real space projection operators read in
  non local Contribution for L=           0  read in
    real space projection operators read in
  non local Contribution for L=           0  read in
    real space projection operators read in
  non local Contribution for L=           1  read in
    real space projection operators read in
  non local Contribution for L=           1  read in
    real space projection operators read in
    PAW grid and wavefunctions read in
 
   number of l-projection  operators is LMAX  =           6
   number of lm-projection operators is LMMAX =          18
 

 ----------------------------------------------------------------------------- 
|                                                                             |
|  ADVICE TO THIS USER RUNNING 'VASP/VAMP'   (HEAR YOUR MASTER'S VOICE ...):  |
|                                                                             |
|      You have a (more or less) 'large supercell' and for larger cells       |
|      it might be more efficient to use real space projection operators      |
|      So try LREAL= Auto  in the INCAR   file.                               |
|      Mind: If you want to do an extremely accurate calculations keep the    |
|      reciprocal projection scheme          (i.e. LREAL=.FALSE.)             |
|                                                                             |
 ----------------------------------------------------------------------------- 

 PAW_PBE Cu 05Jan2001                   :
 energy of atom  1       EATOM=-1390.9800
 kinetic energy error for atom=    0.0006 (will be added to EATOM!!)
 
 EXHCAR: internal setup
 exchange correlation table for  LEXCH =        8
   RHO(1)=    0.500       N(1)  =     2000
   RHO(2)=  100.500       N(2)  =     4000
 
 POSCAR: Cu                                      
  positions in direct lattice
  No initial velocities read in
 


--------------------------------------------------------------------------------------------------------


 ion  position               nearest neighbor table
   1  0.001  0.000  0.000-   9 2.44  11 2.44  17 2.44  21 2.44  25 2.44  27 2.44  29 2.44  31 2.44
                            10 2.45  18 2.45  12 2.45  22 2.45
   2  0.500  0.000  0.000-   9 2.44  10 2.44  11 2.44  12 2.44  17 2.44  18 2.44  21 2.44  22 2.44
                            26 2.44  28 2.44  30 2.44  32 2.44
   3  0.000  0.500  0.000-   9 2.44  10 2.44  11 2.44  12 2.44  19 2.44  20 2.44  23 2.44  24 2.44
                            25 2.44  27 2.44  29 2.44  31 2.44
   4  0.500  0.500  0.000-   9 2.44  10 2.44  11 2.44  12 2.44  19 2.44  20 2.44  23 2.44  24 2.44
                            26 2.44  28 2.44  30 2.44  32 2.44
   5  0.000  0.000  0.500-  13 2.44  14 2.44  15 2.44  16 2.44  17 2.44  18 2.44  21 2.44  22 2.44
                            25 2.44  27 2.44  29 2.44  31 2.44
   6  0.500  0.000  0.500-  13 2.44  14 2.44  15 2.44  16 2.44  17 2.44  18 2.44  21 2.44  22 2.44
                            26 2.44  28 2.44  30 2.44  32 2.44
   7  0.000  0.500  0.500-  13 2.44  14 2.44  15 2.44  16 2.44  19 2.44  20 2.44  23 2.44  24 2.44
                            25 2.44  27 2.44  29 2.44  31 2.44
   8  0.500  0.500  0.500-  13 2.44  14 2.44  15 2.44  16 2.44  19 2.44  20 2.44  23 2.44  24 2.44
                            26 2.44  28 2.44  30 2.44  32 2.44
   9  0.250  0.250  0.000-   1 2.44   2 2.44   3 2.44   4 2.44  17 2.44  19 2.44  21 2.44  23 2.44
                            25 2.44  26 2.44  29 2.44  30 2.44
  10  0.750  0.250  0.000-   2 2.44   3 2.44   4 2.44  18 2.44  20 2.44  22 2.44  24 2.44  25 2.44
                            26 2.44  29 2.44  30 2.44   1 2.45
  11  0.250  0.750  0.000-   1 2.44   2 2.44   3 2.44   4 2.44  17 2.44  19 2.44  21 2.44  23 2.44
                            27 2.44  28 2.44  31 2.44  32 2.44
  12  0.750  0.750  0.000-   2 2.44   3 2.44   4 2.44  18 2.44  20 2.44  22 2.44  24 2.44  27 2.44
                            28 2.44  31 2.44  32 2.44   1 2.45
  13  0.250  0.250  0.500-   5 2.44   6 2.44   7 2.44   8 2.44  17 2.44  19 2.44  21 2.44  23 2.44
                            25 2.44  26 2.44  29 2.44  30 2.44
  14  0.750  0.250  0.500-   5 2.44   6 2.44   7 2.44   8 2.44  18 2.44  20 2.44  22 2.44  24 2.44
                            25 2.44  26 2.44  29 2.44  30 2.44
  15  0.250  0.750  0.500-   5 2.44   6 2.44   7 2.44   8 2.44  17 2.44  19 2.44  21 2.44  23 2.44
                            27 2.44  28 2.44  31 2.44  32 2.44
  16  0.750  0.750  0.500-   5 2.44   6 2.44   7 2.44   8 2.44  18 2.44  20 2.44  22 2.44  24 2.44
                            27 2.44  28 2.44  31 2.44  32 2.44
  17  0.250  0.000  0.250-   1 2.44   2 2.44   5 2.44   6 2.44   9 2.44  11 2.44  13 2.44  15 2.44
                            25 2.44  26 2.44  27 2.44  28 2.44
  18  0.750  0.000  0.250-   2 2.44   5 2.44   6 2.44  10 2.44  12 2.44  14 2.44  16 2.44  25 2.44
                            26 2.44  27 2.44  28 2.44   1 2.45
  19  0.250  0.500  0.250-   3 2.44   4 2.44   7 2.44   8 2.44   9 2.44  11 2.44  13 2.44  15 2.44
                            25 2.44  26 2.44  27 2.44  28 2.44
  20  0.750  0.500  0.250-   3 2.44   4 2.44   7 2.44   8 2.44  10 2.44  12 2.44  14 2.44  16 2.44
                            25 2.44  26 2.44  27 2.44  28 2.44
  21  0.250  0.000  0.750-   1 2.44   2 2.44   5 2.44   6 2.44   9 2.44  11 2.44  13 2.44  15 2.44
                            29 2.44  30 2.44  31 2.44  32 2.44
  22  0.750  0.000  0.750-   2 2.44   5 2.44   6 2.44  10 2.44  12 2.44  14 2.44  16 2.44  29 2.44
                            30 2.44  31 2.44  32 2.44   1 2.45
  23  0.250  0.500  0.750-   3 2.44   4 2.44   7 2.44   8 2.44   9 2.44  11 2.44  13 2.44  15 2.44
                            29 2.44  30 2.44  31 2.44  32 2.44
  24  0.750  0.500  0.750-   3 2.44   4 2.44   7 2.44   8 2.44  10 2.44  12 2.44  14 2.44  16 2.44
                            29 2.44  30 2.44  31 2.44  32 2.44
  25  0.000  0.250  0.250-   3 2.44   5 2.44   7 2.44   9 2.44  10 2.44  13 2.44  14 2.44  17 2.44
                            18 2.44  19 2.44  20 2.44   1 2.44
  26  0.500  0.250  0.250-   2 2.44   4 2.44   6 2.44   8 2.44   9 2.44  10 2.44  13 2.44  14 2.44
                            17 2.44  18 2.44  19 2.44  20 2.44
  27  0.000  0.750  0.250-   3 2.44   5 2.44   7 2.44  11 2.44  12 2.44  15 2.44  16 2.44  17 2.44
                            18 2.44  19 2.44  20 2.44   1 2.44
  28  0.500  0.750  0.250-   2 2.44   4 2.44   6 2.44   8 2.44  11 2.44  12 2.44  15 2.44  16 2.44
                            17 2.44  18 2.44  19 2.44  20 2.44
  29  0.000  0.250  0.750-   3 2.44   5 2.44   7 2.44   9 2.44  10 2.44  13 2.44  14 2.44  21 2.44
                            22 2.44  23 2.44  24 2.44   1 2.44
  30  0.500  0.250  0.750-   2 2.44   4 2.44   6 2.44   8 2.44   9 2.44  10 2.44  13 2.44  14 2.44
                            21 2.44  22 2.44  23 2.44  24 2.44
  31  0.000  0.750  0.750-   3 2.44   5 2.44   7 2.44  11 2.44  12 2.44  15 2.44  16 2.44  21 2.44
                            22 2.44  23 2.44  24 2.44   1 2.44
  32  0.500  0.750  0.750-   2 2.44   4 2.44   6 2.44   8 2.44  11 2.44  12 2.44  15 2.44  16 2.44
                            21 2.44  22 2.44  23 2.44  24 2.44
 
  LATTYP: Found a simple cubic cell.
 ALAT       =     6.9091900423
  
  Lattice vectors:
  
 A1 = (   6.9091900423,   0.0000000000,   0.0000000000)
 A2 = (   0.0000000000,   6.9091900423,   0.0000000000)
 A3 = (   0.0000000000,   0.0000000000,   6.9091900423)
 Subroutine PRICEL returns:
 Original cell was already a primitive cell.
 

Analysis of symmetry for initial positions (statically):

 Routine SETGRP: Setting up the symmetry group for a 
 simple cubic supercell.


 Subroutine GETGRP returns: Found  8 space group operations
 (whereof  8 operations were pure point group operations)
 out of a pool of 48 trial point group operations.


The static configuration has the point symmetry C_4v.

Analysis of symmetry for dynamics (positions and initial velocities):

 Subroutine DYNSYM returns: Found  8 space group operations
 (whereof  8 operations were pure point group operations)
 out of a pool of  8 trial space group operations
 (whereof  8 operations were pure point group operations)
 and found also     1 'primitive' translations


The dynamic configuration has the point symmetry C_4v.
 
 
 KPOINTS: Automatic mesh                          

Automatic generation of k-mesh.
 
 Subroutine IBZKPT returns following result:
 ===========================================
 
 Found    196 irreducible k-points:
 
 Following reciprocal coordinates:
            Coordinates               Weight
  0.000000  0.000000  0.000000      1.000000
  0.083333  0.000000  0.000000      2.000000
  0.166667  0.000000  0.000000      2.000000
  0.250000  0.000000  0.000000      2.000000
  0.333333  0.000000  0.000000      2.000000
  0.416667  0.000000  0.000000      2.000000
  0.500000  0.000000  0.000000      1.000000
  0.000000  0.083333  0.000000      4.000000
  0.083333  0.083333  0.000000      8.000000
  0.166667  0.083333  0.000000      8.000000
  0.250000  0.083333  0.000000      8.000000
  0.333333  0.083333  0.000000      8.000000
  0.416667  0.083333  0.000000      8.000000
  0.500000  0.083333  0.000000      4.000000
  0.000000  0.166667  0.000000      4.000000
  0.083333  0.166667  0.000000      8.000000
  0.166667  0.166667  0.000000      8.000000
  0.250000  0.166667  0.000000      8.000000
  0.333333  0.166667  0.000000      8.000000
  0.416667  0.166667  0.000000      8.000000
  0.500000  0.166667  0.000000      4.000000
  0.000000  0.250000  0.000000      4.000000
  0.083333  0.250000  0.000000      8.000000
  0.166667  0.250000  0.000000      8.000000
  0.250000  0.250000  0.000000      8.000000
  0.333333  0.250000  0.000000      8.000000
  0.416667  0.250000  0.000000      8.000000
  0.500000  0.250000  0.000000      4.000000
  0.000000  0.333333  0.000000      4.000000
  0.083333  0.333333  0.000000      8.000000
  0.166667  0.333333  0.000000      8.000000
  0.250000  0.333333  0.000000      8.000000
  0.333333  0.333333  0.000000      8.000000
  0.416667  0.333333  0.000000      8.000000
  0.500000  0.333333  0.000000      4.000000
  0.000000  0.416667  0.000000      4.000000
  0.083333  0.416667  0.000000      8.000000
  0.166667  0.416667  0.000000      8.000000
  0.250000  0.416667  0.000000      8.000000
  0.333333  0.416667  0.000000      8.000000
  0.416667  0.416667  0.000000      8.000000
  0.500000  0.416667  0.000000      4.000000
  0.000000  0.500000  0.000000      2.000000
  0.083333  0.500000  0.000000      4.000000
  0.166667  0.500000  0.000000      4.000000
  0.250000  0.500000  0.000000      4.000000
  0.333333  0.500000  0.000000      4.000000
  0.416667  0.500000  0.000000      4.000000
  0.500000  0.500000  0.000000      2.000000
  0.000000  0.083333  0.083333      4.000000
  0.083333  0.083333  0.083333      8.000000
  0.166667  0.083333  0.083333      8.000000
  0.250000  0.083333  0.083333      8.000000
  0.333333  0.083333  0.083333      8.000000
  0.416667  0.083333  0.083333      8.000000
  0.500000  0.083333  0.083333      4.000000
  0.000000  0.166667  0.083333      8.000000
  0.083333  0.166667  0.083333     16.000000
  0.166667  0.166667  0.083333     16.000000
  0.250000  0.166667  0.083333     16.000000
  0.333333  0.166667  0.083333     16.000000
  0.416667  0.166667  0.083333     16.000000
  0.500000  0.166667  0.083333      8.000000
  0.000000  0.250000  0.083333      8.000000
  0.083333  0.250000  0.083333     16.000000
  0.166667  0.250000  0.083333     16.000000
  0.250000  0.250000  0.083333     16.000000
  0.333333  0.250000  0.083333     16.000000
  0.416667  0.250000  0.083333     16.000000
  0.500000  0.250000  0.083333      8.000000
  0.000000  0.333333  0.083333      8.000000
  0.083333  0.333333  0.083333     16.000000
  0.166667  0.333333  0.083333     16.000000
  0.250000  0.333333  0.083333     16.000000
  0.333333  0.333333  0.083333     16.000000
  0.416667  0.333333  0.083333     16.000000
  0.500000  0.333333  0.083333      8.000000
  0.000000  0.416667  0.083333      8.000000
  0.083333  0.416667  0.083333     16.000000
  0.166667  0.416667  0.083333     16.000000
  0.250000  0.416667  0.083333     16.000000
  0.333333  0.416667  0.083333     16.000000
  0.416667  0.416667  0.083333     16.000000
  0.500000  0.416667  0.083333      8.000000
  0.000000  0.500000  0.083333      4.000000
  0.083333  0.500000  0.083333      8.000000
  0.166667  0.500000  0.083333      8.000000
  0.250000  0.500000  0.083333      8.000000
  0.333333  0.500000  0.083333      8.000000
  0.416667  0.500000  0.083333      8.000000
  0.500000  0.500000  0.083333      4.000000
  0.000000  0.166667  0.166667      4.000000
  0.083333  0.166667  0.166667      8.000000
  0.166667  0.166667  0.166667      8.000000
  0.250000  0.166667  0.166667      8.000000
  0.333333  0.166667  0.166667      8.000000
  0.416667  0.166667  0.166667      8.000000
  0.500000  0.166667  0.166667      4.000000
  0.000000  0.250000  0.166667      8.000000
  0.083333  0.250000  0.166667     16.000000
  0.166667  0.250000  0.166667     16.000000
  0.250000  0.250000  0.166667     16.000000
  0.333333  0.250000  0.166667     16.000000
  0.416667  0.250000  0.166667     16.000000
  0.500000  0.250000  0.166667      8.000000
  0.000000  0.333333  0.166667      8.000000
  0.083333  0.333333  0.166667     16.000000
  0.166667  0.333333  0.166667     16.000000
  0.250000  0.333333  0.166667     16.000000
  0.333333  0.333333  0.166667     16.000000
  0.416667  0.333333  0.166667     16.000000
  0.500000  0.333333  0.166667      8.000000
  0.000000  0.416667  0.166667      8.000000
  0.083333  0.416667  0.166667     16.000000
  0.166667  0.416667  0.166667     16.000000
  0.250000  0.416667  0.166667     16.000000
  0.333333  0.416667  0.166667     16.000000
  0.416667  0.416667  0.166667     16.000000
  0.500000  0.416667  0.166667      8.000000
  0.000000  0.500000  0.166667      4.000000
  0.083333  0.500000  0.166667      8.000000
  0.166667  0.500000  0.166667      8.000000
  0.250000  0.500000  0.166667      8.000000
  0.333333  0.500000  0.166667      8.000000
  0.416667  0.500000  0.166667      8.000000
  0.500000  0.500000  0.166667      4.000000
  0.000000  0.250000  0.250000      4.000000
  0.083333  0.250000  0.250000      8.000000
  0.166667  0.250000  0.250000      8.000000
  0.250000  0.250000  0.250000      8.000000
  0.333333  0.250000  0.250000      8.000000
  0.416667  0.250000  0.250000      8.000000
  0.500000  0.250000  0.250000      4.000000
  0.000000  0.333333  0.250000      8.000000
  0.083333  0.333333  0.250000     16.000000
  0.166667  0.333333  0.250000     16.000000
  0.250000  0.333333  0.250000     16.000000
  0.333333  0.333333  0.250000     16.000000
  0.416667  0.333333  0.250000     16.000000
  0.500000  0.333333  0.250000      8.000000
  0.000000  0.416667  0.250000      8.000000
  0.083333  0.416667  0.250000     16.000000
  0.166667  0.416667  0.250000     16.000000
  0.250000  0.416667  0.250000     16.000000
  0.333333  0.416667  0.250000     16.000000
  0.416667  0.416667  0.250000     16.000000
  0.500000  0.416667  0.250000      8.000000
  0.000000  0.500000  0.250000      4.000000
  0.083333  0.500000  0.250000      8.000000
  0.166667  0.500000  0.250000      8.000000
  0.250000  0.500000  0.250000      8.000000
  0.333333  0.500000  0.250000      8.000000
  0.416667  0.500000  0.250000      8.000000
  0.500000  0.500000  0.250000      4.000000
  0.000000  0.333333  0.333333      4.000000
  0.083333  0.333333  0.333333      8.000000
  0.166667  0.333333  0.333333      8.000000
  0.250000  0.333333  0.333333      8.000000
  0.333333  0.333333  0.333333      8.000000
  0.416667  0.333333  0.333333      8.000000
  0.500000  0.333333  0.333333      4.000000
  0.000000  0.416667  0.333333      8.000000
  0.083333  0.416667  0.333333     16.000000
  0.166667  0.416667  0.333333     16.000000
  0.250000  0.416667  0.333333     16.000000
  0.333333  0.416667  0.333333     16.000000
  0.416667  0.416667  0.333333     16.000000
  0.500000  0.416667  0.333333      8.000000
  0.000000  0.500000  0.333333      4.000000
  0.083333  0.500000  0.333333      8.000000
  0.166667  0.500000  0.333333      8.000000
  0.250000  0.500000  0.333333      8.000000
  0.333333  0.500000  0.333333      8.000000
  0.416667  0.500000  0.333333      8.000000
  0.500000  0.500000  0.333333      4.000000
  0.000000  0.416667  0.416667      4.000000
  0.083333  0.416667  0.416667      8.000000
  0.166667  0.416667  0.416667      8.000000
  0.250000  0.416667  0.416667      8.000000
  0.333333  0.416667  0.416667      8.000000
  0.416667  0.416667  0.416667      8.000000
  0.500000  0.416667  0.416667      4.000000
  0.000000  0.500000  0.416667      4.000000
  0.083333  0.500000  0.416667      8.000000
  0.166667  0.500000  0.416667      8.000000
  0.250000  0.500000  0.416667      8.000000
  0.333333  0.500000  0.416667      8.000000
  0.416667  0.500000  0.416667      8.000000
  0.500000  0.500000  0.416667      4.000000
  0.000000  0.500000  0.500000      1.000000
  0.083333  0.500000  0.500000      2.000000
  0.166667  0.500000  0.500000      2.000000
  0.250000  0.500000  0.500000      2.000000
  0.333333  0.500000  0.500000      2.000000
  0.416667  0.500000  0.500000      2.000000
  0.500000  0.500000  0.500000      1.000000
 
 Following cartesian coordinates:
            Coordinates               Weight
  0.000000  0.000000  0.000000      1.000000
  0.012061  0.000000  0.000000      2.000000
  0.024122  0.000000  0.000000      2.000000
  0.036184  0.000000  0.000000      2.000000
  0.048245  0.000000  0.000000      2.000000
  0.060306  0.000000  0.000000      2.000000
  0.072367  0.000000  0.000000      1.000000
  0.000000  0.012061  0.000000      4.000000
  0.012061  0.012061  0.000000      8.000000
  0.024122  0.012061  0.000000      8.000000
  0.036184  0.012061  0.000000      8.000000
  0.048245  0.012061  0.000000      8.000000
  0.060306  0.012061  0.000000      8.000000
  0.072367  0.012061  0.000000      4.000000
  0.000000  0.024122  0.000000      4.000000
  0.012061  0.024122  0.000000      8.000000
  0.024122  0.024122  0.000000      8.000000
  0.036184  0.024122  0.000000      8.000000
  0.048245  0.024122  0.000000      8.000000
  0.060306  0.024122  0.000000      8.000000
  0.072367  0.024122  0.000000      4.000000
  0.000000  0.036184  0.000000      4.000000
  0.012061  0.036184  0.000000      8.000000
  0.024122  0.036184  0.000000      8.000000
  0.036184  0.036184  0.000000      8.000000
  0.048245  0.036184  0.000000      8.000000
  0.060306  0.036184  0.000000      8.000000
  0.072367  0.036184  0.000000      4.000000
  0.000000  0.048245  0.000000      4.000000
  0.012061  0.048245  0.000000      8.000000
  0.024122  0.048245  0.000000      8.000000
  0.036184  0.048245  0.000000      8.000000
  0.048245  0.048245  0.000000      8.000000
  0.060306  0.048245  0.000000      8.000000
  0.072367  0.048245  0.000000      4.000000
  0.000000  0.060306  0.000000      4.000000
  0.012061  0.060306  0.000000      8.000000
  0.024122  0.060306  0.000000      8.000000
  0.036184  0.060306  0.000000      8.000000
  0.048245  0.060306  0.000000      8.000000
  0.060306  0.060306  0.000000      8.000000
  0.072367  0.060306  0.000000      4.000000
  0.000000  0.072367  0.000000      2.000000
  0.012061  0.072367  0.000000      4.000000
  0.024122  0.072367  0.000000      4.000000
  0.036184  0.072367  0.000000      4.000000
  0.048245  0.072367  0.000000      4.000000
  0.060306  0.072367  0.000000      4.000000
  0.072367  0.072367  0.000000      2.000000
  0.000000  0.012061  0.012061      4.000000
  0.012061  0.012061  0.012061      8.000000
  0.024122  0.012061  0.012061      8.000000
  0.036184  0.012061  0.012061      8.000000
  0.048245  0.012061  0.012061      8.000000
  0.060306  0.012061  0.012061      8.000000
  0.072367  0.012061  0.012061      4.000000
  0.000000  0.024122  0.012061      8.000000
  0.012061  0.024122  0.012061     16.000000
  0.024122  0.024122  0.012061     16.000000
  0.036184  0.024122  0.012061     16.000000
  0.048245  0.024122  0.012061     16.000000
  0.060306  0.024122  0.012061     16.000000
  0.072367  0.024122  0.012061      8.000000
  0.000000  0.036184  0.012061      8.000000
  0.012061  0.036184  0.012061     16.000000
  0.024122  0.036184  0.012061     16.000000
  0.036184  0.036184  0.012061     16.000000
  0.048245  0.036184  0.012061     16.000000
  0.060306  0.036184  0.012061     16.000000
  0.072367  0.036184  0.012061      8.000000
  0.000000  0.048245  0.012061      8.000000
  0.012061  0.048245  0.012061     16.000000
  0.024122  0.048245  0.012061     16.000000
  0.036184  0.048245  0.012061     16.000000
  0.048245  0.048245  0.012061     16.000000
  0.060306  0.048245  0.012061     16.000000
  0.072367  0.048245  0.012061      8.000000
  0.000000  0.060306  0.012061      8.000000
  0.012061  0.060306  0.012061     16.000000
  0.024122  0.060306  0.012061     16.000000
  0.036184  0.060306  0.012061     16.000000
  0.048245  0.060306  0.012061     16.000000
  0.060306  0.060306  0.012061     16.000000
  0.072367  0.060306  0.012061      8.000000
  0.000000  0.072367  0.012061      4.000000
  0.012061  0.072367  0.012061      8.000000
  0.024122  0.072367  0.012061      8.000000
  0.036184  0.072367  0.012061      8.000000
  0.048245  0.072367  0.012061      8.000000
  0.060306  0.072367  0.012061      8.000000
  0.072367  0.072367  0.012061      4.000000
  0.000000  0.024122  0.024122      4.000000
  0.012061  0.024122  0.024122      8.000000
  0.024122  0.024122  0.024122      8.000000
  0.036184  0.024122  0.024122      8.000000
  0.048245  0.024122  0.024122      8.000000
  0.060306  0.024122  0.024122      8.000000
  0.072367  0.024122  0.024122      4.000000
  0.000000  0.036184  0.024122      8.000000
  0.012061  0.036184  0.024122     16.000000
  0.024122  0.036184  0.024122     16.000000
  0.036184  0.036184  0.024122     16.000000
  0.048245  0.036184  0.024122     16.000000
  0.060306  0.036184  0.024122     16.000000
  0.072367  0.036184  0.024122      8.000000
  0.000000  0.048245  0.024122      8.000000
  0.012061  0.048245  0.024122     16.000000
  0.024122  0.048245  0.024122     16.000000
  0.036184  0.048245  0.024122     16.000000
  0.048245  0.048245  0.024122     16.000000
  0.060306  0.048245  0.024122     16.000000
  0.072367  0.048245  0.024122      8.000000
  0.000000  0.060306  0.024122      8.000000
  0.012061  0.060306  0.024122     16.000000
  0.024122  0.060306  0.024122     16.000000
  0.036184  0.060306  0.024122     16.000000
  0.048245  0.060306  0.024122     16.000000
  0.060306  0.060306  0.024122     16.000000
  0.072367  0.060306  0.024122      8.000000
  0.000000  0.072367  0.024122      4.000000
  0.012061  0.072367  0.024122      8.000000
  0.024122  0.072367  0.024122      8.000000
  0.036184  0.072367  0.024122      8.000000
  0.048245  0.072367  0.024122      8.000000
  0.060306  0.072367  0.024122      8.000000
  0.072367  0.072367  0.024122      4.000000
  0.000000  0.036184  0.036184      4.000000
  0.012061  0.036184  0.036184      8.000000
  0.024122  0.036184  0.036184      8.000000
  0.036184  0.036184  0.036184      8.000000
  0.048245  0.036184  0.036184      8.000000
  0.060306  0.036184  0.036184      8.000000
  0.072367  0.036184  0.036184      4.000000
  0.000000  0.048245  0.036184      8.000000
  0.012061  0.048245  0.036184     16.000000
  0.024122  0.048245  0.036184     16.000000
  0.036184  0.048245  0.036184     16.000000
  0.048245  0.048245  0.036184     16.000000
  0.060306  0.048245  0.036184     16.000000
  0.072367  0.048245  0.036184      8.000000
  0.000000  0.060306  0.036184      8.000000
  0.012061  0.060306  0.036184     16.000000
  0.024122  0.060306  0.036184     16.000000
  0.036184  0.060306  0.036184     16.000000
  0.048245  0.060306  0.036184     16.000000
  0.060306  0.060306  0.036184     16.000000
  0.072367  0.060306  0.036184      8.000000
  0.000000  0.072367  0.036184      4.000000
  0.012061  0.072367  0.036184      8.000000
  0.024122  0.072367  0.036184      8.000000
  0.036184  0.072367  0.036184      8.000000
  0.048245  0.072367  0.036184      8.000000
  0.060306  0.072367  0.036184      8.000000
  0.072367  0.072367  0.036184      4.000000
  0.000000  0.048245  0.048245      4.000000
  0.012061  0.048245  0.048245      8.000000
  0.024122  0.048245  0.048245      8.000000
  0.036184  0.048245  0.048245      8.000000
  0.048245  0.048245  0.048245      8.000000
  0.060306  0.048245  0.048245      8.000000
  0.072367  0.048245  0.048245      4.000000
  0.000000  0.060306  0.048245      8.000000
  0.012061  0.060306  0.048245     16.000000
  0.024122  0.060306  0.048245     16.000000
  0.036184  0.060306  0.048245     16.000000
  0.048245  0.060306  0.048245     16.000000
  0.060306  0.060306  0.048245     16.000000
  0.072367  0.060306  0.048245      8.000000
  0.000000  0.072367  0.048245      4.000000
  0.012061  0.072367  0.048245      8.000000
  0.024122  0.072367  0.048245      8.000000
  0.036184  0.072367  0.048245      8.000000
  0.048245  0.072367  0.048245      8.000000
  0.060306  0.072367  0.048245      8.000000
  0.072367  0.072367  0.048245      4.000000
  0.000000  0.060306  0.060306      4.000000
  0.012061  0.060306  0.060306      8.000000
  0.024122  0.060306  0.060306      8.000000
  0.036184  0.060306  0.060306      8.000000
  0.048245  0.060306  0.060306      8.000000
  0.060306  0.060306  0.060306      8.000000
  0.072367  0.060306  0.060306      4.000000
  0.000000  0.072367  0.060306      4.000000
  0.012061  0.072367  0.060306      8.000000
  0.024122  0.072367  0.060306      8.000000
  0.036184  0.072367  0.060306      8.000000
  0.048245  0.072367  0.060306      8.000000
  0.060306  0.072367  0.060306      8.000000
  0.072367  0.072367  0.060306      4.000000
  0.000000  0.072367  0.072367      1.000000
  0.012061  0.072367  0.072367      2.000000
  0.024122  0.072367  0.072367      2.000000
  0.036184  0.072367  0.072367      2.000000
  0.048245  0.072367  0.072367      2.000000
  0.060306  0.072367  0.072367      2.000000
  0.072367  0.072367  0.072367      1.000000
 


--------------------------------------------------------------------------------------------------------




 Dimension of arrays:
   k-Points           NKPTS =    196   number of bands    NBANDS=    212
   number of dos      NEDOS =    301   number of ions     NIONS =     32
   non local maximal  LDIM  =      6   non local SUM 2l+1 LMDIM =     18
   total plane-waves  NPLWV = 262144
   max r-space proj   IRMAX =      1   max aug-charges    IRDMAX= 223334
   dimension x,y,z NGX =    64 NGY =   64 NGZ =   64
   dimension x,y,z NGXF=   128 NGYF=  128 NGZF=  128
   support grid    NGXF=   256 NGYF=  256 NGZF=  256
   ions per type =              32
 NGX,Y,Z   is equivalent  to a cutoff of  15.40, 15.40, 15.40 a.u.
 NGXF,Y,Z  is equivalent  to a cutoff of  30.80, 30.80, 30.80 a.u.


 I would recommend the setting:
   dimension x,y,z NGX =    62 NGY =   62 NGZ =   62
 SYSTEM =  unknown system                          
 POSCAR =  Cu                                      

 Startparameter for this run:
   NWRITE =      2    write-flag & timer
   PREC   = accura    medium, high low
   ISTART =      0    job   : 0-new  1-cont  2-samecut
   ICHARG =      2    charge: 1-file 2-atom 10-const
   ISPIN  =      1    spin polarized calculation?
   LNONCOLLINEAR =      F non collinear calculations
   LSORBIT =      F    spin-orbit coupling
   INIWAV =      1    electr: 0-lowe 1-rand  2-diag
   LASPH  =      F    aspherical Exc in radial PAW
   METAGGA=      F    non-selfconsistent MetaGGA calc.

 Electronic Relaxation 1
   ENCUT  =  750.0 eV  55.12 Ry    7.42 a.u.  15.43 15.43 15.43*2*pi/ulx,y,z
   ENINI  =  750.0     initial cutoff
   ENAUG  =  516.5 eV  augmentation charge cutoff
   NELM   =     60;   NELMIN=  2; NELMDL=  0     # of ELM steps 
   EDIFF  = 0.1E-07   stopping-criterion for ELM
   LREAL  =      F    real-space projection
   LCOMPAT=      F    compatible to vasp.4.4
   LREAL_COMPAT= F    compatible to vasp.4.5.1-3
   GGA_COMPAT  = T    GGA compatible to vasp.4.4-vasp.4.6
   LMAXPAW     = -100 max onsite density
   LMAXMIX     =    2 max onsite mixed and CHGCAR
   VOSKOWN=      0    Vosko Wilk Nusair interpolation
   ROPT   =    0.00000
 Ionic relaxation
   EDIFFG = 0.1E-06   stopping-criterion for IOM
   NSW    =      0    number of steps for IOM
   NBLOCK =      1;   KBLOCK =      1    inner block; outer block 
   IBRION =     -1    ionic relax: 0-MD 1-quasi-New 2-CG
   NFREE  =      0    steps in history (QN), initial steepest desc. (CG)
   ISIF   =      2    stress and relaxation
   IWAVPR =     10    prediction:  0-non 1-charg 2-wave 3-comb
   ISYM   =      2    0-nonsym 1-usesym 2-fastsym
   LCORR  =      T    Harris-Foulkes like correction to forces

   POTIM  =   0.50    time-step for ionic-motion
   TEIN   =    0.0    initial temperature
   TEBEG  =    0.0;   TEEND  =   0.0 temperature during run
   SMASS  =  -3.00    Nose mass-parameter (am)
   estimated Nose-frequenzy (Omega)   =  0.10E-29 period in steps =****** mass=  -0.109E-26a.u.
   NPACO  =    256;   APACO  = 16.0  distance and # of slots for P.C.
   PSTRESS=    0.0 pullay stress

  Mass of Ions in am
   POMASS =  63.55
  Ionic Valenz
   ZVAL   =  11.00
  Atomic Wigner-Seitz radii
   RWIGS  =  -1.00
   NELECT =     352.0000    total number of electrons
   NUPDOWN=      -1.0000    fix difference up-down

 DOS related values:
   EMIN   =  10.00;   EMAX   =-10.00  energy-range for DOS
   ISMEAR =     0;   SIGMA  =   0.01  broadening in eV -4-tet -1-fermi 0-gaus

 Electronic relaxation 2 (details)
   IALGO  =     38    algorithm
   LDIAG  =      T    sub-space diagonalisation
   IMIX   =      4    mixing-type and parameters
     AMIX     =   0.40;   BMIX     =  1.00
     AMIX_MAG =   1.60;   BMIX_MAG =  1.00
     AMIN     =   0.10
     WC   =   100.;   INIMIX=   1;  MIXPRE=   1

 Intra band minimization:
   WEIMIN = 0.0000     energy-eigenvalue tresh-hold
   EBREAK =  0.12E-10  absolut break condition
   DEPER  =   0.30     relativ break condition  

   TIME   =   0.10     timestep for ELM

  volume/ion in A,a.u.               =      10.31        69.55
  Fermi-wavevector in a.u.,eV,Ry     =   1.672997 38.081619  2.798920

 Second variation
   LSECVAR=     F    do a second variation
 
 Write flags
   LWAVE  =      F    write WAVECAR
   LCHARG =      F    write CHGCAR
   LVTOT  =      F    write LOCPOT, local potential
   LELF   =      F    write electronic localiz. function (ELF)
   LORBIT =      0    0 simple, 1 ext, 2 COOP (PROOUT)


 Dipole corrections
   IDIPOL =      0    1-x, 2-y, 3-z
   LDIPOL =      F    correct potential



--------------------------------------------------------------------------------------------------------


 Static calculation
 charge density will be updated during run
 non-spin polarized calculation
 Variant of blocked Davidson
 Davidson routine will perform the subspace rotation
 performe sub-space diagonalisation
    after iterative eigenvector-optimisation
 modified Broyden-mixing scheme, WC =      100.0
 initial mixing is a Kerker type mixing with AMIX =  0.4000 and BMIX =      1.0000
 Hartree-type preconditioning will be used
 using additional bands           36
 reciprocal scheme for non local part
 use partial core corrections
 calculate Harris-corrections to forces 
   (improved forces if not selfconsistent)
 use gradient corrections 
 use of overlap-Matrix (Vanderbilt PP)
 Gauss-broadening in eV      SIGMA  =   0.01


--------------------------------------------------------------------------------------------------------


  energy-cutoff  :      750.00
  volume of cell :      329.82
      direct lattice vectors                 reciprocal lattice vectors
     6.909190042  0.000000000  0.000000000     0.144734765  0.000000000  0.000000000
     0.000000000  6.909190042  0.000000000     0.000000000  0.144734765  0.000000000
     0.000000000  0.000000000  6.909190042     0.000000000  0.000000000  0.144734765

  length of vectors
     6.909190042  6.909190042  6.909190042     0.144734765  0.144734765  0.144734765


 
 k-points in units of 2pi/SCALE and weight: Automatic mesh                          
   0.00000000  0.00000000  0.00000000       0.001
   0.01206123  0.00000000  0.00000000       0.001
   0.02412246  0.00000000  0.00000000       0.001
   0.03618369  0.00000000  0.00000000       0.001
   0.04824492  0.00000000  0.00000000       0.001
   0.06030615  0.00000000  0.00000000       0.001
   0.07236738  0.00000000  0.00000000       0.001
   0.00000000  0.01206123  0.00000000       0.002
   0.01206123  0.01206123  0.00000000       0.005
   0.02412246  0.01206123  0.00000000       0.005
   0.03618369  0.01206123  0.00000000       0.005
   0.04824492  0.01206123  0.00000000       0.005
   0.06030615  0.01206123  0.00000000       0.005
   0.07236738  0.01206123  0.00000000       0.002
   0.00000000  0.02412246  0.00000000       0.002
   0.01206123  0.02412246  0.00000000       0.005
   0.02412246  0.02412246  0.00000000       0.005
   0.03618369  0.02412246  0.00000000       0.005
   0.04824492  0.02412246  0.00000000       0.005
   0.06030615  0.02412246  0.00000000       0.005
   0.07236738  0.02412246  0.00000000       0.002
   0.00000000  0.03618369  0.00000000       0.002
   0.01206123  0.03618369  0.00000000       0.005
   0.02412246  0.03618369  0.00000000       0.005
   0.03618369  0.03618369  0.00000000       0.005
   0.04824492  0.03618369  0.00000000       0.005
   0.06030615  0.03618369  0.00000000       0.005
   0.07236738  0.03618369  0.00000000       0.002
   0.00000000  0.04824492  0.00000000       0.002
   0.01206123  0.04824492  0.00000000       0.005
   0.02412246  0.04824492  0.00000000       0.005
   0.03618369  0.04824492  0.00000000       0.005
   0.04824492  0.04824492  0.00000000       0.005
   0.06030615  0.04824492  0.00000000       0.005
   0.07236738  0.04824492  0.00000000       0.002
   0.00000000  0.06030615  0.00000000       0.002
   0.01206123  0.06030615  0.00000000       0.005
   0.02412246  0.06030615  0.00000000       0.005
   0.03618369  0.06030615  0.00000000       0.005
   0.04824492  0.06030615  0.00000000       0.005
   0.06030615  0.06030615  0.00000000       0.005
   0.07236738  0.06030615  0.00000000       0.002
   0.00000000  0.07236738  0.00000000       0.001
   0.01206123  0.07236738  0.00000000       0.002
   0.02412246  0.07236738  0.00000000       0.002
   0.03618369  0.07236738  0.00000000       0.002
   0.04824492  0.07236738  0.00000000       0.002
   0.06030615  0.07236738  0.00000000       0.002
   0.07236738  0.07236738  0.00000000       0.001
   0.00000000  0.01206123  0.01206123       0.002
   0.01206123  0.01206123  0.01206123       0.005
   0.02412246  0.01206123  0.01206123       0.005
   0.03618369  0.01206123  0.01206123       0.005
   0.04824492  0.01206123  0.01206123       0.005
   0.06030615  0.01206123  0.01206123       0.005
   0.07236738  0.01206123  0.01206123       0.002
   0.00000000  0.02412246  0.01206123       0.005
   0.01206123  0.02412246  0.01206123       0.009
   0.02412246  0.02412246  0.01206123       0.009
   0.03618369  0.02412246  0.01206123       0.009
   0.04824492  0.02412246  0.01206123       0.009
   0.06030615  0.02412246  0.01206123       0.009
   0.07236738  0.02412246  0.01206123       0.005
   0.00000000  0.03618369  0.01206123       0.005
   0.01206123  0.03618369  0.01206123       0.009
   0.02412246  0.03618369  0.01206123       0.009
   0.03618369  0.03618369  0.01206123       0.009
   0.04824492  0.03618369  0.01206123       0.009
   0.06030615  0.03618369  0.01206123       0.009
   0.07236738  0.03618369  0.01206123       0.005
   0.00000000  0.04824492  0.01206123       0.005
   0.01206123  0.04824492  0.01206123       0.009
   0.02412246  0.04824492  0.01206123       0.009
   0.03618369  0.04824492  0.01206123       0.009
   0.04824492  0.04824492  0.01206123       0.009
   0.06030615  0.04824492  0.01206123       0.009
   0.07236738  0.04824492  0.01206123       0.005
   0.00000000  0.06030615  0.01206123       0.005
   0.01206123  0.06030615  0.01206123       0.009
   0.02412246  0.06030615  0.01206123       0.009
   0.03618369  0.06030615  0.01206123       0.009
   0.04824492  0.06030615  0.01206123       0.009
   0.06030615  0.06030615  0.01206123       0.009
   0.07236738  0.06030615  0.01206123       0.005
   0.00000000  0.07236738  0.01206123       0.002
   0.01206123  0.07236738  0.01206123       0.005
   0.02412246  0.07236738  0.01206123       0.005
   0.03618369  0.07236738  0.01206123       0.005
   0.04824492  0.07236738  0.01206123       0.005
   0.06030615  0.07236738  0.01206123       0.005
   0.07236738  0.07236738  0.01206123       0.002
   0.00000000  0.02412246  0.02412246       0.002
   0.01206123  0.02412246  0.02412246       0.005
   0.02412246  0.02412246  0.02412246       0.005
   0.03618369  0.02412246  0.02412246       0.005
   0.04824492  0.02412246  0.02412246       0.005
   0.06030615  0.02412246  0.02412246       0.005
   0.07236738  0.02412246  0.02412246       0.002
   0.00000000  0.03618369  0.02412246       0.005
   0.01206123  0.03618369  0.02412246       0.009
   0.02412246  0.03618369  0.02412246       0.009
   0.03618369  0.03618369  0.02412246       0.009
   0.04824492  0.03618369  0.02412246       0.009
   0.06030615  0.03618369  0.02412246       0.009
   0.07236738  0.03618369  0.02412246       0.005
   0.00000000  0.04824492  0.02412246       0.005
   0.01206123  0.04824492  0.02412246       0.009
   0.02412246  0.04824492  0.02412246       0.009
   0.03618369  0.04824492  0.02412246       0.009
   0.04824492  0.04824492  0.02412246       0.009
   0.06030615  0.04824492  0.02412246       0.009
   0.07236738  0.04824492  0.02412246       0.005
   0.00000000  0.06030615  0.02412246       0.005
   0.01206123  0.06030615  0.02412246       0.009
   0.02412246  0.06030615  0.02412246       0.009
   0.03618369  0.06030615  0.02412246       0.009
   0.04824492  0.06030615  0.02412246       0.009
   0.06030615  0.06030615  0.02412246       0.009
   0.07236738  0.06030615  0.02412246       0.005
   0.00000000  0.07236738  0.02412246       0.002
   0.01206123  0.07236738  0.02412246       0.005
   0.02412246  0.07236738  0.02412246       0.005
   0.03618369  0.07236738  0.02412246       0.005
   0.04824492  0.07236738  0.02412246       0.005
   0.06030615  0.07236738  0.02412246       0.005
   0.07236738  0.07236738  0.02412246       0.002
   0.00000000  0.03618369  0.03618369       0.002
   0.01206123  0.03618369  0.03618369       0.005
   0.02412246  0.03618369  0.03618369       0.005
   0.03618369  0.03618369  0.03618369       0.005
   0.04824492  0.03618369  0.03618369       0.005
   0.06030615  0.03618369  0.03618369       0.005
   0.07236738  0.03618369  0.03618369       0.002
   0.00000000  0.04824492  0.03618369       0.005
   0.01206123  0.04824492  0.03618369       0.009
   0.02412246  0.04824492  0.03618369       0.009
   0.03618369  0.04824492  0.03618369       0.009
   0.04824492  0.04824492  0.03618369       0.009
   0.06030615  0.04824492  0.03618369       0.009
   0.07236738  0.04824492  0.03618369       0.005
   0.00000000  0.06030615  0.03618369       0.005
   0.01206123  0.06030615  0.03618369       0.009
   0.02412246  0.06030615  0.03618369       0.009
   0.03618369  0.06030615  0.03618369       0.009
   0.04824492  0.06030615  0.03618369       0.009
   0.06030615  0.06030615  0.03618369       0.009
   0.07236738  0.06030615  0.03618369       0.005
   0.00000000  0.07236738  0.03618369       0.002
   0.01206123  0.07236738  0.03618369       0.005
   0.02412246  0.07236738  0.03618369       0.005
   0.03618369  0.07236738  0.03618369       0.005
   0.04824492  0.07236738  0.03618369       0.005
   0.06030615  0.07236738  0.03618369       0.005
   0.07236738  0.07236738  0.03618369       0.002
   0.00000000  0.04824492  0.04824492       0.002
   0.01206123  0.04824492  0.04824492       0.005
   0.02412246  0.04824492  0.04824492       0.005
   0.03618369  0.04824492  0.04824492       0.005
   0.04824492  0.04824492  0.04824492       0.005
   0.06030615  0.04824492  0.04824492       0.005
   0.07236738  0.04824492  0.04824492       0.002
   0.00000000  0.06030615  0.04824492       0.005
   0.01206123  0.06030615  0.04824492       0.009
   0.02412246  0.06030615  0.04824492       0.009
   0.03618369  0.06030615  0.04824492       0.009
   0.04824492  0.06030615  0.04824492       0.009
   0.06030615  0.06030615  0.04824492       0.009
   0.07236738  0.06030615  0.04824492       0.005
   0.00000000  0.07236738  0.04824492       0.002
   0.01206123  0.07236738  0.04824492       0.005
   0.02412246  0.07236738  0.04824492       0.005
   0.03618369  0.07236738  0.04824492       0.005
   0.04824492  0.07236738  0.04824492       0.005
   0.06030615  0.07236738  0.04824492       0.005
   0.07236738  0.07236738  0.04824492       0.002
   0.00000000  0.06030615  0.06030615       0.002
   0.01206123  0.06030615  0.06030615       0.005
   0.02412246  0.06030615  0.06030615       0.005
   0.03618369  0.06030615  0.06030615       0.005
   0.04824492  0.06030615  0.06030615       0.005
   0.06030615  0.06030615  0.06030615       0.005
   0.07236738  0.06030615  0.06030615       0.002
   0.00000000  0.07236738  0.06030615       0.002
   0.01206123  0.07236738  0.06030615       0.005
   0.02412246  0.07236738  0.06030615       0.005
   0.03618369  0.07236738  0.06030615       0.005
   0.04824492  0.07236738  0.06030615       0.005
   0.06030615  0.07236738  0.06030615       0.005
   0.07236738  0.07236738  0.06030615       0.002
   0.00000000  0.07236738  0.07236738       0.001
   0.01206123  0.07236738  0.07236738       0.001
   0.02412246  0.07236738  0.07236738       0.001
   0.03618369  0.07236738  0.07236738       0.001
   0.04824492  0.07236738  0.07236738       0.001
   0.06030615  0.07236738  0.07236738       0.001
   0.07236738  0.07236738  0.07236738       0.001
 
 k-points in reciprocal lattice and weights: Automatic mesh                          
   0.00000000  0.00000000  0.00000000       0.001
   0.08333333  0.00000000  0.00000000       0.001
   0.16666667  0.00000000  0.00000000       0.001
   0.25000000  0.00000000  0.00000000       0.001
   0.33333333  0.00000000  0.00000000       0.001
   0.41666667  0.00000000  0.00000000       0.001
   0.50000000  0.00000000  0.00000000       0.001
   0.00000000  0.08333333  0.00000000       0.002
   0.08333333  0.08333333  0.00000000       0.005
   0.16666667  0.08333333  0.00000000       0.005
   0.25000000  0.08333333  0.00000000       0.005
   0.33333333  0.08333333  0.00000000       0.005
   0.41666667  0.08333333  0.00000000       0.005
   0.50000000  0.08333333  0.00000000       0.002
   0.00000000  0.16666667  0.00000000       0.002
   0.08333333  0.16666667  0.00000000       0.005
   0.16666667  0.16666667  0.00000000       0.005
   0.25000000  0.16666667  0.00000000       0.005
   0.33333333  0.16666667  0.00000000       0.005
   0.41666667  0.16666667  0.00000000       0.005
   0.50000000  0.16666667  0.00000000       0.002
   0.00000000  0.25000000  0.00000000       0.002
   0.08333333  0.25000000  0.00000000       0.005
   0.16666667  0.25000000  0.00000000       0.005
   0.25000000  0.25000000  0.00000000       0.005
   0.33333333  0.25000000  0.00000000       0.005
   0.41666667  0.25000000  0.00000000       0.005
   0.50000000  0.25000000  0.00000000       0.002
   0.00000000  0.33333333  0.00000000       0.002
   0.08333333  0.33333333  0.00000000       0.005
   0.16666667  0.33333333  0.00000000       0.005
   0.25000000  0.33333333  0.00000000       0.005
   0.33333333  0.33333333  0.00000000       0.005
   0.41666667  0.33333333  0.00000000       0.005
   0.50000000  0.33333333  0.00000000       0.002
   0.00000000  0.41666667  0.00000000       0.002
   0.08333333  0.41666667  0.00000000       0.005
   0.16666667  0.41666667  0.00000000       0.005
   0.25000000  0.41666667  0.00000000       0.005
   0.33333333  0.41666667  0.00000000       0.005
   0.41666667  0.41666667  0.00000000       0.005
   0.50000000  0.41666667  0.00000000       0.002
   0.00000000  0.50000000  0.00000000       0.001
   0.08333333  0.50000000  0.00000000       0.002
   0.16666667  0.50000000  0.00000000       0.002
   0.25000000  0.50000000  0.00000000       0.002
   0.33333333  0.50000000  0.00000000       0.002
   0.41666667  0.50000000  0.00000000       0.002
   0.50000000  0.50000000  0.00000000       0.001
   0.00000000  0.08333333  0.08333333       0.002
   0.08333333  0.08333333  0.08333333       0.005
   0.16666667  0.08333333  0.08333333       0.005
   0.25000000  0.08333333  0.08333333       0.005
   0.33333333  0.08333333  0.08333333       0.005
   0.41666667  0.08333333  0.08333333       0.005
   0.50000000  0.08333333  0.08333333       0.002
   0.00000000  0.16666667  0.08333333       0.005
   0.08333333  0.16666667  0.08333333       0.009
   0.16666667  0.16666667  0.08333333       0.009
   0.25000000  0.16666667  0.08333333       0.009
   0.33333333  0.16666667  0.08333333       0.009
   0.41666667  0.16666667  0.08333333       0.009
   0.50000000  0.16666667  0.08333333       0.005
   0.00000000  0.25000000  0.08333333       0.005
   0.08333333  0.25000000  0.08333333       0.009
   0.16666667  0.25000000  0.08333333       0.009
   0.25000000  0.25000000  0.08333333       0.009
   0.33333333  0.25000000  0.08333333       0.009
   0.41666667  0.25000000  0.08333333       0.009
   0.50000000  0.25000000  0.08333333       0.005
   0.00000000  0.33333333  0.08333333       0.005
   0.08333333  0.33333333  0.08333333       0.009
   0.16666667  0.33333333  0.08333333       0.009
   0.25000000  0.33333333  0.08333333       0.009
   0.33333333  0.33333333  0.08333333       0.009
   0.41666667  0.33333333  0.08333333       0.009
   0.50000000  0.33333333  0.08333333       0.005
   0.00000000  0.41666667  0.08333333       0.005
   0.08333333  0.41666667  0.08333333       0.009
   0.16666667  0.41666667  0.08333333       0.009
   0.25000000  0.41666667  0.08333333       0.009
   0.33333333  0.41666667  0.08333333       0.009
   0.41666667  0.41666667  0.08333333       0.009
   0.50000000  0.41666667  0.08333333       0.005
   0.00000000  0.50000000  0.08333333       0.002
   0.08333333  0.50000000  0.08333333       0.005
   0.16666667  0.50000000  0.08333333       0.005
   0.25000000  0.50000000  0.08333333       0.005
   0.33333333  0.50000000  0.08333333       0.005
   0.41666667  0.50000000  0.08333333       0.005
   0.50000000  0.50000000  0.08333333       0.002
   0.00000000  0.16666667  0.16666667       0.002
   0.08333333  0.16666667  0.16666667       0.005
   0.16666667  0.16666667  0.16666667       0.005
   0.25000000  0.16666667  0.16666667       0.005
   0.33333333  0.16666667  0.16666667       0.005
   0.41666667  0.16666667  0.16666667       0.005
   0.50000000  0.16666667  0.16666667       0.002
   0.00000000  0.25000000  0.16666667       0.005
   0.08333333  0.25000000  0.16666667       0.009
   0.16666667  0.25000000  0.16666667       0.009
   0.25000000  0.25000000  0.16666667       0.009
   0.33333333  0.25000000  0.16666667       0.009
   0.41666667  0.25000000  0.16666667       0.009
   0.50000000  0.25000000  0.16666667       0.005
   0.00000000  0.33333333  0.16666667       0.005
   0.08333333  0.33333333  0.16666667       0.009
   0.16666667  0.33333333  0.16666667       0.009
   0.25000000  0.33333333  0.16666667       0.009
   0.33333333  0.33333333  0.16666667       0.009
   0.41666667  0.33333333  0.16666667       0.009
   0.50000000  0.33333333  0.16666667       0.005
   0.00000000  0.41666667  0.16666667       0.005
   0.08333333  0.41666667  0.16666667       0.009
   0.16666667  0.41666667  0.16666667       0.009
   0.25000000  0.41666667  0.16666667       0.009
   0.33333333  0.41666667  0.16666667       0.009
   0.41666667  0.41666667  0.16666667       0.009
   0.50000000  0.41666667  0.16666667       0.005
   0.00000000  0.50000000  0.16666667       0.002
   0.08333333  0.50000000  0.16666667       0.005
   0.16666667  0.50000000  0.16666667       0.005
   0.25000000  0.50000000  0.16666667       0.005
   0.33333333  0.50000000  0.16666667       0.005
   0.41666667  0.50000000  0.16666667       0.005
   0.50000000  0.50000000  0.16666667       0.002
   0.00000000  0.25000000  0.25000000       0.002
   0.08333333  0.25000000  0.25000000       0.005
   0.16666667  0.25000000  0.25000000       0.005
   0.25000000  0.25000000  0.25000000       0.005
   0.33333333  0.25000000  0.25000000       0.005
   0.41666667  0.25000000  0.25000000       0.005
   0.50000000  0.25000000  0.25000000       0.002
   0.00000000  0.33333333  0.25000000       0.005
   0.08333333  0.33333333  0.25000000       0.009
   0.16666667  0.33333333  0.25000000       0.009
   0.25000000  0.33333333  0.25000000       0.009
   0.33333333  0.33333333  0.25000000       0.009
   0.41666667  0.33333333  0.25000000       0.009
   0.50000000  0.33333333  0.25000000       0.005
   0.00000000  0.41666667  0.25000000       0.005
   0.08333333  0.41666667  0.25000000       0.009
   0.16666667  0.41666667  0.25000000       0.009
   0.25000000  0.41666667  0.25000000       0.009
   0.33333333  0.41666667  0.25000000       0.009
   0.41666667  0.41666667  0.25000000       0.009
   0.50000000  0.41666667  0.25000000       0.005
   0.00000000  0.50000000  0.25000000       0.002
   0.08333333  0.50000000  0.25000000       0.005
   0.16666667  0.50000000  0.25000000       0.005
   0.25000000  0.50000000  0.25000000       0.005
   0.33333333  0.50000000  0.25000000       0.005
   0.41666667  0.50000000  0.25000000       0.005
   0.50000000  0.50000000  0.25000000       0.002
   0.00000000  0.33333333  0.33333333       0.002
   0.08333333  0.33333333  0.33333333       0.005
   0.16666667  0.33333333  0.33333333       0.005
   0.25000000  0.33333333  0.33333333       0.005
   0.33333333  0.33333333  0.33333333       0.005
   0.41666667  0.33333333  0.33333333       0.005
   0.50000000  0.33333333  0.33333333       0.002
   0.00000000  0.41666667  0.33333333       0.005
   0.08333333  0.41666667  0.33333333       0.009
   0.16666667  0.41666667  0.33333333       0.009
   0.25000000  0.41666667  0.33333333       0.009
   0.33333333  0.41666667  0.33333333       0.009
   0.41666667  0.41666667  0.33333333       0.009
   0.50000000  0.41666667  0.33333333       0.005
   0.00000000  0.50000000  0.33333333       0.002
   0.08333333  0.50000000  0.33333333       0.005
   0.16666667  0.50000000  0.33333333       0.005
   0.25000000  0.50000000  0.33333333       0.005
   0.33333333  0.50000000  0.33333333       0.005
   0.41666667  0.50000000  0.33333333       0.005
   0.50000000  0.50000000  0.33333333       0.002
   0.00000000  0.41666667  0.41666667       0.002
   0.08333333  0.41666667  0.41666667       0.005
   0.16666667  0.41666667  0.41666667       0.005
   0.25000000  0.41666667  0.41666667       0.005
   0.33333333  0.41666667  0.41666667       0.005
   0.41666667  0.41666667  0.41666667       0.005
   0.50000000  0.41666667  0.41666667       0.002
   0.00000000  0.50000000  0.41666667       0.002
   0.08333333  0.50000000  0.41666667       0.005
   0.16666667  0.50000000  0.41666667       0.005
   0.25000000  0.50000000  0.41666667       0.005
   0.33333333  0.50000000  0.41666667       0.005
   0.41666667  0.50000000  0.41666667       0.005
   0.50000000  0.50000000  0.41666667       0.002
   0.00000000  0.50000000  0.50000000       0.001
   0.08333333  0.50000000  0.50000000       0.001
   0.16666667  0.50000000  0.50000000       0.001
   0.25000000  0.50000000  0.50000000       0.001
   0.33333333  0.50000000  0.50000000       0.001
   0.41666667  0.50000000  0.50000000       0.001
   0.50000000  0.50000000  0.50000000       0.001
 
 position of ions in fractional coordinates (direct lattice) 
   0.00144735  0.00000000  0.00000000
   0.50000000  0.00000000  0.00000000
   0.00000000  0.50000000  0.00000000
   0.50000000  0.50000000  0.00000000
   0.00000000  0.00000000  0.50000000
   0.50000000  0.00000000  0.50000000
   0.00000000  0.50000000  0.50000000
   0.50000000  0.50000000  0.50000000
   0.25000000  0.25000000  0.00000000
   0.75000000  0.25000000  0.00000000
   0.25000000  0.75000000  0.00000000
   0.75000000  0.75000000  0.00000000
   0.25000000  0.25000000  0.50000000
   0.75000000  0.25000000  0.50000000
   0.25000000  0.75000000  0.50000000
   0.75000000  0.75000000  0.50000000
   0.25000000  0.00000000  0.25000000
   0.75000000  0.00000000  0.25000000
   0.25000000  0.50000000  0.25000000
   0.75000000  0.50000000  0.25000000
   0.25000000  0.00000000  0.75000000
   0.75000000  0.00000000  0.75000000
   0.25000000  0.50000000  0.75000000
   0.75000000  0.50000000  0.75000000
   0.00000000  0.25000000  0.25000000
   0.50000000  0.25000000  0.25000000
   0.00000000  0.75000000  0.25000000
   0.50000000  0.75000000  0.25000000
   0.00000000  0.25000000  0.75000000
   0.50000000  0.25000000  0.75000000
   0.00000000  0.75000000  0.75000000
   0.50000000  0.75000000  0.75000000
 
 position of ions in cartesian coordinates  (Angst):
   0.01000000  0.00000000  0.00000000
   3.45459502  0.00000000  0.00000000
   0.00000000  3.45459502  0.00000000
   3.45459502  3.45459502  0.00000000
   0.00000000  0.00000000  3.45459502
   3.45459502  0.00000000  3.45459502
   0.00000000  3.45459502  3.45459502
   3.45459502  3.45459502  3.45459502
   1.72729751  1.72729751  0.00000000
   5.18189253  1.72729751  0.00000000
   1.72729751  5.18189253  0.00000000
   5.18189253  5.18189253  0.00000000
   1.72729751  1.72729751  3.45459502
   5.18189253  1.72729751  3.45459502
   1.72729751  5.18189253  3.45459502
   5.18189253  5.18189253  3.45459502
   1.72729751  0.00000000  1.72729751
   5.18189253  0.00000000  1.72729751
   1.72729751  3.45459502  1.72729751
   5.18189253  3.45459502  1.72729751
   1.72729751  0.00000000  5.18189253
   5.18189253  0.00000000  5.18189253
   1.72729751  3.45459502  5.18189253
   5.18189253  3.45459502  5.18189253
   0.00000000  1.72729751  1.72729751
   3.45459502  1.72729751  1.72729751
   0.00000000  5.18189253  1.72729751
   3.45459502  5.18189253  1.72729751
   0.00000000  1.72729751  5.18189253
   3.45459502  1.72729751  5.18189253
   0.00000000  5.18189253  5.18189253
   3.45459502  5.18189253  5.18189253
 


--------------------------------------------------------------------------------------------------------


 k-point  1 :  0.00000.00000.0000  plane waves:  15515
 k-point  2 :  0.08330.00000.0000  plane waves:  15419
 k-point  3 :  0.16670.00000.0000  plane waves:  15415
 k-point  4 :  0.25000.00000.0000  plane waves:  15355
 k-point  5 :  0.33330.00000.0000  plane waves:  15375
 k-point  6 :  0.41670.00000.0000  plane waves:  15419
 k-point  7 :  0.50000.00000.0000  plane waves:  15366
 k-point  8 :  0.00000.08330.0000  plane waves:  15419
 k-point  9 :  0.08330.08330.0000  plane waves:  15415
 k-point 10 :  0.16670.08330.0000  plane waves:  15398
 k-point 11 :  0.25000.08330.0000  plane waves:  15390
 k-point 12 :  0.33330.08330.0000  plane waves:  15396
 k-point 13 :  0.41670.08330.0000  plane waves:  15404
 k-point 14 :  0.50000.08330.0000  plane waves:  15404
 k-point 15 :  0.00000.16670.0000  plane waves:  15415
 k-point 16 :  0.08330.16670.0000  plane waves:  15398
 k-point 17 :  0.16670.16670.0000  plane waves:  15376
 k-point 18 :  0.25000.16670.0000  plane waves:  15386
 k-point 19 :  0.33330.16670.0000  plane waves:  15384
 k-point 20 :  0.41670.16670.0000  plane waves:  15384
 k-point 21 :  0.50000.16670.0000  plane waves:  15416
 k-point 22 :  0.00000.25000.0000  plane waves:  15355
 k-point 23 :  0.08330.25000.0000  plane waves:  15390
 k-point 24 :  0.16670.25000.0000  plane waves:  15386
 k-point 25 :  0.25000.25000.0000  plane waves:  15372
 k-point 26 :  0.33330.25000.0000  plane waves:  15390
 k-point 27 :  0.41670.25000.0000  plane waves:  15363
 k-point 28 :  0.50000.25000.0000  plane waves:  15372
 k-point 29 :  0.00000.33330.0000  plane waves:  15375
 k-point 30 :  0.08330.33330.0000  plane waves:  15396
 k-point 31 :  0.16670.33330.0000  plane waves:  15384
 k-point 32 :  0.25000.33330.0000  plane waves:  15390
 k-point 33 :  0.33330.33330.0000  plane waves:  15414
 k-point 34 :  0.41670.33330.0000  plane waves:  15375
 k-point 35 :  0.50000.33330.0000  plane waves:  15386
 k-point 36 :  0.00000.41670.0000  plane waves:  15419
 k-point 37 :  0.08330.41670.0000  plane waves:  15404
 k-point 38 :  0.16670.41670.0000  plane waves:  15384
 k-point 39 :  0.25000.41670.0000  plane waves:  15363
 k-point 40 :  0.33330.41670.0000  plane waves:  15375
 k-point 41 :  0.41670.41670.0000  plane waves:  15378
 k-point 42 :  0.50000.41670.0000  plane waves:  15370
 k-point 43 :  0.00000.50000.0000  plane waves:  15366
 k-point 44 :  0.08330.50000.0000  plane waves:  15404
 k-point 45 :  0.16670.50000.0000  plane waves:  15416
 k-point 46 :  0.25000.50000.0000  plane waves:  15372
 k-point 47 :  0.33330.50000.0000  plane waves:  15386
 k-point 48 :  0.41670.50000.0000  plane waves:  15370
 k-point 49 :  0.50000.50000.0000  plane waves:  15380
 k-point 50 :  0.00000.08330.0833  plane waves:  15415
 k-point 51 :  0.08330.08330.0833  plane waves:  15419
 k-point 52 :  0.16670.08330.0833  plane waves:  15391
 k-point 53 :  0.25000.08330.0833  plane waves:  15389
 k-point 54 :  0.33330.08330.0833  plane waves:  15385
 k-point 55 :  0.41670.08330.0833  plane waves:  15407
 k-point 56 :  0.50000.08330.0833  plane waves:  15388
 k-point 57 :  0.00000.16670.0833  plane waves:  15398
 k-point 58 :  0.08330.16670.0833  plane waves:  15391
 k-point 59 :  0.16670.16670.0833  plane waves:  15391
 k-point 60 :  0.25000.16670.0833  plane waves:  15385
 k-point 61 :  0.33330.16670.0833  plane waves:  15390
 k-point 62 :  0.41670.16670.0833  plane waves:  15378
 k-point 63 :  0.50000.16670.0833  plane waves:  15388
 k-point 64 :  0.00000.25000.0833  plane waves:  15390
 k-point 65 :  0.08330.25000.0833  plane waves:  15389
 k-point 66 :  0.16670.25000.0833  plane waves:  15385
 k-point 67 :  0.25000.25000.0833  plane waves:  15394
 k-point 68 :  0.33330.25000.0833  plane waves:  15387
 k-point 69 :  0.41670.25000.0833  plane waves:  15374
 k-point 70 :  0.50000.25000.0833  plane waves:  15398
 k-point 71 :  0.00000.33330.0833  plane waves:  15396
 k-point 72 :  0.08330.33330.0833  plane waves:  15385
 k-point 73 :  0.16670.33330.0833  plane waves:  15390
 k-point 74 :  0.25000.33330.0833  plane waves:  15387
 k-point 75 :  0.33330.33330.0833  plane waves:  15381
 k-point 76 :  0.41670.33330.0833  plane waves:  15384
 k-point 77 :  0.50000.33330.0833  plane waves:  15380
 k-point 78 :  0.00000.41670.0833  plane waves:  15404
 k-point 79 :  0.08330.41670.0833  plane waves:  15407
 k-point 80 :  0.16670.41670.0833  plane waves:  15378
 k-point 81 :  0.25000.41670.0833  plane waves:  15374
 k-point 82 :  0.33330.41670.0833  plane waves:  15384
 k-point 83 :  0.41670.41670.0833  plane waves:  15399
 k-point 84 :  0.50000.41670.0833  plane waves:  15364
 k-point 85 :  0.00000.50000.0833  plane waves:  15404
 k-point 86 :  0.08330.50000.0833  plane waves:  15388
 k-point 87 :  0.16670.50000.0833  plane waves:  15388
 k-point 88 :  0.25000.50000.0833  plane waves:  15398
 k-point 89 :  0.33330.50000.0833  plane waves:  15380
 k-point 90 :  0.41670.50000.0833  plane waves:  15364
 k-point 91 :  0.50000.50000.0833  plane waves:  15356
 k-point 92 :  0.00000.16670.1667  plane waves:  15376
 k-point 93 :  0.08330.16670.1667  plane waves:  15391
 k-point 94 :  0.16670.16670.1667  plane waves:  15339
 k-point 95 :  0.25000.16670.1667  plane waves:  15384
 k-point 96 :  0.33330.16670.1667  plane waves:  15384
 k-point 97 :  0.41670.16670.1667  plane waves:  15386
 k-point 98 :  0.50000.16670.1667  plane waves:  15388
 k-point 99 :  0.00000.25000.1667  plane waves:  15386
 k-point ** :  0.08330.25000.1667  plane waves:  15385
 k-point ** :  0.16670.25000.1667  plane waves:  15384
 k-point ** :  0.25000.25000.1667  plane waves:  15400
 k-point ** :  0.33330.25000.1667  plane waves:  15386
 k-point ** :  0.41670.25000.1667  plane waves:  15387
 k-point ** :  0.50000.25000.1667  plane waves:  15382
 k-point ** :  0.00000.33330.1667  plane waves:  15384
 k-point ** :  0.08330.33330.1667  plane waves:  15390
 k-point ** :  0.16670.33330.1667  plane waves:  15384
 k-point ** :  0.25000.33330.1667  plane waves:  15386
 k-point ** :  0.33330.33330.1667  plane waves:  15379
 k-point ** :  0.41670.33330.1667  plane waves:  15382
 k-point ** :  0.50000.33330.1667  plane waves:  15368
 k-point ** :  0.00000.41670.1667  plane waves:  15384
 k-point ** :  0.08330.41670.1667  plane waves:  15378
 k-point ** :  0.16670.41670.1667  plane waves:  15386
 k-point ** :  0.25000.41670.1667  plane waves:  15387
 k-point ** :  0.33330.41670.1667  plane waves:  15382
 k-point ** :  0.41670.41670.1667  plane waves:  15365
 k-point ** :  0.50000.41670.1667  plane waves:  15370
 k-point ** :  0.00000.50000.1667  plane waves:  15416
 k-point ** :  0.08330.50000.1667  plane waves:  15388
 k-point ** :  0.16670.50000.1667  plane waves:  15388
 k-point ** :  0.25000.50000.1667  plane waves:  15382
 k-point ** :  0.33330.50000.1667  plane waves:  15368
 k-point ** :  0.41670.50000.1667  plane waves:  15370
 k-point ** :  0.50000.50000.1667  plane waves:  15372
 k-point ** :  0.00000.25000.2500  plane waves:  15372
 k-point ** :  0.08330.25000.2500  plane waves:  15394
 k-point ** :  0.16670.25000.2500  plane waves:  15400
 k-point ** :  0.25000.25000.2500  plane waves:  15390
 k-point ** :  0.33330.25000.2500  plane waves:  15379
 k-point ** :  0.41670.25000.2500  plane waves:  15382
 k-point ** :  0.50000.25000.2500  plane waves:  15412
 k-point ** :  0.00000.33330.2500  plane waves:  15390
 k-point ** :  0.08330.33330.2500  plane waves:  15387
 k-point ** :  0.16670.33330.2500  plane waves:  15386
 k-point ** :  0.25000.33330.2500  plane waves:  15379
 k-point ** :  0.33330.33330.2500  plane waves:  15371
 k-point ** :  0.41670.33330.2500  plane waves:  15385
 k-point ** :  0.50000.33330.2500  plane waves:  15378
 k-point ** :  0.00000.41670.2500  plane waves:  15363
 k-point ** :  0.08330.41670.2500  plane waves:  15374
 k-point ** :  0.16670.41670.2500  plane waves:  15387
 k-point ** :  0.25000.41670.2500  plane waves:  15382
 k-point ** :  0.33330.41670.2500  plane waves:  15385
 k-point ** :  0.41670.41670.2500  plane waves:  15359
 k-point ** :  0.50000.41670.2500  plane waves:  15376
 k-point ** :  0.00000.50000.2500  plane waves:  15372
 k-point ** :  0.08330.50000.2500  plane waves:  15398
 k-point ** :  0.16670.50000.2500  plane waves:  15382
 k-point ** :  0.25000.50000.2500  plane waves:  15412
 k-point ** :  0.33330.50000.2500  plane waves:  15378
 k-point ** :  0.41670.50000.2500  plane waves:  15376
 k-point ** :  0.50000.50000.2500  plane waves:  15324
 k-point ** :  0.00000.33330.3333  plane waves:  15414
 k-point ** :  0.08330.33330.3333  plane waves:  15381
 k-point ** :  0.16670.33330.3333  plane waves:  15379
 k-point ** :  0.25000.33330.3333  plane waves:  15371
 k-point ** :  0.33330.33330.3333  plane waves:  15399
 k-point ** :  0.41670.33330.3333  plane waves:  15365
 k-point ** :  0.50000.33330.3333  plane waves:  15366
 k-point ** :  0.00000.41670.3333  plane waves:  15375
 k-point ** :  0.08330.41670.3333  plane waves:  15384
 k-point ** :  0.16670.41670.3333  plane waves:  15382
 k-point ** :  0.25000.41670.3333  plane waves:  15385
 k-point ** :  0.33330.41670.3333  plane waves:  15365
 k-point ** :  0.41670.41670.3333  plane waves:  15359
 k-point ** :  0.50000.41670.3333  plane waves:  15340
 k-point ** :  0.00000.50000.3333  plane waves:  15386
 k-point ** :  0.08330.50000.3333  plane waves:  15380
 k-point ** :  0.16670.50000.3333  plane waves:  15368
 k-point ** :  0.25000.50000.3333  plane waves:  15378
 k-point ** :  0.33330.50000.3333  plane waves:  15366
 k-point ** :  0.41670.50000.3333  plane waves:  15340
 k-point ** :  0.50000.50000.3333  plane waves:  15352
 k-point ** :  0.00000.41670.4167  plane waves:  15378
 k-point ** :  0.08330.41670.4167  plane waves:  15399
 k-point ** :  0.16670.41670.4167  plane waves:  15365
 k-point ** :  0.25000.41670.4167  plane waves:  15359
 k-point ** :  0.33330.41670.4167  plane waves:  15359
 k-point ** :  0.41670.41670.4167  plane waves:  15342
 k-point ** :  0.50000.41670.4167  plane waves:  15316
 k-point ** :  0.00000.50000.4167  plane waves:  15370
 k-point ** :  0.08330.50000.4167  plane waves:  15364
 k-point ** :  0.16670.50000.4167  plane waves:  15370
 k-point ** :  0.25000.50000.4167  plane waves:  15376
 k-point ** :  0.33330.50000.4167  plane waves:  15340
 k-point ** :  0.41670.50000.4167  plane waves:  15316
 k-point ** :  0.50000.50000.4167  plane waves:  15328
 k-point ** :  0.00000.50000.5000  plane waves:  15380
 k-point ** :  0.08330.50000.5000  plane waves:  15356
 k-point ** :  0.16670.50000.5000  plane waves:  15372
 k-point ** :  0.25000.50000.5000  plane waves:  15324
 k-point ** :  0.33330.50000.5000  plane waves:  15352
 k-point ** :  0.41670.50000.5000  plane waves:  15328
 k-point ** :  0.50000.50000.5000  plane waves:  15312

 maximum and minimum number of plane-waves per node :  15515 15312

 maximum number of plane-waves:  15515
 maximal index in each direction: 
   IXMAX= 15   IYMAX= 15   IZMAX= 15
   IXMIN=-15   IYMIN=-15   IZMIN=-15

 NGX is ok and might be reduce to  62
 NGY is ok and might be reduce to  62
 NGZ is ok and might be reduce to  62

 parallel 3dFFT wavefunction:
    minimum data exchange during FFTs selected (reduces bandwidth)
 parallel 3dFFT charge:
    minimum data exchange during FFTs selected (reduces bandwidth)

 For storing wavefunctions ******* MBYTES are necessary
 For predicting wavefunctions  114.46 MBYTES are necessary
Broyden mixing: mesh for mixing (old mesh)
   NGX = 31   NGY = 31   NGZ = 31
  (NGX  =128   NGY  =128   NGZ  =128)
 gives a total of  29791 points
 initial charge density was supplied:
 charge density of overlapping atoms calculated
 number of electron  352.0000000 magnetization 
 keeping initial charge density in first step


--------------------------------------------------------------------------------------------------------


 Maximum index for augmentation-charges        54295 (set IRDMAX)


--------------------------------------------------------------------------------------------------------


 First call to EWALD:  gamma=   0.257
 Maximum number of real-space cells 3x 3x 3
 Maximum number of reciprocal cells 3x 3x 3

    FEWALD:  VPU time    0.01: CPU time    0.01


----------------------------------------- Iteration    1(   1)  ---------------------------------------


    POTLOK:  VPU time    0.77: CPU time    0.78
    SETDIJ:  VPU time    1.99: CPU time    1.99
    EDDAV :  VPU time 4471.07: CPU time 4474.27
    DOS   :  VPU time    0.00: CPU time   -0.00
    ------------------------------------------
      LOOP:  VPU time 4474.19: CPU time 4477.39

 eigenvalue-minimisations  : 83176
 total energy-change (2. order) : 0.4198499E+04  (-0.1851893E+05)
 number of electron  352.0000000 magnetization 
 augmentation part   352.0000000 magnetization 

 Free energy of the ion-electron system (eV)
  ---------------------------------------------------
  alpha Z        PSCENC =      3966.63238079
  Ewald energy   TEWEN  =    -36999.01884143
  -1/2 Hartree   DENC   =     -9600.38057519
  -V(xc)+E(xc)   XCENC  =      1418.11670783
  PAW double counting   =     34625.67335558   -39234.46421604
  entropy T*S    EENTRO =        -0.00008488
  eigenvalues    EBANDS =      5510.60017501
  atomic energy  EATOM  =     44511.34040493
  ---------------------------------------------------
  free energy    TOTEN  =      4198.49930660 eV

  energy without entropy =     4198.49939149  energy(sigma->0) =     4198.49934905


--------------------------------------------------------------------------------------------------------




----------------------------------------- Iteration    1(   2)  ---------------------------------------


    EDDAV :  VPU time 4523.68: CPU time 4526.72
    DOS   :  VPU time    0.00: CPU time   -0.00
    ------------------------------------------
      LOOP:  VPU time 4524.04: CPU time 4527.08

 eigenvalue-minimisations  : 83104
 total energy-change (2. order) :-0.3658132E+04  (-0.3515931E+04)
 number of electron  352.0000000 magnetization 
 augmentation part   352.0000000 magnetization 

 Free energy of the ion-electron system (eV)
  ---------------------------------------------------
  alpha Z        PSCENC =      3966.63238079
  Ewald energy   TEWEN  =    -36999.01884143
  -1/2 Hartree   DENC   =     -9600.38057519
  -V(xc)+E(xc)   XCENC  =      1418.11670783
  PAW double counting   =     34625.67335558   -39234.46421604
  entropy T*S    EENTRO =        -0.00028889
  eigenvalues    EBANDS =      1852.46807516
  atomic energy  EATOM  =     44511.34040493
  ---------------------------------------------------
  free energy    TOTEN  =       540.36700274 eV

  energy without entropy =      540.36729163  energy(sigma->0) =      540.36714718


--------------------------------------------------------------------------------------------------------




----------------------------------------- Iteration    1(   3)  ---------------------------------------


    EDDAV :  VPU time 4523.45: CPU time 4529.88
    DOS   :  VPU time    0.00: CPU time   -0.00
    ------------------------------------------
      LOOP:  VPU time 4523.81: CPU time 4530.24

 eigenvalue-minimisations  : 83104
 total energy-change (2. order) :-0.6363841E+03  (-0.5893263E+03)
 number of electron  352.0000000 magnetization 
 augmentation part   352.0000000 magnetization 

 Free energy of the ion-electron system (eV)
  ---------------------------------------------------
  alpha Z        PSCENC =      3966.63238079
  Ewald energy   TEWEN  =    -36999.01884143
  -1/2 Hartree   DENC   =     -9600.38057519
  -V(xc)+E(xc)   XCENC  =      1418.11670783
  PAW double counting   =     34625.67335558   -39234.46421604
  entropy T*S    EENTRO =        -0.00061498
  eigenvalues    EBANDS =      1216.08433672
  atomic energy  EATOM  =     44511.34040493
  ---------------------------------------------------
  free energy    TOTEN  =       -96.01706178 eV

  energy without entropy =      -96.01644680  energy(sigma->0) =      -96.01675429


--------------------------------------------------------------------------------------------------------




----------------------------------------- Iteration    1(   4)  ---------------------------------------


    EDDAV :  VPU time 4659.16: CPU time 4662.27
    DOS   :  VPU time    0.00: CPU time   -0.00
    ------------------------------------------
      LOOP:  VPU time 4659.52: CPU time 4662.63

 eigenvalue-minimisations  : 85984
 total energy-change (2. order) :-0.4645432E+02  (-0.4493862E+02)
 number of electron  352.0000000 magnetization 
 augmentation part   352.0000000 magnetization 

 Free energy of the ion-electron system (eV)
  ---------------------------------------------------
  alpha Z        PSCENC =      3966.63238079
  Ewald energy   TEWEN  =    -36999.01884143
  -1/2 Hartree   DENC   =     -9600.38057519
  -V(xc)+E(xc)   XCENC  =      1418.11670783
  PAW double counting   =     34625.67335558   -39234.46421604
  entropy T*S    EENTRO =        -0.00056491
  eigenvalues    EBANDS =      1169.62996227
  atomic energy  EATOM  =     44511.34040493
  ---------------------------------------------------
  free energy    TOTEN  =      -142.47138617 eV

  energy without entropy =     -142.47082126  energy(sigma->0) =     -142.47110371


--------------------------------------------------------------------------------------------------------




----------------------------------------- Iteration    1(   5)  ---------------------------------------


    EDDAV :  VPU time 4755.85: CPU time 4759.06
    DOS   :  VPU time   -0.00: CPU time   -0.00
    CHARGE:  VPU time  139.97: CPU time  140.06
    MIXING:  VPU time    0.02: CPU time    0.02
    ------------------------------------------
      LOOP:  VPU time 4896.20: CPU time 4899.50

 eigenvalue-minimisations  : 87832
 total energy-change (2. order) :-0.5799910E+00  (-0.5782768E+00)
 number of electron  352.0000017 magnetization 
 augmentation part   213.9799967 magnetization 

 Broyden mixing:
  rms(total) = 0.40005E+01    rms(broyden)= 0.40005E+01
  rms(prec ) = 0.59681E+01
  weight for this iteration     100.00

 Free energy of the ion-electron system (eV)
  ---------------------------------------------------
  alpha Z        PSCENC =      3966.63238079
  Ewald energy   TEWEN  =    -36999.01884143
  -1/2 Hartree   DENC   =     -9600.38057519
  -V(xc)+E(xc)   XCENC  =      1418.11670783
  PAW double counting   =     34625.67335558   -39234.46421604
  entropy T*S    EENTRO =        -0.00057039
  eigenvalues    EBANDS =      1169.04997679
  atomic energy  EATOM  =     44511.34040493
  ---------------------------------------------------
  free energy    TOTEN  =      -143.05137713 eV

  energy without entropy =     -143.05080674  energy(sigma->0) =     -143.05109193


--------------------------------------------------------------------------------------------------------




----------------------------------------- Iteration    1(   6)  ---------------------------------------


    POTLOK:  VPU time    0.79: CPU time    0.80
    SETDIJ:  VPU time    1.99: CPU time    1.99
    EDDAV :  VPU time 4832.41: CPU time 4840.04
    DOS   :  VPU time    0.00: CPU time   -0.00
    CHARGE:  VPU time  142.26: CPU time  142.50
    MIXING:  VPU time    0.02: CPU time    0.02
    ------------------------------------------
      LOOP:  VPU time 4977.82: CPU time 4985.70

 eigenvalue-minimisations  : 89792
 total energy-change (2. order) : 0.2186408E+02  (-0.2317783E+02)
 number of electron  352.0000018 magnetization 
 augmentation part   235.4074773 magnetization 

 Broyden mixing:
  rms(total) = 0.12668E+01    rms(broyden)= 0.12668E+01
  rms(prec ) = 0.17602E+01
  weight for this iteration     100.00

 eigenvalues of (default mixing * dielectric matrix)
  average eigenvalue GAMMA=   0.7639
  0.7639

 Free energy of the ion-electron system (eV)
  ---------------------------------------------------
  alpha Z        PSCENC =      3966.63238079
  Ewald energy   TEWEN  =    -36999.01884143
  -1/2 Hartree   DENC   =     -8850.27949552
  -V(xc)+E(xc)   XCENC  =      1379.30970430
  PAW double counting   =     34343.58842377   -38720.80158868
  entropy T*S    EENTRO =        -0.00094195
  eigenvalues    EBANDS =       248.04265329
  atomic energy  EATOM  =     44511.34040493
  ---------------------------------------------------
  free energy    TOTEN  =      -121.18730051 eV

  energy without entropy =     -121.18635857  energy(sigma->0) =     -121.18682954


--------------------------------------------------------------------------------------------------------




----------------------------------------- Iteration    1(   7)  ---------------------------------------


    POTLOK:  VPU time    0.78: CPU time    0.78
    SETDIJ:  VPU time    1.93: CPU time    1.93
    EDDAV :  VPU time 4932.03: CPU time 4935.41
    DOS   :  VPU time    0.00: CPU time   -0.00
    CHARGE:  VPU time  141.39: CPU time  141.47
    MIXING:  VPU time    0.06: CPU time    0.06
    ------------------------------------------
      LOOP:  VPU time 5076.55: CPU time 5080.02

 eigenvalue-minimisations  : 92220
 total energy-change (2. order) : 0.6277935E+01  (-0.3403059E+01)
 number of electron  352.0000018 magnetization 
 augmentation part   228.4046873 magnetization 

 Broyden mixing:
  rms(total) = 0.38150E+00    rms(broyden)= 0.38149E+00
  rms(prec ) = 0.58239E+00
  weight for this iteration     100.00

 eigenvalues of (default mixing * dielectric matrix)
  average eigenvalue GAMMA=   1.3346
  0.6937  1.9755

 Free energy of the ion-electron system (eV)
  ---------------------------------------------------
  alpha Z        PSCENC =      3966.63238079
  Ewald energy   TEWEN  =    -36999.01884143
  -1/2 Hartree   DENC   =     -9006.02786567
  -V(xc)+E(xc)   XCENC  =      1387.72807721
  PAW double counting   =     35069.88062288   -39628.34227076
  entropy T*S    EENTRO =        -0.00030448
  eigenvalues    EBANDS =       582.89843063
  atomic energy  EATOM  =     44511.34040493
[...]
     68       1.5637      2.00000
     69       1.5647      2.00000
     70       1.5659      2.00000
     71       1.5659      2.00000
     72       1.5659      2.00000
     73       1.5660      2.00000
     74       1.5660      2.00000
     75       1.5660      2.00000
     76       1.5660      2.00000
     77       1.5662      2.00000
     78       1.5662      2.00000
     79       1.5663      2.00000
     80       1.5663      2.00000
     81       1.5664      2.00000
     82       1.5664      2.00000
     83       1.5664      2.00000
     84       1.5675      2.00000
     85       1.5685      2.00000
     86       1.5691      2.00000
     87       1.5698      2.00000
     88       1.5698      2.00000
     89       1.7339      2.00000
     90       1.7339      2.00000
     91       1.7343      2.00000
     92       1.7347      2.00000
     93       1.7351      2.00000
     94       1.7351      2.00000
     95       1.7353      2.00000
     96       1.7353      2.00000
     97       1.7357      2.00000
     98       1.7357      2.00000
     99       1.7358      2.00000
    100       1.7360      2.00000
    101       1.7364      2.00000
    102       1.7366      2.00000
    103       1.7371      2.00000
    104       1.7371      2.00000
    105       2.3248      2.00000
    106       2.3260      2.00000
    107       2.3260      2.00000
    108       2.3281      2.00000
    109       2.3283      2.00000
    110       2.3283      2.00000
    111       2.3284      2.00000
    112       2.3285      2.00000
    113       2.3288      2.00000
    114       2.3288      2.00000
    115       2.3288      2.00000
    116       2.3288      2.00000
    117       2.3289      2.00000
    118       2.3290      2.00000
    119       2.3290      2.00000
    120       2.3290      2.00000
    121       2.3292      2.00000
    122       2.3294      2.00000
    123       2.3295      2.00000
    124       2.3295      2.00000
    125       2.3296      2.00000
    126       2.3318      2.00000
    127       2.3318      2.00000
    128       2.3329      2.00000
    129       2.6603      2.00000
    130       2.6619      2.00000
    131       2.6619      2.00000
    132       2.6619      2.00000
    133       2.6627      2.00000
    134       2.6627      2.00000
    135       2.6629      2.00000
    136       2.6631      2.00000
    137       2.6632      2.00000
    138       2.6634      2.00000
    139       2.6636      2.00000
    140       2.6636      2.00000
    141       2.6644      2.00000
    142       2.6644      2.00000
    143       2.6645      2.00000
    144       2.6660      2.00000
    145       3.3101      2.00000
    146       3.3101      2.00000
    147       3.3103      2.00000
    148       3.3103      2.00000
    149       3.3104      2.00000
    150       3.3104      2.00000
    151       3.3105      2.00000
    152       3.3105      2.00000
    153       3.3105      2.00000
    154       3.3107      2.00000
    155       3.3107      2.00000
    156       3.3107      2.00000
    157       3.3109      2.00000
    158       3.3110      2.00000
    159       3.3110      2.00000
    160       3.3111      2.00000
    161       3.3111      2.00000
    162       3.3113      2.00000
    163       3.3113      2.00000
    164       3.3113      2.00000
    165       3.3114      2.00000
    166       3.3114      2.00000
    167       3.3116      2.00000
    168       3.3116      2.00000
    169       6.1170      0.00000
    170       6.1190      0.00000
    171       6.1190      0.00000
    172       6.1224      0.00000
    173       6.1230      0.00000
    174       6.1230      0.00000
    175       6.1230      0.00000
    176       6.1232      0.00000
    177       6.1232      0.00000
    178       6.1232      0.00000
    179       6.1233      0.00000
    180       6.1233      0.00000
    181       6.1236      0.00000
    182       6.1236      0.00000
    183       6.1237      0.00000
    184       6.1237      0.00000
    185       6.1238      0.00000
    186       6.1239      0.00000
    187       6.1239      0.00000
    188       6.1239      0.00000
    189       6.1246      0.00000
    190       6.1279      0.00000
    191       6.1279      0.00000
    192       6.1300      0.00000
    193      12.5379      0.00000
    194      12.5379      0.00000
    195      12.5381      0.00000
    196      12.5441      0.00000
    197      12.5442      0.00000
    198      12.5444      0.00000
    199      12.5445      0.00000
    200      12.5450      0.00000
    201      12.5450      0.00000
    202      12.5450      0.00000
    203      12.5451      0.00000
    204      12.5452      0.00000
    205      12.5454      0.00000
    206      12.5454      0.00000
    207      12.5454      0.00000
    208      12.5455      0.00000
    209      12.5460      0.00000
    210      12.5460      0.00000
    211      12.5462      0.00000
    212      12.5463      0.00000


--------------------------------------------------------------------------------------------------------


 soft charge-density along one line, spin component           1
         0         1         2         3         4         5         6         7         8         9
 total charge-density along one line
 
 pseudopotential strength for first ion, spin component:           1
 -5.743   0.000  -0.000   0.000   0.000  -0.572  -0.000   0.000
  0.000  -5.743  -0.000   0.000  -0.000  -0.000  -0.572   0.000
 -0.000  -0.000  -5.721  -0.000  -0.000   0.000   0.000  -0.581
  0.000   0.000  -0.000  -5.743   0.000  -0.000  -0.000   0.000
  0.000  -0.000  -0.000   0.000  -5.721  -0.000   0.000   0.000
 -0.572  -0.000   0.000  -0.000  -0.000   1.825   0.000  -0.000
 -0.000  -0.572   0.000  -0.000   0.000   0.000   1.825  -0.000
  0.000   0.000  -0.581   0.000   0.000  -0.000  -0.000   1.829
 -0.000  -0.000   0.000  -0.572  -0.000   0.000   0.000  -0.000
 -0.000   0.000   0.000  -0.000  -0.581   0.000  -0.000  -0.000
 -0.000  -0.000   0.000  -0.000  -0.000  -0.000  -0.000  -0.000
  0.000   0.000  -0.000   0.000   0.000  -0.000  -0.000   0.000
  0.000  -0.000   0.000  -0.000   0.000   0.000   0.000   0.000
 -0.000  -0.000  -0.000   0.000  -0.000  -0.000   0.000   0.000
 -0.000  -0.000  -0.000  -0.000   0.000  -0.000  -0.000  -0.000
 -0.000  -0.000  -0.000   0.000   0.000   0.000   0.000   0.000
  0.000   0.000  -0.000  -0.000   0.000  -0.000  -0.000   0.000
  0.000   0.000   0.000   0.000  -0.000  -0.000  -0.000  -0.000
 total augmentation occupancy for first ion, spin component:           1
  1.924  -0.000  -0.003  -0.000  -0.001   0.026  -0.000   0.001   0.000   0.001   0.007   0.001   0.002   0.000  -0.000   0.000
 -0.000   1.927  -0.001  -0.001  -0.003  -0.000   0.021   0.001   0.000   0.001   0.005   0.000   0.000   0.000  -0.000  -0.000
 -0.003  -0.001   1.936   0.000  -0.003   0.001   0.001  -0.034   0.001   0.003   0.013   0.003  -0.000  -0.000  -0.000  -0.000
 -0.000  -0.001   0.000   1.930   0.001   0.000   0.000   0.001   0.017   0.000   0.004  -0.000   0.000   0.001  -0.000  -0.000
 -0.001  -0.003  -0.003   0.001   1.925   0.001   0.001   0.003   0.000  -0.024   0.008   0.002   0.000   0.000   0.000   0.000
  0.026  -0.000   0.001   0.000   0.001   0.115   0.000   0.001   0.000  -0.000  -0.002   0.001   0.002  -0.000  -0.000  -0.000
 -0.000   0.021   0.001   0.000   0.001   0.000   0.118  -0.002  -0.000   0.001  -0.001   0.001   0.000   0.000   0.000   0.000
  0.001   0.001  -0.034   0.001   0.003   0.001  -0.002   0.113  -0.002  -0.001  -0.010  -0.000   0.000   0.000  -0.000   0.000
  0.000   0.000   0.001   0.017   0.000   0.000  -0.000  -0.002   0.122  -0.002   0.000   0.001  -0.000   0.002   0.000   0.000
  0.001   0.001   0.003   0.000  -0.024  -0.000   0.001  -0.001  -0.002   0.109  -0.006  -0.000  -0.000  -0.000   0.001   0.000
  0.007   0.005   0.013   0.004   0.008  -0.002  -0.001  -0.010   0.000  -0.006   1.338  -0.441   0.000  -0.000   0.004   0.000
  0.001   0.000   0.003  -0.000   0.002   0.001   0.001  -0.000   0.001  -0.000  -0.441   0.210   0.000  -0.000  -0.001   0.000
  0.002   0.000  -0.000   0.000   0.000   0.002   0.000   0.000  -0.000  -0.000   0.000   0.000   0.247  -0.001  -0.000  -0.017
  0.000   0.000  -0.000   0.001   0.000  -0.000   0.000   0.000   0.002  -0.000  -0.000  -0.000  -0.001   0.250  -0.002  -0.000
 -0.000  -0.000  -0.000  -0.000   0.000  -0.000   0.000  -0.000   0.000   0.001   0.004  -0.001  -0.000  -0.002   0.248  -0.000
  0.000  -0.000  -0.000  -0.000   0.000  -0.000   0.000   0.000   0.000   0.000   0.000   0.000  -0.017  -0.000  -0.000   0.002
 -0.000  -0.000  -0.000   0.000   0.000   0.000   0.000  -0.000  -0.000  -0.000   0.000   0.000  -0.000  -0.018  -0.000   0.000
  0.000  -0.000  -0.000   0.000   0.000  -0.000   0.000   0.000  -0.000  -0.000  -0.000   0.000  -0.000  -0.000  -0.018   0.000


------------------------ aborting loop because EDIFF is reached ----------------------------------------




--------------------------------------------------------------------------------------------------------


    CHARGE:  VPU time  166.74: CPU time  166.82
    FORLOC:  VPU time    0.13: CPU time    0.13
    FORNL :  VPU time  865.22: CPU time  865.61
    STRESS:  VPU time 4705.00: CPU time 4707.26
    FORCOR:  VPU time    0.79: CPU time    0.79
    FORHAR:  VPU time    0.29: CPU time    0.29
    MIXING:  VPU time    0.03: CPU time    0.03


--------------------------------------------------------------------------------------------------------



  FREE ENERGIE OF THE ION-ELECTRON SYSTEM (eV)
  ---------------------------------------------------
  free  energy   TOTEN  =      -114.401171 eV

  energy  without entropy=     -114.400622  energy(sigma->0) =     -114.400897
 

  FORCE on cell =-STRESS in cart. coord.  units (eV/reduce length):
  Direction    X        Y        Z        XY       YZ       ZX
  --------------------------------------------------------------------------------------
  Alpha Z   3966.63   3966.63   3966.63
  Ewald   -12333.10 -12333.04 -12333.04      0.00      0.00      0.00
  Hartree   2954.02   2954.06   2954.06     -0.00     -0.00     -0.00
  E(xc)    -2016.06  -2016.06  -2016.06     -0.00     -0.00     -0.00
  Local     4240.70   4240.60   4240.60      0.00      0.00      0.00
  n-local  -1115.08  -1118.61  -1111.56      1.54      0.93      0.34
  augment   1811.04   1811.04   1811.04     -0.00     -0.00     -0.00
  Kinetic   2556.01   2553.21   2558.81     -0.13     -1.36     -2.59
  -------------------------------------------------------------------------------------
  Total       64.17     64.17     64.17     -0.00      0.00      0.00
  in kB      311.71    311.71    311.71     -0.00      0.00      0.00
  external pressure =      311.71 kB  Pullay stress =        0.00 kB


 VOLUME and BASIS-vectors are now :
 -----------------------------------------------------------------------------
  energy-cutoff  :      750.00
  volume of cell :      329.82
      direct lattice vectors                 reciprocal lattice vectors
     6.909190042  0.000000000  0.000000000     0.144734765  0.000000000  0.000000000
     0.000000000  6.909190042  0.000000000     0.000000000  0.144734765  0.000000000
     0.000000000  0.000000000  6.909190042     0.000000000  0.000000000  0.144734765

  length of vectors
     6.909190042  6.909190042  6.909190042     0.144734765  0.144734765  0.144734765


 FORCES acting on ions
    electron-ion (+dipol)            ewald-force                    non-local-force                 convergence-correction
 -----------------------------------------------------------------------------------------------
   0.672E+01 -.766E-14 0.101E-05   -.686E+01 -.808E-13 -.524E-13   0.189E-01 -.271E-19 0.678E-20   -.230E-04 0.359E-13 0.523E-13
   -.178E+01 -.596E-14 -.103E-05   0.181E+01 -.258E-13 -.258E-13   -.244E-01 0.678E-20 0.000E+00   0.265E-04 0.836E-14 0.219E-13
   0.567E+00 0.397E-12 0.101E-10   -.573E+00 0.577E-13 -.515E-13   0.567E-02 0.000E+00 -.169E-20   -.215E-04 -.590E-13 0.822E-13
   -.456E+00 0.591E-11 0.953E-11   0.450E+00 0.826E-13 -.258E-13   0.623E-02 -.678E-20 0.000E+00   0.212E-04 -.289E-13 0.649E-13
   0.567E+00 -.750E-14 0.430E-09   -.573E+00 -.506E-13 0.586E-13   0.567E-02 0.169E-20 0.678E-20   -.208E-04 0.511E-13 0.455E-13
   -.456E+00 0.416E-14 0.432E-09   0.450E+00 -.258E-13 0.139E-12   0.623E-02 0.847E-21 0.000E+00   0.211E-04 0.228E-13 0.810E-13
   0.237E+00 0.398E-12 -.399E-10   -.237E+00 0.577E-13 0.586E-13   -.302E-03 -.169E-20 0.000E+00   -.130E-04 -.741E-13 0.756E-14
   -.222E+00 -.505E-11 -.373E-10   0.221E+00 0.826E-13 0.258E-13   -.998E-04 0.127E-20 0.000E+00   0.116E-04 -.437E-13 0.485E-13
   -.854E+00 -.165E+01 0.203E-09   0.869E+00 0.167E+01 -.444E-13   -.117E-03 -.623E-02 0.000E+00   0.311E-05 0.115E-04 0.778E-13
   -.861E+00 0.163E+01 0.222E-09   0.876E+00 -.166E+01 -.444E-13   0.199E-03 0.585E-02 0.000E+00   -.503E-05 0.743E-05 0.401E-13
   -.854E+00 0.165E+01 0.203E-09   0.869E+00 -.167E+01 -.109E-12   -.117E-03 0.623E-02 0.000E+00   0.311E-05 -.115E-04 0.382E-13
   -.861E+00 -.163E+01 0.200E-09   0.876E+00 0.166E+01 0.444E-14   0.199E-03 -.585E-02 0.339E-20   -.503E-05 -.743E-05 0.307E-13
   -.236E-01 -.136E+00 -.892E-10   0.262E-01 0.137E+00 0.444E-13   -.244E-02 -.719E-03 0.000E+00   0.843E-05 0.123E-04 0.343E-13
   -.268E-01 0.136E+00 -.814E-10   0.294E-01 -.137E+00 0.444E-13   -.242E-02 0.715E-03 0.000E+00   -.794E-05 0.345E-05 0.316E-13
   -.236E-01 0.136E+00 -.892E-10   0.262E-01 -.137E+00 0.109E-12   -.244E-02 0.719E-03 0.000E+00   0.843E-05 -.123E-04 0.241E-13
   -.268E-01 -.136E+00 -.814E-10   0.294E-01 0.137E+00 0.109E-12   -.242E-02 -.715E-03 0.000E+00   -.794E-05 -.345E-05 0.469E-13
   -.854E+00 -.183E-13 -.165E+01   0.869E+00 -.444E-13 0.167E+01   -.117E-03 0.339E-20 -.623E-02   0.298E-05 0.466E-13 0.116E-04
   -.861E+00 -.115E-13 0.163E+01   0.876E+00 -.444E-13 -.166E+01   0.199E-03 -.678E-20 0.585E-02   -.516E-05 0.304E-13 0.733E-05
   -.236E-01 0.400E-12 -.136E+00   0.262E-01 0.586E-13 0.137E+00   -.244E-02 0.551E-20 -.719E-03   0.846E-05 -.551E-13 0.124E-04
   -.268E-01 -.176E-11 0.136E+00   0.294E-01 0.178E-14 -.137E+00   -.242E-02 0.102E-19 0.715E-03   -.791E-05 -.610E-13 0.334E-05
   -.854E+00 0.140E-13 0.165E+01   0.869E+00 -.524E-13 -.167E+01   -.117E-03 0.000E+00 0.623E-02   0.298E-05 0.319E-13 -.116E-04
   -.861E+00 0.287E-13 -.163E+01   0.876E+00 -.524E-13 0.166E+01   0.199E-03 0.678E-20 -.585E-02   -.516E-05 0.170E-13 -.733E-05
   -.236E-01 0.371E-12 0.136E+00   0.262E-01 0.524E-13 -.137E+00   -.244E-02 0.339E-20 0.719E-03   0.846E-05 -.405E-13 -.124E-04
   -.268E-01 -.847E-12 -.136E+00   0.294E-01 -.444E-14 0.137E+00   -.242E-02 -.381E-20 -.715E-03   -.791E-05 -.483E-13 -.334E-05
   0.107E+01 0.487E-02 0.487E-02   -.108E+01 -.492E-02 -.492E-02   0.697E-02 0.520E-05 0.520E-05   -.196E-04 0.669E-05 0.669E-05
   -.601E+00 -.145E-02 -.145E-02   0.608E+00 0.147E-02 0.147E-02   -.668E-02 -.281E-04 -.281E-04   0.199E-04 0.108E-04 0.108E-04
   0.107E+01 -.487E-02 0.487E-02   -.108E+01 0.492E-02 -.492E-02   0.697E-02 -.520E-05 0.520E-05   -.196E-04 -.669E-05 0.669E-05
   -.601E+00 0.145E-02 -.145E-02   0.608E+00 -.147E-02 0.147E-02   -.668E-02 0.281E-04 -.281E-04   0.199E-04 -.108E-04 0.108E-04
   0.107E+01 0.487E-02 -.487E-02   -.108E+01 -.492E-02 0.492E-02   0.697E-02 0.520E-05 -.520E-05   -.196E-04 0.669E-05 -.669E-05
   -.601E+00 -.145E-02 0.145E-02   0.608E+00 0.147E-02 -.147E-02   -.668E-02 -.281E-04 0.281E-04   0.199E-04 0.108E-04 -.108E-04
   0.107E+01 -.487E-02 -.487E-02   -.108E+01 0.492E-02 0.492E-02   0.697E-02 -.520E-05 -.520E-05   -.196E-04 -.669E-05 -.669E-05
   -.601E+00 0.145E-02 0.145E-02   0.608E+00 -.147E-02 -.147E-02   -.668E-02 0.281E-04 0.281E-04   0.199E-04 -.108E-04 -.108E-04
 -----------------------------------------------------------------------------------------------
   -.655E-05 -.385E-11 -.103E-07   -.204E-13 -.280E-12 0.117E-12   0.718E-05 0.864E-18 -.332E-18   -.283E-05 -.304E-12 0.140E-11
 
 
 POSITION                                       TOTAL-FORCE (eV/Angst)
 -----------------------------------------------------------------------------------
      0.01000      0.00000      0.00000        -0.120994      0.000000     -0.000000
      3.45460      0.00000      0.00000         0.001146      0.000000     -0.000000
      0.00000      3.45460      0.00000        -0.000623     -0.000000     -0.000000
      3.45460      3.45460      0.00000         0.000689      0.000000      0.000000
      0.00000      0.00000      3.45460        -0.000623      0.000000      0.000000
      3.45460      0.00000      3.45460         0.000689     -0.000000     -0.000000
      0.00000      3.45460      3.45460         0.000062      0.000000     -0.000000
      3.45460      3.45460      3.45460        -0.000326      0.000000     -0.000000
      1.72730      1.72730      0.00000         0.015714      0.018563     -0.000000
      5.18189      1.72730      0.00000         0.015306     -0.017942      0.000000
      1.72730      5.18189      0.00000         0.015714     -0.018563      0.000000
      5.18189      5.18189      0.00000         0.015306      0.017942      0.000000
      1.72730      1.72730      3.45460         0.000217      0.000242      0.000000
      5.18189      1.72730      3.45460         0.000217     -0.000243      0.000000
      1.72730      5.18189      3.45460         0.000217     -0.000242      0.000000
      5.18189      5.18189      3.45460         0.000217      0.000243     -0.000000
      1.72730      0.00000      1.72730         0.015714      0.000000      0.018563
      5.18189      0.00000      1.72730         0.015306      0.000000     -0.017942
      1.72730      3.45460      1.72730         0.000217     -0.000000      0.000242
      5.18189      3.45460      1.72730         0.000217     -0.000000     -0.000243
      1.72730      0.00000      5.18189         0.015714      0.000000     -0.018563
      5.18189      0.00000      5.18189         0.015306     -0.000000      0.017942
      1.72730      3.45460      5.18189         0.000217     -0.000000     -0.000242
      5.18189      3.45460      5.18189         0.000217     -0.000000      0.000243
      0.00000      1.72730      1.72730        -0.002101     -0.000042     -0.000042
      3.45460      1.72730      1.72730         0.000642      0.000002      0.000002
      0.00000      5.18189      1.72730        -0.002101      0.000042     -0.000042
      3.45460      5.18189      1.72730         0.000642     -0.000002      0.000002
      0.00000      1.72730      5.18189        -0.002101     -0.000042      0.000042
      3.45460      1.72730      5.18189         0.000642      0.000002     -0.000002
      0.00000      5.18189      5.18189        -0.002101      0.000042      0.000042
      3.45460      5.18189      5.18189         0.000642     -0.000002     -0.000002
 -----------------------------------------------------------------------------------
    total drift:                               -0.000002     -0.000000     -0.000000


--------------------------------------------------------------------------------------------------------



 mean value of Nose-termostat <S>:     1.000 mean value of <T> :     0.000
 mean temperature <T/S>/<1/S>  :     0.000

     LOOP+:  VPU time********: CPU time********
  
  
 General timing and accounting informations for this job:
 ========================================================
  
                  Total CPU time used (sec):   113401.457
                            User time (sec):    96889.778
                          System time (sec):    16511.680
                         Elapsed time (sec):   113483.077
  
                   Maximum memory used (kb):    16106268.
                   Average memory used (kb):           0.
  
                          Minor page faults:      3259288
                          Major page faults:            0
                 Voluntary context switches:         1067
