<?xml version="1.0" encoding="ISO-8859-1"?>
<modeling>
 <generator>
  <i name="program" type="string">vasp</i>
  <i name="version" type="string">4.6.28 </i>
  <i name="subversion" type="string">25Jul05 complex  parallel</i>
  <i name="platform" type="string">LinuxIFC</i>
  <i name="date" type="string">2017 01 09</i>
  <i name="time" type="string">17:41:28</i>
 </generator>
 <incar>
  <i type="string" name="PREC">accurate</i>
  <i type="int" name="IALGO">    38</i>
  <i type="logical" name="ADDGRID"> T  </i>
  <i name="EDIFF">      0.00000001</i>
  <i type="int" name="IBRION">    -1</i>
  <i name="ENCUT">    750.00000000</i>
  <i type="logical" name="LREAL"> F  </i>
  <i type="int" name="ISMEAR">     0</i>
  <i name="SIGMA">      0.01000000</i>
  <i type="logical" name="LWAVE"> F  </i>
  <i type="logical" name="LCHARG"> F  </i>
 </incar>
 <kpoints>
  <generation param="Gamma">
   <v type="int" name="divisions">      12      12      12</v>
   <v name="usershift">      0.00000000      0.00000000      0.00000000</v>
   <v name="genvec1">      0.08333333      0.00000000      0.00000000</v>
   <v name="genvec2">      0.00000000      0.08333333      0.00000000</v>
   <v name="genvec3">      0.00000000      0.00000000      0.08333333</v>
   <v name="shift">      0.00000000      0.00000000      0.00000000</v>
  </generation>
  <varray name="kpointlist" >
   <v>       0.00000000      0.00000000      0.00000000</v>
   <v>       0.08333333      0.00000000      0.00000000</v>
   <v>       0.16666667      0.00000000      0.00000000</v>
   <v>       0.25000000      0.00000000      0.00000000</v>
   <v>       0.33333333      0.00000000      0.00000000</v>
   <v>       0.41666667      0.00000000      0.00000000</v>
   <v>       0.50000000      0.00000000      0.00000000</v>
   <v>       0.00000000      0.08333333      0.00000000</v>
   <v>       0.08333333      0.08333333      0.00000000</v>
   <v>       0.16666667      0.08333333      0.00000000</v>
   <v>       0.25000000      0.08333333      0.00000000</v>
   <v>       0.33333333      0.08333333      0.00000000</v>
   <v>       0.41666667      0.08333333      0.00000000</v>
   <v>       0.50000000      0.08333333      0.00000000</v>
   <v>       0.00000000      0.16666667      0.00000000</v>
   <v>       0.08333333      0.16666667      0.00000000</v>
   <v>       0.16666667      0.16666667      0.00000000</v>
   <v>       0.25000000      0.16666667      0.00000000</v>
   <v>       0.33333333      0.16666667      0.00000000</v>
   <v>       0.41666667      0.16666667      0.00000000</v>
   <v>       0.50000000      0.16666667      0.00000000</v>
   <v>       0.00000000      0.25000000      0.00000000</v>
   <v>       0.08333333      0.25000000      0.00000000</v>
   <v>       0.16666667      0.25000000      0.00000000</v>
   <v>       0.25000000      0.25000000      0.00000000</v>
   <v>       0.33333333      0.25000000      0.00000000</v>
   <v>       0.41666667      0.25000000      0.00000000</v>
   <v>       0.50000000      0.25000000      0.00000000</v>
   <v>       0.00000000      0.33333333      0.00000000</v>
   <v>       0.08333333      0.33333333      0.00000000</v>
   <v>       0.16666667      0.33333333      0.00000000</v>
   <v>       0.25000000      0.33333333      0.00000000</v>
   <v>       0.33333333      0.33333333      0.00000000</v>
   <v>       0.41666667      0.33333333      0.00000000</v>
   <v>       0.50000000      0.33333333      0.00000000</v>
   <v>       0.00000000      0.41666667      0.00000000</v>
   <v>       0.08333333      0.41666667      0.00000000</v>
   <v>       0.16666667      0.41666667      0.00000000</v>
   <v>       0.25000000      0.41666667      0.00000000</v>
   <v>       0.33333333      0.41666667      0.00000000</v>
   <v>       0.41666667      0.41666667      0.00000000</v>
   <v>       0.50000000      0.41666667      0.00000000</v>
   <v>       0.00000000      0.50000000      0.00000000</v>
   <v>       0.08333333      0.50000000      0.00000000</v>
   <v>       0.16666667      0.50000000      0.00000000</v>
   <v>       0.25000000      0.50000000      0.00000000</v>
   <v>       0.33333333      0.50000000      0.00000000</v>
   <v>       0.41666667      0.50000000      0.00000000</v>
   <v>       0.50000000      0.50000000      0.00000000</v>
   <v>       0.00000000      0.08333333      0.08333333</v>
   <v>       0.08333333      0.08333333      0.08333333</v>
   <v>       0.16666667      0.08333333      0.08333333</v>
   <v>       0.25000000      0.08333333      0.08333333</v>
   <v>       0.33333333      0.08333333      0.08333333</v>
   <v>       0.41666667      0.08333333      0.08333333</v>
   <v>       0.50000000      0.08333333      0.08333333</v>
   <v>       0.00000000      0.16666667      0.08333333</v>
   <v>       0.08333333      0.16666667      0.08333333</v>
   <v>       0.16666667      0.16666667      0.08333333</v>
   <v>       0.25000000      0.16666667      0.08333333</v>
   <v>       0.33333333      0.16666667      0.08333333</v>
   <v>       0.41666667      0.16666667      0.08333333</v>
   <v>       0.50000000      0.16666667      0.08333333</v>
   <v>       0.00000000      0.25000000      0.08333333</v>
   <v>       0.08333333      0.25000000      0.08333333</v>
   <v>       0.16666667      0.25000000      0.08333333</v>
   <v>       0.25000000      0.25000000      0.08333333</v>
   <v>       0.33333333      0.25000000      0.08333333</v>
   <v>       0.41666667      0.25000000      0.08333333</v>
   <v>       0.50000000      0.25000000      0.08333333</v>
   <v>       0.00000000      0.33333333      0.08333333</v>
   <v>       0.08333333      0.33333333      0.08333333</v>
   <v>       0.16666667      0.33333333      0.08333333</v>
   <v>       0.25000000      0.33333333      0.08333333</v>
   <v>       0.33333333      0.33333333      0.08333333</v>
   <v>       0.41666667      0.33333333      0.08333333</v>
   <v>       0.50000000      0.33333333      0.08333333</v>
   <v>       0.00000000      0.41666667      0.08333333</v>
   <v>       0.08333333      0.41666667      0.08333333</v>
   <v>       0.16666667      0.41666667      0.08333333</v>
   <v>       0.25000000      0.41666667      0.08333333</v>
   <v>       0.33333333      0.41666667      0.08333333</v>
   <v>       0.41666667      0.41666667      0.08333333</v>
   <v>       0.50000000      0.41666667      0.08333333</v>
   <v>       0.00000000      0.50000000      0.08333333</v>
   <v>       0.08333333      0.50000000      0.08333333</v>
   <v>       0.16666667      0.50000000      0.08333333</v>
   <v>       0.25000000      0.50000000      0.08333333</v>
   <v>       0.33333333      0.50000000      0.08333333</v>
   <v>       0.41666667      0.50000000      0.08333333</v>
   <v>       0.50000000      0.50000000      0.08333333</v>
   <v>       0.00000000      0.16666667      0.16666667</v>
   <v>       0.08333333      0.16666667      0.16666667</v>
   <v>       0.16666667      0.16666667      0.16666667</v>
   <v>       0.25000000      0.16666667      0.16666667</v>
   <v>       0.33333333      0.16666667      0.16666667</v>
   <v>       0.41666667      0.16666667      0.16666667</v>
   <v>       0.50000000      0.16666667      0.16666667</v>
   <v>       0.00000000      0.25000000      0.16666667</v>
   <v>       0.08333333      0.25000000      0.16666667</v>
   <v>       0.16666667      0.25000000      0.16666667</v>
   <v>       0.25000000      0.25000000      0.16666667</v>
   <v>       0.33333333      0.25000000      0.16666667</v>
   <v>       0.41666667      0.25000000      0.16666667</v>
   <v>       0.50000000      0.25000000      0.16666667</v>
   <v>       0.00000000      0.33333333      0.16666667</v>
   <v>       0.08333333      0.33333333      0.16666667</v>
   <v>       0.16666667      0.33333333      0.16666667</v>
   <v>       0.25000000      0.33333333      0.16666667</v>
   <v>       0.33333333      0.33333333      0.16666667</v>
   <v>       0.41666667      0.33333333      0.16666667</v>
   <v>       0.50000000      0.33333333      0.16666667</v>
   <v>       0.00000000      0.41666667      0.16666667</v>
   <v>       0.08333333      0.41666667      0.16666667</v>
   <v>       0.16666667      0.41666667      0.16666667</v>
   <v>       0.25000000      0.41666667      0.16666667</v>
   <v>       0.33333333      0.41666667      0.16666667</v>
   <v>       0.41666667      0.41666667      0.16666667</v>
   <v>       0.50000000      0.41666667      0.16666667</v>
   <v>       0.00000000      0.50000000      0.16666667</v>
   <v>       0.08333333      0.50000000      0.16666667</v>
   <v>       0.16666667      0.50000000      0.16666667</v>
   <v>       0.25000000      0.50000000      0.16666667</v>
   <v>       0.33333333      0.50000000      0.16666667</v>
   <v>       0.41666667      0.50000000      0.16666667</v>
   <v>       0.50000000      0.50000000      0.16666667</v>
   <v>       0.00000000      0.25000000      0.25000000</v>
   <v>       0.08333333      0.25000000      0.25000000</v>
   <v>       0.16666667      0.25000000      0.25000000</v>
   <v>       0.25000000      0.25000000      0.25000000</v>
   <v>       0.33333333      0.25000000      0.25000000</v>
   <v>       0.41666667      0.25000000      0.25000000</v>
   <v>       0.50000000      0.25000000      0.25000000</v>
   <v>       0.00000000      0.33333333      0.25000000</v>
   <v>       0.08333333      0.33333333      0.25000000</v>
   <v>       0.16666667      0.33333333      0.25000000</v>
   <v>       0.25000000      0.33333333      0.25000000</v>
   <v>       0.33333333      0.33333333      0.25000000</v>
   <v>       0.41666667      0.33333333      0.25000000</v>
   <v>       0.50000000      0.33333333      0.25000000</v>
   <v>       0.00000000      0.41666667      0.25000000</v>
   <v>       0.08333333      0.41666667      0.25000000</v>
   <v>       0.16666667      0.41666667      0.25000000</v>
   <v>       0.25000000      0.41666667      0.25000000</v>
   <v>       0.33333333      0.41666667      0.25000000</v>
   <v>       0.41666667      0.41666667      0.25000000</v>
   <v>       0.50000000      0.41666667      0.25000000</v>
   <v>       0.00000000      0.50000000      0.25000000</v>
   <v>       0.08333333      0.50000000      0.25000000</v>
   <v>       0.16666667      0.50000000      0.25000000</v>
   <v>       0.25000000      0.50000000      0.25000000</v>
   <v>       0.33333333      0.50000000      0.25000000</v>
   <v>       0.41666667      0.50000000      0.25000000</v>
   <v>       0.50000000      0.50000000      0.25000000</v>
   <v>       0.00000000      0.33333333      0.33333333</v>
   <v>       0.08333333      0.33333333      0.33333333</v>
   <v>       0.16666667      0.33333333      0.33333333</v>
   <v>       0.25000000      0.33333333      0.33333333</v>
   <v>       0.33333333      0.33333333      0.33333333</v>
   <v>       0.41666667      0.33333333      0.33333333</v>
   <v>       0.50000000      0.33333333      0.33333333</v>
   <v>       0.00000000      0.41666667      0.33333333</v>
   <v>       0.08333333      0.41666667      0.33333333</v>
   <v>       0.16666667      0.41666667      0.33333333</v>
   <v>       0.25000000      0.41666667      0.33333333</v>
   <v>       0.33333333      0.41666667      0.33333333</v>
   <v>       0.41666667      0.41666667      0.33333333</v>
   <v>       0.50000000      0.41666667      0.33333333</v>
   <v>       0.00000000      0.50000000      0.33333333</v>
   <v>       0.08333333      0.50000000      0.33333333</v>
   <v>       0.16666667      0.50000000      0.33333333</v>
   <v>       0.25000000      0.50000000      0.33333333</v>
   <v>       0.33333333      0.50000000      0.33333333</v>
   <v>       0.41666667      0.50000000      0.33333333</v>
   <v>       0.50000000      0.50000000      0.33333333</v>
   <v>       0.00000000      0.41666667      0.41666667</v>
   <v>       0.08333333      0.41666667      0.41666667</v>
   <v>       0.16666667      0.41666667      0.41666667</v>
   <v>       0.25000000      0.41666667      0.41666667</v>
   <v>       0.33333333      0.41666667      0.41666667</v>
   <v>       0.41666667      0.41666667      0.41666667</v>
   <v>       0.50000000      0.41666667      0.41666667</v>
   <v>       0.00000000      0.50000000      0.41666667</v>
   <v>       0.08333333      0.50000000      0.41666667</v>
   <v>       0.16666667      0.50000000      0.41666667</v>
   <v>       0.25000000      0.50000000      0.41666667</v>
   <v>       0.33333333      0.50000000      0.41666667</v>
   <v>       0.41666667      0.50000000      0.41666667</v>
   <v>       0.50000000      0.50000000      0.41666667</v>
   <v>       0.00000000      0.50000000      0.50000000</v>
   <v>       0.08333333      0.50000000      0.50000000</v>
   <v>       0.16666667      0.50000000      0.50000000</v>
   <v>       0.25000000      0.50000000      0.50000000</v>
   <v>       0.33333333      0.50000000      0.50000000</v>
   <v>       0.41666667      0.50000000      0.50000000</v>
   <v>       0.50000000      0.50000000      0.50000000</v>
  </varray>
  <varray name="weights" >
   <v>       0.00057870</v>
   <v>       0.00115741</v>
   <v>       0.00115741</v>
   <v>       0.00115741</v>
   <v>       0.00115741</v>
   <v>       0.00115741</v>
   <v>       0.00057870</v>
   <v>       0.00231481</v>
   <v>       0.00462963</v>
   <v>       0.00462963</v>
   <v>       0.00462963</v>
   <v>       0.00462963</v>
   <v>       0.00462963</v>
   <v>       0.00231481</v>
   <v>       0.00231481</v>
   <v>       0.00462963</v>
   <v>       0.00462963</v>
   <v>       0.00462963</v>
   <v>       0.00462963</v>
   <v>       0.00462963</v>
   <v>       0.00231481</v>
   <v>       0.00231481</v>
   <v>       0.00462963</v>
   <v>       0.00462963</v>
   <v>       0.00462963</v>
   <v>       0.00462963</v>
   <v>       0.00462963</v>
   <v>       0.00231481</v>
   <v>       0.00231481</v>
   <v>       0.00462963</v>
   <v>       0.00462963</v>
   <v>       0.00462963</v>
   <v>       0.00462963</v>
   <v>       0.00462963</v>
   <v>       0.00231481</v>
   <v>       0.00231481</v>
   <v>       0.00462963</v>
   <v>       0.00462963</v>
   <v>       0.00462963</v>
   <v>       0.00462963</v>
   <v>       0.00462963</v>
   <v>       0.00231481</v>
   <v>       0.00115741</v>
   <v>       0.00231481</v>
   <v>       0.00231481</v>
   <v>       0.00231481</v>
   <v>       0.00231481</v>
   <v>       0.00231481</v>
   <v>       0.00115741</v>
   <v>       0.00231481</v>
   <v>       0.00462963</v>
   <v>       0.00462963</v>
   <v>       0.00462963</v>
   <v>       0.00462963</v>
   <v>       0.00462963</v>
   <v>       0.00231481</v>
   <v>       0.00462963</v>
   <v>       0.00925926</v>
   <v>       0.00925926</v>
   <v>       0.00925926</v>
   <v>       0.00925926</v>
   <v>       0.00925926</v>
   <v>       0.00462963</v>
   <v>       0.00462963</v>
   <v>       0.00925926</v>
   <v>       0.00925926</v>
   <v>       0.00925926</v>
   <v>       0.00925926</v>
   <v>       0.00925926</v>
   <v>       0.00462963</v>
   <v>       0.00462963</v>
   <v>       0.00925926</v>
   <v>       0.00925926</v>
   <v>       0.00925926</v>
   <v>       0.00925926</v>
   <v>       0.00925926</v>
   <v>       0.00462963</v>
   <v>       0.00462963</v>
   <v>       0.00925926</v>
   <v>       0.00925926</v>
   <v>       0.00925926</v>
   <v>       0.00925926</v>
   <v>       0.00925926</v>
   <v>       0.00462963</v>
   <v>       0.00231481</v>
   <v>       0.00462963</v>
   <v>       0.00462963</v>
   <v>       0.00462963</v>
   <v>       0.00462963</v>
   <v>       0.00462963</v>
   <v>       0.00231481</v>
   <v>       0.00231481</v>
   <v>       0.00462963</v>
   <v>       0.00462963</v>
   <v>       0.00462963</v>
   <v>       0.00462963</v>
   <v>       0.00462963</v>
   <v>       0.00231481</v>
   <v>       0.00462963</v>
   <v>       0.00925926</v>
   <v>       0.00925926</v>
   <v>       0.00925926</v>
   <v>       0.00925926</v>
   <v>       0.00925926</v>
   <v>       0.00462963</v>
   <v>       0.00462963</v>
   <v>       0.00925926</v>
   <v>       0.00925926</v>
   <v>       0.00925926</v>
   <v>       0.00925926</v>
   <v>       0.00925926</v>
   <v>       0.00462963</v>
   <v>       0.00462963</v>
   <v>       0.00925926</v>
   <v>       0.00925926</v>
   <v>       0.00925926</v>
   <v>       0.00925926</v>
   <v>       0.00925926</v>
   <v>       0.00462963</v>
   <v>       0.00231481</v>
   <v>       0.00462963</v>
   <v>       0.00462963</v>
   <v>       0.00462963</v>
   <v>       0.00462963</v>
   <v>       0.00462963</v>
   <v>       0.00231481</v>
   <v>       0.00231481</v>
   <v>       0.00462963</v>
   <v>       0.00462963</v>
   <v>       0.00462963</v>
   <v>       0.00462963</v>
   <v>       0.00462963</v>
   <v>       0.00231481</v>
   <v>       0.00462963</v>
   <v>       0.00925926</v>
   <v>       0.00925926</v>
   <v>       0.00925926</v>
   <v>       0.00925926</v>
   <v>       0.00925926</v>
   <v>       0.00462963</v>
   <v>       0.00462963</v>
   <v>       0.00925926</v>
   <v>       0.00925926</v>
   <v>       0.00925926</v>
   <v>       0.00925926</v>
   <v>       0.00925926</v>
   <v>       0.00462963</v>
   <v>       0.00231481</v>
   <v>       0.00462963</v>
   <v>       0.00462963</v>
   <v>       0.00462963</v>
   <v>       0.00462963</v>
   <v>       0.00462963</v>
   <v>       0.00231481</v>
   <v>       0.00231481</v>
   <v>       0.00462963</v>
   <v>       0.00462963</v>
   <v>       0.00462963</v>
   <v>       0.00462963</v>
   <v>       0.00462963</v>
   <v>       0.00231481</v>
   <v>       0.00462963</v>
   <v>       0.00925926</v>
   <v>       0.00925926</v>
   <v>       0.00925926</v>
   <v>       0.00925926</v>
   <v>       0.00925926</v>
   <v>       0.00462963</v>
   <v>       0.00231481</v>
   <v>       0.00462963</v>
   <v>       0.00462963</v>
   <v>       0.00462963</v>
   <v>       0.00462963</v>
   <v>       0.00462963</v>
   <v>       0.00231481</v>
   <v>       0.00231481</v>
   <v>       0.00462963</v>
   <v>       0.00462963</v>
   <v>       0.00462963</v>
   <v>       0.00462963</v>
   <v>       0.00462963</v>
   <v>       0.00231481</v>
   <v>       0.00231481</v>
   <v>       0.00462963</v>
   <v>       0.00462963</v>
   <v>       0.00462963</v>
   <v>       0.00462963</v>
   <v>       0.00462963</v>
   <v>       0.00231481</v>
   <v>       0.00057870</v>
   <v>       0.00115741</v>
   <v>       0.00115741</v>
   <v>       0.00115741</v>
   <v>       0.00115741</v>
   <v>       0.00115741</v>
   <v>       0.00057870</v>
  </varray>
 </kpoints>
 <parameters>
  <separator name="general" >
   <i type="string" name="SYSTEM">unknown system</i>
   <i type="logical" name="LCOMPAT"> F  </i>
  </separator>
  <separator name="electronic" >
   <i type="string" name="PREC">accura</i>
   <i name="ENMAX">    750.00000000</i>
   <i name="ENAUG">    516.45600000</i>
   <i name="EDIFF">      0.00000001</i>
   <i type="int" name="IALGO">    38</i>
   <i type="int" name="IWAVPR">    10</i>
   <i type="int" name="NBANDS">   211</i>
   <i name="NELECT">    352.00000000</i>
   <separator name="electronic smearing" >
    <i type="int" name="ISMEAR">     0</i>
    <i name="SIGMA">      0.01000000</i>
   </separator>
   <separator name="electronic projectors" >
    <i type="logical" name="LREAL"> F  </i>
    <v name="ROPT">      0.00000000</v>
    <i type="int" name="LMAXPAW">  -100</i>
    <i type="int" name="LMAXMIX">     2</i>
   </separator>
   <separator name="electronic startup" >
    <i type="int" name="ISTART">     0</i>
    <i type="int" name="ICHARG">     2</i>
    <i type="int" name="INIWAV">     1</i>
   </separator>
   <separator name="electronic spin" >
    <i type="int" name="ISPIN">     1</i>
    <i type="logical" name="LNONCOLLINEAR"> F  </i>
    <v name="MAGMOM">      1.00000000      1.00000000      1.00000000      1.00000000      1.00000000      1.00000000      1.00000000      1.00000000      1.00000000      1.00000000      1.00000000      1.00000000      1.00000000      1.00000000      1.00000000      1.00000000      1.00000000      1.00000000      1.00000000      1.00000000
      1.00000000      1.00000000      1.00000000      1.00000000      1.00000000      1.00000000      1.00000000      1.00000000      1.00000000      1.00000000      1.00000000      1.00000000</v>
    <i name="NUPDOWN">     -1.00000000</i>
    <i type="logical" name="LSORBIT"> F  </i>
    <v name="SAXIS">      0.00000000      0.00000000      1.00000000</v>
    <i type="logical" name="LSPIRAL"> F  </i>
    <v name="QSPIRAL">      0.00000000      0.00000000      0.00000000</v>
    <i type="logical" name="LZEROZ"> F  </i>
   </separator>
   <separator name="electronic exchange-correlation" >
    <i type="string" name="GGA">--</i>
    <i type="int" name="VOSKOWN">     0</i>
    <i type="logical" name="LASPH"> F  </i>
    <i type="logical" name="LMETAGGA"> F  </i>
    <i type="string" name="GGA2">--</i>
   </separator>
   <separator name="electronic convergence" >
    <i type="int" name="NELM">    60</i>
    <i type="int" name="NELMDL">     0</i>
    <i type="int" name="NELMIN">     2</i>
    <i name="ENINI">    750.00000000</i>
    <separator name="electronic convergence detail" >
     <i type="logical" name="LDIAG"> T  </i>
     <i name="WEIMIN">      0.00000000</i>
     <i name="EBREAK">      0.00000000</i>
     <i name="DEPER">      0.30000000</i>
     <i type="int" name="NRMM">     4</i>
     <i name="TIME">      0.10000000</i>
    </separator>
   </separator>
   <separator name="electronic mixer" >
    <i name="AMIX">      0.40000000</i>
    <i name="BMIX">      1.00000000</i>
    <i name="AMIN">      0.10000000</i>
    <i name="AMIX_MAG">      1.60000000</i>
    <i name="BMIX_MAG">      1.00000000</i>
    <separator name="electronic mixer details" >
     <i type="int" name="IMIX">     4</i>
     <i type="int" name="MAXMIX">   -45</i>
     <i name="WC">    100.00000000</i>
     <i type="int" name="INIMIX">     1</i>
     <i type="int" name="MIXPRE">     1</i>
     <i type="int" name="MREMOVE">     5</i>
    </separator>
   </separator>
   <separator name="electronic dipolcorrection" >
    <i type="int" name="IDIPOL">     0</i>
    <i type="logical" name="LDIPOL"> F  </i>
    <v name="DIPOL">   -100.00000000</v>
    <i name="EFIELD">      0.00000000</i>
   </separator>
  </separator>
  <separator name="grids" >
   <i type="int" name="NGX">    64</i>
   <i type="int" name="NGY">    64</i>
   <i type="int" name="NGZ">    64</i>
   <i type="int" name="NGXF">   128</i>
   <i type="int" name="NGYF">   128</i>
   <i type="int" name="NGZF">   128</i>
   <i type="logical" name="ADDGRID"> T  </i>
  </separator>
  <separator name="ionic" >
   <i type="int" name="NSW">     0</i>
   <i type="int" name="IBRION">    -1</i>
   <i type="int" name="ISIF">     2</i>
   <i name="PSTRESS">      0.00000000</i>
   <i name="EDIFFG">      0.00000010</i>
   <i type="int" name="NFREE">     0</i>
   <i name="POTIM">      0.50000000</i>
   <i name="SMASS">     -3.00000000</i>
  </separator>
  <separator name="ionic md" >
   <i name="TEBEG">      0.00010000</i>
   <i name="TEEND">      0.00010000</i>
   <i type="int" name="NBLOCK">     1</i>
   <i type="int" name="KBLOCK">     1</i>
   <i type="int" name="NPACO">   256</i>
   <i name="APACO">     16.00000000</i>
  </separator>
  <separator name="symmetry" >
   <i type="int" name="ISYM">     2</i>
   <i name="SYMPREC">      0.00001000</i>
  </separator>
  <separator name="dos" >
   <i type="logical" name="LORBIT"> F  </i>
   <v name="RWIGS">     -1.00000000</v>
   <i type="int" name="NEDOS">   301</i>
   <i name="EMIN">     10.00000000</i>
   <i name="EMAX">    -10.00000000</i>
  </separator>
  <separator name="writing" >
   <i type="int" name="NWRITE">     2</i>
   <i type="logical" name="LWAVE"> F  </i>
   <i type="logical" name="LCHARG"> F  </i>
   <i type="logical" name="LPARD"> F  </i>
   <i type="logical" name="LVTOT"> F  </i>
   <i type="logical" name="LELF"> F  </i>
   <i type="logical" name="LOPTICS"> F  </i>
   <i name="STM">      0.00000000</i>
  </separator>
  <separator name="performance" >
   <i type="int" name="NPAR">     4</i>
   <i type="int" name="NSIM">     4</i>
   <i type="int" name="NBLK">   256</i>
   <i type="logical" name="LPLANE"> T  </i>
   <i type="logical" name="LCRITICAL_MEM"> F  </i>
   <i type="logical" name="LSCALAPACK"> F  </i>
   <i type="logical" name="LSCALU"> F  </i>
   <i type="logical" name="LASYNC"> F  </i>
  </separator>
  <separator name="miscellaneous" >
   <i type="int" name="IDIOT">     3</i>
   <i type="logical" name="LMUSIC"> F  </i>
   <v name="POMASS">     63.54600000</v>
   <i type="logical" name="LCORR"> T  </i>
  </separator>
  <i type="logical" name="LREAL_COMPAT"> F  </i>
  <i type="logical" name="GGA_COMPAT"> T  </i>
  <i type="logical" name="LBERRY"> F  </i>
  <i type="int" name="ICORELEVEL">     0</i>
  <i type="logical" name="LDAU"> F  </i>
  <i type="int" name="I_CONSTRAINED_M">     0</i>
 </parameters>
 <atominfo>
  <atoms>      32</atoms>
  <types>       1</types>
  <array name="atoms" >
   <dimension dim="1">ion</dimension>
   <field type="string">element</field>
   <field type="int">atomtype</field>
   <set>
    <rc><c>Cu</c><c>   1</c></rc>
    <rc><c>Cu</c><c>   1</c></rc>
    <rc><c>Cu</c><c>   1</c></rc>
    <rc><c>Cu</c><c>   1</c></rc>
    <rc><c>Cu</c><c>   1</c></rc>
    <rc><c>Cu</c><c>   1</c></rc>
    <rc><c>Cu</c><c>   1</c></rc>
    <rc><c>Cu</c><c>   1</c></rc>
    <rc><c>Cu</c><c>   1</c></rc>
    <rc><c>Cu</c><c>   1</c></rc>
    <rc><c>Cu</c><c>   1</c></rc>
    <rc><c>Cu</c><c>   1</c></rc>
    <rc><c>Cu</c><c>   1</c></rc>
    <rc><c>Cu</c><c>   1</c></rc>
    <rc><c>Cu</c><c>   1</c></rc>
    <rc><c>Cu</c><c>   1</c></rc>
    <rc><c>Cu</c><c>   1</c></rc>
    <rc><c>Cu</c><c>   1</c></rc>
    <rc><c>Cu</c><c>   1</c></rc>
    <rc><c>Cu</c><c>   1</c></rc>
    <rc><c>Cu</c><c>   1</c></rc>
    <rc><c>Cu</c><c>   1</c></rc>
    <rc><c>Cu</c><c>   1</c></rc>
    <rc><c>Cu</c><c>   1</c></rc>
    <rc><c>Cu</c><c>   1</c></rc>
    <rc><c>Cu</c><c>   1</c></rc>
    <rc><c>Cu</c><c>   1</c></rc>
    <rc><c>Cu</c><c>   1</c></rc>
    <rc><c>Cu</c><c>   1</c></rc>
    <rc><c>Cu</c><c>   1</c></rc>
    <rc><c>Cu</c><c>   1</c></rc>
    <rc><c>Cu</c><c>   1</c></rc>
   </set>
  </array>
  <array name="atomtypes" >
   <dimension dim="1">type</dimension>
   <field type="int">atomspertype</field>
   <field type="string">element</field>
   <field>mass</field>
   <field>valence</field>
   <field type="string">pseudopotential</field>
   <set>
    <rc><c>  32</c><c>Cu</c><c>     63.54600000</c><c>     11.00000000</c><c> PAW_PBE Cu 05Jan2001                   </c></rc>
   </set>
  </array>
 </atominfo>
 <structure name="initialpos" >
  <crystal>
   <varray name="basis" >
    <v>       6.90919004      0.00000000      0.00000000</v>
    <v>       0.00000000      6.90919004      0.00000000</v>
    <v>       0.00000000      0.00000000      6.90919004</v>
   </varray>
   <i name="volume">    329.82336277</i>
   <varray name="rec_basis" >
    <v>       0.14473477      0.00000000      0.00000000</v>
    <v>       0.00000000      0.14473477      0.00000000</v>
    <v>       0.00000000      0.00000000      0.14473477</v>
   </varray>
  </crystal>
  <varray name="positions" >
   <v>       0.00144735      0.00000000      0.00000000</v>
   <v>       0.50000000      0.00000000      0.00000000</v>
   <v>       0.00000000      0.50000000      0.00000000</v>
   <v>       0.50000000      0.50000000      0.00000000</v>
   <v>       0.00000000      0.00000000      0.50000000</v>
   <v>       0.50000000      0.00000000      0.50000000</v>
   <v>       0.00000000      0.50000000      0.50000000</v>
   <v>       0.50000000      0.50000000      0.50000000</v>
   <v>       0.25000000      0.25000000      0.00000000</v>
   <v>       0.75000000      0.25000000      0.00000000</v>
   <v>       0.25000000      0.75000000      0.00000000</v>
   <v>       0.75000000      0.75000000      0.00000000</v>
   <v>       0.25000000      0.25000000      0.50000000</v>
   <v>       0.75000000      0.25000000      0.50000000</v>
   <v>       0.25000000      0.75000000      0.50000000</v>
   <v>       0.75000000      0.75000000      0.50000000</v>
   <v>       0.25000000      0.00000000      0.25000000</v>
   <v>       0.75000000      0.00000000      0.25000000</v>
   <v>       0.25000000      0.50000000      0.25000000</v>
   <v>       0.75000000      0.50000000      0.25000000</v>
   <v>       0.25000000      0.00000000      0.75000000</v>
   <v>       0.75000000      0.00000000      0.75000000</v>
   <v>       0.25000000      0.50000000      0.75000000</v>
   <v>       0.75000000      0.50000000      0.75000000</v>
   <v>       0.00000000      0.25000000      0.25000000</v>
   <v>       0.50000000      0.25000000      0.25000000</v>
   <v>       0.00000000      0.75000000      0.25000000</v>
   <v>       0.50000000      0.75000000      0.25000000</v>
   <v>       0.00000000      0.25000000      0.75000000</v>
   <v>       0.50000000      0.25000000      0.75000000</v>
   <v>       0.00000000      0.75000000      0.75000000</v>
   <v>       0.50000000      0.75000000      0.75000000</v>
  </varray>
 </structure>
 <calculation>
  <scstep>
   <time name="dav"> 4471.07 4474.27</time>
   <time name="total"> 4474.19 4477.39</time>
   <energy>
    <i name="alphaZ">   3966.63238079</i>
    <i name="ewald"> -36999.01884143</i>
    <i name="hartreedc">  -9600.38057519</i>
    <i name="XCdc">   1418.11670783</i>
    <i name="pawpsdc">  34625.67335558</i>
    <i name="pawaedc"> -39234.46421604</i>
    <i name="eentropy">     -0.00008488</i>
    <i name="bandstr">   5510.60017501</i>
    <i name="atom">  44511.34040493</i>
    <i name="e_fr_energy">   4198.49930660</i>
    <i name="e_wo_entrp">   4198.49939149</i>
    <i name="e_0_energy">   4198.49934905</i>
   </energy>
  </scstep>
  <scstep>
   <time name="dav"> 4523.68 4526.72</time>
   <time name="total"> 4524.04 4527.08</time>
   <energy>
    <i name="e_fr_energy">    540.36700274</i>
    <i name="e_wo_entrp">    540.36729163</i>
    <i name="e_0_energy">    540.36714718</i>
   </energy>
  </scstep>
  <scstep>
   <time name="dav"> 4523.45 4529.88</time>
   <time name="total"> 4523.81 4530.24</time>
   <energy>
    <i name="e_fr_energy">    -96.01706178</i>
    <i name="e_wo_entrp">    -96.01644680</i>
    <i name="e_0_energy">    -96.01675429</i>
   </energy>
  </scstep>
  <scstep>
   <time name="dav"> 4659.16 4662.27</time>
   <time name="total"> 4659.52 4662.63</time>
   <energy>
    <i name="e_fr_energy">   -142.47138617</i>
    <i name="e_wo_entrp">   -142.47082126</i>
    <i name="e_0_energy">   -142.47110371</i>
   </energy>
  </scstep>
  <scstep>
   <time name="dav"> 4755.85 4759.06</time>
   <time name="total"> 4896.20 4899.50</time>
   <energy>
    <i name="e_fr_energy">   -143.05137713</i>
    <i name="e_wo_entrp">   -143.05080674</i>
    <i name="e_0_energy">   -143.05109193</i>
   </energy>
  </scstep>
  <scstep>
   <time name="dav"> 4832.41 4840.04</time>
   <time name="total"> 4977.82 4985.70</time>
   <energy>
    <i name="e_fr_energy">   -121.18730051</i>
    <i name="e_wo_entrp">   -121.18635857</i>
    <i name="e_0_energy">   -121.18682954</i>
   </energy>
  </scstep>
  <scstep>
   <time name="dav"> 4932.03 4935.41</time>
   <time name="total"> 5076.55 5080.02</time>
   <energy>
    <i name="e_fr_energy">   -114.90936590</i>
    <i name="e_wo_entrp">   -114.90906142</i>
    <i name="e_0_energy">   -114.90921366</i>
   </energy>
  </scstep>
  <scstep>
   <time name="dav"> 4677.46 4683.90</time>
   <time name="total"> 4822.48 4829.17</time>
   <energy>
    <i name="e_fr_energy">   -114.46406692</i>
    <i name="e_wo_entrp">   -114.46374777</i>
    <i name="e_0_energy">   -114.46390735</i>
   </energy>
  </scstep>
  <scstep>
   <time name="dav"> 5145.42 5148.81</time>
   <time name="total"> 5290.61 5294.11</time>
   <energy>
    <i name="e_fr_energy">   -114.41581962</i>
    <i name="e_wo_entrp">   -114.41534080</i>
    <i name="e_0_energy">   -114.41558021</i>
   </energy>
  </scstep>
  <scstep>
   <time name="dav"> 5251.36 5257.51</time>
   <time name="total"> 5391.43 5397.81</time>
   <energy>
    <i name="e_fr_energy">   -114.40055404</i>
    <i name="e_wo_entrp">   -114.40000567</i>
    <i name="e_0_energy">   -114.40027986</i>
   </energy>
  </scstep>
  <scstep>
   <time name="dav"> 4630.77 4633.71</time>
   <time name="total"> 4766.93 4769.97</time>
   <energy>
    <i name="e_fr_energy">   -114.40125428</i>
    <i name="e_wo_entrp">   -114.40070546</i>
    <i name="e_0_energy">   -114.40097987</i>
   </energy>
  </scstep>
  <scstep>
   <time name="dav"> 4755.15 4758.28</time>
   <time name="total"> 4897.85 4901.10</time>
   <energy>
    <i name="e_fr_energy">   -114.40118237</i>
    <i name="e_wo_entrp">   -114.40063350</i>
    <i name="e_0_energy">   -114.40090794</i>
   </energy>
  </scstep>
  <scstep>
   <time name="dav"> 4978.68 4980.94</time>
   <time name="total"> 5123.77 5126.13</time>
   <energy>
    <i name="e_fr_energy">   -114.40118007</i>
    <i name="e_wo_entrp">   -114.40063118</i>
    <i name="e_0_energy">   -114.40090562</i>
   </energy>
  </scstep>
  <scstep>
   <time name="dav"> 5061.62 5063.88</time>
   <time name="total"> 5252.92 5255.31</time>
   <energy>
    <i name="e_fr_energy">   -114.40116863</i>
    <i name="e_wo_entrp">   -114.40061964</i>
    <i name="e_0_energy">   -114.40089414</i>
   </energy>
  </scstep>
  <scstep>
   <time name="dav"> 4930.66 4933.02</time>
   <time name="total"> 5081.20 5083.66</time>
   <energy>
    <i name="e_fr_energy">   -114.40116533</i>
    <i name="e_wo_entrp">   -114.40061634</i>
    <i name="e_0_energy">   -114.40089084</i>
   </energy>
  </scstep>
  <scstep>
   <time name="dav"> 5193.39 5195.70</time>
   <time name="total"> 5356.10 5358.49</time>
   <energy>
    <i name="e_fr_energy">   -114.40116485</i>
    <i name="e_wo_entrp">   -114.40061585</i>
    <i name="e_0_energy">   -114.40089035</i>
   </energy>
  </scstep>
  <scstep>
   <time name="dav"> 5161.35 5166.33</time>
   <time name="total"> 5330.01 5335.15</time>
   <energy>
    <i name="e_fr_energy">   -114.40117023</i>
    <i name="e_wo_entrp">   -114.40062124</i>
    <i name="e_0_energy">   -114.40089574</i>
   </energy>
  </scstep>
  <scstep>
   <time name="dav"> 4950.04 4952.08</time>
   <time name="total"> 5121.12 5123.24</time>
   <energy>
    <i name="e_fr_energy">   -114.40117067</i>
    <i name="e_wo_entrp">   -114.40062167</i>
    <i name="e_0_energy">   -114.40089617</i>
   </energy>
  </scstep>
  <scstep>
   <time name="dav"> 4220.59 4222.35</time>
   <time name="total"> 4393.55 4395.38</time>
   <energy>
    <i name="e_fr_energy">   -114.40117075</i>
    <i name="e_wo_entrp">   -114.40062175</i>
    <i name="e_0_energy">   -114.40089625</i>
   </energy>
  </scstep>
  <scstep>
   <time name="dav"> 3124.34 3125.76</time>
   <time name="total"> 3306.19 3307.70</time>
   <energy>
    <i name="e_fr_energy">   -114.40117108</i>
    <i name="e_wo_entrp">   -114.40062208</i>
    <i name="e_0_energy">   -114.40089658</i>
   </energy>
  </scstep>
  <scstep>
   <time name="dav"> 3126.38 3127.76</time>
   <time name="total"> 3318.20 3319.70</time>
   <energy>
    <i name="e_fr_energy">   -114.40117122</i>
    <i name="e_wo_entrp">   -114.40062222</i>
    <i name="e_0_energy">   -114.40089672</i>
   </energy>
  </scstep>
  <scstep>
   <time name="dav"> 3103.57 3105.01</time>
   <time name="total"> 3294.18 3295.73</time>
   <energy>
    <i name="e_fr_energy">   -114.40117120</i>
    <i name="e_wo_entrp">   -114.40062220</i>
    <i name="e_0_energy">   -114.40089670</i>
   </energy>
  </scstep>
  <scstep>
   <time name="dav"> 3093.07 3094.50</time>
   <time name="total"> 3096.48 3097.92</time>
   <energy>
    <i name="alphaZ">   3966.63238079</i>
    <i name="ewald"> -36999.01884143</i>
    <i name="hartreedc">  -8862.13132612</i>
    <i name="XCdc">   1380.62985203</i>
    <i name="pawpsdc">  35953.46927369</i>
    <i name="pawaedc"> -40613.13832898</i>
    <i name="eentropy">     -0.00054900</i>
    <i name="bandstr">    547.81596290</i>
    <i name="atom">  44511.34040493</i>
    <i name="e_fr_energy">   -114.40117120</i>
    <i name="e_wo_entrp">   -114.40062220</i>
    <i name="e_0_energy">   -114.40089670</i>
   </energy>
  </scstep>
  <structure>
   <crystal>
    <varray name="basis" >
     <v>       6.90919004      0.00000000      0.00000000</v>
     <v>       0.00000000      6.90919004      0.00000000</v>
     <v>       0.00000000      0.00000000      6.90919004</v>
    </varray>
    <i name="volume">    329.82336277</i>
    <varray name="rec_basis" >
     <v>       0.14473477      0.00000000      0.00000000</v>
     <v>       0.00000000      0.14473477      0.00000000</v>
     <v>       0.00000000      0.00000000      0.14473477</v>
    </varray>
   </crystal>
   <varray name="positions" >
    <v>       0.00144735      0.00000000      0.00000000</v>
    <v>       0.50000000      0.00000000      0.00000000</v>
    <v>       0.00000000      0.50000000      0.00000000</v>
    <v>       0.50000000      0.50000000      0.00000000</v>
    <v>       0.00000000      0.00000000      0.50000000</v>
    <v>       0.50000000      0.00000000      0.50000000</v>
    <v>       0.00000000      0.50000000      0.50000000</v>
    <v>       0.50000000      0.50000000      0.50000000</v>
    <v>       0.25000000      0.25000000      0.00000000</v>
    <v>       0.75000000      0.25000000      0.00000000</v>
    <v>       0.25000000      0.75000000      0.00000000</v>
    <v>       0.75000000      0.75000000      0.00000000</v>
    <v>       0.25000000      0.25000000      0.50000000</v>
    <v>       0.75000000      0.25000000      0.50000000</v>
    <v>       0.25000000      0.75000000      0.50000000</v>
    <v>       0.75000000      0.75000000      0.50000000</v>
    <v>       0.25000000      0.00000000      0.25000000</v>
    <v>       0.75000000      0.00000000      0.25000000</v>
    <v>       0.25000000      0.50000000      0.25000000</v>
    <v>       0.75000000      0.50000000      0.25000000</v>
    <v>       0.25000000      0.00000000      0.75000000</v>
    <v>       0.75000000      0.00000000      0.75000000</v>
    <v>       0.25000000      0.50000000      0.75000000</v>
    <v>       0.75000000      0.50000000      0.75000000</v>
    <v>       0.00000000      0.25000000      0.25000000</v>
    <v>       0.50000000      0.25000000      0.25000000</v>
    <v>       0.00000000      0.75000000      0.25000000</v>
    <v>       0.50000000      0.75000000      0.25000000</v>
    <v>       0.00000000      0.25000000      0.75000000</v>
    <v>       0.50000000      0.25000000      0.75000000</v>
    <v>       0.00000000      0.75000000      0.75000000</v>
    <v>       0.50000000      0.75000000      0.75000000</v>
   </varray>
  </structure>
  <varray name="forces" >
   <v>      -0.12099428      0.00000000     -0.00000000</v>
   <v>       0.00114556      0.00000000     -0.00000000</v>
   <v>      -0.00062337     -0.00000000     -0.00000000</v>
   <v>       0.00068871      0.00000000      0.00000000</v>
   <v>      -0.00062337      0.00000000      0.00000000</v>
   <v>       0.00068871     -0.00000000     -0.00000000</v>
   <v>       0.00006174      0.00000000     -0.00000000</v>
   <v>      -0.00032648      0.00000000     -0.00000000</v>
   <v>       0.01571439      0.01856288     -0.00000000</v>
   <v>       0.01530586     -0.01794224      0.00000000</v>
   <v>       0.01571439     -0.01856288      0.00000000</v>
   <v>       0.01530586      0.01794224      0.00000000</v>
   <v>       0.00021659      0.00024186      0.00000000</v>
   <v>       0.00021735     -0.00024270      0.00000000</v>
   <v>       0.00021659     -0.00024186      0.00000000</v>
   <v>       0.00021735      0.00024270     -0.00000000</v>
   <v>       0.01571439      0.00000000      0.01856288</v>
   <v>       0.01530586      0.00000000     -0.01794224</v>
   <v>       0.00021659     -0.00000000      0.00024186</v>
   <v>       0.00021735     -0.00000000     -0.00024270</v>
   <v>       0.01571439      0.00000000     -0.01856288</v>
   <v>       0.01530586     -0.00000000      0.01794224</v>
   <v>       0.00021659     -0.00000000     -0.00024186</v>
   <v>       0.00021735     -0.00000000      0.00024270</v>
   <v>      -0.00210066     -0.00004210     -0.00004210</v>
   <v>       0.00064216      0.00000247      0.00000247</v>
   <v>      -0.00210066      0.00004210     -0.00004210</v>
   <v>       0.00064216     -0.00000247      0.00000247</v>
   <v>      -0.00210066     -0.00004210      0.00004210</v>
   <v>       0.00064216      0.00000247     -0.00000247</v>
   <v>      -0.00210066      0.00004210      0.00004210</v>
   <v>       0.00064216     -0.00000247     -0.00000247</v>
  </varray>
  <varray name="stress" >
   <v>     311.70558104      0.00000000      0.00000000</v>
   <v>      -0.00000000    311.70565393      0.00000000</v>
   <v>       0.00000000      0.00000000    311.70565393</v>
  </varray>
  <energy>
   <i name="e_fr_energy">   -114.40117120</i>
   <i name="e_wo_entrp">   -114.40089670</i>
   <i name="e_0_energy">     -0.00054900</i>
  </energy>
  <eigenvalues>
   <array>
    <dimension dim="1">band</dimension>
    <dimension dim="2">kpoint</dimension>
    <dimension dim="3">spin</dimension>
    <field>eigene</field>
    <field>occ</field>
    <set>
     <set comment="spin 1">
      <set comment="kpoint 1">
       <r>  -5.3851  1.0000</r>
       <r>  -2.3891  1.0000</r>
       <r>  -2.3857  1.0000</r>
       <r>  -2.3857  1.0000</r>
       <r>  -2.3857  1.0000</r>
       <r>  -2.3857  1.0000</r>
       <r>  -2.3822  1.0000</r>
       <r>  -0.8719  1.0000</r>
       <r>  -0.8719  1.0000</r>
       <r>  -0.8719  1.0000</r>
       <r>  -0.8719  1.0000</r>
       <r>  -0.7225  1.0000</r>
       <r>  -0.7225  1.0000</r>
       <r>  -0.7225  1.0000</r>
       <r>  -0.3658  1.0000</r>
       <r>  -0.3637  1.0000</r>
       <r>  -0.3637  1.0000</r>
       <r>  -0.3624  1.0000</r>
       <r>  -0.3621  1.0000</r>
       <r>  -0.3621  1.0000</r>
       <r>  -0.3620  1.0000</r>
       <r>  -0.3620  1.0000</r>
       <r>  -0.3617  1.0000</r>
       <r>  -0.3604  1.0000</r>
       <r>  -0.3604  1.0000</r>
       <r>  -0.3583  1.0000</r>
       <r>  -0.1749  1.0000</r>
       <r>  -0.1748  1.0000</r>
       <r>  -0.1748  1.0000</r>
       <r>   0.1484  1.0000</r>
       <r>   0.1509  1.0000</r>
       <r>   0.1509  1.0000</r>
       <r>   0.1509  1.0000</r>
       <r>   0.1509  1.0000</r>
       <r>   0.1534  1.0000</r>
       <r>   0.6527  1.0000</r>
       <r>   0.6550  1.0000</r>
       <r>   0.6550  1.0000</r>
       <r>   0.6551  1.0000</r>
       <r>   0.6551  1.0000</r>
       <r>   0.6573  1.0000</r>
       <r>   0.9073  1.0000</r>
       <r>   0.9076  1.0000</r>
       <r>   0.9076  1.0000</r>
       <r>   0.9102  1.0000</r>
       <r>   0.9102  1.0000</r>
       <r>   0.9103  1.0000</r>
       <r>   0.9103  1.0000</r>
       <r>   0.9103  1.0000</r>
       <r>   0.9105  1.0000</r>
       <r>   0.9105  1.0000</r>
       <r>   0.9121  1.0000</r>
       <r>   0.9121  1.0000</r>
       <r>   0.9136  1.0000</r>
       <r>   0.9152  1.0000</r>
       <r>   0.9152  1.0000</r>
       <r>   0.9158  1.0000</r>
       <r>   0.9158  1.0000</r>
       <r>   0.9158  1.0000</r>
       <r>   0.9158  1.0000</r>
       <r>   0.9159  1.0000</r>
       <r>   0.9159  1.0000</r>
       <r>   0.9174  1.0000</r>
       <r>   0.9174  1.0000</r>
       <r>   0.9210  1.0000</r>
       <r>   1.1575  1.0000</r>
       <r>   1.1606  1.0000</r>
       <r>   1.1606  1.0000</r>
       <r>   1.1610  1.0000</r>
       <r>   1.1614  1.0000</r>
       <r>   1.1614  1.0000</r>
       <r>   1.1614  1.0000</r>
       <r>   1.1614  1.0000</r>
       <r>   1.1617  1.0000</r>
       <r>   1.1621  1.0000</r>
       <r>   1.1621  1.0000</r>
       <r>   1.1653  1.0000</r>
       <r>   1.5016  1.0000</r>
       <r>   1.5016  1.0000</r>
       <r>   1.5016  1.0000</r>
       <r>   1.5017  1.0000</r>
       <r>   1.5017  1.0000</r>
       <r>   1.5017  1.0000</r>
       <r>   1.5017  1.0000</r>
       <r>   1.5017  1.0000</r>
       <r>   1.5436  1.0000</r>
       <r>   1.5436  1.0000</r>
       <r>   1.5436  1.0000</r>
       <r>   1.9972  1.0000</r>
       <r>   1.9994  1.0000</r>
       <r>   1.9994  1.0000</r>
       <r>   1.9994  1.0000</r>
       <r>   1.9994  1.0000</r>
       <r>   2.0016  1.0000</r>
       <r>   2.1537  1.0000</r>
       <r>   2.1543  1.0000</r>
       <r>   2.1554  1.0000</r>
       <r>   2.1554  1.0000</r>
       <r>   2.1561  1.0000</r>
       <r>   2.1561  1.0000</r>
       <r>   2.1561  1.0000</r>
       <r>   2.1561  1.0000</r>
       <r>   2.1567  1.0000</r>
       <r>   2.1567  1.0000</r>
       <r>   2.1579  1.0000</r>
       <r>   2.1583  1.0000</r>
       <r>   2.3524  1.0000</r>
       <r>   2.3524  1.0000</r>
       <r>   2.3547  1.0000</r>
       <r>   2.3547  1.0000</r>
       <r>   2.3549  1.0000</r>
       <r>   2.3549  1.0000</r>
       <r>   2.3550  1.0000</r>
       <r>   2.3550  1.0000</r>
       <r>   2.3552  1.0000</r>
       <r>   2.3552  1.0000</r>
       <r>   2.3574  1.0000</r>
       <r>   2.3574  1.0000</r>
       <r>   2.5082  1.0000</r>
       <r>   2.5096  1.0000</r>
       <r>   2.5096  1.0000</r>
       <r>   2.5097  1.0000</r>
       <r>   2.5097  1.0000</r>
       <r>   2.5111  1.0000</r>
       <r>   2.5522  1.0000</r>
       <r>   2.5522  1.0000</r>
       <r>   2.5541  1.0000</r>
       <r>   2.5546  1.0000</r>
       <r>   2.5546  1.0000</r>
       <r>   2.5547  1.0000</r>
       <r>   2.5547  1.0000</r>
       <r>   2.5547  1.0000</r>
       <r>   2.5548  1.0000</r>
       <r>   2.5553  1.0000</r>
       <r>   2.5573  1.0000</r>
       <r>   2.5573  1.0000</r>
       <r>   2.5663  1.0000</r>
       <r>   2.5665  1.0000</r>
       <r>   2.8996  1.0000</r>
       <r>   2.9008  1.0000</r>
       <r>   2.9008  1.0000</r>
       <r>   2.9008  1.0000</r>
       <r>   2.9008  1.0000</r>
       <r>   2.9019  1.0000</r>
       <r>   3.2437  1.0000</r>
       <r>   3.2438  1.0000</r>
       <r>   3.2438  1.0000</r>
       <r>   3.2610  1.0000</r>
       <r>   3.2610  1.0000</r>
       <r>   3.2610  1.0000</r>
       <r>   3.2610  1.0000</r>
       <r>   3.2610  1.0000</r>
       <r>   3.2610  1.0000</r>
       <r>   3.2610  1.0000</r>
       <r>   3.2610  1.0000</r>
       <r>   3.4339  1.0000</r>
       <r>   3.4345  1.0000</r>
       <r>   3.4345  1.0000</r>
       <r>   3.4345  1.0000</r>
       <r>   3.4345  1.0000</r>
       <r>   3.4345  1.0000</r>
       <r>   3.4354  1.0000</r>
       <r>   3.4355  1.0000</r>
       <r>   3.4355  1.0000</r>
       <r>   3.4355  1.0000</r>
       <r>   3.4356  1.0000</r>
       <r>   3.4361  1.0000</r>
       <r>   3.6422  1.0000</r>
       <r>   3.6422  1.0000</r>
       <r>   3.6422  1.0000</r>
       <r>   3.6422  1.0000</r>
       <r>   4.8012  1.0000</r>
       <r>   4.8013  1.0000</r>
       <r>   4.8013  1.0000</r>
       <r>   4.8025  1.0000</r>
       <r>   4.8028  1.0000</r>
       <r>   4.8028  1.0000</r>
       <r>   4.8028  1.0000</r>
       <r>   4.8028  1.0000</r>
       <r>   4.8032  1.0000</r>
       <r>   4.8043  1.0000</r>
       <r>   4.8043  1.0000</r>
       <r>   4.8044  1.0000</r>
       <r>   6.4708  0.0000</r>
       <r>   6.4708  0.0000</r>
       <r>   6.4709  0.0000</r>
       <r>   9.5468  0.0000</r>
       <r>   9.5468  0.0000</r>
       <r>   9.5468  0.0000</r>
       <r>   9.5468  0.0000</r>
       <r>  11.8279  0.0000</r>
       <r>  11.8279  0.0000</r>
       <r>  11.8317  0.0000</r>
       <r>  11.8317  0.0000</r>
       <r>  11.8323  0.0000</r>
       <r>  11.8323  0.0000</r>
       <r>  11.8323  0.0000</r>
       <r>  11.8323  0.0000</r>
       <r>  11.8328  0.0000</r>
       <r>  11.8328  0.0000</r>
       <r>  11.8366  0.0000</r>
       <r>  11.8366  0.0000</r>
       <r>  13.1814  0.0000</r>
       <r>  13.1814  0.0000</r>
       <r>  13.1814  0.0000</r>
       <r>  14.0815  0.0000</r>
       <r>  14.0844  0.0000</r>
       <r>  14.0844  0.0000</r>
       <r>  14.0844  0.0000</r>
       <r>  14.0844  0.0000</r>
       <r>  14.0872  0.0000</r>
       <r>  15.2506  0.0000</r>
      </set>
      <set comment="kpoint 2">
       <r>  -5.3617  1.0000</r>
       <r>  -2.7964  1.0000</r>
       <r>  -2.3670  1.0000</r>
       <r>  -2.3669  1.0000</r>
       <r>  -2.3669  1.0000</r>
       <r>  -2.3669  1.0000</r>
       <r>  -1.9856  1.0000</r>
       <r>  -0.8656  1.0000</r>
       <r>  -0.8656  1.0000</r>
       <r>  -0.8656  1.0000</r>
       <r>  -0.8656  1.0000</r>
       <r>  -0.7214  1.0000</r>
       <r>  -0.7108  1.0000</r>
       <r>  -0.7107  1.0000</r>
       <r>  -0.5855  1.0000</r>
       <r>  -0.5855  1.0000</r>
       <r>  -0.5855  1.0000</r>
       <r>  -0.5855  1.0000</r>
       <r>  -0.3759  1.0000</r>
       <r>  -0.3759  1.0000</r>
       <r>  -0.3759  1.0000</r>
       <r>  -0.3759  1.0000</r>
       <r>  -0.1680  1.0000</r>
       <r>  -0.1676  1.0000</r>
       <r>  -0.1676  1.0000</r>
       <r>  -0.1590  1.0000</r>
       <r>  -0.1590  1.0000</r>
       <r>  -0.1590  1.0000</r>
       <r>  -0.1589  1.0000</r>
       <r>   0.1306  1.0000</r>
       <r>   0.1308  1.0000</r>
       <r>   0.1603  1.0000</r>
       <r>   0.1603  1.0000</r>
       <r>   0.1603  1.0000</r>
       <r>   0.1605  1.0000</r>
       <r>   0.5435  1.0000</r>
       <r>   0.6580  1.0000</r>
       <r>   0.6580  1.0000</r>
       <r>   0.6580  1.0000</r>
       <r>   0.6581  1.0000</r>
       <r>   0.7339  1.0000</r>
       <r>   0.7339  1.0000</r>
       <r>   0.7676  1.0000</r>
       <r>   0.8949  1.0000</r>
       <r>   0.8956  1.0000</r>
       <r>   0.8956  1.0000</r>
       <r>   0.8957  1.0000</r>
       <r>   0.9008  1.0000</r>
       <r>   0.9009  1.0000</r>
       <r>   0.9009  1.0000</r>
       <r>   0.9009  1.0000</r>
       <r>   0.9113  1.0000</r>
       <r>   0.9114  1.0000</r>
       <r>   0.9114  1.0000</r>
       <r>   0.9114  1.0000</r>
       <r>   0.9307  1.0000</r>
       <r>   0.9308  1.0000</r>
       <r>   0.9308  1.0000</r>
       <r>   0.9310  1.0000</r>
       <r>   0.9430  1.0000</r>
       <r>   0.9430  1.0000</r>
       <r>   0.9430  1.0000</r>
       <r>   0.9436  1.0000</r>
       <r>   1.0704  1.0000</r>
       <r>   1.0705  1.0000</r>
       <r>   1.0705  1.0000</r>
       <r>   1.0705  1.0000</r>
       <r>   1.1028  1.0000</r>
       <r>   1.1028  1.0000</r>
       <r>   1.1685  1.0000</r>
       <r>   1.1685  1.0000</r>
       <r>   1.1685  1.0000</r>
       <r>   1.1685  1.0000</r>
       <r>   1.2370  1.0000</r>
       <r>   1.2370  1.0000</r>
       <r>   1.2370  1.0000</r>
       <r>   1.2371  1.0000</r>
       <r>   1.4963  1.0000</r>
       <r>   1.4963  1.0000</r>
       <r>   1.4963  1.0000</r>
       <r>   1.4963  1.0000</r>
       <r>   1.5083  1.0000</r>
       <r>   1.5083  1.0000</r>
       <r>   1.5083  1.0000</r>
       <r>   1.5084  1.0000</r>
       <r>   1.5357  1.0000</r>
       <r>   1.5497  1.0000</r>
       <r>   1.5497  1.0000</r>
       <r>   1.9623  1.0000</r>
       <r>   1.9624  1.0000</r>
       <r>   1.9624  1.0000</r>
       <r>   1.9624  1.0000</r>
       <r>   2.0085  1.0000</r>
       <r>   2.0404  1.0000</r>
       <r>   2.1272  1.0000</r>
       <r>   2.1273  1.0000</r>
       <r>   2.1273  1.0000</r>
       <r>   2.1273  1.0000</r>
       <r>   2.1539  1.0000</r>
       <r>   2.1539  1.0000</r>
       <r>   2.1539  1.0000</r>
       <r>   2.1539  1.0000</r>
       <r>   2.1862  1.0000</r>
       <r>   2.1862  1.0000</r>
       <r>   2.1863  1.0000</r>
       <r>   2.1863  1.0000</r>
       <r>   2.2368  1.0000</r>
       <r>   2.2368  1.0000</r>
       <r>   2.3548  1.0000</r>
       <r>   2.3548  1.0000</r>
       <r>   2.3549  1.0000</r>
       <r>   2.3549  1.0000</r>
       <r>   2.3863  1.0000</r>
       <r>   2.3863  1.0000</r>
       <r>   2.3863  1.0000</r>
       <r>   2.3863  1.0000</r>
       <r>   2.4773  1.0000</r>
       <r>   2.4773  1.0000</r>
       <r>   2.4983  1.0000</r>
       <r>   2.4983  1.0000</r>
       <r>   2.4983  1.0000</r>
       <r>   2.4983  1.0000</r>
       <r>   2.5095  1.0000</r>
       <r>   2.5097  1.0000</r>
       <r>   2.5097  1.0000</r>
       <r>   2.5097  1.0000</r>
       <r>   2.5275  1.0000</r>
       <r>   2.5276  1.0000</r>
       <r>   2.5591  1.0000</r>
       <r>   2.5690  1.0000</r>
       <r>   2.5843  1.0000</r>
       <r>   2.5843  1.0000</r>
       <r>   2.5843  1.0000</r>
       <r>   2.5845  1.0000</r>
       <r>   2.6227  1.0000</r>
       <r>   2.6227  1.0000</r>
       <r>   2.6228  1.0000</r>
       <r>   2.6228  1.0000</r>
       <r>   2.8566  1.0000</r>
       <r>   2.9084  1.0000</r>
       <r>   2.9084  1.0000</r>
       <r>   2.9085  1.0000</r>
       <r>   2.9085  1.0000</r>
       <r>   2.9451  1.0000</r>
       <r>   3.1068  1.0000</r>
       <r>   3.1068  1.0000</r>
       <r>   3.1068  1.0000</r>
       <r>   3.1068  1.0000</r>
       <r>   3.2345  1.0000</r>
       <r>   3.2345  1.0000</r>
       <r>   3.2408  1.0000</r>
       <r>   3.2534  1.0000</r>
       <r>   3.2534  1.0000</r>
       <r>   3.2534  1.0000</r>
       <r>   3.2534  1.0000</r>
       <r>   3.3823  1.0000</r>
       <r>   3.3823  1.0000</r>
       <r>   3.4236  1.0000</r>
       <r>   3.4236  1.0000</r>
       <r>   3.4237  1.0000</r>
       <r>   3.4237  1.0000</r>
       <r>   3.4237  1.0000</r>
       <r>   3.4237  1.0000</r>
       <r>   3.4339  1.0000</r>
       <r>   3.4345  1.0000</r>
       <r>   3.4355  1.0000</r>
       <r>   3.4361  1.0000</r>
       <r>   3.7768  1.0000</r>
       <r>   3.7769  1.0000</r>
       <r>   3.7769  1.0000</r>
       <r>   3.7769  1.0000</r>
       <r>   4.4974  1.0000</r>
       <r>   4.4974  1.0000</r>
       <r>   4.4974  1.0000</r>
       <r>   4.4974  1.0000</r>
       <r>   4.7979  1.0000</r>
       <r>   4.7979  1.0000</r>
       <r>   4.7979  1.0000</r>
       <r>   4.7979  1.0000</r>
       <r>   5.1551  0.0000</r>
       <r>   5.1551  0.0000</r>
       <r>   5.1551  0.0000</r>
       <r>   5.1551  0.0000</r>
       <r>   6.3305  0.0000</r>
       <r>   6.5431  0.0000</r>
       <r>   6.5431  0.0000</r>
       <r>   9.6056  0.0000</r>
       <r>   9.6056  0.0000</r>
       <r>   9.6056  0.0000</r>
       <r>   9.6056  0.0000</r>
       <r>  11.1938  0.0000</r>
       <r>  11.1938  0.0000</r>
       <r>  11.5114  0.0000</r>
       <r>  11.5114  0.0000</r>
       <r>  11.5114  0.0000</r>
       <r>  11.5115  0.0000</r>
       <r>  11.8645  0.0000</r>
       <r>  11.8645  0.0000</r>
       <r>  11.8645  0.0000</r>
       <r>  11.8645  0.0000</r>
       <r>  12.4903  0.0000</r>
       <r>  12.4903  0.0000</r>
       <r>  13.1882  0.0000</r>
       <r>  13.1882  0.0000</r>
       <r>  13.3650  0.0000</r>
       <r>  14.0356  0.0000</r>
       <r>  14.0356  0.0000</r>
       <r>  14.2964  0.0000</r>
       <r>  14.2964  0.0000</r>
       <r>  14.2964  0.0000</r>
       <r>  14.2964  0.0000</r>
       <r>  15.1665  0.0000</r>
      </set>
      <set comment="kpoint 3">
       <r>  -5.2918  1.0000</r>
       <r>  -3.2008  1.0000</r>
       <r>  -2.3111  1.0000</r>
       <r>  -2.3111  1.0000</r>
       <r>  -2.3111  1.0000</r>
       <r>  -2.3111  1.0000</r>
       <r>  -1.6182  1.0000</r>
       <r>  -0.8472  1.0000</r>
       <r>  -0.8471  1.0000</r>
       <r>  -0.8471  1.0000</r>
       <r>  -0.8471  1.0000</r>
       <r>  -0.8230  1.0000</r>
       <r>  -0.8230  1.0000</r>
       <r>  -0.8230  1.0000</r>
       <r>  -0.8229  1.0000</r>
       <r>  -0.7190  1.0000</r>
       <r>  -0.6759  1.0000</r>
       <r>  -0.6759  1.0000</r>
       <r>  -0.4141  1.0000</r>
       <r>  -0.4141  1.0000</r>
       <r>  -0.4141  1.0000</r>
       <r>  -0.4141  1.0000</r>
       <r>  -0.1475  1.0000</r>
       <r>  -0.1456  1.0000</r>
       <r>  -0.1456  1.0000</r>
       <r>   0.0203  1.0000</r>
       <r>   0.0203  1.0000</r>
       <r>   0.0203  1.0000</r>
       <r>   0.0203  1.0000</r>
       <r>   0.0736  1.0000</r>
       <r>   0.0737  1.0000</r>
       <r>   0.1882  1.0000</r>
       <r>   0.1882  1.0000</r>
       <r>   0.1882  1.0000</r>
       <r>   0.1882  1.0000</r>
       <r>   0.4349  1.0000</r>
       <r>   0.5733  1.0000</r>
       <r>   0.5733  1.0000</r>
       <r>   0.6668  1.0000</r>
       <r>   0.6669  1.0000</r>
       <r>   0.6669  1.0000</r>
       <r>   0.6669  1.0000</r>
       <r>   0.8707  1.0000</r>
       <r>   0.8709  1.0000</r>
       <r>   0.8709  1.0000</r>
       <r>   0.8710  1.0000</r>
       <r>   0.8730  1.0000</r>
       <r>   0.8731  1.0000</r>
       <r>   0.8731  1.0000</r>
       <r>   0.8731  1.0000</r>
       <r>   0.8791  1.0000</r>
       <r>   0.9143  1.0000</r>
       <r>   0.9144  1.0000</r>
       <r>   0.9144  1.0000</r>
       <r>   0.9144  1.0000</r>
       <r>   0.9404  1.0000</r>
       <r>   0.9404  1.0000</r>
       <r>   0.9404  1.0000</r>
       <r>   0.9408  1.0000</r>
       <r>   0.9680  1.0000</r>
       <r>   0.9680  1.0000</r>
       <r>   0.9680  1.0000</r>
       <r>   0.9680  1.0000</r>
       <r>   1.0211  1.0000</r>
       <r>   1.0211  1.0000</r>
       <r>   1.0211  1.0000</r>
       <r>   1.0212  1.0000</r>
       <r>   1.1899  1.0000</r>
       <r>   1.1899  1.0000</r>
       <r>   1.1899  1.0000</r>
       <r>   1.1899  1.0000</r>
       <r>   1.2988  1.0000</r>
       <r>   1.2989  1.0000</r>
       <r>   1.2989  1.0000</r>
       <r>   1.2989  1.0000</r>
       <r>   1.3105  1.0000</r>
       <r>   1.3105  1.0000</r>
       <r>   1.4805  1.0000</r>
       <r>   1.4805  1.0000</r>
       <r>   1.4806  1.0000</r>
       <r>   1.4806  1.0000</r>
       <r>   1.5123  1.0000</r>
       <r>   1.5283  1.0000</r>
       <r>   1.5283  1.0000</r>
       <r>   1.5283  1.0000</r>
       <r>   1.5284  1.0000</r>
       <r>   1.5681  1.0000</r>
       <r>   1.5681  1.0000</r>
       <r>   1.8801  1.0000</r>
       <r>   1.8801  1.0000</r>
       <r>   1.8802  1.0000</r>
       <r>   1.8802  1.0000</r>
       <r>   2.0503  1.0000</r>
       <r>   2.0591  1.0000</r>
       <r>   2.0591  1.0000</r>
       <r>   2.0591  1.0000</r>
       <r>   2.0591  1.0000</r>
       <r>   2.1248  1.0000</r>
       <r>   2.1248  1.0000</r>
       <r>   2.1530  1.0000</r>
       <r>   2.1806  1.0000</r>
       <r>   2.1807  1.0000</r>
       <r>   2.1807  1.0000</r>
       <r>   2.1809  1.0000</r>
       <r>   2.2367  1.0000</r>
       <r>   2.2367  1.0000</r>
       <r>   2.2368  1.0000</r>
       <r>   2.2368  1.0000</r>
       <r>   2.3548  1.0000</r>
       <r>   2.3548  1.0000</r>
       <r>   2.3548  1.0000</r>
       <r>   2.3548  1.0000</r>
       <r>   2.4457  1.0000</r>
       <r>   2.4457  1.0000</r>
       <r>   2.4458  1.0000</r>
       <r>   2.4458  1.0000</r>
       <r>   2.4534  1.0000</r>
       <r>   2.4534  1.0000</r>
       <r>   2.4535  1.0000</r>
       <r>   2.4535  1.0000</r>
       <r>   2.5088  1.0000</r>
       <r>   2.5088  1.0000</r>
       <r>   2.5089  1.0000</r>
       <r>   2.5089  1.0000</r>
       <r>   2.5378  1.0000</r>
       <r>   2.5769  1.0000</r>
       <r>   2.5780  1.0000</r>
       <r>   2.5787  1.0000</r>
       <r>   2.6024  1.0000</r>
       <r>   2.6024  1.0000</r>
       <r>   2.6551  1.0000</r>
       <r>   2.6551  1.0000</r>
       <r>   2.6551  1.0000</r>
       <r>   2.6551  1.0000</r>
       <r>   2.7015  1.0000</r>
       <r>   2.7015  1.0000</r>
       <r>   2.7015  1.0000</r>
       <r>   2.7015  1.0000</r>
       <r>   2.8134  1.0000</r>
       <r>   2.8386  1.0000</r>
       <r>   2.8386  1.0000</r>
       <r>   2.8386  1.0000</r>
       <r>   2.8386  1.0000</r>
       <r>   2.9373  1.0000</r>
       <r>   2.9373  1.0000</r>
       <r>   2.9373  1.0000</r>
       <r>   2.9373  1.0000</r>
       <r>   2.9887  1.0000</r>
       <r>   3.2069  1.0000</r>
       <r>   3.2069  1.0000</r>
       <r>   3.2308  1.0000</r>
       <r>   3.2308  1.0000</r>
       <r>   3.2308  1.0000</r>
       <r>   3.2308  1.0000</r>
       <r>   3.2320  1.0000</r>
       <r>   3.2388  1.0000</r>
       <r>   3.2388  1.0000</r>
       <r>   3.3891  1.0000</r>
       <r>   3.3891  1.0000</r>
       <r>   3.3891  1.0000</r>
       <r>   3.3891  1.0000</r>
       <r>   3.3913  1.0000</r>
       <r>   3.3913  1.0000</r>
       <r>   3.4339  1.0000</r>
       <r>   3.4346  1.0000</r>
       <r>   3.4354  1.0000</r>
       <r>   3.4361  1.0000</r>
       <r>   3.9878  1.0000</r>
       <r>   3.9878  1.0000</r>
       <r>   3.9878  1.0000</r>
       <r>   3.9878  1.0000</r>
       <r>   4.2299  1.0000</r>
       <r>   4.2300  1.0000</r>
       <r>   4.2300  1.0000</r>
       <r>   4.2300  1.0000</r>
       <r>   4.7828  1.0000</r>
       <r>   4.7829  1.0000</r>
       <r>   4.7829  1.0000</r>
       <r>   4.7829  1.0000</r>
       <r>   5.5625  0.0000</r>
       <r>   5.5625  0.0000</r>
       <r>   5.5625  0.0000</r>
       <r>   5.5625  0.0000</r>
       <r>   5.9513  0.0000</r>
       <r>   6.7467  0.0000</r>
       <r>   6.7467  0.0000</r>
       <r>   9.7806  0.0000</r>
       <r>   9.7806  0.0000</r>
       <r>   9.7806  0.0000</r>
       <r>   9.7806  0.0000</r>
       <r>  10.5763  0.0000</r>
       <r>  10.5763  0.0000</r>
       <r>  10.8286  0.0000</r>
       <r>  10.8286  0.0000</r>
       <r>  10.8286  0.0000</r>
       <r>  10.8287  0.0000</r>
       <r>  11.9606  0.0000</r>
       <r>  11.9606  0.0000</r>
       <r>  11.9606  0.0000</r>
       <r>  11.9606  0.0000</r>
       <r>  13.1668  0.0000</r>
       <r>  13.1668  0.0000</r>
       <r>  13.2086  0.0000</r>
       <r>  13.2086  0.0000</r>
       <r>  13.8745  0.0000</r>
       <r>  13.9206  0.0000</r>
       <r>  13.9207  0.0000</r>
       <r>  14.4747  0.0000</r>
       <r>  14.4748  0.0000</r>
       <r>  14.4750  0.0000</r>
       <r>  14.4756  0.0000</r>
       <r>  14.5889  0.0000</r>
      </set>
      <set comment="kpoint 4">
       <r>  -5.1757  1.0000</r>
       <r>  -3.5868  1.0000</r>
       <r>  -2.2191  1.0000</r>
       <r>  -2.2191  1.0000</r>
       <r>  -2.2191  1.0000</r>
       <r>  -2.2191  1.0000</r>
       <r>  -1.3065  1.0000</r>
       <r>  -1.0663  1.0000</r>
       <r>  -1.0663  1.0000</r>
       <r>  -1.0663  1.0000</r>
       <r>  -1.0663  1.0000</r>
       <r>  -0.8168  1.0000</r>
       <r>  -0.8168  1.0000</r>
       <r>  -0.8168  1.0000</r>
       <r>  -0.8168  1.0000</r>
       <r>  -0.7186  1.0000</r>
       <r>  -0.6192  1.0000</r>
       <r>  -0.6192  1.0000</r>
       <r>  -0.4694  1.0000</r>
       <r>  -0.4693  1.0000</r>
       <r>  -0.4693  1.0000</r>
       <r>  -0.4693  1.0000</r>
       <r>  -0.1136  1.0000</r>
       <r>  -0.1090  1.0000</r>
       <r>  -0.1090  1.0000</r>
       <r>  -0.0124  1.0000</r>
       <r>  -0.0124  1.0000</r>
       <r>   0.1744  1.0000</r>
       <r>   0.1744  1.0000</r>
       <r>   0.1744  1.0000</r>
       <r>   0.1745  1.0000</r>
       <r>   0.2331  1.0000</r>
       <r>   0.2331  1.0000</r>
       <r>   0.2331  1.0000</r>
       <r>   0.2331  1.0000</r>
       <r>   0.3309  1.0000</r>
       <r>   0.4289  1.0000</r>
       <r>   0.4289  1.0000</r>
       <r>   0.6812  1.0000</r>
       <r>   0.6813  1.0000</r>
       <r>   0.6813  1.0000</r>
       <r>   0.6813  1.0000</r>
       <r>   0.8288  1.0000</r>
       <r>   0.8289  1.0000</r>
       <r>   0.8289  1.0000</r>
       <r>   0.8289  1.0000</r>
       <r>   0.8427  1.0000</r>
       <r>   0.8429  1.0000</r>
       <r>   0.8429  1.0000</r>
       <r>   0.8429  1.0000</r>
       <r>   0.8604  1.0000</r>
       <r>   0.8604  1.0000</r>
       <r>   0.8604  1.0000</r>
       <r>   0.8604  1.0000</r>
       <r>   0.9188  1.0000</r>
       <r>   0.9191  1.0000</r>
       <r>   0.9191  1.0000</r>
       <r>   0.9191  1.0000</r>
       <r>   0.9451  1.0000</r>
       <r>   0.9451  1.0000</r>
       <r>   0.9451  1.0000</r>
       <r>   0.9453  1.0000</r>
       <r>   0.9879  1.0000</r>
       <r>   1.1379  1.0000</r>
       <r>   1.1379  1.0000</r>
       <r>   1.1379  1.0000</r>
       <r>   1.1380  1.0000</r>
       <r>   1.2293  1.0000</r>
       <r>   1.2293  1.0000</r>
       <r>   1.2293  1.0000</r>
       <r>   1.2293  1.0000</r>
       <r>   1.3526  1.0000</r>
       <r>   1.3526  1.0000</r>
       <r>   1.3526  1.0000</r>
       <r>   1.3526  1.0000</r>
       <r>   1.4551  1.0000</r>
       <r>   1.4551  1.0000</r>
       <r>   1.4551  1.0000</r>
       <r>   1.4552  1.0000</r>
       <r>   1.4738  1.0000</r>
       <r>   1.5331  1.0000</r>
       <r>   1.5331  1.0000</r>
       <r>   1.5613  1.0000</r>
       <r>   1.5613  1.0000</r>
       <r>   1.5613  1.0000</r>
       <r>   1.5614  1.0000</r>
       <r>   1.5987  1.0000</r>
       <r>   1.5987  1.0000</r>
       <r>   1.7856  1.0000</r>
       <r>   1.7856  1.0000</r>
       <r>   1.7856  1.0000</r>
       <r>   1.7856  1.0000</r>
       <r>   1.9757  1.0000</r>
       <r>   1.9757  1.0000</r>
       <r>   1.9757  1.0000</r>
       <r>   1.9758  1.0000</r>
       <r>   2.0201  1.0000</r>
       <r>   2.0201  1.0000</r>
       <r>   2.1117  1.0000</r>
       <r>   2.2300  1.0000</r>
       <r>   2.2301  1.0000</r>
       <r>   2.2301  1.0000</r>
       <r>   2.2301  1.0000</r>
       <r>   2.2970  1.0000</r>
       <r>   2.2970  1.0000</r>
       <r>   2.2970  1.0000</r>
       <r>   2.2970  1.0000</r>
       <r>   2.3551  1.0000</r>
       <r>   2.3551  1.0000</r>
       <r>   2.3551  1.0000</r>
       <r>   2.3552  1.0000</r>
       <r>   2.3610  1.0000</r>
       <r>   2.4191  1.0000</r>
       <r>   2.4191  1.0000</r>
       <r>   2.4191  1.0000</r>
       <r>   2.4191  1.0000</r>
       <r>   2.4880  1.0000</r>
       <r>   2.4881  1.0000</r>
       <r>   2.4881  1.0000</r>
       <r>   2.4881  1.0000</r>
       <r>   2.5028  1.0000</r>
       <r>   2.5053  1.0000</r>
       <r>   2.5053  1.0000</r>
       <r>   2.5054  1.0000</r>
       <r>   2.5054  1.0000</r>
       <r>   2.5528  1.0000</r>
       <r>   2.5528  1.0000</r>
       <r>   2.5528  1.0000</r>
       <r>   2.5528  1.0000</r>
       <r>   2.5914  1.0000</r>
       <r>   2.6534  1.0000</r>
       <r>   2.6534  1.0000</r>
       <r>   2.7276  1.0000</r>
       <r>   2.7276  1.0000</r>
       <r>   2.7426  1.0000</r>
       <r>   2.7426  1.0000</r>
       <r>   2.7426  1.0000</r>
       <r>   2.7426  1.0000</r>
       <r>   2.7718  1.0000</r>
       <r>   2.7896  1.0000</r>
       <r>   2.7896  1.0000</r>
       <r>   2.7896  1.0000</r>
       <r>   2.7896  1.0000</r>
       <r>   3.0006  1.0000</r>
       <r>   3.0006  1.0000</r>
       <r>   3.0006  1.0000</r>
       <r>   3.0007  1.0000</r>
       <r>   3.0310  1.0000</r>
       <r>   3.0328  1.0000</r>
       <r>   3.0328  1.0000</r>
       <r>   3.1616  1.0000</r>
       <r>   3.1616  1.0000</r>
       <r>   3.1937  1.0000</r>
       <r>   3.1937  1.0000</r>
       <r>   3.1937  1.0000</r>
       <r>   3.1937  1.0000</r>
       <r>   3.2174  1.0000</r>
       <r>   3.3339  1.0000</r>
       <r>   3.3339  1.0000</r>
       <r>   3.3339  1.0000</r>
       <r>   3.3339  1.0000</r>
       <r>   3.3387  1.0000</r>
       <r>   3.3387  1.0000</r>
       <r>   3.4339  1.0000</r>
       <r>   3.4346  1.0000</r>
       <r>   3.4353  1.0000</r>
       <r>   3.4361  1.0000</r>
       <r>   3.9922  1.0000</r>
       <r>   3.9922  1.0000</r>
       <r>   3.9922  1.0000</r>
       <r>   3.9923  1.0000</r>
       <r>   4.1824  1.0000</r>
       <r>   4.1825  1.0000</r>
       <r>   4.1825  1.0000</r>
       <r>   4.1825  1.0000</r>
       <r>   4.7563  1.0000</r>
       <r>   4.7563  1.0000</r>
       <r>   4.7563  1.0000</r>
       <r>   4.7563  1.0000</r>
       <r>   5.4209  0.0000</r>
       <r>   6.0309  0.0000</r>
       <r>   6.0309  0.0000</r>
       <r>   6.0309  0.0000</r>
       <r>   6.0309  0.0000</r>
       <r>   7.0529  0.0000</r>
       <r>   7.0529  0.0000</r>
       <r>   9.9811  0.0000</r>
       <r>   9.9811  0.0000</r>
       <r>  10.0519  0.0000</r>
       <r>  10.0521  0.0000</r>
       <r>  10.0521  0.0000</r>
       <r>  10.0524  0.0000</r>
       <r>  10.0679  0.0000</r>
       <r>  10.0682  0.0000</r>
       <r>  10.0682  0.0000</r>
       <r>  10.0684  0.0000</r>
       <r>  12.1183  0.0000</r>
       <r>  12.1183  0.0000</r>
       <r>  12.1183  0.0000</r>
       <r>  12.1183  0.0000</r>
       <r>  13.2430  0.0000</r>
       <r>  13.2430  0.0000</r>
       <r>  13.6680  0.0000</r>
       <r>  13.6680  0.0000</r>
       <r>  13.6680  0.0000</r>
       <r>  13.6681  0.0000</r>
       <r>  13.7857  0.0000</r>
       <r>  13.7857  0.0000</r>
       <r>  13.8602  0.0000</r>
       <r>  13.8602  0.0000</r>
       <r>  14.1571  0.0000</r>
       <r>  14.1571  0.0000</r>
      </set>
      <set comment="kpoint 5">
       <r>  -5.0142  1.0000</r>
       <r>  -3.9458  1.0000</r>
       <r>  -2.0927  1.0000</r>
       <r>  -2.0926  1.0000</r>
       <r>  -2.0926  1.0000</r>
       <r>  -2.0926  1.0000</r>
       <r>  -1.3068  1.0000</r>
       <r>  -1.3068  1.0000</r>
       <r>  -1.3068  1.0000</r>
       <r>  -1.3068  1.0000</r>
       <r>  -1.0675  1.0000</r>
       <r>  -0.7754  1.0000</r>
       <r>  -0.7754  1.0000</r>
       <r>  -0.7754  1.0000</r>
       <r>  -0.7754  1.0000</r>
       <r>  -0.7259  1.0000</r>
       <r>  -0.5426  1.0000</r>
       <r>  -0.5426  1.0000</r>
       <r>  -0.5337  1.0000</r>
       <r>  -0.5337  1.0000</r>
       <r>  -0.5337  1.0000</r>
       <r>  -0.5337  1.0000</r>
       <r>  -0.1171  1.0000</r>
       <r>  -0.1171  1.0000</r>
       <r>  -0.0668  1.0000</r>
       <r>  -0.0575  1.0000</r>
       <r>  -0.0575  1.0000</r>
       <r>   0.2332  1.0000</r>
       <r>   0.2922  1.0000</r>
       <r>   0.2922  1.0000</r>
       <r>   0.2922  1.0000</r>
       <r>   0.2922  1.0000</r>
       <r>   0.3001  1.0000</r>
       <r>   0.3001  1.0000</r>
       <r>   0.3019  1.0000</r>
       <r>   0.3019  1.0000</r>
       <r>   0.3023  1.0000</r>
       <r>   0.3023  1.0000</r>
       <r>   0.7008  1.0000</r>
       <r>   0.7008  1.0000</r>
       <r>   0.7008  1.0000</r>
       <r>   0.7009  1.0000</r>
       <r>   0.7568  1.0000</r>
       <r>   0.7569  1.0000</r>
       <r>   0.7569  1.0000</r>
       <r>   0.7569  1.0000</r>
       <r>   0.7717  1.0000</r>
       <r>   0.7717  1.0000</r>
       <r>   0.7717  1.0000</r>
       <r>   0.7718  1.0000</r>
       <r>   0.8126  1.0000</r>
       <r>   0.8127  1.0000</r>
       <r>   0.8127  1.0000</r>
       <r>   0.8127  1.0000</r>
       <r>   0.9246  1.0000</r>
       <r>   0.9250  1.0000</r>
       <r>   0.9250  1.0000</r>
       <r>   0.9250  1.0000</r>
       <r>   0.9455  1.0000</r>
       <r>   0.9456  1.0000</r>
       <r>   0.9456  1.0000</r>
       <r>   0.9460  1.0000</r>
       <r>   1.0916  1.0000</r>
       <r>   1.2351  1.0000</r>
       <r>   1.2351  1.0000</r>
       <r>   1.2352  1.0000</r>
       <r>   1.2352  1.0000</r>
       <r>   1.3356  1.0000</r>
       <r>   1.3356  1.0000</r>
       <r>   1.3356  1.0000</r>
       <r>   1.3356  1.0000</r>
       <r>   1.4055  1.0000</r>
       <r>   1.4055  1.0000</r>
       <r>   1.4055  1.0000</r>
       <r>   1.4055  1.0000</r>
       <r>   1.4208  1.0000</r>
       <r>   1.4213  1.0000</r>
       <r>   1.4213  1.0000</r>
       <r>   1.4214  1.0000</r>
       <r>   1.4215  1.0000</r>
       <r>   1.6066  1.0000</r>
       <r>   1.6067  1.0000</r>
       <r>   1.6067  1.0000</r>
       <r>   1.6067  1.0000</r>
       <r>   1.6411  1.0000</r>
       <r>   1.6411  1.0000</r>
       <r>   1.6926  1.0000</r>
       <r>   1.6926  1.0000</r>
       <r>   1.6926  1.0000</r>
       <r>   1.6926  1.0000</r>
       <r>   1.7693  1.0000</r>
       <r>   1.7693  1.0000</r>
       <r>   1.8897  1.0000</r>
       <r>   1.8897  1.0000</r>
       <r>   1.8897  1.0000</r>
       <r>   1.8897  1.0000</r>
       <r>   1.9240  1.0000</r>
       <r>   1.9240  1.0000</r>
       <r>   2.1831  1.0000</r>
       <r>   2.2698  1.0000</r>
       <r>   2.2699  1.0000</r>
       <r>   2.2699  1.0000</r>
       <r>   2.2699  1.0000</r>
       <r>   2.2927  1.0000</r>
       <r>   2.2927  1.0000</r>
       <r>   2.2927  1.0000</r>
       <r>   2.2927  1.0000</r>
       <r>   2.3564  1.0000</r>
       <r>   2.3564  1.0000</r>
       <r>   2.3565  1.0000</r>
       <r>   2.3566  1.0000</r>
       <r>   2.3568  1.0000</r>
       <r>   2.3568  1.0000</r>
       <r>   2.3569  1.0000</r>
       <r>   2.3569  1.0000</r>
       <r>   2.3943  1.0000</r>
       <r>   2.3943  1.0000</r>
       <r>   2.3943  1.0000</r>
       <r>   2.3943  1.0000</r>
       <r>   2.4556  1.0000</r>
       <r>   2.4936  1.0000</r>
       <r>   2.4939  1.0000</r>
       <r>   2.4941  1.0000</r>
       <r>   2.4941  1.0000</r>
       <r>   2.4963  1.0000</r>
       <r>   2.4963  1.0000</r>
       <r>   2.4964  1.0000</r>
       <r>   2.4967  1.0000</r>
       <r>   2.6106  1.0000</r>
       <r>   2.6784  1.0000</r>
       <r>   2.7324  1.0000</r>
       <r>   2.7441  1.0000</r>
       <r>   2.7441  1.0000</r>
       <r>   2.7916  1.0000</r>
       <r>   2.7916  1.0000</r>
       <r>   2.8340  1.0000</r>
       <r>   2.8340  1.0000</r>
       <r>   2.8340  1.0000</r>
       <r>   2.8340  1.0000</r>
       <r>   2.8508  1.0000</r>
       <r>   2.8508  1.0000</r>
       <r>   2.8845  1.0000</r>
       <r>   2.8845  1.0000</r>
       <r>   2.8845  1.0000</r>
       <r>   2.8845  1.0000</r>
       <r>   3.0712  1.0000</r>
       <r>   3.0998  1.0000</r>
       <r>   3.0999  1.0000</r>
       <r>   3.1047  1.0000</r>
       <r>   3.1047  1.0000</r>
       <r>   3.1047  1.0000</r>
       <r>   3.1048  1.0000</r>
       <r>   3.1429  1.0000</r>
       <r>   3.1429  1.0000</r>
       <r>   3.1429  1.0000</r>
       <r>   3.1430  1.0000</r>
       <r>   3.1973  1.0000</r>
       <r>   3.2614  1.0000</r>
       <r>   3.2614  1.0000</r>
       <r>   3.2614  1.0000</r>
       <r>   3.2614  1.0000</r>
       <r>   3.2677  1.0000</r>
       <r>   3.2677  1.0000</r>
       <r>   3.4340  1.0000</r>
       <r>   3.4348  1.0000</r>
       <r>   3.4352  1.0000</r>
       <r>   3.4360  1.0000</r>
       <r>   3.7777  1.0000</r>
       <r>   3.7777  1.0000</r>
       <r>   3.7777  1.0000</r>
       <r>   3.7777  1.0000</r>
       <r>   4.3466  1.0000</r>
       <r>   4.3466  1.0000</r>
       <r>   4.3466  1.0000</r>
       <r>   4.3466  1.0000</r>
       <r>   4.7160  1.0000</r>
       <r>   4.7161  1.0000</r>
       <r>   4.7161  1.0000</r>
       <r>   4.7161  1.0000</r>
       <r>   4.8200  1.0000</r>
       <r>   6.5630  0.0000</r>
       <r>   6.5630  0.0000</r>
       <r>   6.5630  0.0000</r>
       <r>   6.5630  0.0000</r>
       <r>   7.4341  0.0000</r>
       <r>   7.4341  0.0000</r>
       <r>   9.2722  0.0000</r>
       <r>   9.2722  0.0000</r>
       <r>   9.2722  0.0000</r>
       <r>   9.2722  0.0000</r>
       <r>   9.4100  0.0000</r>
       <r>   9.4100  0.0000</r>
       <r>  10.4608  0.0000</r>
       <r>  10.4608  0.0000</r>
       <r>  10.4608  0.0000</r>
       <r>  10.4608  0.0000</r>
       <r>  12.3346  0.0000</r>
       <r>  12.3346  0.0000</r>
       <r>  12.3346  0.0000</r>
       <r>  12.3346  0.0000</r>
       <r>  12.8966  0.0000</r>
       <r>  12.8966  0.0000</r>
       <r>  12.8966  0.0000</r>
       <r>  12.8966  0.0000</r>
       <r>  13.2924  0.0000</r>
       <r>  13.2924  0.0000</r>
       <r>  13.6552  0.0000</r>
       <r>  13.6552  0.0000</r>
       <r>  13.7064  0.0000</r>
       <r>  13.7064  0.0000</r>
       <r>  13.7064  0.0000</r>
       <r>  13.7064  0.0000</r>
      </set>
      <set comment="kpoint 6">
       <r>  -4.8086  1.0000</r>
       <r>  -4.2717  1.0000</r>
       <r>  -1.9342  1.0000</r>
       <r>  -1.9342  1.0000</r>
       <r>  -1.9342  1.0000</r>
       <r>  -1.9342  1.0000</r>
       <r>  -1.5361  1.0000</r>
       <r>  -1.5361  1.0000</r>
       <r>  -1.5361  1.0000</r>
       <r>  -1.5361  1.0000</r>
       <r>  -0.9035  1.0000</r>
       <r>  -0.7499  1.0000</r>
       <r>  -0.7244  1.0000</r>
       <r>  -0.7244  1.0000</r>
       <r>  -0.7243  1.0000</r>
       <r>  -0.7243  1.0000</r>
       <r>  -0.6005  1.0000</r>
       <r>  -0.6005  1.0000</r>
       <r>  -0.6005  1.0000</r>
       <r>  -0.6005  1.0000</r>
       <r>  -0.4493  1.0000</r>
       <r>  -0.4493  1.0000</r>
       <r>  -0.2303  1.0000</r>
       <r>  -0.2303  1.0000</r>
       <r>  -0.0079  1.0000</r>
       <r>   0.0090  1.0000</r>
       <r>   0.0090  1.0000</r>
       <r>   0.1433  1.0000</r>
       <r>   0.1877  1.0000</r>
       <r>   0.1877  1.0000</r>
       <r>   0.3584  1.0000</r>
       <r>   0.3585  1.0000</r>
       <r>   0.3585  1.0000</r>
       <r>   0.3585  1.0000</r>
       <r>   0.3919  1.0000</r>
       <r>   0.3920  1.0000</r>
       <r>   0.3920  1.0000</r>
       <r>   0.3920  1.0000</r>
       <r>   0.6761  1.0000</r>
       <r>   0.6761  1.0000</r>
       <r>   0.6761  1.0000</r>
       <r>   0.6761  1.0000</r>
       <r>   0.7082  1.0000</r>
       <r>   0.7082  1.0000</r>
       <r>   0.7082  1.0000</r>
       <r>   0.7083  1.0000</r>
       <r>   0.7247  1.0000</r>
       <r>   0.7248  1.0000</r>
       <r>   0.7248  1.0000</r>
       <r>   0.7248  1.0000</r>
       <r>   0.7820  1.0000</r>
       <r>   0.7820  1.0000</r>
       <r>   0.7820  1.0000</r>
       <r>   0.7820  1.0000</r>
       <r>   0.9308  1.0000</r>
       <r>   0.9314  1.0000</r>
       <r>   0.9314  1.0000</r>
       <r>   0.9314  1.0000</r>
       <r>   0.9427  1.0000</r>
       <r>   0.9428  1.0000</r>
       <r>   0.9428  1.0000</r>
       <r>   0.9435  1.0000</r>
       <r>   1.1886  1.0000</r>
       <r>   1.2881  1.0000</r>
       <r>   1.2881  1.0000</r>
       <r>   1.2881  1.0000</r>
       <r>   1.2881  1.0000</r>
       <r>   1.3549  1.0000</r>
       <r>   1.3808  1.0000</r>
       <r>   1.3808  1.0000</r>
       <r>   1.3808  1.0000</r>
       <r>   1.3808  1.0000</r>
       <r>   1.4635  1.0000</r>
       <r>   1.4635  1.0000</r>
       <r>   1.4635  1.0000</r>
       <r>   1.4636  1.0000</r>
       <r>   1.5246  1.0000</r>
       <r>   1.5246  1.0000</r>
       <r>   1.5246  1.0000</r>
       <r>   1.5246  1.0000</r>
       <r>   1.6066  1.0000</r>
       <r>   1.6066  1.0000</r>
       <r>   1.6066  1.0000</r>
       <r>   1.6067  1.0000</r>
       <r>   1.6636  1.0000</r>
       <r>   1.6636  1.0000</r>
       <r>   1.6636  1.0000</r>
       <r>   1.6636  1.0000</r>
       <r>   1.6954  1.0000</r>
       <r>   1.6954  1.0000</r>
       <r>   1.8070  1.0000</r>
       <r>   1.8070  1.0000</r>
       <r>   1.8070  1.0000</r>
       <r>   1.8070  1.0000</r>
       <r>   1.8373  1.0000</r>
       <r>   1.8373  1.0000</r>
       <r>   1.9998  1.0000</r>
       <r>   1.9998  1.0000</r>
       <r>   1.9998  1.0000</r>
       <r>   1.9998  1.0000</r>
       <r>   2.0171  1.0000</r>
       <r>   2.0171  1.0000</r>
       <r>   2.2578  1.0000</r>
       <r>   2.3588  1.0000</r>
       <r>   2.3588  1.0000</r>
       <r>   2.3588  1.0000</r>
       <r>   2.3588  1.0000</r>
       <r>   2.3598  1.0000</r>
       <r>   2.3598  1.0000</r>
       <r>   2.3598  1.0000</r>
       <r>   2.3599  1.0000</r>
       <r>   2.3772  1.0000</r>
       <r>   2.3772  1.0000</r>
       <r>   2.3772  1.0000</r>
       <r>   2.3772  1.0000</r>
       <r>   2.3975  1.0000</r>
       <r>   2.4090  1.0000</r>
       <r>   2.4090  1.0000</r>
       <r>   2.4090  1.0000</r>
       <r>   2.4090  1.0000</r>
       <r>   2.4680  1.0000</r>
       <r>   2.4680  1.0000</r>
       <r>   2.4680  1.0000</r>
       <r>   2.4680  1.0000</r>
       <r>   2.4785  1.0000</r>
       <r>   2.4785  1.0000</r>
       <r>   2.4786  1.0000</r>
       <r>   2.4786  1.0000</r>
       <r>   2.5345  1.0000</r>
       <r>   2.5345  1.0000</r>
[...]
       <r>   1.7462  1.0000</r>
       <r>   1.7462  1.0000</r>
       <r>   1.7462  1.0000</r>
       <r>   1.7462  1.0000</r>
       <r>   1.7699  1.0000</r>
       <r>   1.7699  1.0000</r>
       <r>   1.7699  1.0000</r>
       <r>   1.7699  1.0000</r>
       <r>   2.1517  1.0000</r>
       <r>   2.1518  1.0000</r>
       <r>   2.1518  1.0000</r>
       <r>   2.1518  1.0000</r>
       <r>   2.2099  1.0000</r>
       <r>   2.2099  1.0000</r>
       <r>   2.2103  1.0000</r>
       <r>   2.2103  1.0000</r>
       <r>   2.2103  1.0000</r>
       <r>   2.2103  1.0000</r>
       <r>   2.2107  1.0000</r>
       <r>   2.2107  1.0000</r>
       <r>   2.4961  1.0000</r>
       <r>   2.4974  1.0000</r>
       <r>   2.4974  1.0000</r>
       <r>   2.4978  1.0000</r>
       <r>   2.5014  1.0000</r>
       <r>   2.5014  1.0000</r>
       <r>   2.5019  1.0000</r>
       <r>   2.5019  1.0000</r>
       <r>   2.5019  1.0000</r>
       <r>   2.5028  1.0000</r>
       <r>   2.5028  1.0000</r>
       <r>   2.5030  1.0000</r>
       <r>   2.5074  1.0000</r>
       <r>   2.5075  1.0000</r>
       <r>   2.5075  1.0000</r>
       <r>   2.5080  1.0000</r>
       <r>   2.6909  1.0000</r>
       <r>   2.6910  1.0000</r>
       <r>   2.6910  1.0000</r>
       <r>   2.6910  1.0000</r>
       <r>   2.7076  1.0000</r>
       <r>   2.7076  1.0000</r>
       <r>   2.7076  1.0000</r>
       <r>   2.7077  1.0000</r>
       <r>   2.8347  1.0000</r>
       <r>   2.8347  1.0000</r>
       <r>   2.8347  1.0000</r>
       <r>   2.8347  1.0000</r>
       <r>   3.2699  1.0000</r>
       <r>   3.2699  1.0000</r>
       <r>   3.2700  1.0000</r>
       <r>   3.2701  1.0000</r>
       <r>   3.2701  1.0000</r>
       <r>   3.2701  1.0000</r>
       <r>   3.2702  1.0000</r>
       <r>   3.2702  1.0000</r>
       <r>   3.2812  1.0000</r>
       <r>   3.2812  1.0000</r>
       <r>   3.2812  1.0000</r>
       <r>   3.2812  1.0000</r>
       <r>   3.2950  1.0000</r>
       <r>   3.2950  1.0000</r>
       <r>   3.2952  1.0000</r>
       <r>   3.2952  1.0000</r>
       <r>   3.2952  1.0000</r>
       <r>   3.2952  1.0000</r>
       <r>   3.2954  1.0000</r>
       <r>   3.2954  1.0000</r>
       <r>   3.2970  1.0000</r>
       <r>   3.2970  1.0000</r>
       <r>   3.2970  1.0000</r>
       <r>   3.2970  1.0000</r>
       <r>   4.9244  1.0000</r>
       <r>   4.9244  1.0000</r>
       <r>   4.9245  1.0000</r>
       <r>   4.9245  1.0000</r>
       <r>   5.7155  0.0000</r>
       <r>   5.7155  0.0000</r>
       <r>   5.7161  0.0000</r>
       <r>   5.7161  0.0000</r>
       <r>   5.7161  0.0000</r>
       <r>   5.7161  0.0000</r>
       <r>   5.7167  0.0000</r>
       <r>   5.7167  0.0000</r>
       <r>   6.6057  0.0000</r>
       <r>   6.6057  0.0000</r>
       <r>   6.6072  0.0000</r>
       <r>   6.6072  0.0000</r>
       <r>   6.6072  0.0000</r>
       <r>   6.6072  0.0000</r>
       <r>   6.6086  0.0000</r>
       <r>   6.6086  0.0000</r>
       <r>   7.5132  0.0000</r>
       <r>   7.5132  0.0000</r>
       <r>   7.5132  0.0000</r>
       <r>   7.5132  0.0000</r>
       <r>  11.3097  0.0000</r>
       <r>  11.3097  0.0000</r>
       <r>  11.3110  0.0000</r>
       <r>  11.3110  0.0000</r>
       <r>  11.3110  0.0000</r>
       <r>  11.3110  0.0000</r>
       <r>  11.3122  0.0000</r>
       <r>  11.3122  0.0000</r>
       <r>  12.0111  0.0000</r>
       <r>  12.0111  0.0000</r>
       <r>  12.0111  0.0000</r>
       <r>  12.0111  0.0000</r>
       <r>  13.2308  0.0000</r>
       <r>  13.2308  0.0000</r>
       <r>  13.2308  0.0000</r>
       <r>  13.2308  0.0000</r>
       <r>  14.0038  0.0000</r>
       <r>  14.0041  0.0000</r>
       <r>  14.0045  0.0000</r>
       <r>  14.0048  0.0000</r>
      </set>
      <set comment="kpoint 195">
       <r>  -3.2790  1.0000</r>
       <r>  -3.2789  1.0000</r>
       <r>  -3.2789  1.0000</r>
       <r>  -3.2789  1.0000</r>
       <r>  -2.8273  1.0000</r>
       <r>  -2.8273  1.0000</r>
       <r>  -2.8273  1.0000</r>
       <r>  -2.8273  1.0000</r>
       <r>  -0.2479  1.0000</r>
       <r>  -0.2478  1.0000</r>
       <r>  -0.2478  1.0000</r>
       <r>  -0.2478  1.0000</r>
       <r>  -0.1927  1.0000</r>
       <r>  -0.1927  1.0000</r>
       <r>  -0.1924  1.0000</r>
       <r>  -0.1924  1.0000</r>
       <r>  -0.1923  1.0000</r>
       <r>  -0.1923  1.0000</r>
       <r>  -0.1920  1.0000</r>
       <r>  -0.1920  1.0000</r>
       <r>  -0.1056  1.0000</r>
       <r>  -0.1056  1.0000</r>
       <r>  -0.1051  1.0000</r>
       <r>  -0.1048  1.0000</r>
       <r>  -0.1048  1.0000</r>
       <r>  -0.1048  1.0000</r>
       <r>  -0.1041  1.0000</r>
       <r>  -0.1041  1.0000</r>
       <r>  -0.0817  1.0000</r>
       <r>  -0.0816  1.0000</r>
       <r>  -0.0816  1.0000</r>
       <r>  -0.0814  1.0000</r>
       <r>   0.4189  1.0000</r>
       <r>   0.4192  1.0000</r>
       <r>   0.4193  1.0000</r>
       <r>   0.4193  1.0000</r>
       <r>   0.4295  1.0000</r>
       <r>   0.4295  1.0000</r>
       <r>   0.4301  1.0000</r>
       <r>   0.4301  1.0000</r>
       <r>   0.4301  1.0000</r>
       <r>   0.4304  1.0000</r>
       <r>   0.4308  1.0000</r>
       <r>   0.4308  1.0000</r>
       <r>   0.5728  1.0000</r>
       <r>   0.5728  1.0000</r>
       <r>   0.5732  1.0000</r>
       <r>   0.5734  1.0000</r>
       <r>   0.5734  1.0000</r>
       <r>   0.5734  1.0000</r>
       <r>   0.5739  1.0000</r>
       <r>   0.5739  1.0000</r>
       <r>   0.5886  1.0000</r>
       <r>   0.5886  1.0000</r>
       <r>   0.5887  1.0000</r>
       <r>   0.5888  1.0000</r>
       <r>   1.2174  1.0000</r>
       <r>   1.2189  1.0000</r>
       <r>   1.2189  1.0000</r>
       <r>   1.2189  1.0000</r>
       <r>   1.2222  1.0000</r>
       <r>   1.2222  1.0000</r>
       <r>   1.2222  1.0000</r>
       <r>   1.2237  1.0000</r>
       <r>   1.5088  1.0000</r>
       <r>   1.5088  1.0000</r>
       <r>   1.5089  1.0000</r>
       <r>   1.5090  1.0000</r>
       <r>   1.5132  1.0000</r>
       <r>   1.5132  1.0000</r>
       <r>   1.5146  1.0000</r>
       <r>   1.5146  1.0000</r>
       <r>   1.5147  1.0000</r>
       <r>   1.5147  1.0000</r>
       <r>   1.5162  1.0000</r>
       <r>   1.5162  1.0000</r>
       <r>   1.6158  1.0000</r>
       <r>   1.6158  1.0000</r>
       <r>   1.6170  1.0000</r>
       <r>   1.6171  1.0000</r>
       <r>   1.6171  1.0000</r>
       <r>   1.6171  1.0000</r>
       <r>   1.6183  1.0000</r>
       <r>   1.6183  1.0000</r>
       <r>   1.6315  1.0000</r>
       <r>   1.6315  1.0000</r>
       <r>   1.6316  1.0000</r>
       <r>   1.6316  1.0000</r>
       <r>   1.7238  1.0000</r>
       <r>   1.7238  1.0000</r>
       <r>   1.7238  1.0000</r>
       <r>   1.7238  1.0000</r>
       <r>   1.7311  1.0000</r>
       <r>   1.7311  1.0000</r>
       <r>   1.7311  1.0000</r>
       <r>   1.7312  1.0000</r>
       <r>   1.7419  1.0000</r>
       <r>   1.7419  1.0000</r>
       <r>   1.7419  1.0000</r>
       <r>   1.7420  1.0000</r>
       <r>   1.7489  1.0000</r>
       <r>   1.7490  1.0000</r>
       <r>   1.7490  1.0000</r>
       <r>   1.7490  1.0000</r>
       <r>   2.2388  1.0000</r>
       <r>   2.2388  1.0000</r>
       <r>   2.2388  1.0000</r>
       <r>   2.2389  1.0000</r>
       <r>   2.2636  1.0000</r>
       <r>   2.2636  1.0000</r>
       <r>   2.2641  1.0000</r>
       <r>   2.2641  1.0000</r>
       <r>   2.2642  1.0000</r>
       <r>   2.2642  1.0000</r>
       <r>   2.2647  1.0000</r>
       <r>   2.2647  1.0000</r>
       <r>   2.4069  1.0000</r>
       <r>   2.4069  1.0000</r>
       <r>   2.4076  1.0000</r>
       <r>   2.4076  1.0000</r>
       <r>   2.4077  1.0000</r>
       <r>   2.4077  1.0000</r>
       <r>   2.4083  1.0000</r>
       <r>   2.4083  1.0000</r>
       <r>   2.4194  1.0000</r>
       <r>   2.4194  1.0000</r>
       <r>   2.4194  1.0000</r>
       <r>   2.4195  1.0000</r>
       <r>   2.5784  1.0000</r>
       <r>   2.5784  1.0000</r>
       <r>   2.5784  1.0000</r>
       <r>   2.5784  1.0000</r>
       <r>   2.6620  1.0000</r>
       <r>   2.6621  1.0000</r>
       <r>   2.6621  1.0000</r>
       <r>   2.6621  1.0000</r>
       <r>   2.6817  1.0000</r>
       <r>   2.6817  1.0000</r>
       <r>   2.6818  1.0000</r>
       <r>   2.6819  1.0000</r>
       <r>   2.7493  1.0000</r>
       <r>   2.7493  1.0000</r>
       <r>   2.7493  1.0000</r>
       <r>   2.7494  1.0000</r>
       <r>   3.2949  1.0000</r>
       <r>   3.2949  1.0000</r>
       <r>   3.2950  1.0000</r>
       <r>   3.2950  1.0000</r>
       <r>   3.2950  1.0000</r>
       <r>   3.2950  1.0000</r>
       <r>   3.2951  1.0000</r>
       <r>   3.2951  1.0000</r>
       <r>   3.3008  1.0000</r>
       <r>   3.3009  1.0000</r>
       <r>   3.3009  1.0000</r>
       <r>   3.3009  1.0000</r>
       <r>   3.3097  1.0000</r>
       <r>   3.3097  1.0000</r>
       <r>   3.3097  1.0000</r>
       <r>   3.3098  1.0000</r>
       <r>   3.3122  1.0000</r>
       <r>   3.3122  1.0000</r>
       <r>   3.3123  1.0000</r>
       <r>   3.3123  1.0000</r>
       <r>   3.3123  1.0000</r>
       <r>   3.3124  1.0000</r>
       <r>   3.3125  1.0000</r>
       <r>   3.3125  1.0000</r>
       <r>   5.4949  0.0000</r>
       <r>   5.4949  0.0000</r>
       <r>   5.4949  0.0000</r>
       <r>   5.4950  0.0000</r>
       <r>   5.9055  0.0000</r>
       <r>   5.9055  0.0000</r>
       <r>   5.9062  0.0000</r>
       <r>   5.9062  0.0000</r>
       <r>   5.9062  0.0000</r>
       <r>   5.9063  0.0000</r>
       <r>   5.9070  0.0000</r>
       <r>   5.9070  0.0000</r>
       <r>   6.3590  0.0000</r>
       <r>   6.3590  0.0000</r>
       <r>   6.3602  0.0000</r>
       <r>   6.3602  0.0000</r>
       <r>   6.3602  0.0000</r>
       <r>   6.3602  0.0000</r>
       <r>   6.3614  0.0000</r>
       <r>   6.3614  0.0000</r>
       <r>   6.8007  0.0000</r>
       <r>   6.8007  0.0000</r>
       <r>   6.8008  0.0000</r>
       <r>   6.8008  0.0000</r>
       <r>  11.8948  0.0000</r>
       <r>  11.8948  0.0000</r>
       <r>  11.8959  0.0000</r>
       <r>  11.8959  0.0000</r>
       <r>  11.8959  0.0000</r>
       <r>  11.8959  0.0000</r>
       <r>  11.8970  0.0000</r>
       <r>  11.8970  0.0000</r>
       <r>  12.2594  0.0000</r>
       <r>  12.2594  0.0000</r>
       <r>  12.2594  0.0000</r>
       <r>  12.2594  0.0000</r>
       <r>  12.8692  0.0000</r>
       <r>  12.8692  0.0000</r>
       <r>  12.8692  0.0000</r>
       <r>  12.8692  0.0000</r>
       <r>  13.2495  0.0000</r>
       <r>  13.2500  0.0000</r>
       <r>  13.2503  0.0000</r>
       <r>  13.2505  0.0000</r>
      </set>
      <set comment="kpoint 196">
       <r>  -3.0734  1.0000</r>
       <r>  -3.0694  1.0000</r>
       <r>  -3.0694  1.0000</r>
       <r>  -3.0687  1.0000</r>
       <r>  -3.0685  1.0000</r>
       <r>  -3.0677  1.0000</r>
       <r>  -3.0677  1.0000</r>
       <r>  -3.0638  1.0000</r>
       <r>  -0.1515  1.0000</r>
       <r>  -0.1496  1.0000</r>
       <r>  -0.1496  1.0000</r>
       <r>  -0.1488  1.0000</r>
       <r>  -0.1485  1.0000</r>
       <r>  -0.1484  1.0000</r>
       <r>  -0.1472  1.0000</r>
       <r>  -0.1472  1.0000</r>
       <r>  -0.1471  1.0000</r>
       <r>  -0.1470  1.0000</r>
       <r>  -0.1470  1.0000</r>
       <r>  -0.1470  1.0000</r>
       <r>  -0.1468  1.0000</r>
       <r>  -0.1468  1.0000</r>
       <r>  -0.1468  1.0000</r>
       <r>  -0.1467  1.0000</r>
       <r>  -0.1466  1.0000</r>
       <r>  -0.1466  1.0000</r>
       <r>  -0.1454  1.0000</r>
       <r>  -0.1453  1.0000</r>
       <r>  -0.1451  1.0000</r>
       <r>  -0.1443  1.0000</r>
       <r>  -0.1443  1.0000</r>
       <r>  -0.1424  1.0000</r>
       <r>   0.4936  1.0000</r>
       <r>   0.4941  1.0000</r>
       <r>   0.4964  1.0000</r>
       <r>   0.4964  1.0000</r>
       <r>   0.4971  1.0000</r>
       <r>   0.4975  1.0000</r>
       <r>   0.4975  1.0000</r>
       <r>   0.4976  1.0000</r>
       <r>   0.4976  1.0000</r>
       <r>   0.4978  1.0000</r>
       <r>   0.4978  1.0000</r>
       <r>   0.4978  1.0000</r>
       <r>   0.4980  1.0000</r>
       <r>   0.4980  1.0000</r>
       <r>   0.4980  1.0000</r>
       <r>   0.4981  1.0000</r>
       <r>   0.4982  1.0000</r>
       <r>   0.4983  1.0000</r>
       <r>   0.4983  1.0000</r>
       <r>   0.4987  1.0000</r>
       <r>   0.4994  1.0000</r>
       <r>   0.4994  1.0000</r>
       <r>   0.5016  1.0000</r>
       <r>   0.5021  1.0000</r>
       <r>   1.2210  1.0000</r>
       <r>   1.2237  1.0000</r>
       <r>   1.2237  1.0000</r>
       <r>   1.2237  1.0000</r>
       <r>   1.2238  1.0000</r>
       <r>   1.2238  1.0000</r>
       <r>   1.2238  1.0000</r>
       <r>   1.2265  1.0000</r>
       <r>   1.5624  1.0000</r>
       <r>   1.5624  1.0000</r>
       <r>   1.5632  1.0000</r>
       <r>   1.5637  1.0000</r>
       <r>   1.5647  1.0000</r>
       <r>   1.5659  1.0000</r>
       <r>   1.5659  1.0000</r>
       <r>   1.5659  1.0000</r>
       <r>   1.5660  1.0000</r>
       <r>   1.5660  1.0000</r>
       <r>   1.5660  1.0000</r>
       <r>   1.5660  1.0000</r>
       <r>   1.5662  1.0000</r>
       <r>   1.5662  1.0000</r>
       <r>   1.5663  1.0000</r>
       <r>   1.5663  1.0000</r>
       <r>   1.5664  1.0000</r>
       <r>   1.5664  1.0000</r>
       <r>   1.5664  1.0000</r>
       <r>   1.5675  1.0000</r>
       <r>   1.5685  1.0000</r>
       <r>   1.5691  1.0000</r>
       <r>   1.5698  1.0000</r>
       <r>   1.5698  1.0000</r>
       <r>   1.7339  1.0000</r>
       <r>   1.7339  1.0000</r>
       <r>   1.7343  1.0000</r>
       <r>   1.7347  1.0000</r>
       <r>   1.7351  1.0000</r>
       <r>   1.7351  1.0000</r>
       <r>   1.7353  1.0000</r>
       <r>   1.7353  1.0000</r>
       <r>   1.7357  1.0000</r>
       <r>   1.7357  1.0000</r>
       <r>   1.7358  1.0000</r>
       <r>   1.7360  1.0000</r>
       <r>   1.7364  1.0000</r>
       <r>   1.7366  1.0000</r>
       <r>   1.7371  1.0000</r>
       <r>   1.7371  1.0000</r>
       <r>   2.3248  1.0000</r>
       <r>   2.3260  1.0000</r>
       <r>   2.3260  1.0000</r>
       <r>   2.3281  1.0000</r>
       <r>   2.3283  1.0000</r>
       <r>   2.3283  1.0000</r>
       <r>   2.3284  1.0000</r>
       <r>   2.3285  1.0000</r>
       <r>   2.3288  1.0000</r>
       <r>   2.3288  1.0000</r>
       <r>   2.3288  1.0000</r>
       <r>   2.3288  1.0000</r>
       <r>   2.3289  1.0000</r>
       <r>   2.3290  1.0000</r>
       <r>   2.3290  1.0000</r>
       <r>   2.3290  1.0000</r>
       <r>   2.3292  1.0000</r>
       <r>   2.3294  1.0000</r>
       <r>   2.3295  1.0000</r>
       <r>   2.3295  1.0000</r>
       <r>   2.3296  1.0000</r>
       <r>   2.3318  1.0000</r>
       <r>   2.3318  1.0000</r>
       <r>   2.3329  1.0000</r>
       <r>   2.6603  1.0000</r>
       <r>   2.6619  1.0000</r>
       <r>   2.6619  1.0000</r>
       <r>   2.6619  1.0000</r>
       <r>   2.6627  1.0000</r>
       <r>   2.6627  1.0000</r>
       <r>   2.6629  1.0000</r>
       <r>   2.6631  1.0000</r>
       <r>   2.6632  1.0000</r>
       <r>   2.6634  1.0000</r>
       <r>   2.6636  1.0000</r>
       <r>   2.6636  1.0000</r>
       <r>   2.6644  1.0000</r>
       <r>   2.6644  1.0000</r>
       <r>   2.6645  1.0000</r>
       <r>   2.6660  1.0000</r>
       <r>   3.3101  1.0000</r>
       <r>   3.3101  1.0000</r>
       <r>   3.3103  1.0000</r>
       <r>   3.3103  1.0000</r>
       <r>   3.3104  1.0000</r>
       <r>   3.3104  1.0000</r>
       <r>   3.3105  1.0000</r>
       <r>   3.3105  1.0000</r>
       <r>   3.3105  1.0000</r>
       <r>   3.3107  1.0000</r>
       <r>   3.3107  1.0000</r>
       <r>   3.3107  1.0000</r>
       <r>   3.3109  1.0000</r>
       <r>   3.3110  1.0000</r>
       <r>   3.3110  1.0000</r>
       <r>   3.3111  1.0000</r>
       <r>   3.3111  1.0000</r>
       <r>   3.3113  1.0000</r>
       <r>   3.3113  1.0000</r>
       <r>   3.3113  1.0000</r>
       <r>   3.3114  1.0000</r>
       <r>   3.3114  1.0000</r>
       <r>   3.3116  1.0000</r>
       <r>   3.3116  1.0000</r>
       <r>   6.1170  0.0000</r>
       <r>   6.1190  0.0000</r>
       <r>   6.1190  0.0000</r>
       <r>   6.1224  0.0000</r>
       <r>   6.1230  0.0000</r>
       <r>   6.1230  0.0000</r>
       <r>   6.1230  0.0000</r>
       <r>   6.1232  0.0000</r>
       <r>   6.1232  0.0000</r>
       <r>   6.1232  0.0000</r>
       <r>   6.1233  0.0000</r>
       <r>   6.1233  0.0000</r>
       <r>   6.1236  0.0000</r>
       <r>   6.1236  0.0000</r>
       <r>   6.1237  0.0000</r>
       <r>   6.1237  0.0000</r>
       <r>   6.1238  0.0000</r>
       <r>   6.1239  0.0000</r>
       <r>   6.1239  0.0000</r>
       <r>   6.1239  0.0000</r>
       <r>   6.1246  0.0000</r>
       <r>   6.1279  0.0000</r>
       <r>   6.1279  0.0000</r>
       <r>   6.1300  0.0000</r>
       <r>  12.5379  0.0000</r>
       <r>  12.5379  0.0000</r>
       <r>  12.5381  0.0000</r>
       <r>  12.5441  0.0000</r>
       <r>  12.5442  0.0000</r>
       <r>  12.5444  0.0000</r>
       <r>  12.5445  0.0000</r>
       <r>  12.5450  0.0000</r>
       <r>  12.5450  0.0000</r>
       <r>  12.5450  0.0000</r>
       <r>  12.5451  0.0000</r>
       <r>  12.5452  0.0000</r>
       <r>  12.5454  0.0000</r>
       <r>  12.5454  0.0000</r>
       <r>  12.5454  0.0000</r>
       <r>  12.5455  0.0000</r>
       <r>  12.5460  0.0000</r>
       <r>  12.5460  0.0000</r>
       <r>  12.5462  0.0000</r>
       <r>  12.5463  0.0000</r>
      </set>
     </set>
    </set>
   </array>
  </eigenvalues>
 </calculation>
 <structure name="finalpos" >
  <crystal>
   <varray name="basis" >
    <v>       6.90919004      0.00000000      0.00000000</v>
    <v>       0.00000000      6.90919004      0.00000000</v>
    <v>       0.00000000      0.00000000      6.90919004</v>
   </varray>
   <i name="volume">    329.82336277</i>
   <varray name="rec_basis" >
    <v>       0.14473477      0.00000000      0.00000000</v>
    <v>       0.00000000      0.14473477      0.00000000</v>
    <v>       0.00000000      0.00000000      0.14473477</v>
   </varray>
  </crystal>
  <varray name="positions" >
   <v>       0.00144735      0.00000000      0.00000000</v>
   <v>       0.50000000      0.00000000      0.00000000</v>
   <v>       0.00000000      0.50000000      0.00000000</v>
   <v>       0.50000000      0.50000000      0.00000000</v>
   <v>       0.00000000      0.00000000      0.50000000</v>
   <v>       0.50000000      0.00000000      0.50000000</v>
   <v>       0.00000000      0.50000000      0.50000000</v>
   <v>       0.50000000      0.50000000      0.50000000</v>
   <v>       0.25000000      0.25000000      0.00000000</v>
   <v>       0.75000000      0.25000000      0.00000000</v>
   <v>       0.25000000      0.75000000      0.00000000</v>
   <v>       0.75000000      0.75000000      0.00000000</v>
   <v>       0.25000000      0.25000000      0.50000000</v>
   <v>       0.75000000      0.25000000      0.50000000</v>
   <v>       0.25000000      0.75000000      0.50000000</v>
   <v>       0.75000000      0.75000000      0.50000000</v>
   <v>       0.25000000      0.00000000      0.25000000</v>
   <v>       0.75000000      0.00000000      0.25000000</v>
   <v>       0.25000000      0.50000000      0.25000000</v>
   <v>       0.75000000      0.50000000      0.25000000</v>
   <v>       0.25000000      0.00000000      0.75000000</v>
   <v>       0.75000000      0.00000000      0.75000000</v>
   <v>       0.25000000      0.50000000      0.75000000</v>
   <v>       0.75000000      0.50000000      0.75000000</v>
   <v>       0.00000000      0.25000000      0.25000000</v>
   <v>       0.50000000      0.25000000      0.25000000</v>
   <v>       0.00000000      0.75000000      0.25000000</v>
   <v>       0.50000000      0.75000000      0.25000000</v>
   <v>       0.00000000      0.25000000      0.75000000</v>
   <v>       0.50000000      0.25000000      0.75000000</v>
   <v>       0.00000000      0.75000000      0.75000000</v>
   <v>       0.50000000      0.75000000      0.75000000</v>
  </varray>
 </structure>
</modeling>
