 running on    8 nodes
 distr:  one band on    1 nodes,    8 groups
 vasp.4.6.28 25Jul05 complex 
 POSCAR found :  1 types and    4 ions
 LDA part: xc-table for Pade appr. of Perdew
 generate k-points for:  12  12  12
 POSCAR, INCAR and KPOINTS ok, starting setup
 FFT: planning ...           1
 reading WAVECAR
 WARNING: random wavefunctions but no delay for mixing, default for NELMDL
 entering main loop
       N       E                     dE             d eps       ncg     rms          rms(c)
DAV:   1     0.406615747787E+01    0.40662E+01   -0.38234E+03  2688   0.544E+02
DAV:   2    -0.141650161137E+02   -0.18231E+02   -0.17156E+02  3576   0.780E+01
DAV:   3    -0.147597245526E+02   -0.59471E+00   -0.59273E+00  3536   0.109E+01
DAV:   4    -0.147638242697E+02   -0.40997E-02   -0.40996E-02  3392   0.119E+00
DAV:   5    -0.147638791332E+02   -0.54864E-04   -0.54863E-04  3504   0.138E-01    0.173E+00
DAV:   6    -0.147155620058E+02    0.48317E-01   -0.85701E-03  3288   0.453E-01    0.107E+00
DAV:   7    -0.146809551827E+02    0.34607E-01   -0.25431E-02  3088   0.737E-01    0.494E-02
DAV:   8    -0.146809378729E+02    0.17310E-04   -0.16886E-04  3480   0.797E-02    0.126E-02
DAV:   9    -0.146809401676E+02   -0.22947E-05   -0.46632E-06  3440   0.101E-02    0.131E-03
DAV:  10    -0.146809387989E+02    0.13687E-05   -0.67417E-08  3576   0.155E-03    0.276E-04
DAV:  11    -0.146809386668E+02    0.13213E-06   -0.13055E-09  2432   0.194E-04    0.314E-05
DAV:  12    -0.146809387046E+02   -0.37858E-07   -0.26921E-10  2072   0.972E-05    0.739E-06
DAV:  13    -0.146809387027E+02    0.18981E-08   -0.45607E-11  1848   0.336E-05
   1 F= -.14680939E+02 E0= -.14680903E+02  d E =-.721044E-04
