    4    4    1    1
  0.1904509E+02  0.4239172E-09  0.4239172E-09  0.4239172E-09  0.5000000E-15
  1.000000000000000E-004
  CAR 
 unknown system                          
   12   84   16
 
  0.0000000E+00  0.0000000E+00  0.0000000E+00  0.5787037E-03
   1       -3.5982
   2        4.0042
   3        4.0042
   4        4.0042
   5        4.9684
   6        4.9684
   7        4.9684
   8       11.5514
   9       11.5514
  10       11.5514
  11       11.5514
  12       11.5514
  13       11.5514
  14       11.8002
  15       11.8002
  16       11.8002
 
  0.8333333E-01  0.0000000E+00  0.0000000E+00  0.3472222E-02
   1       -3.5410
   2        3.1339
   3        4.0573
   4        4.0573
   5        5.0247
   6        5.0247
   7        5.9394
   8       10.4436
   9       10.4436
  10       11.1174
  11       11.1174
  12       11.6012
  13       11.6012
  14       11.8565
  15       13.0135
  16       13.0135
 
  0.1666667E+00  0.0000000E+00  0.0000000E+00  0.3472222E-02
   1       -3.3696
   2        2.0115
   3        4.2166
   4        4.2166
   5        5.1933
   6        5.1933
   7        7.3633
   8        9.3268
   9        9.3268
  10       10.2559
  11       10.2559
  12       11.7505
  13       11.7505
  14       12.0254
  15       14.4465
  16       14.4466
 
  0.2500000E+00  0.0000000E+00  0.0000000E+00  0.3472222E-02
   1       -3.0842
   2        0.9665
   3        4.4823
   4        4.4823
   5        5.4733
   6        5.4733
   7        8.3147
   8        8.3147
   9        8.9092
  10        9.3365
  11        9.3365
  12       11.9994
  13       11.9994
  14       12.3064
  15       14.9058
  16       15.5756
 
  0.3333333E+00  0.0000000E+00  0.0000000E+00  0.3472222E-02
   1       -2.6856
   2        0.0209
   3        4.8544
   4        4.8544
   5        5.8633
   6        5.8633
   7        7.4091
   8        7.4091
   9        8.4627
  10        8.4627
  11       10.5522
  12       12.3479
  13       12.3479
  14       12.6989
  15       14.7343
  16       14.7343
 
  0.4166667E+00  0.0000000E+00  0.0000000E+00  0.3472222E-02
   1       -2.1744
   2       -0.8196
   3        5.3329
   4        5.3329
   5        6.3610
   6        6.3610
   7        6.6102
   8        6.6102
   9        7.6675
  10        7.6675
  11       12.2791
  12       12.7959
  13       12.7959
  14       13.2015
  15       13.9896
  16       13.9896
 
  0.5000000E+00  0.0000000E+00  0.0000000E+00  0.1736111E-02
   1       -1.5520
   2       -1.5520
   3        5.9182
   4        5.9182
   5        5.9182
   6        5.9182
   7        6.9402
   8        6.9402
   9        6.9882
  10        6.9882
  11       13.3433
  12       13.3433
  13       13.3433
  14       13.3433
  15       13.8123
  16       13.8123
 
  0.8333333E-01  0.8333333E-01  0.0000000E+00  0.6944444E-02
   1       -3.4839
   2        3.1884
   3        3.1884
   4        4.1104
   5        5.0809
   6        5.9942
   7        5.9942
   8        9.5808
   9       10.4965
  10       10.4965
  11       11.1681
  12       11.1681
  13       11.6512
  14       12.9212
  15       13.0667
  16       13.0667
 
  0.1666667E+00  0.8333333E-01  0.0000000E+00  0.1388889E-01
   1       -3.3125
   2        2.0666
   3        3.3519
   4        4.2698
   5        5.2493
   6        6.1585
   7        7.4174
   8        8.5042
   9        9.3798
  10       10.3077
  11       10.6549
  12       11.1137
  13       11.3200
  14       13.2263
  15       13.9098
  16       14.4993
 
  0.2500000E+00  0.8333333E-01  0.0000000E+00  0.1388889E-01
   1       -3.0272
   2        1.0221
   3        3.6240
   4        4.5354
   5        5.5291
   6        6.4317
   7        7.5018
   8        8.3678
   9        8.9625
  10        9.3893
  11       10.2296
  12       10.9186
  13       11.5729
  14       13.4921
  15       14.6696
  16       15.1464
 
  0.3333333E+00  0.8333333E-01  0.0000000E+00  0.1388889E-01
   1       -2.6287
   2        0.0768
   3        4.0044
   4        4.9075
   5        5.9184
   6        6.5951
   7        6.8129
   8        7.4622
   9        8.5163
  10        9.3685
  11       10.6044
  12       11.2874
  13       11.9266
  14       13.7942
  15       13.8637
  16       14.3182
 
  0.4166667E+00  0.8333333E-01  0.0000000E+00  0.1388889E-01
   1       -2.1178
   2       -0.7634
   3        4.4926
   4        5.3861
   5        5.7884
   6        6.4173
   7        6.6634
   8        7.3001
   9        7.7220
  10        8.5840
  11       11.7604
  12       12.3087
  13       12.4023
  14       13.0155
  15       13.5767
  16       14.3404
 
  0.5000000E+00  0.8333333E-01  0.0000000E+00  0.6944444E-02
   1       -1.4955
   2       -1.4955
   3        5.0877
   4        5.0877
   5        5.9713
   6        5.9713
   7        7.0189
   8        7.0189
   9        7.8926
  10        7.8926
  11       12.3369
  12       12.3369
  13       12.9281
  14       12.9281
  15       14.1264
  16       14.1264
 
  0.1666667E+00  0.1666667E+00  0.0000000E+00  0.6944444E-02
   1       -3.1413
   2        2.2319
   3        2.2319
   4        4.4291
   5        5.4173
   6        7.4269
   7        7.5793
   8        7.5793
   9        9.5390
  10        9.5390
  11       10.4631
  12       10.4631
  13       11.9504
  14       13.4781
  15       14.5743
  16       14.6576
 
  0.2500000E+00  0.1666667E+00  0.0000000E+00  0.1388889E-01
   1       -2.8564
   2        1.1886
   3        2.5070
   4        4.6948
   5        5.6958
   6        6.4197
   7        7.8486
   8        8.5272
   9        9.1222
  10        9.5475
  11        9.8040
  12       10.7216
  13       11.5123
  14       13.5920
  15       14.3199
  16       14.4672
 
  0.3333333E+00  0.1666667E+00  0.0000000E+00  0.1388889E-01
   1       -2.4583
   2        0.2444
   3        2.8916
   4        5.0670
   5        5.5041
   6        6.0869
   7        7.6217
   8        8.2240
   9        8.6769
  10       10.1748
  11       10.7225
  12       10.7593
  13       11.0847
  14       12.7044
  15       13.4977
  16       15.2886
 
  0.4166667E+00  0.1666667E+00  0.0000000E+00  0.1388889E-01
   1       -1.9479
   2       -0.5949
   3        3.3848
   4        4.6930
   5        5.5456
   6        6.5825
   7        6.8229
   8        7.8836
   9        8.7046
  10        9.9634
  11       10.6510
  12       11.5404
  13       11.9169
  14       12.4885
  15       12.7543
  16       15.7591
 
  0.5000000E+00  0.1666667E+00  0.0000000E+00  0.6944444E-02
   1       -1.3263
   2       -1.3263
   3        3.9857
   4        3.9857
   5        6.1308
   6        6.1308
   7        7.1832
   8        7.1832
   9        9.2861
  10        9.2861
  11       11.2319
  12       11.2319
  13       12.1001
  14       12.1001
  15       14.2789
  16       14.2789
 
  0.2500000E+00  0.2500000E+00  0.0000000E+00  0.6944444E-02
   1       -2.5719
   2        1.4658
   3        1.4658
   4        4.9606
   5        5.4031
   6        5.9764
   7        8.7928
   8        8.7928
   9        9.3871
  10        9.3871
  11        9.8110
  12        9.8110
  13       12.4488
  14       12.5993
  15       13.4482
  16       14.0864
 
  0.3333333E+00  0.2500000E+00  0.0000000E+00  0.1388889E-01
   1       -2.1746
   2        0.5233
   3        1.8532
   4        4.4847
   5        5.3328
   6        6.3629
   7        7.8875
   8        8.9429
   9        9.1644
  10        9.7578
  11       10.1758
  12       11.0235
  13       11.7050
  14       12.1255
  15       12.6227
  16       15.1455
 
  0.4166667E+00  0.2500000E+00  0.0000000E+00  0.1388889E-01
   1       -1.6651
   2       -0.3145
   3        2.3500
   4        3.6675
   5        5.8114
   6        6.8572
   7        7.0888
   8        8.1535
   9        9.6419
  10       10.2288
  11       10.6439
  12       10.9130
  13       11.4460
  14       11.8727
  15       12.7400
  16       16.3125
 
  0.5000000E+00  0.2500000E+00  0.0000000E+00  0.6944444E-02
   1       -1.0446
   2       -1.0446
   3        2.9552
   4        2.9552
   5        6.3967
   6        6.3967
   7        7.4557
   8        7.4557
   9       10.2249
  10       10.2249
  11       10.7962
  12       10.7962
  13       11.2108
  14       11.2108
  15       14.5189
  16       14.5189
 
  0.3333333E+00  0.3333333E+00  0.0000000E+00  0.6944444E-02
   1       -1.7782
   2        0.9130
   3        0.9130
   4        3.5602
   5        5.7050
   6        6.7481
   7        8.2595
   8        8.2595
   9        9.3144
  10        9.3144
  11       10.8065
  12       11.3841
  13       11.3841
  14       11.7903
  15       13.1457
  16       14.8741
 
  0.4166667E+00  0.3333333E+00  0.0000000E+00  0.1388889E-01
   1       -1.2700
   2        0.0773
   3        1.4128
   4        2.7381
   5        6.1837
   6        7.2399
   7        7.4610
   8        8.5293
   9        8.7377
  10        9.7886
  11       10.0117
  12       11.0324
  13       11.8407
  14       12.9427
  15       13.0863
  16       16.0060
 
  0.5000000E+00  0.3333333E+00  0.0000000E+00  0.6944444E-02
   1       -0.6511
   2       -0.6511
   3        2.0216
   4        2.0216
   5        6.7690
   6        6.7690
   7        7.8352
   8        7.8352
   9        9.3219
  10        9.3219
  11       10.3627
  12       10.3627
  13       12.3788
  14       12.3788
  15       14.8335
  16       14.8335
 
  0.4166667E+00  0.4166667E+00  0.0000000E+00  0.6944444E-02
   1       -0.7635
   2        0.5796
   3        0.5796
   4        1.9117
   5        6.6625
   6        7.7285
   7        7.9396
   8        7.9396
   9        9.0090
  10        9.0090
  11        9.2152
  12       10.2666
  13       13.5119
  14       13.5119
  15       14.0390
  16       15.8546
 
  0.5000000E+00  0.4166667E+00  0.0000000E+00  0.6944444E-02
   1       -0.1464
   2       -0.1464
   3        1.1916
   4        1.1916
   5        7.2478
   6        7.2478
   7        8.3197
   8        8.3197
   9        8.5244
  10        8.5244
  11        9.5896
  12        9.5896
  13       13.9578
  14       13.9578
  15       15.1615
  16       15.1615
 
  0.5000000E+00  0.5000000E+00  0.0000000E+00  0.1736111E-02
   1        0.4683
   2        0.4683
   3        0.4683
   4        0.4683
   5        7.8329
   6        7.8329
   7        7.8329
   8        7.8329
   9        8.9061
  10        8.9061
  11        8.9061
  12        8.9061
  13       15.1227
  14       15.1227
  15       15.1227
  16       15.1227
 
  0.8333333E-01  0.8333333E-01  0.8333333E-01  0.4629630E-02
   1       -3.4267
   2        3.2429
   3        3.2429
   4        3.2429
   5        6.0490
   6        6.0490
   7        6.0490
   8        9.6337
   9        9.6337
  10        9.6337
  11       11.7010
  12       11.7010
  13       11.7010
  14       12.9757
  15       12.9757
  16       12.9757
 
  0.1666667E+00  0.8333333E-01  0.8333333E-01  0.1388889E-01
   1       -3.2554
   2        2.1217
   3        3.4063
   4        3.4063
   5        6.2132
   6        6.2132
   7        7.4714
   8        8.5574
   9        8.5574
  10        9.7922
  11       11.1650
  12       11.1650
  13       11.8503
  14       13.1390
  15       13.9630
  16       13.9630
 
  0.2500000E+00  0.8333333E-01  0.8333333E-01  0.1388889E-01
   1       -2.9703
   2        1.0776
   3        3.6784
   4        3.6784
   5        6.4862
   6        6.4862
   7        7.5553
   8        7.5553
   9        9.0158
  10       10.0562
  11       10.2819
  12       10.2819
  13       12.0993
  14       13.4104
  15       13.7980
  16       15.4093
 
  0.3333333E+00  0.8333333E-01  0.8333333E-01  0.1388889E-01
   1       -2.5719
   2        0.1327
   3        4.0587
   4        4.0587
   5        6.6477
   6        6.6477
   7        6.8680
   8        6.8680
   9        9.4214
  10        9.4214
  11       10.4241
  12       10.6579
  13       12.4478
  14       12.9275
  15       13.7886
  16       14.8341
 
  0.4166667E+00  0.8333333E-01  0.8333333E-01  0.1388889E-01
   1       -2.0611
   2       -0.7072
   3        4.5466
   4        4.5466
   5        5.8431
   6        5.8431
   7        7.3548
   8        7.3548
   9        8.6375
  10        8.6375
  11       10.8976
  12       12.1512
  13       12.3821
  14       12.8959
  15       14.0897
  16       14.2726
 
  0.5000000E+00  0.8333333E-01  0.8333333E-01  0.6944444E-02
   1       -1.4391
   2       -1.4391
   3        5.1223
   4        5.1223
   5        5.1616
   6        5.1616
   7        7.9350
   8        7.9350
   9        7.9573
  10        7.9573
  11       11.4737
  12       11.4737
  13       13.4433
  14       13.4433
  15       14.1613
  16       14.1613
 
  0.1666667E+00  0.1666667E+00  0.8333333E-01  0.1388889E-01
   1       -3.0843
   2        2.2869
   3        2.2869
   4        3.5696
   5        6.3771
   6        7.4804
   7        7.6332
   8        7.6332
   9        8.7170
  10        8.7170
  11       11.3187
  12       11.3187
  13       12.0002
  14       13.5324
  15       13.7205
  16       14.1222
 
  0.2500000E+00  0.1666667E+00  0.8333333E-01  0.2777778E-01
   1       -2.7994
   2        1.2441
   3        2.5620
   4        3.8413
   5        6.4716
   6        6.6512
   7        7.7153
   8        7.9027
   9        8.9822
  10        9.1758
  11       10.4385
  12       11.5635
  13       11.5746
  14       12.7541
  15       14.3866
  16       14.5198
 
  0.3333333E+00  0.1666667E+00  0.8333333E-01  0.2777778E-01
   1       -2.4015
   2        0.3002
   3        2.9464
   4        4.2212
   5        5.5599
   6        6.8094
   7        7.0306
   8        8.2779
   9        9.3537
  10        9.5800
  11       10.7746
  12       10.8138
  13       11.8755
  14       11.9324
  15       14.3433
  16       14.7549
 
  0.4166667E+00  0.1666667E+00  0.8333333E-01  0.2777778E-01
   1       -1.8913
   2       -0.5388
   3        3.4394
   4        4.6955
   5        4.7616
   6        6.0048
   7        7.5171
   8        8.7552
   9        8.8001
  10        9.8300
  11       10.0161
  12       11.0928
  13       12.3790
  14       12.5472
  15       13.5978
  16       15.2250
 
  0.5000000E+00  0.1666667E+00  0.8333333E-01  0.1388889E-01
   1       -1.2699
   2       -1.2699
   3        4.0399
   4        4.0399
   5        5.3046
   6        5.3046
   7        8.1073
   8        8.1073
   9        9.3392
  10        9.3392
  11       10.4101
  12       10.4101
  13       12.9441
  14       12.9441
  15       14.3235
  16       14.3235
 
  0.2500000E+00  0.2500000E+00  0.8333333E-01  0.1388889E-01
   1       -2.5151
   2        1.5212
   3        1.5212
   4        4.1126
   5        5.4592
   6        6.9222
   7        7.9825
   8        7.9825
   9        9.4407
  10        9.4407
  11       10.6993
  12       10.6993
  13       11.7787
  14       12.4987
  15       14.1399
  16       14.3241
 
  0.3333333E+00  0.2500000E+00  0.8333333E-01  0.2777778E-01
   1       -2.1179
   2        0.5790
   3        1.9084
   4        4.4777
   5        4.5547
   6        7.0775
   7        7.3016
   8        8.3558
   9        9.8039
  10        9.8501
  11       10.8932
  12       11.0397
  13       11.0976
  14       12.1766
  15       13.5004
  16       15.1969
 
  0.4166667E+00  0.2500000E+00  0.8333333E-01  0.2777778E-01
   1       -1.6086
   2       -0.2585
   3        2.4050
   4        3.7216
   5        4.9808
   6        6.2738
   7        7.7868
   8        8.8346
   9        9.0634
  10       10.1051
  11       10.2816
  12       11.4978
  13       11.5262
  14       12.7509
  15       12.7913
  16       16.3457
 
  0.5000000E+00  0.2500000E+00  0.8333333E-01  0.1388889E-01
   1       -0.9884
   2       -0.9884
   3        3.0099
   4        3.0099
   5        5.5743
   6        5.5743
   7        8.3755
   8        8.3755
   9        9.4182
  10        9.4182
  11       10.8485
  12       10.8485
  13       12.0908
  14       12.0908
  15       14.5667
  16       14.5667
 
  0.3333333E+00  0.3333333E+00  0.8333333E-01  0.1388889E-01
   1       -1.7217
   2        0.9685
   3        0.9685
   4        3.6144
   5        4.8727
   6        7.4524
   7        7.4524
   8        7.6796
   9       10.0023
  10       10.2109
  11       10.2109
  12       11.4364
  13       11.4364
  14       12.6731
  15       13.1956
  16       14.9258
 
  0.4166667E+00  0.3333333E+00  0.8333333E-01  0.2777778E-01
   1       -1.2137
   2        0.1331
   3        1.4682
   4        2.7929
   5        5.3587
   6        6.6500
   7        7.9334
   8        8.1631
   9        9.2099
  10        9.4346
  11       10.6812
  12       11.8925
  13       11.9179
  14       12.9934
  15       13.1372
  16       16.0553
 
  0.5000000E+00  0.3333333E+00  0.8333333E-01  0.1388889E-01
   1       -0.5950
   2       -0.5950
   3        2.0767
   4        2.0767
   5        5.9516
   6        5.9516
   7        8.5196
   8        8.5196
   9        8.7494
  10        8.7494
  11       11.2515
  12       11.2515
  13       12.4301
  14       12.4301
  15       14.8819
  16       14.8819
 
  0.4166667E+00  0.4166667E+00  0.8333333E-01  0.1388889E-01
   1       -0.7073
   2        0.6353
   3        0.6353
   4        1.9669
   5        5.8440
   6        7.1327
   7        7.1327
   8        8.4142
   9        8.6441
  10        9.9091
  11        9.9091
  12       11.1567
  13       13.5624
  14       13.5624
  15       14.0888
  16       15.9034
 
  0.5000000E+00  0.4166667E+00  0.8333333E-01  0.1388889E-01
   1       -0.0905
   2       -0.0905
   3        1.2470
   4        1.2470
   5        6.4357
   6        6.4357
   7        7.7212
   8        7.7212
   9        9.2275
  10        9.2275
  11       10.4845
  12       10.4845
  13       14.0080
  14       14.0080
  15       15.2102
  16       15.2102
 
  0.5000000E+00  0.5000000E+00  0.8333333E-01  0.3472222E-02
   1        0.5240
   2        0.5240
   3        0.5240
   4        0.5240
   5        7.0259
   6        7.0259
   7        7.0259
   8        7.0259
   9        9.8073
  10        9.8073
  11        9.8073
  12        9.8073
  13       15.1718
  14       15.1718
  15       15.1718
  16       15.1718
 
  0.1666667E+00  0.1666667E+00  0.1666667E+00  0.4629630E-02
   1       -2.9133
   2        2.4520
   3        2.4520
   4        2.4520
   5        7.6405
   6        7.6405
   7        7.6405
   8        7.7954
   9        7.7954
  10        7.7954
  11       12.1496
  12       12.1496
  13       12.1496
  14       12.6775
  15       13.6951
  16       13.6951
 
  0.2500000E+00  0.1666667E+00  0.1666667E+00  0.1388889E-01
   1       -2.6288
   2        1.4104
   3        2.7267
   4        2.7267
   5        6.6344
   6        6.6344
   7        7.9082
   8        8.0638
   9        8.0638
  10        9.3350
  11       11.7035
  12       11.7171
  13       11.7171
  14       12.3987
  15       13.9646
  16       14.6769
 
  0.3333333E+00  0.1666667E+00  0.1666667E+00  0.1388889E-01
   1       -2.2313
   2        0.4675
   3        3.1106
   4        3.1106
   5        5.7223
   6        5.7223
   7        8.2818
   8        8.4386
   9        8.4386
  10       10.8190
  11       10.9309
  12       10.9309
  13       10.9705
  14       12.7475
  15       14.3388
  16       15.1327
 
  0.4166667E+00  0.1666667E+00  0.1666667E+00  0.1388889E-01
   1       -1.7217
   2       -0.3706
   3        3.6027
   4        3.6027
   5        4.9118
   6        4.9118
   7        8.7610
   8        8.9177
   9        8.9177
  10       10.0315
  11       10.1741
  12       10.1741
  13       12.6867
  14       13.1957
  15       14.3892
  16       14.8151
 
  0.5000000E+00  0.1666667E+00  0.1666667E+00  0.6944444E-02
   1       -1.1010
   2       -1.1010
   3        4.1659
   4        4.1659
   5        4.2424
   6        4.2424
   7        9.3447
   8        9.3447
   9        9.4852
  10        9.4852
  11        9.5112
  12        9.5112
  13       13.7431
  14       13.7431
  15       14.4489
  16       14.4489
 
  0.2500000E+00  0.2500000E+00  0.1666667E+00  0.1388889E-01
   1       -2.3448
   2        1.6871
   3        1.6871
   4        3.0009
   5        5.6219
   6        6.9033
   7        6.9033
   8        8.3319
   9        9.5998
  10        9.5998
  11       10.7222
  12       11.9727
  13       11.9727
  14       12.6482
  15       14.2994
  16       14.9373
 
  0.3333333E+00  0.2500000E+00  0.1666667E+00  0.2777778E-01
   1       -1.9481
   2        0.7460
   3        2.0739
   4        3.3837
   5        4.7045
   6        5.9925
   7        7.2791
   8        8.7058
   9        9.8317
  10        9.9685
  11       11.1910
  12       11.2298
  13       12.3296
  14       12.3301
  15       14.7204
  16       15.2983
 
  0.4166667E+00  0.2500000E+00  0.1666667E+00  0.2777778E-01
   1       -1.4393
   2       -0.0906
   3        2.5698
   4        3.8364
   5        3.9272
   6        5.1829
   7        7.7610
   8        9.0391
   9        9.1837
  10       10.4174
  11       10.4580
  12       11.6531
  13       12.7735
  14       12.9531
  15       13.9870
  16       15.7553
 
  0.5000000E+00  0.2500000E+00  0.1666667E+00  0.1388889E-01
   1       -0.8197
   2       -0.8197
   3        3.1735
   4        3.1735
   5        4.4781
   6        4.4781
   7        8.3482
   8        8.3482
   9        9.7624
  10        9.7624
  11       11.0054
  12       11.0054
  13       13.3379
  14       13.3379
  15       14.7050
  16       14.7050
 
  0.3333333E+00  0.3333333E+00  0.1666667E+00  0.1388889E-01
   1       -1.5523
   2        1.1351
   3        1.1351
   4        3.7259
   5        3.8216
   6        6.3701
   7        6.3701
   8        8.9360
   9        9.0784
  10       11.5336
  11       11.5336
  12       11.6106
  13       11.6106
  14       13.3452
  15       13.9604
  16       15.0798
 
  0.4166667E+00  0.3333333E+00  0.1666667E+00  0.2777778E-01
   1       -1.0448
   2        0.3005
   3        1.6341
   4        2.9565
   5        4.2608
   6        5.5621
   7        6.8545
   8        8.1392
   9        9.5546
  10       10.8015
  11       12.0142
  12       12.0478
  13       13.1454
  14       13.2286
  15       13.2895
  16       16.2015
 
  0.5000000E+00  0.3333333E+00  0.1666667E+00  0.1388889E-01
   1       -0.4268
   2       -0.4268
   3        2.2418
   4        2.2418
   5        4.8582
   6        4.8582
   7        7.4446
   8        7.4446
   9       10.1310
  10       10.1310
  11       12.5754
  12       12.5754
  13       12.5840
  14       12.5840
  15       15.0251
  16       15.0251
 
  0.4166667E+00  0.4166667E+00  0.1666667E+00  0.1388889E-01
   1       -0.5390
   2        0.8022
   3        0.8022
   4        2.1321
   5        4.7498
   6        6.0485
   7        6.0485
   8        7.3387
   9       10.0284
  10       11.2691
  11       11.2691
  12       12.4931
  13       13.7135
  14       13.7135
  15       14.2380
  16       16.0476
 
  0.5000000E+00  0.4166667E+00  0.1666667E+00  0.1388889E-01
   1        0.0772
   2        0.0772
   3        1.4132
   4        1.4132
   5        5.3462
   6        5.3462
   7        6.6411
   8        6.6411
   9       10.6020
  10       10.6020
  11       11.8350
  12       11.8350
  13       14.1580
  14       14.1580
  15       15.3549
  16       15.3549
 
  0.5000000E+00  0.5000000E+00  0.1666667E+00  0.3472222E-02
   1        0.6909
   2        0.6909
   3        0.6909
   4        0.6909
   5        5.9410
   6        5.9410
   7        5.9410
   8        5.9410
   9       11.1721
  10       11.1721
  11       11.1721
  12       11.1721
  13       15.3189
  14       15.3189
  15       15.3189
  16       15.3189
 
  0.2500000E+00  0.2500000E+00  0.2500000E+00  0.4629630E-02
   1       -2.0614
   2        1.9634
   3        1.9634
   4        1.9634
   5        5.8924
   6        5.8924
   7        5.8924
   8        9.7344
   9        9.8639
  10        9.8639
  11        9.8639
  12       12.8975
  13       12.8975
  14       12.8975
  15       14.5631
  16       14.5631
 
  0.3333333E+00  0.2500000E+00  0.2500000E+00  0.1388889E-01
   1       -1.6653
   2        1.0239
   3        2.3493
   4        2.3493
   5        4.9760
   6        4.9760
   7        6.2703
   8        8.8382
   9       10.2317
  10       10.2317
  11       11.4889
  12       12.5842
  13       12.5842
  14       13.2463
  15       14.9271
  16       15.6034
 
  0.4166667E+00  0.2500000E+00  0.2500000E+00  0.1388889E-01
   1       -1.1575
   2        0.1888
   3        2.8435
   4        2.8435
   5        4.1621
   6        4.1621
   7        6.7552
   8        8.0408
   9       10.7003
  10       10.7003
  11       11.9117
  12       11.9117
  13       13.1882
  14       13.6945
  15       14.8862
  16       15.3861
 
  0.5000000E+00  0.2500000E+00  0.2500000E+00  0.6944444E-02
   1       -0.5390
   2       -0.5390
   3        3.3940
   4        3.3940
   5        3.5048
   6        3.5048
   7        7.3458
   8        7.3458
   9       11.2361
  10       11.2361
  11       11.2947
  12       11.2947
  13       14.2415
  14       14.2415
  15       14.9146
  16       14.9146
 
  0.3333333E+00  0.3333333E+00  0.2500000E+00  0.1388889E-01
   1       -1.2703
   2        1.4123
   3        1.4123
   4        2.7333
   5        4.0555
   6        5.3559
   7        5.3559
   8        7.9371
   9       10.5982
  10       11.8476
  11       11.8476
  12       12.9401
  13       12.9401
  14       13.5944
  15       15.2552
  16       15.3327
 
  0.4166667E+00  0.3333333E+00  0.2500000E+00  0.2777778E-01
   1       -0.7637
   2        0.5792
   3        1.9101
   4        3.1709
   5        3.2926
   6        4.5430
   7        5.8432
   8        7.1355
   9       11.0651
  10       12.2405
  11       12.3334
  12       13.3737
  13       13.3981
  14       13.5543
  15       14.5717
  16       16.3822
 
  0.5000000E+00  0.3333333E+00  0.2500000E+00  0.1388889E-01
   1       -0.1468
   2       -0.1468
   3        2.5158
   4        2.5158
   5        3.8356
   6        3.8356
   7        6.4368
   8        6.4368
   9       11.6263
  10       11.6263
  11       12.8399
  12       12.8399
  13       13.9368
  14       13.9368
  15       15.2519
  16       15.2519
 
  0.4166667E+00  0.4166667E+00  0.2500000E+00  0.1388889E-01
   1       -0.2588
   2        1.0798
   3        1.0798
   4        2.4060
   5        3.7266
   6        5.0322
   7        5.0322
   8        6.3302
   9       11.5296
  10       12.7256
  11       12.7256
  12       13.9098
  13       13.9640
  14       13.9640
  15       14.4863
  16       16.2801
 
  0.5000000E+00  0.4166667E+00  0.2500000E+00  0.1388889E-01
   1        0.3562
   2        0.3562
   3        1.6895
   4        1.6895
   5        4.3258
   6        4.3258
   7        5.6285
   8        5.6285
   9       12.0881
  10       12.0881
  11       13.2777
  12       13.2777
  13       14.4068
  14       14.4068
  15       15.5906
  16       15.5906
 
  0.5000000E+00  0.5000000E+00  0.2500000E+00  0.3472222E-02
   1        0.9688
   2        0.9688
   3        0.9688
   4        0.9688
   5        4.9241
   6        4.9241
   7        4.9241
   8        4.9241
   9       12.6433
  10       12.6433
  11       12.6433
  12       12.6433
  13       15.5619
  14       15.5619
  15       15.5619
  16       15.5619
 
  0.3333333E+00  0.3333333E+00  0.3333333E+00  0.4629630E-02
   1       -0.8762
   2        1.7994
   3        1.7994
   4        1.7994
   5        4.4367
   6        4.4367
   7        4.4367
   8        7.0311
   9       12.2055
  10       12.2055
  11       12.2055
  12       13.9430
  13       13.9430
  14       13.9430
  15       15.6770
  16       15.6770
 
  0.4166667E+00  0.3333333E+00  0.3333333E+00  0.1388889E-01
   1       -0.3710
   2        0.9686
   3        2.2948
   4        2.2948
   5        3.6206
   6        3.6206
   7        4.9263
   8        6.2253
   9       12.6566
  10       12.6566
  11       13.7510
  12       13.7510
  13       13.8739
  14       14.3902
  15       15.5728
  16       16.0989
 
  0.5000000E+00  0.3333333E+00  0.3333333E+00  0.6944444E-02
   1        0.2444
   2        0.2444
   3        2.8346
   4        2.8346
   5        2.9736
   6        2.9736
   7        5.5230
   8        5.5230
   9       13.1344
  10       13.1344
  11       13.2499
  12       13.2499
  13       14.9347
  14       14.9347
  15       15.5263
  16       15.5263
 
  0.4166667E+00  0.4166667E+00  0.3333333E+00  0.1388889E-01
   1        0.1326
   2        1.4676
   3        1.4676
   4        2.7221
   5        2.8671
   6        4.1113
   7        4.1113
   8        5.4158
   9       13.1069
  10       14.1617
  11       14.1617
  12       14.3340
  13       14.3340
  14       14.8327
  15       15.3027
  16       16.5837
 
  0.5000000E+00  0.4166667E+00  0.3333333E+00  0.1388889E-01
   1        0.7460
   2        0.7460
   3        2.0743
   4        2.0743
   5        3.4025
   6        3.4025
   7        4.7104
   8        4.7104
   9       13.6349
  10       13.6349
  11       14.7211
  12       14.7211
  13       14.7519
  14       14.7519
  15       15.8968
  16       15.8968
 
  0.5000000E+00  0.5000000E+00  0.3333333E+00  0.3472222E-02
   1        1.3567
   2        1.3567
   3        1.3567
   4        1.3567
   5        4.0026
   6        4.0026
   7        4.0026
   8        4.0026
   9       14.1640
  10       14.1640
  11       14.1640
  12       14.1640
  13       15.8944
  14       15.8944
  15       15.8944
  16       15.8944
 
  0.4166667E+00  0.4166667E+00  0.4166667E+00  0.4629630E-02
   1        0.6345
   2        1.9635
   3        1.9635
   4        1.9635
   5        3.2941
   6        3.2941
   7        3.2941
   8        4.6027
   9       14.7150
  10       14.7150
  11       14.7150
  12       15.2746
  13       15.2746
  14       15.2746
  15       16.3913
  16       16.3913
 
  0.5000000E+00  0.4166667E+00  0.4166667E+00  0.6944444E-02
   1        1.2456