32   
1    

1    
  0.0100000000000000   0.0000000000000000   0.0000000000000000
  -0.0257391800    0.0000000000   -0.0000000000
   0.0038433600    0.0000000000    0.0000000000
  -0.0005502400    0.0000000000   -0.0000000000
  -0.0020372900    0.0000000000    0.0000000000
  -0.0005502400    0.0000000000   -0.0000000000
  -0.0020372900   -0.0000000000    0.0000000000
   0.0002085400    0.0000000000    0.0000000000
  -0.0001386300   -0.0000000000    0.0000000000
   0.0039843100    0.0052425700   -0.0000000000
   0.0038066100   -0.0050015200   -0.0000000000
   0.0039843100   -0.0052425700   -0.0000000000
   0.0038066100    0.0050015200   -0.0000000000
   0.0002483400   -0.0000064600    0.0000000000
   0.0002497200    0.0000003000    0.0000000000
   0.0002483400    0.0000064600   -0.0000000000
   0.0002497200   -0.0000003000    0.0000000000
   0.0039843100    0.0000000000    0.0052425700
   0.0038066100    0.0000000000   -0.0050015200
   0.0002483400    0.0000000000   -0.0000064600
   0.0002497200    0.0000000000    0.0000003000
   0.0039843100    0.0000000000   -0.0052425700
   0.0038066100    0.0000000000    0.0050015200
   0.0002483400    0.0000000000    0.0000064600
   0.0002497200    0.0000000000   -0.0000003000
  -0.0023164900    0.0000000100    0.0000000100
   0.0007777600    0.0000007300    0.0000007300
  -0.0023164900   -0.0000000100    0.0000000100
   0.0007777600   -0.0000007300    0.0000007300
  -0.0023164900    0.0000000100   -0.0000000100
   0.0007777600    0.0000007300   -0.0000007300
  -0.0023164900   -0.0000000100   -0.0000000100
   0.0007777600   -0.0000007300   -0.0000007300
