mesh: [    48,    48,    48 ]
nqpoint: 2600   
reciprocal_lattice:
- [   0.23266433,   0.00000000,   0.00000000 ] # a*
- [   0.00000000,   0.23266433,   0.00000000 ] # b*
- [   0.00000000,   0.00000000,   0.23266433 ] # c*
natom:   4      
lattice:
- [     4.298037459384314,     0.000000000000000,     0.000000000000000 ] # a
- [     0.000000000000000,     4.298037459384314,     0.000000000000000 ] # b
- [     0.000000000000000,     0.000000000000000,     4.298037459384314 ] # c
points:
- symbol: Au # 1
  coordinates: [  0.000000000000000,  0.000000000000000,  0.000000000000000 ]
  mass: 196.966569
- symbol: Au # 2
  coordinates: [  0.500000000000000,  0.500000000000000,  0.000000000000000 ]
  mass: 196.966569
- symbol: Au # 3
  coordinates: [  0.500000000000000,  0.000000000000000,  0.500000000000000 ]
  mass: 196.966569
- symbol: Au # 4
  coordinates: [  0.000000000000000,  0.500000000000000,  0.500000000000000 ]
  mass: 196.966569
phonon:
- q-position: [    0.0104167,    0.0104167,    0.0104167 ]
  weight: 8    
  band:
  - # 1
    frequency:     0.0279999967
  - # 2
    frequency:     0.0279999967
  - # 3
    frequency:     0.0945687075
  - # 4
    frequency:     1.6070031541
  - # 5
    frequency:     1.6070031541
  - # 6
    frequency:     1.6070031541
  - # 7
    frequency:     1.6086938818
  - # 8
    frequency:     1.6086938818
  - # 9
    frequency:     1.6086938818
  - # 10
    frequency:     2.8673592311
  - # 11
    frequency:     2.8673592311
  - # 12
    frequency:     2.8673592311

- q-position: [    0.0312500,    0.0104167,    0.0104167 ]
  weight: 24   
  band:
  - # 1
    frequency:     0.0546572986
  - # 2
    frequency:     0.0556370279
  - # 3
    frequency:     0.1801866565
  - # 4
    frequency:     1.6042764843
  - # 5
    frequency:     1.6042764843
  - # 6
    frequency:     1.6042803643
  - # 7
    frequency:     1.6059674541
  - # 8
    frequency:     1.6105682773
  - # 9
    frequency:     1.6105682773
  - # 10
    frequency:     2.8639586207
  - # 11
    frequency:     2.8639586207
  - # 12
    frequency:     2.8653087106

- q-position: [    0.0520833,    0.0104167,    0.0104167 ]
  weight: 24   
  band:
  - # 1
    frequency:     0.0873446040
  - # 2
    frequency:     0.0880329211
  - # 3
    frequency:     0.2813126755
  - # 4
    frequency:     1.5988454849
  - # 5
    frequency:     1.5995943044
  - # 6
    frequency:     1.5995943044
  - # 7
    frequency:     1.6005253413
  - # 8
    frequency:     1.6135949518
  - # 9
    frequency:     1.6135949518
  - # 10
    frequency:     2.8571765476
  - # 11
    frequency:     2.8571765476
  - # 12
    frequency:     2.8611989755

- q-position: [    0.0729167,    0.0104167,    0.0104167 ]
  weight: 24   
  band:
  - # 1
    frequency:     0.1212443513
  - # 2
    frequency:     0.1216915162
  - # 3
    frequency:     0.3855837626
  - # 4
    frequency:     1.5907198632
  - # 5
    frequency:     1.5923889728
  - # 6
    frequency:     1.5927948465
  - # 7
    frequency:     1.5927948465
  - # 8
    frequency:     1.6180328473
  - # 9
    frequency:     1.6180328473
  - # 10
    frequency:     2.8470512280
  - # 11
    frequency:     2.8470512280
  - # 12
    frequency:     2.8550127871

- q-position: [    0.0937500,    0.0104167,    0.0104167 ]
  weight: 24   
  band:
  - # 1
    frequency:     0.1558159155
  - # 2
    frequency:     0.1560874698
  - # 3
    frequency:     0.4904869550
  - # 4
    frequency:     1.5799353851
  - # 5
    frequency:     1.5815903550
  - # 6
    frequency:     1.5839107009
  - # 7
    frequency:     1.5839107009
  - # 8
    frequency:     1.6239928694
  - # 9
    frequency:     1.6239928694
  - # 10
    frequency:     2.8336397877
  - # 11
    frequency:     2.8336397877
  - # 12
    frequency:     2.8467246586

- q-position: [    0.1145833,    0.0104167,    0.0104167 ]
  weight: 24   
  band:
  - # 1
    frequency:     0.1909931259
  - # 2
    frequency:     0.1911291170
  - # 3
    frequency:     0.5951202204
  - # 4
    frequency:     1.5665343153
  - # 5
    frequency:     1.5681719064
  - # 6
    frequency:     1.5730429421
  - # 7
    frequency:     1.5730429421
  - # 8
    frequency:     1.6315610876
  - # 9
    frequency:     1.6315610876
  - # 10
    frequency:     2.8170180232
  - # 11
    frequency:     2.8170180232
  - # 12
    frequency:     2.8363012926

- q-position: [    0.1354167,    0.0104167,    0.0104167 ]
  weight: 24   
  band:
  - # 1
    frequency:     0.2268013801
  - # 2
    frequency:     0.2268265042
  - # 3
    frequency:     0.6990085215
  - # 4
    frequency:     1.5505690825
  - # 5
    frequency:     1.5521862382
  - # 6
    frequency:     1.5603319856
  - # 7
    frequency:     1.5603319856
  - # 8
    frequency:     1.6408243872
  - # 9
    frequency:     1.6408243872
  - # 10
    frequency:     2.7972800804
  - # 11
    frequency:     2.7972800804
  - # 12
    frequency:     2.8237021514

- q-position: [    0.1562500,    0.0104167,    0.0104167 ]
  weight: 24   
  band:
  - # 1
    frequency:     0.2632160329
  - # 2
    frequency:     0.2632856367
  - # 3
    frequency:     0.8018303897
  - # 4
    frequency:     1.5321020136
  - # 5
    frequency:     1.5336958828
  - # 6
    frequency:     1.5459500852
  - # 7
    frequency:     1.5459500852
  - # 8
    frequency:     1.6518737283
  - # 9
    frequency:     1.6518737283
  - # 10
    frequency:     2.7745380499
  - # 11
    frequency:     2.7745380499
  - # 12
    frequency:     2.8088801501

- q-position: [    0.1770833,    0.0104167,    0.0104167 ]
  weight: 24   
  band:
  - # 1
    frequency:     0.3003364613
  - # 2
    frequency:     0.3004896250
  - # 3
    frequency:     0.9033330404
  - # 4
    frequency:     1.5112050148
  - # 5
    frequency:     1.5127729688
  - # 6
    frequency:     1.5300986036
  - # 7
    frequency:     1.5300986036
  - # 8
    frequency:     1.6648019537
  - # 9
    frequency:     1.6648019537
  - # 10
    frequency:     2.7489214763
  - # 11
    frequency:     2.7489214763
  - # 12
    frequency:     2.7917824594

- q-position: [    0.1979167,    0.0104167,    0.0104167 ]
  weight: 24   
  band:
  - # 1
    frequency:     0.3382193728
  - # 2
    frequency:     0.3384479775
  - # 3
    frequency:     1.0033005720
  - # 4
    frequency:     1.4879592026
  - # 5
    frequency:     1.4894988452
  - # 6
    frequency:     1.5130063684
  - # 7
    frequency:     1.5130063684
  - # 8
    frequency:     1.6796999226
  - # 9
    frequency:     1.6796999226
  - # 10
    frequency:     2.7205767777
  - # 11
    frequency:     2.7205767777
  - # 12
    frequency:     2.7723514045

- q-position: [    0.2187500,    0.0104167,    0.0104167 ]
  weight: 24   
  band:
  - # 1
    frequency:     0.3768848270
  - # 2
    frequency:     0.3771827248
  - # 3
    frequency:     1.1015404849
  - # 4
    frequency:     1.4624544834
  - # 5
    frequency:     1.4639636557
  - # 6
    frequency:     1.4949280933
  - # 7
    frequency:     1.4949280933
  - # 8
    frequency:     1.6966520767
  - # 9
    frequency:     1.6966520767
  - # 10
    frequency:     2.6896665717
  - # 11
    frequency:     2.6896665717
  - # 12
    frequency:     2.7505254441

- q-position: [    0.2395833,    0.0104167,    0.0104167 ]
  weight: 24   
  band:
  - # 1
    frequency:     0.4163392635
  - # 2
    frequency:     0.4167016434
  - # 3
    frequency:     1.1978775013
  - # 4
    frequency:     1.4347890841
  - # 5
    frequency:     1.4362658628
  - # 6
    frequency:     1.4761424781
  - # 7
    frequency:     1.4761424781
  - # 8
    frequency:     1.7157319099
  - # 9
    frequency:     1.7157319099
  - # 10
    frequency:     2.6563689029
  - # 11
    frequency:     2.6563689029
  - # 12
    frequency:     2.7262402149

- q-position: [    0.2604167,    0.0104167,    0.0104167 ]
  weight: 24   
  band:
  - # 1
    frequency:     0.4565745619
  - # 2
    frequency:     0.4569975608
  - # 3
    frequency:     1.2921506134
  - # 4
    frequency:     1.4050690340
  - # 5
    frequency:     1.4065117250
  - # 6
    frequency:     1.4569497621
  - # 7
    frequency:     1.4569497621
  - # 8
    frequency:     1.7369976346
  - # 9
    frequency:     1.7369976346
  - # 10
    frequency:     2.6208763655
  - # 11
    frequency:     2.6208763655
  - # 12
    frequency:     2.6994296239

- q-position: [    0.2812500,    0.0104167,    0.0104167 ]
  weight: 24   
  band:
  - # 1
    frequency:     0.4975677813
  - # 2
    frequency:     0.4980482367
  - # 3
    frequency:     1.3734075990
  - # 4
    frequency:     1.3748147261
  - # 5
    frequency:     1.3842116719
  - # 6
    frequency:     1.4376685546
  - # 7
    frequency:     1.4376685546
  - # 8
    frequency:     1.7604882671
  - # 9
    frequency:     1.7604882671
  - # 10
    frequency:     2.5833951136
  - # 11
    frequency:     2.5833951136
  - # 12
    frequency:     2.6700269718

- q-position: [    0.3020833,    0.0104167,    0.0104167 ]
  weight: 24   
  band:
  - # 1
    frequency:     0.5392813414
  - # 2
    frequency:     0.5398166275
  - # 3
    frequency:     1.3399246699
  - # 4
    frequency:     1.3412949594
  - # 5
    frequency:     1.4186317850
  - # 6
    frequency:     1.4186317850
  - # 7
    frequency:     1.4739247445
  - # 8
    frequency:     1.7862203085
  - # 9
    frequency:     1.7862203085
  - # 10
    frequency:     2.5441437516
  - # 11
    frequency:     2.5441437516
  - # 12
    frequency:     2.6379660931

- q-position: [    0.3229167,    0.0104167,    0.0104167 ]
  weight: 24   
  band:
  - # 1
    frequency:     0.5816635078
  - # 2
    frequency:     0.5822514232
  - # 3
    frequency:     1.3047461040
  - # 4
    frequency:     1.3060784667
  - # 5
    frequency:     1.4001816404
  - # 6
    frequency:     1.4001816404
  - # 7
    frequency:     1.5611658685
  - # 8
    frequency:     1.8141851527
  - # 9
    frequency:     1.8141851527
  - # 10
    frequency:     2.5033520938
  - # 11
    frequency:     2.5033520938
  - # 12
    frequency:     2.6031824963

- q-position: [    0.3437500,    0.0104167,    0.0104167 ]
  weight: 24   
  band:
  - # 1
    frequency:     0.6246490940
  - # 2
    frequency:     0.6252877824
  - # 3
    frequency:     1.2680030238
  - # 4
    frequency:     1.2692965343
  - # 5
    frequency:     1.3826634002
  - # 6
    frequency:     1.3826634002
  - # 7
    frequency:     1.6458229989
  - # 8
    frequency:     1.8443473063
  - # 9
    frequency:     1.8443473063
  - # 10
    frequency:     2.4612597851
  - # 11
    frequency:     2.4612597851
  - # 12
    frequency:     2.5656144890

- q-position: [    0.3645833,    0.0104167,    0.0104167 ]
  weight: 24   
  band:
  - # 1
    frequency:     0.6681603190
  - # 2
    frequency:     0.6688482101
  - # 3
    frequency:     1.2298310715
  - # 4
    frequency:     1.2310849456
  - # 5
    frequency:     1.3664181462
  - # 6
    frequency:     1.3664181462
  - # 7
    frequency:     1.7277960428
  - # 8
    frequency:     1.8766434523
  - # 9
    frequency:     1.8766434523
  - # 10
    frequency:     2.4181147707
  - # 11
    frequency:     2.4181147707
  - # 12
    frequency:     2.5252042763

- q-position: [    0.3854167,    0.0104167,    0.0104167 ]
  weight: 24   
  band:
  - # 1
    frequency:     0.7121077746
  - # 2
    frequency:     0.7128435386
  - # 3
    frequency:     1.1903696216
  - # 4
    frequency:     1.1915831931
  - # 5
    frequency:     1.3517744331
  - # 6
    frequency:     1.3517744331
  - # 7
    frequency:     1.8069969158
  - # 8
    frequency:     1.9109823393
  - # 9
    frequency:     1.9109823393
  - # 10
    frequency:     2.3741716076
  - # 11
    frequency:     2.3741716076
  - # 12
    frequency:     2.4818990189

- q-position: [    0.4062500,    0.0104167,    0.0104167 ]
  weight: 24   
  band:
  - # 1
    frequency:     0.7563914665
  - # 2
    frequency:     0.7571739775
  - # 3
    frequency:     1.1497609530
  - # 4
    frequency:     1.1509336490
  - # 5
    frequency:     1.3390391333
  - # 6
    frequency:     1.3390391333
  - # 7
    frequency:     1.8833495806
  - # 8
    frequency:     1.9472454310
  - # 9
    frequency:     1.9472454310
  - # 10
    frequency:     2.3296896147
  - # 11
    frequency:     2.3296896147
  - # 12
    frequency:     2.4356518401

- q-position: [    0.4270833,    0.0104167,    0.0104167 ]
  weight: 24   
  band:
  - # 1
    frequency:     0.8009019045
  - # 2
    frequency:     0.8017302093
  - # 3
    frequency:     1.1081493808
  - # 4
    frequency:     1.1092806976
  - # 5
    frequency:     1.3284878261
  - # 6
    frequency:     1.3284878261
  - # 7
    frequency:     1.9567900448
  - # 8
    frequency:     1.9852881997
  - # 9
    frequency:     1.9852881997
  - # 10
    frequency:     2.2849308770
  - # 11
    frequency:     2.2849308770
  - # 12
    frequency:     2.3864227730

- q-position: [    0.4479167,    0.0104167,    0.0104167 ]
  weight: 24   
  band:
  - # 1
    frequency:     0.8455212182
  - # 2
    frequency:     0.8463945087
  - # 3
    frequency:     1.0656803502
  - # 4
    frequency:     1.0667698287
  - # 5
    frequency:     1.3203552506
  - # 6
    frequency:     1.3203552506
  - # 7
    frequency:     2.0249418475
  - # 8
    frequency:     2.0249418475
  - # 9
    frequency:     2.0272662987
  - # 10
    frequency:     2.2401581998
  - # 11
    frequency:     2.2401581998
  - # 12
    frequency:     2.3341796389

- q-position: [    0.4687500,    0.0104167,    0.0104167 ]
  weight: 24   
  band:
  - # 1
    frequency:     0.8901242837
  - # 2
    frequency:     0.8910418723
  - # 3
    frequency:     1.0224994927
  - # 4
    frequency:     1.0235466943
  - # 5
    frequency:     1.3148264611
  - # 6
    frequency:     1.3148264611
  - # 7
    frequency:     2.0660146901
  - # 8
    frequency:     2.0660146901
  - # 9
    frequency:     2.0947381844
  - # 10
    frequency:     2.1956336551
  - # 11
    frequency:     2.1956336551
  - # 12
    frequency:     2.2788988513

- q-position: [    0.4895833,    0.0104167,    0.0104167 ]
  weight: 24   
  band:
  - # 1
    frequency:     0.9345798491
  - # 2
    frequency:     0.9355411440
  - # 3
    frequency:     0.9787516475
  - # 4
    frequency:     0.9797561301
  - # 5
    frequency:     1.3120293761
  - # 6
    frequency:     1.3120293761
  - # 7
    frequency:     2.1082822398
  - # 8
    frequency:     2.1082822398
  - # 9
    frequency:     2.1516285636
  - # 10
    frequency:     2.1516285636
  - # 11
    frequency:     2.1591771861
  - # 12
    frequency:     2.2205661390

- q-position: [    0.0312500,    0.0312500,    0.0104167 ]
  weight: 24   
  band:
  - # 1
    frequency:     0.0694768624
  - # 2
    frequency:     0.0732788424
  - # 3
    frequency:     0.2374725450
  - # 4
    frequency:     1.5994179593
  - # 5
    frequency:     1.6015655254
  - # 6
    frequency:     1.6015655254
  - # 7
    frequency:     1.6078395603
  - # 8
    frequency:     1.6078395603
  - # 9
    frequency:     1.6145989545
  - # 10
    frequency:     2.8605591576
  - # 11
    frequency:     2.8619372915
  - # 12
    frequency:     2.8619372915

- q-position: [    0.0520833,    0.0312500,    0.0104167 ]
  weight: 48   
  band:
  - # 1
    frequency:     0.0959807257
  - # 2
    frequency:     0.1000569917
  - # 3
    frequency:     0.3214537672
  - # 4
    frequency:     1.5930454088
  - # 5
    frequency:     1.5961543107
  - # 6
    frequency:     1.5969072895
  - # 7
    frequency:     1.6023929410
  - # 8
    frequency:     1.6108610730
  - # 9
    frequency:     1.6193643057
  - # 10
    frequency:     2.8537793741
  - # 11
    frequency:     2.8552134902
  - # 12
    frequency:     2.8578856632

- q-position: [    0.0729167,    0.0312500,    0.0104167 ]
  weight: 48   
  band:
  - # 1
    frequency:     0.1273172807
  - # 2
    frequency:     0.1305909706
  - # 3
    frequency:     0.4158823990
  - # 4
    frequency:     1.5851473281
  - # 5
    frequency:     1.5880641890
  - # 6
    frequency:     1.5901433166
  - # 7
    frequency:     1.5942499926
  - # 8
    frequency:     1.6152909023
  - # 9
    frequency:     1.6249719324
  - # 10
    frequency:     2.8436574769
  - # 11
    frequency:     2.8451753014
  - # 12
    frequency:     2.8517859536

- q-position: [    0.0937500,    0.0312500,    0.0104167 ]
  weight: 48   
  band:
  - # 1
    frequency:     0.1606711588
  - # 2
    frequency:     0.1630585912
  - # 3
    frequency:     0.5146302390
  - # 4
    frequency:     1.5755951400
  - # 5
    frequency:     1.5773270385
  - # 6
    frequency:     1.5813050456
  - # 7
    frequency:     1.5834429334
  - # 8
    frequency:     1.6212401936
  - # 9
    frequency:     1.6316923333
  - # 10
    frequency:     2.8302505775
  - # 11
    frequency:     2.8318795184
  - # 12
    frequency:     2.8436118804

- q-position: [    0.1145833,    0.0312500,    0.0104167 ]
  weight: 48   
  band:
  - # 1
    frequency:     0.1951888640
  - # 2
    frequency:     0.1968051647
  - # 3
    frequency:     0.6151030929
  - # 4
    frequency:     1.5639850956
  - # 5
    frequency:     1.5643521518
  - # 6
    frequency:     1.5700144591
  - # 7
    frequency:     1.5704921058
  - # 8
    frequency:     1.6287952358
  - # 9
    frequency:     1.6397473203
  - # 10
    frequency:     2.8136344542
  - # 11
    frequency:     2.8154014930
  - # 12
    frequency:     2.8333291208

- q-position: [    0.1354167,    0.0312500,    0.0104167 ]
  weight: 48   
  band:
  - # 1
    frequency:     0.2305953124
  - # 2
    frequency:     0.2315839333
  - # 3
    frequency:     0.7160038597
  - # 4
    frequency:     1.5480907260
  - # 5
    frequency:     1.5514665604
  - # 6
    frequency:     1.5540175197
  - # 7
    frequency:     1.5578431460
  - # 8
    frequency:     1.6380431345
  - # 9
    frequency:     1.6493135821
  - # 10
    frequency:     2.7939032313
  - # 11
    frequency:     2.7958348147
  - # 12
    frequency:     2.8208959104

- q-position: [    0.1562500,    0.0312500,    0.0104167 ]
  weight: 48   
  band:
  - # 1
    frequency:     0.2667795993
  - # 2
    frequency:     0.2673235900
  - # 3
    frequency:     0.8165770286
  - # 4
    frequency:     1.5297061428
  - # 5
    frequency:     1.5355150432
  - # 6
    frequency:     1.5370518780
  - # 7
    frequency:     1.5435283123
  - # 8
    frequency:     1.6490750832
  - # 9
    frequency:     1.6605380819
  - # 10
    frequency:     2.7711689753
  - # 11
    frequency:     2.7732909041
  - # 12
    frequency:     2.8062637686

- q-position: [    0.1770833,    0.0312500,    0.0104167 ]
  weight: 48   
  band:
  - # 1
    frequency:     0.3036216459
  - # 2
    frequency:     0.3040872678
  - # 3
    frequency:     0.9163224232
  - # 4
    frequency:     1.5089030701
  - # 5
    frequency:     1.5145796070
  - # 6
    frequency:     1.5212719689
  - # 7
    frequency:     1.5277465134
  - # 8
    frequency:     1.6619841715
  - # 9
    frequency:     1.6735481716
  - # 10
    frequency:     2.7455612048
  - # 11
    frequency:     2.7478985218
  - # 12
    frequency:     2.7893783378

- q-position: [    0.1979167,    0.0312500,    0.0104167 ]
  weight: 48   
  band:
  - # 1
    frequency:     0.3411356611
  - # 2
    frequency:     0.3418466145
  - # 3
    frequency:     1.0148738365
  - # 4
    frequency:     1.4857623561
  - # 5
    frequency:     1.4912930587
  - # 6
    frequency:     1.5043311022
  - # 7
    frequency:     1.5107237806
  - # 8
    frequency:     1.6768615138
  - # 9
    frequency:     1.6884560994
  - # 10
    frequency:     2.7172263120
  - # 11
    frequency:     2.7198031864
  - # 12
    frequency:     2.7701803195

- q-position: [    0.2187500,    0.0312500,    0.0104167 ]
  weight: 48   
  band:
  - # 1
    frequency:     0.3794567867
  - # 2
    frequency:     0.3804591642
  - # 3
    frequency:     1.1119425251
  - # 4
    frequency:     1.4603735361
  - # 5
    frequency:     1.4657460870
  - # 6
    frequency:     1.4864672464
  - # 7
    frequency:     1.4927117025
  - # 8
    frequency:     1.6937918071
  - # 9
    frequency:     1.7053597675
  - # 10
    frequency:     2.6863268902
  - # 11
    frequency:     2.6891664991
  - # 12
    frequency:     2.7486064923

- q-position: [    0.2395833,    0.0312500,    0.0104167 ]
  weight: 48   
  band:
  - # 1
    frequency:     0.4186119169
  - # 2
    frequency:     0.4198803375
  - # 3
    frequency:     1.2072888524
  - # 4
    frequency:     1.4328343468
  - # 5
    frequency:     1.4380377443
  - # 6
    frequency:     1.4679470714
  - # 7
    frequency:     1.4739855496
  - # 8
    frequency:     1.7128487926
  - # 9
    frequency:     1.7243413535
  - # 10
    frequency:     2.6530409638
  - # 11
    frequency:     2.6561653704
  - # 12
    frequency:     2.7245907937

- q-position: [    0.2604167,    0.0312500,    0.0104167 ]
  weight: 48   
  band:
  - # 1
    frequency:     0.4585876945
  - # 2
    frequency:     0.4600868536
  - # 3
    frequency:     1.3007071925
  - # 4
    frequency:     1.4032501959
  - # 5
    frequency:     1.4082749218
  - # 6
    frequency:     1.4490616197
  - # 7
    frequency:     1.4548418672
  - # 8
    frequency:     1.7340909117
  - # 9
    frequency:     1.7454648959
  - # 10
    frequency:     2.6175611137
  - # 11
    frequency:     2.6209911412
  - # 12
    frequency:     2.6980654490

- q-position: [    0.2812500,    0.0312500,    0.0104167 ]
  weight: 48   
  band:
  - # 1
    frequency:     0.4993535760
  - # 2
    frequency:     0.5010494313
  - # 3
    frequency:     1.3717335853
  - # 4
    frequency:     1.3765717783
  - # 5
    frequency:     1.3920175149
  - # 6
    frequency:     1.4301219726
  - # 7
    frequency:     1.4355953639
  - # 8
    frequency:     1.7575573816
  - # 9
    frequency:     1.7687735623
  - # 10
    frequency:     2.5800934931
  - # 11
    frequency:     2.5838485931
  - # 12
    frequency:     2.6689621299

- q-position: [    0.3020833,    0.0312500,    0.0104167 ]
  weight: 48   
  band:
  - # 1
    frequency:     0.5408651267
  - # 2
    frequency:     0.5427276792
  - # 3
    frequency:     1.3384034940
  - # 4
    frequency:     1.3430491221
  - # 5
    frequency:     1.4114544655
  - # 6
    frequency:     1.4165749414
  - # 7
    frequency:     1.4810605229
  - # 8
    frequency:     1.7832648643
  - # 9
    frequency:     1.7942870645
  - # 10
    frequency:     2.5408567243
  - # 11
    frequency:     2.5449548409
  - # 12
    frequency:     2.6372131264

- q-position: [    0.3229167,    0.0312500,    0.0104167 ]
  weight: 48   
  band:
  - # 1
    frequency:     0.5830647653
  - # 2
    frequency:     0.5850689828
  - # 3
    frequency:     1.3033847196
  - # 4
    frequency:     1.3078337479
  - # 5
    frequency:     1.3933951552
  - # 6
    frequency:     1.3981187381
  - # 7
    frequency:     1.5676947647
  - # 8
    frequency:     1.8112048620
  - # 9
    frequency:     1.8219995189
  - # 10
    frequency:     2.5000806705
  - # 11
    frequency:     2.5045380972
  - # 12
    frequency:     2.6027525173

- q-position: [    0.3437500,    0.0312500,    0.0104167 ]
  weight: 48   
  band:
  - # 1
    frequency:     0.6258823064
  - # 2
    frequency:     0.6280085066
  - # 3
    frequency:     1.2668071822
  - # 4
    frequency:     1.2710577268
  - # 5
    frequency:     1.3762833559
  - # 6
    frequency:     1.3805680947
  - # 7
    frequency:     1.6517948738
  - # 8
    frequency:     1.8413419173
  - # 9
    frequency:     1.8518779316
  - # 10
    frequency:     2.4580050759
  - # 11
    frequency:     2.4628363062
  - # 12
    frequency:     2.5655173238

- q-position: [    0.3645833,    0.0312500,    0.0104167 ]
  weight: 48   
  band:
  - # 1
    frequency:     0.6692356442
  - # 2
    frequency:     0.6714696498
  - # 3
    frequency:     1.2288051944
  - # 4
    frequency:     1.2328576501
  - # 5
    frequency:     1.3604541738
  - # 6
    frequency:     1.3642604223
  - # 7
    frequency:     1.7332504674
  - # 8
    frequency:     1.8736126442
  - # 9
    frequency:     1.8838613910
  - # 10
    frequency:     2.4148780735
  - # 11
    frequency:     2.4200956417
  - # 12
    frequency:     2.5254486337

- q-position: [    0.3854167,    0.0312500,    0.0104167 ]
  weight: 48   
  band:
  - # 1
    frequency:     0.7130316086
  - # 2
    frequency:     0.7153647285
  - # 3
    frequency:     1.1895166985
  - # 4
    frequency:     1.1933738240
  - # 5
    frequency:     1.3462300956
  - # 6
    frequency:     1.3495210496
  - # 7
    frequency:     1.8119654284
  - # 8
    frequency:     1.9079255522
  - # 9
    frequency:     1.9178609670
  - # 10
    frequency:     2.3709545755
  - # 11
    frequency:     2.3765688825
  - # 12
    frequency:     2.4824926849

- q-position: [    0.4062500,    0.0312500,    0.0104167 ]
  weight: 48   
  band:
  - # 1
    frequency:     0.7571669584
  - # 2
    frequency:     0.7595957825
  - # 3
    frequency:     1.1490824771
  - # 4
    frequency:     1.1527494156
  - # 5
    frequency:     1.3339118339
  - # 6
    frequency:     1.3366542547
  - # 7
    frequency:     1.8878574050
  - # 8
    frequency:     1.9441615460
  - # 9
    frequency:     1.9537602102
  - # 10
    frequency:     2.3264946075
  - # 11
    frequency:     2.3325137131
  - # 12
    frequency:     2.4366018973

- q-position: [    0.4270833,    0.0312500,    0.0104167 ]
  weight: 48   
  band:
  - # 1
    frequency:     0.8015294750
  - # 2
    frequency:     0.8040554544
  - # 3
    frequency:     1.1076453390
  - # 4
    frequency:     1.1111295474
  - # 5
    frequency:     1.3237687868
  - # 6
    frequency:     1.3259338381
  - # 7
    frequency:     1.9608574246
  - # 8
    frequency:     1.9821748168
  - # 9
    frequency:     1.9914159367
  - # 10
    frequency:     2.2817618212
  - # 11
    frequency:     2.2881911347
  - # 12
    frequency:     2.3877358454

- q-position: [    0.4479167,    0.0312500,    0.0104167 ]
  weight: 48   
  band:
  - # 1
    frequency:     0.8459991124
  - # 2
    frequency:     0.8486279161
  - # 3
    frequency:     1.0653492843
  - # 4
    frequency:     1.0686603400
  - # 5
    frequency:     1.3160296240
  - # 6
    frequency:     1.3175937352
  - # 7
    frequency:     2.0217932278
  - # 8
    frequency:     2.0306581485
  - # 9
    frequency:     2.0309095555
  - # 10
    frequency:     2.2370232282
  - # 11
    frequency:     2.2438647629
  - # 12
    frequency:     2.3358621643

- q-position: [    0.4687500,    0.0312500,    0.0104167 ]
  weight: 48   
  band:
  - # 1
    frequency:     0.8904491651
  - # 2
    frequency:     0.8931898354
  - # 3
    frequency:     1.0223386511
  - # 4
    frequency:     1.0254879039
  - # 5
    frequency:     1.3108736232
  - # 6
    frequency:     1.3118192906
  - # 7
    frequency:     2.0628133698
  - # 8
    frequency:     2.0712820008
  - # 9
    frequency:     2.0979705724
  - # 10
    frequency:     2.1925571277
  - # 11
    frequency:     2.1998057138
  - # 12
    frequency:     2.2809573837

- q-position: [    0.4895833,    0.0312500,    0.0104167 ]
  weight: 48   
  band:
  - # 1
    frequency:     0.9347474160
  - # 2
    frequency:     0.9376113841
  - # 3
    frequency:     0.9787572406
  - # 4
    frequency:     0.9817572865
  - # 5
    frequency:     1.3084234291
  - # 6
    frequency:     1.3087398664
  - # 7
    frequency:     2.1049226335
  - # 8
    frequency:     2.1128909002
  - # 9
    frequency:     2.1488100345
  - # 10
    frequency:     2.1563706142
  - # 11
    frequency:     2.1620095960
  - # 12
    frequency:     2.2230076875

- q-position: [    0.0520833,    0.0520833,    0.0104167 ]
  weight: 24   
  band:
  - # 1
    frequency:     0.1147114777
  - # 2
    frequency:     0.1209437509
  - # 3
    frequency:     0.3882457994
  - # 4
    frequency:     1.5844643937
  - # 5
    frequency:     1.5915440322
  - # 6
    frequency:     1.5915440322
  - # 7
    frequency:     1.6054042189
  - # 8
    frequency:     1.6054042189
  - # 9
    frequency:     1.6264336582
  - # 10
    frequency:     2.8470041602
  - # 11
    frequency:     2.8512778475
  - # 12
    frequency:     2.8512778475

- q-position: [    0.0729167,    0.0520833,    0.0104167 ]
  weight: 48   
  band:
  - # 1
    frequency:     0.1409410371
  - # 2
    frequency:     0.1470799984
  - # 3
    frequency:     0.4697664926
  - # 4
    frequency:     1.5745758318
  - # 5
    frequency:     1.5835260086
  - # 6
    frequency:     1.5848511770
  - # 7
    frequency:     1.5972461397
  - # 8
    frequency:     1.6098180248
  - # 9
    frequency:     1.6341724156
  - # 10
    frequency:     2.8368890929
  - # 11
    frequency:     2.8414130667
  - # 12
    frequency:     2.8453507377

- q-position: [    0.0937500,    0.0520833,    0.0104167 ]
  weight: 48   
  band:
  - # 1
    frequency:     0.1713910600
  - # 2
    frequency:     0.1764038111
  - # 3
    frequency:     0.5591826986
  - # 4
    frequency:     1.5634116436
  - # 5
    frequency:     1.5728852604
  - # 6
    frequency:     1.5761048994
  - # 7
    frequency:     1.5864193201
  - # 8
    frequency:     1.6157459895
  - # 9
    frequency:     1.6426874814
  - # 10
    frequency:     2.8234912557
  - # 11
    frequency:     2.8283474282
  - # 12
    frequency:     2.8374042692

- q-position: [    0.1145833,    0.0520833,    0.0104167 ]
  weight: 48   
  band:
  - # 1
    frequency:     0.2042434529
  - # 2
    frequency:     0.2078572822
  - # 3
    frequency:     0.6527961677
  - # 4
    frequency:     1.5509492090
  - # 5
    frequency:     1.5596641921
  - # 6
    frequency:     1.5654019704
  - # 7
    frequency:     1.5729668117
  - # 8
    frequency:     1.6232748440
  - # 9
    frequency:     1.6521826105
  - # 10
    frequency:     2.8068863906
  - # 11
    frequency:     2.8121553674
  - # 12
    frequency:     2.8274020467

- q-position: [    0.1354167,    0.0520833,    0.0104167 ]
  weight: 48   
  band:
  - # 1
    frequency:     0.2386498244