nqpoint: 306    
npath: 6      
segment_nqpoint:
- 51
- 51
- 51
- 51
- 51
- 51
reciprocal_lattice:
- [   0.24768990,   0.00000000,   0.00000000 ] # a*
- [   0.00000000,   0.24768990,   0.00000000 ] # b*
- [   0.00000000,   0.00000000,   0.24768990 ] # c*
natom: 4      
lattice:
- [     4.037306369672815,     0.000000000000000,     0.000000000000000 ] # a
- [     0.000000000000000,     4.037306369672815,     0.000000000000000 ] # b
- [     0.000000000000000,     0.000000000000000,     4.037306369672815 ] # c
points:
- symbol: Al # 1
  coordinates: [  0.500000000000000,  0.500000000000000,  0.000000000000000 ]
  mass: 26.981539
- symbol: Al # 2
  coordinates: [  0.500000000000000,  0.000000000000000,  0.500000000000000 ]
  mass: 26.981539
- symbol: Al # 3
  coordinates: [  0.000000000000000,  0.500000000000000,  0.500000000000000 ]
  mass: 26.981539
- symbol: Al # 4
  coordinates: [  0.000000000000000,  0.000000000000000,  0.000000000000000 ]
  mass: 26.981539
supercell_matrix:
- [    4,    0,    0 ]
- [    0,    4,    0 ]
- [    0,    0,    4 ]

phonon:
- q-position: [    0.0000000,    0.0000000,    0.0000000 ]
  distance:    0.0000000
  label: '\Gamma'
  band:
  - # 1
    frequency:    0.0030096595
  - # 2
    frequency:    0.0030096595
  - # 3
    frequency:    0.0030096595
  - # 4
    frequency:    5.7257339129
  - # 5
    frequency:    5.7257339129
  - # 6
    frequency:    5.7257339129
  - # 7
    frequency:    5.7257339129
  - # 8
    frequency:    5.7257339129
  - # 9
    frequency:    5.7257339129
  - # 10
    frequency:    9.8594283039
  - # 11
    frequency:    9.8594283039
  - # 12
    frequency:    9.8594283039

- q-position: [    0.0000000,    0.0100000,    0.0100000 ]
  distance:    0.0035029
  band:
  - # 1
    frequency:    0.0874078383
  - # 2
    frequency:    0.1267541314
  - # 3
    frequency:    0.2302182217
  - # 4
    frequency:    5.7244335139
  - # 5
    frequency:    5.7253415509
  - # 6
    frequency:    5.7253415509
  - # 7
    frequency:    5.7253834672
  - # 8
    frequency:    5.7253834672
  - # 9
    frequency:    5.7283941340
  - # 10
    frequency:    9.8566234334
  - # 11
    frequency:    9.8567241935
  - # 12
    frequency:    9.8567241935

- q-position: [    0.0000000,    0.0200000,    0.0200000 ]
  distance:    0.0070057
  band:
  - # 1
    frequency:    0.1749576635
  - # 2
    frequency:    0.2535729845
  - # 3
    frequency:    0.4602959539
  - # 4
    frequency:    5.7205441236
  - # 5
    frequency:    5.7241660652
  - # 6
    frequency:    5.7241660652
  - # 7
    frequency:    5.7243440044
  - # 8
    frequency:    5.7243440044
  - # 9
    frequency:    5.7363653345
  - # 10
    frequency:    9.8482211915
  - # 11
    frequency:    9.8486283007
  - # 12
    frequency:    9.8486283007

- q-position: [    0.0000000,    0.0300000,    0.0300000 ]
  distance:    0.0105086
  band:
  - # 1
    frequency:    0.2629599911
  - # 2
    frequency:    0.3806380692
  - # 3
    frequency:    0.6901574166
  - # 4
    frequency:    5.7141010358
  - # 5
    frequency:    5.7222120879
  - # 6
    frequency:    5.7222120879
  - # 7
    frequency:    5.7226509540
  - # 8
    frequency:    5.7226509540
  - # 9
    frequency:    5.7496191135
  - # 10
    frequency:    9.8342586016
  - # 11
    frequency:    9.8351899256
  - # 12
    frequency:    9.8351899256

- q-position: [    0.0000000,    0.0400000,    0.0400000 ]
  distance:    0.0140115
  band:
  - # 1
    frequency:    0.3516088641
  - # 2
    frequency:    0.5080517993
  - # 3
    frequency:    0.9196841333
  - # 4
    frequency:    5.7051626554
  - # 5
    frequency:    5.7194867796
  - # 6
    frequency:    5.7194867796
  - # 7
    frequency:    5.7203627213
  - # 8
    frequency:    5.7203627213
  - # 9
    frequency:    5.7681080985
  - # 10
    frequency:    9.8147970837
  - # 11
    frequency:    9.8164911861
  - # 12
    frequency:    9.8164911861

- q-position: [    0.0000000,    0.0500000,    0.0500000 ]
  distance:    0.0175143
  band:
  - # 1
    frequency:    0.4410962764
  - # 2
    frequency:    0.6359168873
  - # 3
    frequency:    1.1487590219
  - # 4
    frequency:    5.6938098692
  - # 5
    frequency:    5.7159990015
  - # 6
    frequency:    5.7159990015
  - # 7
    frequency:    5.7175597261
  - # 8
    frequency:    5.7175597261
  - # 9
    frequency:    5.7917658958
  - # 10
    frequency:    9.7899220272
  - # 11
    frequency:    9.7926469406
  - # 12
    frequency:    9.7926469406

- q-position: [    0.0000000,    0.0600000,    0.0600000 ]
  distance:    0.0210172
  band:
  - # 1
    frequency:    0.5315999235
  - # 2
    frequency:    0.7643283161
  - # 3
    frequency:    1.3772623258
  - # 4
    frequency:    5.6801451659
  - # 5
    frequency:    5.7117581818
  - # 6
    frequency:    5.7117581818
  - # 7
    frequency:    5.7143430652
  - # 8
    frequency:    5.7143430652
  - # 9
    frequency:    5.8205070347
  - # 10
    frequency:    9.7597421925
  - # 11
    frequency:    9.7638046728
  - # 12
    frequency:    9.7638046728

- q-position: [    0.0000000,    0.0700000,    0.0700000 ]
  distance:    0.0245200
  band:
  - # 1
    frequency:    0.6232787638
  - # 2
    frequency:    0.8933705860
  - # 3
    frequency:    1.6050704042
  - # 4
    frequency:    5.6642915035
  - # 5
    frequency:    5.7067729008
  - # 6
    frequency:    5.7067729008
  - # 7
    frequency:    5.7108328086
  - # 8
    frequency:    5.7108328086
  - # 9
    frequency:    5.8542269192
  - # 10
    frequency:    9.7243889440
  - # 11
    frequency:    9.7301443294
  - # 12
    frequency:    9.7301443294

- q-position: [    0.0000000,    0.0800000,    0.0800000 ]
  distance:    0.0280229
  band:
  - # 1
    frequency:    0.7162699796
  - # 2
    frequency:    1.0231158036
  - # 3
    frequency:    1.8320549310
  - # 4
    frequency:    5.6463909250
  - # 5
    frequency:    5.7010492304
  - # 6
    frequency:    5.7010492304
  - # 7
    frequency:    5.7071659435
  - # 8
    frequency:    5.7071659435
  - # 9
    frequency:    5.8928018009
  - # 10
    frequency:    9.6840153147
  - # 11
    frequency:    9.6918780991
  - # 12
    frequency:    9.6918780991

- q-position: [    0.0000000,    0.0900000,    0.0900000 ]
  distance:    0.0315258
  band:
  - # 1
    frequency:    0.8106866552
  - # 2
    frequency:    1.1536221425
  - # 3
    frequency:    2.0580822403
  - # 4
    frequency:    5.6266029248
  - # 5
    frequency:    5.6945888715
  - # 6
    frequency:    5.6945888715
  - # 7
    frequency:    5.7034939834
  - # 8
    frequency:    5.7034939834
  - # 9
    frequency:    5.9360887904
  - # 10
    frequency:    9.6387949039
  - # 11
    frequency:    9.6492501144
  - # 12
    frequency:    9.6492501144

- q-position: [    0.0000000,    0.1000000,    0.1000000 ]
  distance:    0.0350286
  band:
  - # 1
    frequency:    0.9066160478
  - # 2
    frequency:    1.2849325985
  - # 3
    frequency:    2.2830127718
  - # 4
    frequency:    5.6051025677
  - # 5
    frequency:    5.6873871469
  - # 6
    frequency:    5.6873871469
  - # 7
    frequency:    5.6999802681
  - # 8
    frequency:    5.6999802681
  - # 9
    frequency:    5.9839259231
  - # 10
    frequency:    9.5889206121
  - # 11
    frequency:    9.6025360534
  - # 12
    frequency:    9.6025360534

- q-position: [    0.0000000,    0.1100000,    0.1100000 ]
  distance:    0.0385315
  band:
  - # 1
    frequency:    1.0041184089
  - # 2
    frequency:    1.4170740251
  - # 3
    frequency:    2.5067006097
  - # 4
    frequency:    5.5820783685
  - # 5
    frequency:    5.6794309168
  - # 6
    frequency:    5.6794309168
  - # 7
    frequency:    5.6967969844
  - # 8
    frequency:    5.6967969844
  - # 9
    frequency:    6.0361322948
  - # 10
    frequency:    9.5346032138
  - # 11
    frequency:    9.5520426073
  - # 12
    frequency:    9.5520426073

- q-position: [    0.0000000,    0.1200000,    0.1200000 ]
  distance:    0.0420344
  band:
  - # 1
    frequency:    1.1032263270
  - # 2
    frequency:    1.5500564483
  - # 3
    frequency:    2.7289931162
  - # 4
    frequency:    5.5577299396
  - # 5
    frequency:    5.6706965024
  - # 6
    frequency:    5.6706965024
  - # 7
    frequency:    5.6941219463
  - # 8
    frequency:    5.6941219463
  - # 9
    frequency:    6.0925082833
  - # 10
    frequency:    9.4760697746
  - # 11
    frequency:    9.4981067724
  - # 12
    frequency:    9.4981067724

- q-position: [    0.0000000,    0.1300000,    0.1300000 ]
  distance:    0.0455372
  band:
  - # 1
    frequency:    1.2039445508
  - # 2
    frequency:    1.6838726599
  - # 3
    frequency:    2.9497306629
  - # 4
    frequency:    5.5322654209
  - # 5
    frequency:    5.6611477164
  - # 6
    frequency:    5.6611477164
  - # 7
    frequency:    5.6921351810
  - # 8
    frequency:    5.6921351810
  - # 9
    frequency:    6.1528358657
  - # 10
    frequency:    9.4135619162
  - # 11
    frequency:    9.4410949098
  - # 12
    frequency:    9.4410949098

- q-position: [    0.0000000,    0.1400000,    0.1400000 ]
  distance:    0.0490401
  band:
  - # 1
    frequency:    1.3062502537
  - # 2
    frequency:    1.8184980831
  - # 3
    frequency:    3.1687464641
  - # 4
    frequency:    5.5058987101
  - # 5
    frequency:    5.6507341175
  - # 6
    frequency:    5.6507341175
  - # 7
    frequency:    5.6910153753
  - # 8
    frequency:    5.6910153753
  - # 9
    frequency:    6.2168790429
  - # 10
    frequency:    9.3473339368
  - # 11
    frequency:    9.3814015033
  - # 12
    frequency:    9.3814015033

- q-position: [    0.0000000,    0.1500000,    0.1500000 ]
  distance:    0.0525430
  band:
  - # 1
    frequency:    1.4100936872
  - # 2
    frequency:    1.9538909021
  - # 3
    frequency:    3.3858665134
  - # 4
    frequency:    5.4788465170
  - # 5
    frequency:    5.6393896257
  - # 6
    frequency:    5.6393896257
  - # 7
    frequency:    5.6909362435
  - # 8
    frequency:    5.6909362435
  - # 9
    frequency:    6.2843843769
  - # 10
    frequency:    9.2776507951
  - # 11
    frequency:    9.3194475294
  - # 12
    frequency:    9.3194475294

- q-position: [    0.0000000,    0.1600000,    0.1600000 ]
  distance:    0.0560458
  band:
  - # 1
    frequency:    1.5153991736
  - # 2
    frequency:    2.0899924418
  - # 3
    frequency:    3.6009096264
  - # 4
    frequency:    5.4513252729
  - # 5
    frequency:    5.6270316489
  - # 6
    frequency:    5.6270316489
  - # 7
    frequency:    5.6920628878
  - # 8
    frequency:    5.6920628878
  - # 9
    frequency:    6.3550816448
  - # 10
    frequency:    9.2047859669
  - # 11
    frequency:    9.2556783374
  - # 12
    frequency:    9.2556783374

- q-position: [    0.0000000,    0.1700000,    0.1700000 ]
  distance:    0.0595487
  band:
  - # 1
    frequency:    1.6220663880
  - # 2
    frequency:    2.2267277833
  - # 3
    frequency:    3.8136875880
  - # 4
    frequency:    5.4235479306
  - # 5
    frequency:    5.6135608909
  - # 6
    frequency:    5.6135608909
  - # 7
    frequency:    5.6945482255
  - # 8
    frequency:    5.6945482255
  - # 9
    frequency:    6.4286846094
  - # 10
    frequency:    9.1290191885
  - # 11
    frequency:    9.1905609211
  - # 12
    frequency:    9.1905609211

- q-position: [    0.0000000,    0.1800000,    0.1800000 ]
  distance:    0.0630516
  band:
  - # 1
    frequency:    1.7299718775
  - # 2
    frequency:    2.3640065952
  - # 3
    frequency:    4.0240054051
  - # 4
    frequency:    5.3957207010
  - # 5
    frequency:    5.5988620143
  - # 6
    frequency:    5.5988620143
  - # 7
    frequency:    5.6985295609
  - # 8
    frequency:    5.6985295609
  - # 9
    frequency:    6.5048919043
  - # 10
    frequency:    9.0506340995
  - # 11
    frequency:    9.1245804562
  - # 12
    frequency:    9.1245804562

- q-position: [    0.0000000,    0.1900000,    0.1900000 ]
  distance:    0.0665544
  band:
  - # 1
    frequency:    1.8389707752
  - # 2
    frequency:    2.5017241620
  - # 3
    frequency:    4.2316616617
  - # 4
    frequency:    5.3680397755
  - # 5
    frequency:    5.5828053354
  - # 6
    frequency:    5.5828053354
  - # 7
    frequency:    5.7041253842
  - # 8
    frequency:    5.7041253842
  - # 9
    frequency:    6.5833880289
  - # 10
    frequency:    8.9699158028
  - # 11
    frequency:    9.0582359724
  - # 12
    frequency:    9.0582359724

- q-position: [    0.0000000,    0.2000000,    0.2000000 ]
  distance:    0.0700573
  band:
  - # 1
    frequency:    1.9488986645
  - # 2
    frequency:    2.6397625872
  - # 3
    frequency:    4.4364489736
  - # 4
    frequency:    5.3406880926
  - # 5
    frequency:    5.5652497096
  - # 6
    frequency:    5.5652497096
  - # 7
    frequency:    5.7114324740
  - # 8
    frequency:    5.7114324740
  - # 9
    frequency:    6.6638444454
  - # 10
    frequency:    8.8871483617
  - # 11
    frequency:    8.9920350431
  - # 12
    frequency:    8.9920350431

- q-position: [    0.0000000,    0.2100000,    0.2100000 ]
  distance:    0.0735601
  band:
  - # 1
    frequency:    2.0595735592
  - # 2
    frequency:    2.7779921508
  - # 3
    frequency:    4.6381545389
  - # 4
    frequency:    5.3138322089
  - # 5
    frequency:    5.5460467274
  - # 6
    frequency:    5.5460467274
  - # 7
    frequency:    5.7205233782
  - # 8
    frequency:    5.7205233782
  - # 9
    frequency:    6.7459207693
  - # 10
    frequency:    8.8026122568
  - # 11
    frequency:    8.9264874068
  - # 12
    frequency:    8.9264874068

- q-position: [    0.0000000,    0.2200000,    0.2200000 ]
  distance:    0.0770630
  band:
  - # 1
    frequency:    2.1707979651
  - # 2
    frequency:    2.9162727974
  - # 3
    frequency:    4.8365607793
  - # 4
    frequency:    5.2876193432
  - # 5
    frequency:    5.5250462807
  - # 6
    frequency:    5.5250462807
  - # 7
    frequency:    5.7314443395
  - # 8
    frequency:    5.7314443395
  - # 9
    frequency:    6.8292660430
  - # 10
    frequency:    8.7165818279
  - # 11
    frequency:    8.8620974917
  - # 12
    frequency:    8.8620974917

- q-position: [    0.0000000,    0.2300000,    0.2300000 ]
  distance:    0.0805659
  band:
  - # 1
    frequency:    2.2823609974
  - # 2
    frequency:    3.0544557354
  - # 3
    frequency:    5.0314460665
  - # 4
    frequency:    5.2621746574
  - # 5
    frequency:    5.5021034619
  - # 6
    frequency:    5.5021034619
  - # 7
    frequency:    5.7442137192
  - # 8
    frequency:    5.7442137192
  - # 9
    frequency:    6.9135200819
  - # 10
    frequency:    8.6293227288
  - # 11
    frequency:    8.7993558983
  - # 12
    frequency:    8.7993558983

- q-position: [    0.0000000,    0.2400000,    0.2400000 ]
  distance:    0.0840687
  band:
  - # 1
    frequency:    2.3940405293
  - # 2
    frequency:    3.1923851241
  - # 3
    frequency:    5.2225855274
  - # 4
    frequency:    5.2375988426
  - # 5
    frequency:    5.4770866389
  - # 6
    frequency:    5.4770866389
  - # 7
    frequency:    5.7588209608
  - # 8
    frequency:    5.7588209608
  - # 9
    frequency:    6.9983148808
  - # 10
    frequency:    8.5410894274
  - # 11
    frequency:    8.7387300143
  - # 12
    frequency:    8.7387300143

- q-position: [    0.0000000,    0.2500000,    0.2500000 ]
  distance:    0.0875716
  band:
  - # 1
    frequency:    2.5056053532
  - # 2
    frequency:    3.3298998303
  - # 3
    frequency:    5.2139660722
  - # 4
    frequency:    5.4097519214
  - # 5
    frequency:    5.4498864004
  - # 6
    frequency:    5.4498864004
  - # 7
    frequency:    5.7752261201
  - # 8
    frequency:    5.7752261201
  - # 9
    frequency:    7.0832760688
  - # 10
    frequency:    8.4521227821
  - # 11
    frequency:    8.6806540644
  - # 12
    frequency:    8.6806540644

- q-position: [    0.0000000,    0.2600000,    0.2600000 ]
  distance:    0.0910745
  band:
  - # 1
    frequency:    2.6168173368
  - # 2
    frequency:    3.4668352320
  - # 3
    frequency:    5.1913223773
  - # 4
    frequency:    5.4204249204
  - # 5
    frequency:    5.4204249204
  - # 6
    frequency:    5.5927165823
  - # 7
    frequency:    5.7933599676
  - # 8
    frequency:    5.7933599676
  - # 9
    frequency:    7.1680244015
  - # 10
    frequency:    8.3626477319
  - # 11
    frequency:    8.6255190459
  - # 12
    frequency:    8.6255190459

- q-position: [    0.0000000,    0.2700000,    0.2700000 ]
  distance:    0.0945773
  band:
  - # 1
    frequency:    2.7274335631
  - # 2
    frequency:    3.6030250538
  - # 3
    frequency:    5.1696844913
  - # 4
    frequency:    5.3886651535
  - # 5
    frequency:    5.3886651535
  - # 6
    frequency:    5.7712504168
  - # 7
    frequency:    5.8131246579
  - # 8
    frequency:    5.8131246579
  - # 9
    frequency:    7.2521772780
  - # 10
    frequency:    8.2728711339
  - # 11
    frequency:    8.5736631209
  - # 12
    frequency:    8.5736631209

- q-position: [    0.0000000,    0.2800000,    0.2800000 ]
  distance:    0.0980802
  band:
  - # 1
    frequency:    2.8372084395
  - # 2
    frequency:    3.7383032121
  - # 3
    frequency:    5.1490391977
  - # 4
    frequency:    5.3546191872
  - # 5
    frequency:    5.3546191872
  - # 6
    frequency:    5.8343949387
  - # 7
    frequency:    5.8343949387
  - # 8
    frequency:    5.9451249518
  - # 9
    frequency:    7.3353502727
  - # 10
    frequency:    8.1829797870
  - # 11
    frequency:    8.5253631166
  - # 12
    frequency:    8.5253631166

- q-position: [    0.0000000,    0.2900000,    0.2900000 ]
  distance:    0.1015831
  band:
  - # 1
    frequency:    2.9458957704
  - # 2
    frequency:    3.8725056562
  - # 3
    frequency:    5.1293432026
  - # 4
    frequency:    5.3183550603
  - # 5
    frequency:    5.3183550603
  - # 6
    frequency:    5.8570198620
  - # 7
    frequency:    5.8570198620
  - # 8
    frequency:    6.1141134221
  - # 9
    frequency:    7.4171586702
  - # 10
    frequency:    8.0931386762
  - # 11
    frequency:    8.4808277925
  - # 12
    frequency:    8.4808277925

- q-position: [    0.0000000,    0.3000000,    0.3000000 ]
  distance:    0.1050859
  band:
  - # 1
    frequency:    3.0532507820
  - # 2
    frequency:    4.0054721864
  - # 3
    frequency:    5.1105235368
  - # 4
    frequency:    5.2800014341
  - # 5
    frequency:    5.2800014341
  - # 6
    frequency:    5.8808249428
  - # 7
    frequency:    5.8808249428
  - # 8
    frequency:    6.2779918905
  - # 9
    frequency:    7.4972189950
  - # 10
    frequency:    8.0034894718
  - # 11
    frequency:    8.4401934530
  - # 12
    frequency:    8.4401934530

- q-position: [    0.0000000,    0.3100000,    0.3100000 ]
  distance:    0.1085888
  band:
  - # 1
    frequency:    3.1590320944
  - # 2
    frequency:    4.1370482342
  - # 3
    frequency:    5.0924784782
  - # 4
    frequency:    5.2397496615
  - # 5
    frequency:    5.2397496615
  - # 6
    frequency:    5.9056147071
  - # 7
    frequency:    5.9056147071
  - # 8
    frequency:    6.4365403903
  - # 9
    frequency:    7.5751505248
  - # 10
    frequency:    7.9141493166
  - # 11
    frequency:    8.4035223126
  - # 12
    frequency:    8.4035223126

- q-position: [    0.0000000,    0.3200000,    0.3200000 ]
  distance:    0.1120917
  band:
  - # 1
    frequency:    3.2630036346
  - # 2
    frequency:    4.2670865886
  - # 3
    frequency:    5.0750789696
  - # 4
    frequency:    5.1978530365
  - # 5
    frequency:    5.1978530365
  - # 6
    frequency:    5.9311755568
  - # 7
    frequency:    5.9311755568
  - # 8
    frequency:    6.5895440848
  - # 9
    frequency:    7.6505767805
  - # 10
    frequency:    7.8252099269
  - # 11
    frequency:    8.3708037877
  - # 12
    frequency:    8.3708037877

- q-position: [    0.0000000,    0.3300000,    0.3300000 ]
  distance:    0.1155945
  band:
  - # 1
    frequency:    3.3649364833
  - # 2
    frequency:    4.3954490543
  - # 3
    frequency:    5.0581704918
  - # 4
    frequency:    5.1546232657
  - # 5
    frequency:    5.1546232657
  - # 6
    frequency:    5.9572788836
  - # 7
    frequency:    5.9572788836
  - # 8
    frequency:    6.7367944317
  - # 9
    frequency:    7.7231269834
  - # 10
    frequency:    7.7367370306
  - # 11
    frequency:    8.3419586191
  - # 12
    frequency:    8.3419586191

- q-position: [    0.0000000,    0.3400000,    0.3400000 ]
  distance:    0.1190974
  band:
  - # 1
    frequency:    3.4646106525
  - # 2
    frequency:    4.5220080257
  - # 3
    frequency:    5.0415753438
  - # 4
    frequency:    5.1104244556
  - # 5
    frequency:    5.1104244556
  - # 6
    frequency:    5.9836843564
  - # 7
    frequency:    5.9836843564
  - # 8
    frequency:    6.8780903469
  - # 9
    frequency:    7.6487701600
  - # 10
    frequency:    7.7924374745
  - # 11
    frequency:    8.3168454823
  - # 12
    frequency:    8.3168454823

- q-position: [    0.0000000,    0.3500000,    0.3500000 ]
  distance:    0.1226002
  band:
  - # 1
    frequency:    3.5618167867
  - # 2
    frequency:    4.6466479638
  - # 3
    frequency:    5.0250952665
  - # 4
    frequency:    5.0656650995
  - # 5
    frequency:    5.0656650995
  - # 6
    frequency:    6.0101433145
  - # 7
    frequency:    6.0101433145
  - # 8
    frequency:    7.0132393593
  - # 9
    frequency:    7.5613228075
  - # 10
    frequency:    7.8581530863
  - # 11
    frequency:    8.2952695477
  - # 12
    frequency:    8.2952695477

- q-position: [    0.0000000,    0.3600000,    0.3600000 ]
  distance:    0.1261031
  band:
  - # 1
    frequency:    3.6563577840
  - # 2
    frequency:    4.7692667602
  - # 3
    frequency:    5.0085143465
  - # 4
    frequency:    5.0207886620
  - # 5
    frequency:    5.0207886620
  - # 6
    frequency:    6.0364021988
  - # 7
    frequency:    6.0364021988
  - # 8
    frequency:    7.1420587470
  - # 9
    frequency:    7.4743829468
  - # 10
    frequency:    7.9199284631
  - # 11
    frequency:    8.2769923441
  - # 12
    frequency:    8.2769923441

- q-position: [    0.0000000,    0.3700000,    0.3700000 ]
  distance:    0.1296060
  band:
  - # 1
    frequency:    3.7480503306
  - # 2
    frequency:    4.8897769755
  - # 3
    frequency:    4.9762633795
  - # 4
    frequency:    4.9762633795
  - # 5
    frequency:    4.9916021267
  - # 6
    frequency:    6.0622059630
  - # 7
    frequency:    6.0622059630
  - # 8
    frequency:    7.2643766497
  - # 9
    frequency:    7.3879139151
  - # 10
    frequency:    7.9774293239
  - # 11
    frequency:    8.2617422621
  - # 12
    frequency:    8.2617422621

- q-position: [    0.0000000,    0.3800000,    0.3800000 ]
  distance:    0.1331088
  band:
  - # 1
    frequency:    3.8367263447
  - # 2
    frequency:    4.9325718447
  - # 3
    frequency:    4.9325718447
  - # 4
    frequency:    4.9741168552
  - # 5
    frequency:    5.0081069369
  - # 6
    frequency:    6.0873014099
  - # 7
    frequency:    6.0873014099
  - # 8
    frequency:    7.3018556399
  - # 9
    frequency:    7.3800331486
  - # 10
    frequency:    8.0303336617
  - # 11
    frequency:    8.2492250914
  - # 12
    frequency:    8.2492250914

- q-position: [    0.0000000,    0.3900000,    0.3900000 ]
  distance:    0.1366117
  band:
  - # 1
    frequency:    3.9222343220
  - # 2
    frequency:    4.8902008358
  - # 3
    frequency:    4.8902008358
  - # 4
    frequency:    4.9558088020
  - # 5
    frequency:    5.1242016823
  - # 6
    frequency:    6.1114404081
  - # 7
    frequency:    6.1114404081
  - # 8
    frequency:    7.2161261924
  - # 9
    frequency:    7.4888813076
  - # 10
    frequency:    8.0783328753
  - # 11
    frequency:    8.2391340975
  - # 12
    frequency:    8.2391340975

- q-position: [    0.0000000,    0.4000000,    0.4000000 ]
  distance:    0.1401146
  band:
  - # 1
    frequency:    4.0044405791
  - # 2
    frequency:    4.8496317276
  - # 3
    frequency:    4.8496317276
  - # 4
    frequency:    4.9364235796
  - # 5
    frequency:    5.2380237361
  - # 6
    frequency:    6.1343829524
  - # 7
    frequency:    6.1343829524
  - # 8
    frequency:    7.1306236358
  - # 9
    frequency:    7.5907881688
  - # 10
    frequency:    8.1211328292
  - # 11
    frequency:    8.2311592867
  - # 12
    frequency:    8.2311592867

- q-position: [    0.0000000,    0.4100000,    0.4100000 ]
  distance:    0.1436174
  band:
  - # 1
    frequency:    4.0832303856
  - # 2
    frequency:    4.8113316928
  - # 3
    frequency:    4.8113316928
  - # 4
    frequency:    4.9157054093
  - # 5
    frequency:    5.3495537046
  - # 6
    frequency:    6.1559000346
  - # 7
    frequency:    6.1559000346
  - # 8
    frequency:    7.0452281354
  - # 9
    frequency:    7.6856356963
  - # 10
    frequency:    8.1584548381
  - # 11
    frequency:    8.2249956404
  - # 12
    frequency:    8.2249956404

- q-position: [    0.0000000,    0.4200000,    0.4200000 ]
  distance:    0.1471203
  band:
  - # 1
    frequency:    4.1585089799
  - # 2
    frequency:    4.7757457956
  - # 3
    frequency:    4.7757457956
  - # 4
    frequency:    4.8934002804
  - # 5
    frequency:    5.4587906780
  - # 6
    frequency:    6.1757763038
  - # 7
    frequency:    6.1757763038
  - # 8
    frequency:    6.9598042896
  - # 9
    frequency:    7.7733216632
  - # 10
    frequency:    8.1900365718
  - # 11
    frequency:    8.2203502257
  - # 12
    frequency:    8.2203502257

- q-position: [    0.0000000,    0.4300000,    0.4300000 ]
  distance:    0.1506232
  band:
  - # 1
    frequency:    4.2302024594
  - # 2
    frequency:    4.7432900031
  - # 3
    frequency:    4.7432900031
  - # 4
    frequency:    4.8692589618
  - # 5
    frequency:    5.5657524263
  - # 6
    frequency:    6.1938124964
  - # 7
    frequency:    6.1938124964
  - # 8
    frequency:    6.8742036385
  - # 9
    frequency:    7.8537604746
  - # 10
    frequency:    8.2156328777
  - # 11
    frequency:    8.2169481818
  - # 12
    frequency:    8.2169481818

- q-position: [    0.0000000,    0.4400000,    0.4400000 ]
  distance:    0.1541260
  band:
  - # 1
    frequency:    4.2982585382
  - # 2
    frequency:    4.7143450865
  - # 3
    frequency:    4.7143450865
  - # 4
    frequency:    4.8430398275
  - # 5
    frequency:    5.6704753786
  - # 6
    frequency:    6.2098276238
  - # 7
    frequency:    6.2098276238
  - # 8
    frequency:    6.7882673021
  - # 9
    frequency:    7.9268839247
  - # 10
    frequency:    8.2145376472
  - # 11
    frequency:    8.2145376472
  - # 12
    frequency:    8.2350165188

- q-position: [    0.0000000,    0.4500000,    0.4500000 ]
  distance:    0.1576289
  band:
  - # 1
    frequency:    4.3626471620
  - # 2
    frequency:    4.6892513629
  - # 3
    frequency:    4.6892513629
  - # 4
    frequency:    4.8145114715
  - # 5
    frequency:    5.7730143770
  - # 6
    frequency:    6.2236609095
  - # 7
    frequency:    6.2236609095
  - # 8
    frequency:    6.7018287019
  - # 9
    frequency:    7.9926418801
  - # 10
    frequency:    8.2128937311
  - # 11
    frequency:    8.2128937311
  - # 12
    frequency:    8.2479788235

- q-position: [    0.0000000,    0.4600000,    0.4600000 ]
  distance:    0.1611317
  band:
  - # 1
    frequency:    4.4233609714
  - # 2
    frequency:    4.6683042224
  - # 3
    frequency:    4.6683042224
  - # 4
    frequency:    4.7834550916
  - # 5
    frequency:    5.8734421943
  - # 6
    frequency:    6.2351734703
  - # 7
    frequency:    6.2351734703
  - # 8
    frequency:    6.6147163170
  - # 9
    frequency:    8.0510028879
  - # 10
    frequency:    8.2118216507
  - # 11
    frequency:    8.2118216507
  - # 12
    frequency:    8.2543302473

- q-position: [    0.0000000,    0.4700000,    0.4700000 ]
  distance:    0.1646346
  band:
  - # 1
    frequency:    4.4804156040
  - # 2
    frequency:    4.6517503926
  - # 3
    frequency:    4.6517503926
  - # 4
    frequency:    4.7496666286
  - # 5
    frequency:    5.9718488128
  - # 6
    frequency:    6.2442497381
  - # 7
    frequency:    6.2442497381
  - # 8
    frequency:    6.5267564299
  - # 9
    frequency:    8.1019547031
  - # 10
    frequency:    8.2111591542
  - # 11
    frequency:    8.2111591542
  - # 12
    frequency:    8.2539008420

- q-position: [    0.0000000,    0.4800000,    0.4800000 ]
  distance:    0.1681375
  band:
  - # 1
    frequency:    4.5338498233
  - # 2
    frequency:    4.6397849058
  - # 3
    frequency:    4.6397849058
  - # 4
    frequency:    4.7129586549
  - # 5
    frequency:    6.0683404580
  - # 6
    frequency:    6.2507986235
  - # 7
    frequency:    6.2507986235
  - # 8
    frequency:    6.4377758170
  - # 9
    frequency:    8.1455047338
  - # 10
    frequency:    8.2107783424
  - # 11
    frequency:    8.2107783424
  - # 12
    frequency:    8.2465406342

- q-position: [    0.0000000,    0.4900000,    0.4900000 ]
  distance:    0.1716403
  band:
  - # 1
    frequency:    4.5837254647
  - # 2
    frequency:    4.6325487490
  - # 3
    frequency:    4.6325487490
  - # 4
    frequency:    4.6731620100
  - # 5
    frequency:    6.1630383876
  - # 6
    frequency:    6.2547544182
  - # 7
    frequency:    6.2547544182
  - # 8
    frequency:    6.3476043455
  - # 9
    frequency:    8.1816803999
  - # 10
    frequency:    8.2105869846
  - # 11
    frequency:    8.2105869846
  - # 12
    frequency:    8.2321199094

- q-position: [    0.0000000,    0.5000000,    0.5000000 ]
  distance:    0.1751432
  label: 'X'
  band:
  - # 1
    frequency:    4.6301271856
  - # 2
    frequency:    4.6301271856
  - # 3
    frequency:    4.6301271856
  - # 4
    frequency:    4.6301271856
  - # 5
    frequency:    6.2560774399
  - # 6
    frequency:    6.2560774399
  - # 7
    frequency:    6.2560774399
  - # 8
    frequency:    6.2560774399
  - # 9
    frequency:    8.2105294034
  - # 10
    frequency:    8.2105294034
  - # 11
    frequency:    8.2105294034
  - # 12
    frequency:    8.2105294034

- q-position: [    0.0000000,    0.5000000,    0.5000000 ]
  distance:    0.1751432
  label: 'X'
  band:
  - # 1