32   
1    

1    
  0.0100000000000000   0.0000000000000000   0.0000000000000000
  -0.0447034200    0.0000000000    0.0000000000
   0.0035154500   -0.0000000000   -0.0000000000
   0.0001281900    0.0000000000    0.0000000000
  -0.0005575300   -0.0000000000    0.0000000000
   0.0001281900    0.0000000000    0.0000000000
  -0.0005575300    0.0000000000    0.0000000000
  -0.0010264300    0.0000000000    0.0000000000
  -0.0018528100    0.0000000000   -0.0000000000
  -0.0018086800   -0.0000052400    0.0000052400
  -0.0003744800    0.0000438700   -0.0000438700
  -0.0018086800    0.0000052400    0.0000052400
  -0.0003744800   -0.0000438700   -0.0000438700
  -0.0018086800   -0.0000052400   -0.0000052400
  -0.0003744800    0.0000438700    0.0000438700
  -0.0018086800    0.0000052400   -0.0000052400
  -0.0003744800   -0.0000438700    0.0000438700
   0.0057772400   -0.0000000000   -0.0067167900
   0.0060006800   -0.0000000000    0.0069539400
   0.0008485000   -0.0000000000    0.0005008900
   0.0007882100   -0.0000000000   -0.0004809300
   0.0057772400    0.0000000000    0.0067167900
   0.0060006800    0.0000000000   -0.0069539400
   0.0008485000   -0.0000000000   -0.0005008900
   0.0007882100   -0.0000000000    0.0004809300
   0.0057772400    0.0067167900    0.0000000000
   0.0060006800   -0.0069539400    0.0000000000
   0.0057772400   -0.0067167900   -0.0000000000
   0.0060006800    0.0069539400   -0.0000000000
   0.0008485000   -0.0005008900    0.0000000000
   0.0007882100    0.0004809300    0.0000000000
   0.0008485000    0.0005008900    0.0000000000
   0.0007882100   -0.0004809300    0.0000000000
