<?xml version="1.0" encoding="ISO-8859-1"?>
<modeling>
 <generator>
  <i name="program" type="string">vasp</i>
  <i name="version" type="string">4.6.28 </i>
  <i name="subversion" type="string">25Jul05 complex  parallel</i>
  <i name="platform" type="string">LinuxIFC</i>
  <i name="date" type="string">2016 10 21</i>
  <i name="time" type="string">16:38:57</i>
 </generator>
 <incar>
  <i type="string" name="PREC">accurate</i>
  <i type="int" name="IALGO">    38</i>
  <i name="EDIFF">      0.00000001</i>
  <i type="int" name="IBRION">    -1</i>
  <i name="ENCUT">    500.00000000</i>
  <i type="logical" name="LREAL"> F  </i>
  <i type="int" name="ISMEAR">     0</i>
  <i name="SIGMA">      0.01000000</i>
  <i type="logical" name="LWAVE"> F  </i>
  <i type="logical" name="LCHARG"> F  </i>
 </incar>
 <kpoints>
  <generation param="Gamma">
   <v type="int" name="divisions">      12      12      12</v>
   <v name="usershift">      0.00000000      0.00000000      0.00000000</v>
   <v name="genvec1">      0.08333333      0.00000000      0.00000000</v>
   <v name="genvec2">      0.00000000      0.08333333      0.00000000</v>
   <v name="genvec3">      0.00000000      0.00000000      0.08333333</v>
   <v name="shift">      0.00000000      0.00000000      0.00000000</v>
  </generation>
  <varray name="kpointlist" >
   <v>       0.00000000      0.00000000      0.00000000</v>
   <v>       0.08333333      0.00000000      0.00000000</v>
   <v>       0.16666667      0.00000000      0.00000000</v>
   <v>       0.25000000      0.00000000      0.00000000</v>
   <v>       0.33333333      0.00000000      0.00000000</v>
   <v>       0.41666667      0.00000000      0.00000000</v>
   <v>       0.50000000      0.00000000      0.00000000</v>
   <v>       0.00000000      0.08333333      0.00000000</v>
   <v>       0.08333333      0.08333333      0.00000000</v>
   <v>       0.16666667      0.08333333      0.00000000</v>
   <v>       0.25000000      0.08333333      0.00000000</v>
   <v>       0.33333333      0.08333333      0.00000000</v>
   <v>       0.41666667      0.08333333      0.00000000</v>
   <v>       0.50000000      0.08333333      0.00000000</v>
   <v>       0.00000000      0.16666667      0.00000000</v>
   <v>       0.08333333      0.16666667      0.00000000</v>
   <v>       0.16666667      0.16666667      0.00000000</v>
   <v>       0.25000000      0.16666667      0.00000000</v>
   <v>       0.33333333      0.16666667      0.00000000</v>
   <v>       0.41666667      0.16666667      0.00000000</v>
   <v>       0.50000000      0.16666667      0.00000000</v>
   <v>       0.00000000      0.25000000      0.00000000</v>
   <v>       0.08333333      0.25000000      0.00000000</v>
   <v>       0.16666667      0.25000000      0.00000000</v>
   <v>       0.25000000      0.25000000      0.00000000</v>
   <v>       0.33333333      0.25000000      0.00000000</v>
   <v>       0.41666667      0.25000000      0.00000000</v>
   <v>       0.50000000      0.25000000      0.00000000</v>
   <v>       0.00000000      0.33333333      0.00000000</v>
   <v>       0.08333333      0.33333333      0.00000000</v>
   <v>       0.16666667      0.33333333      0.00000000</v>
   <v>       0.25000000      0.33333333      0.00000000</v>
   <v>       0.33333333      0.33333333      0.00000000</v>
   <v>       0.41666667      0.33333333      0.00000000</v>
   <v>       0.50000000      0.33333333      0.00000000</v>
   <v>       0.00000000      0.41666667      0.00000000</v>
   <v>       0.08333333      0.41666667      0.00000000</v>
   <v>       0.16666667      0.41666667      0.00000000</v>
   <v>       0.25000000      0.41666667      0.00000000</v>
   <v>       0.33333333      0.41666667      0.00000000</v>
   <v>       0.41666667      0.41666667      0.00000000</v>
   <v>       0.50000000      0.41666667      0.00000000</v>
   <v>       0.00000000      0.50000000      0.00000000</v>
   <v>       0.08333333      0.50000000      0.00000000</v>
   <v>       0.16666667      0.50000000      0.00000000</v>
   <v>       0.25000000      0.50000000      0.00000000</v>
   <v>       0.33333333      0.50000000      0.00000000</v>
   <v>       0.41666667      0.50000000      0.00000000</v>
   <v>       0.50000000      0.50000000      0.00000000</v>
   <v>       0.00000000      0.08333333      0.08333333</v>
   <v>       0.08333333      0.08333333      0.08333333</v>
   <v>       0.16666667      0.08333333      0.08333333</v>
   <v>       0.25000000      0.08333333      0.08333333</v>
   <v>       0.33333333      0.08333333      0.08333333</v>
   <v>       0.41666667      0.08333333      0.08333333</v>
   <v>       0.50000000      0.08333333      0.08333333</v>
   <v>       0.00000000      0.16666667      0.08333333</v>
   <v>       0.08333333      0.16666667      0.08333333</v>
   <v>       0.16666667      0.16666667      0.08333333</v>
   <v>       0.25000000      0.16666667      0.08333333</v>
   <v>       0.33333333      0.16666667      0.08333333</v>
   <v>       0.41666667      0.16666667      0.08333333</v>
   <v>       0.50000000      0.16666667      0.08333333</v>
   <v>       0.00000000      0.25000000      0.08333333</v>
   <v>       0.08333333      0.25000000      0.08333333</v>
   <v>       0.16666667      0.25000000      0.08333333</v>
   <v>       0.25000000      0.25000000      0.08333333</v>
   <v>       0.33333333      0.25000000      0.08333333</v>
   <v>       0.41666667      0.25000000      0.08333333</v>
   <v>       0.50000000      0.25000000      0.08333333</v>
   <v>       0.00000000      0.33333333      0.08333333</v>
   <v>       0.08333333      0.33333333      0.08333333</v>
   <v>       0.16666667      0.33333333      0.08333333</v>
   <v>       0.25000000      0.33333333      0.08333333</v>
   <v>       0.33333333      0.33333333      0.08333333</v>
   <v>       0.41666667      0.33333333      0.08333333</v>
   <v>       0.50000000      0.33333333      0.08333333</v>
   <v>       0.00000000      0.41666667      0.08333333</v>
   <v>       0.08333333      0.41666667      0.08333333</v>
   <v>       0.16666667      0.41666667      0.08333333</v>
   <v>       0.25000000      0.41666667      0.08333333</v>
   <v>       0.33333333      0.41666667      0.08333333</v>
   <v>       0.41666667      0.41666667      0.08333333</v>
   <v>       0.50000000      0.41666667      0.08333333</v>
   <v>       0.00000000      0.50000000      0.08333333</v>
   <v>       0.08333333      0.50000000      0.08333333</v>
   <v>       0.16666667      0.50000000      0.08333333</v>
   <v>       0.25000000      0.50000000      0.08333333</v>
   <v>       0.33333333      0.50000000      0.08333333</v>
   <v>       0.41666667      0.50000000      0.08333333</v>
   <v>       0.50000000      0.50000000      0.08333333</v>
   <v>       0.00000000      0.16666667      0.16666667</v>
   <v>       0.08333333      0.16666667      0.16666667</v>
   <v>       0.16666667      0.16666667      0.16666667</v>
   <v>       0.25000000      0.16666667      0.16666667</v>
   <v>       0.33333333      0.16666667      0.16666667</v>
   <v>       0.41666667      0.16666667      0.16666667</v>
   <v>       0.50000000      0.16666667      0.16666667</v>
   <v>       0.00000000      0.25000000      0.16666667</v>
   <v>       0.08333333      0.25000000      0.16666667</v>
   <v>       0.16666667      0.25000000      0.16666667</v>
   <v>       0.25000000      0.25000000      0.16666667</v>
   <v>       0.33333333      0.25000000      0.16666667</v>
   <v>       0.41666667      0.25000000      0.16666667</v>
   <v>       0.50000000      0.25000000      0.16666667</v>
   <v>       0.00000000      0.33333333      0.16666667</v>
   <v>       0.08333333      0.33333333      0.16666667</v>
   <v>       0.16666667      0.33333333      0.16666667</v>
   <v>       0.25000000      0.33333333      0.16666667</v>
   <v>       0.33333333      0.33333333      0.16666667</v>
   <v>       0.41666667      0.33333333      0.16666667</v>
   <v>       0.50000000      0.33333333      0.16666667</v>
   <v>       0.00000000      0.41666667      0.16666667</v>
   <v>       0.08333333      0.41666667      0.16666667</v>
   <v>       0.16666667      0.41666667      0.16666667</v>
   <v>       0.25000000      0.41666667      0.16666667</v>
   <v>       0.33333333      0.41666667      0.16666667</v>
   <v>       0.41666667      0.41666667      0.16666667</v>
   <v>       0.50000000      0.41666667      0.16666667</v>
   <v>       0.00000000      0.50000000      0.16666667</v>
   <v>       0.08333333      0.50000000      0.16666667</v>
   <v>       0.16666667      0.50000000      0.16666667</v>
   <v>       0.25000000      0.50000000      0.16666667</v>
   <v>       0.33333333      0.50000000      0.16666667</v>
   <v>       0.41666667      0.50000000      0.16666667</v>
   <v>       0.50000000      0.50000000      0.16666667</v>
   <v>       0.00000000      0.25000000      0.25000000</v>
   <v>       0.08333333      0.25000000      0.25000000</v>
   <v>       0.16666667      0.25000000      0.25000000</v>
   <v>       0.25000000      0.25000000      0.25000000</v>
   <v>       0.33333333      0.25000000      0.25000000</v>
   <v>       0.41666667      0.25000000      0.25000000</v>
   <v>       0.50000000      0.25000000      0.25000000</v>
   <v>       0.00000000      0.33333333      0.25000000</v>
   <v>       0.08333333      0.33333333      0.25000000</v>
   <v>       0.16666667      0.33333333      0.25000000</v>
   <v>       0.25000000      0.33333333      0.25000000</v>
   <v>       0.33333333      0.33333333      0.25000000</v>
   <v>       0.41666667      0.33333333      0.25000000</v>
   <v>       0.50000000      0.33333333      0.25000000</v>
   <v>       0.00000000      0.41666667      0.25000000</v>
   <v>       0.08333333      0.41666667      0.25000000</v>
   <v>       0.16666667      0.41666667      0.25000000</v>
   <v>       0.25000000      0.41666667      0.25000000</v>
   <v>       0.33333333      0.41666667      0.25000000</v>
   <v>       0.41666667      0.41666667      0.25000000</v>
   <v>       0.50000000      0.41666667      0.25000000</v>
   <v>       0.00000000      0.50000000      0.25000000</v>
   <v>       0.08333333      0.50000000      0.25000000</v>
   <v>       0.16666667      0.50000000      0.25000000</v>
   <v>       0.25000000      0.50000000      0.25000000</v>
   <v>       0.33333333      0.50000000      0.25000000</v>
   <v>       0.41666667      0.50000000      0.25000000</v>
   <v>       0.50000000      0.50000000      0.25000000</v>
   <v>       0.00000000      0.33333333      0.33333333</v>
   <v>       0.08333333      0.33333333      0.33333333</v>
   <v>       0.16666667      0.33333333      0.33333333</v>
   <v>       0.25000000      0.33333333      0.33333333</v>
   <v>       0.33333333      0.33333333      0.33333333</v>
   <v>       0.41666667      0.33333333      0.33333333</v>
   <v>       0.50000000      0.33333333      0.33333333</v>
   <v>       0.00000000      0.41666667      0.33333333</v>
   <v>       0.08333333      0.41666667      0.33333333</v>
   <v>       0.16666667      0.41666667      0.33333333</v>
   <v>       0.25000000      0.41666667      0.33333333</v>
   <v>       0.33333333      0.41666667      0.33333333</v>
   <v>       0.41666667      0.41666667      0.33333333</v>
   <v>       0.50000000      0.41666667      0.33333333</v>
   <v>       0.00000000      0.50000000      0.33333333</v>
   <v>       0.08333333      0.50000000      0.33333333</v>
   <v>       0.16666667      0.50000000      0.33333333</v>
   <v>       0.25000000      0.50000000      0.33333333</v>
   <v>       0.33333333      0.50000000      0.33333333</v>
   <v>       0.41666667      0.50000000      0.33333333</v>
   <v>       0.50000000      0.50000000      0.33333333</v>
   <v>       0.00000000      0.41666667      0.41666667</v>
   <v>       0.08333333      0.41666667      0.41666667</v>
   <v>       0.16666667      0.41666667      0.41666667</v>
   <v>       0.25000000      0.41666667      0.41666667</v>
   <v>       0.33333333      0.41666667      0.41666667</v>
   <v>       0.41666667      0.41666667      0.41666667</v>
   <v>       0.50000000      0.41666667      0.41666667</v>
   <v>       0.00000000      0.50000000      0.41666667</v>
   <v>       0.08333333      0.50000000      0.41666667</v>
   <v>       0.16666667      0.50000000      0.41666667</v>
   <v>       0.25000000      0.50000000      0.41666667</v>
   <v>       0.33333333      0.50000000      0.41666667</v>
   <v>       0.41666667      0.50000000      0.41666667</v>
   <v>       0.50000000      0.50000000      0.41666667</v>
   <v>       0.00000000      0.50000000      0.50000000</v>
   <v>       0.08333333      0.50000000      0.50000000</v>
   <v>       0.16666667      0.50000000      0.50000000</v>
   <v>       0.25000000      0.50000000      0.50000000</v>
   <v>       0.33333333      0.50000000      0.50000000</v>
   <v>       0.41666667      0.50000000      0.50000000</v>
   <v>       0.50000000      0.50000000      0.50000000</v>
  </varray>
  <varray name="weights" >
   <v>       0.00057870</v>
   <v>       0.00115741</v>
   <v>       0.00115741</v>
   <v>       0.00115741</v>
   <v>       0.00115741</v>
   <v>       0.00115741</v>
   <v>       0.00057870</v>
   <v>       0.00231481</v>
   <v>       0.00462963</v>
   <v>       0.00462963</v>
   <v>       0.00462963</v>
   <v>       0.00462963</v>
   <v>       0.00462963</v>
   <v>       0.00231481</v>
   <v>       0.00231481</v>
   <v>       0.00462963</v>
   <v>       0.00462963</v>
   <v>       0.00462963</v>
   <v>       0.00462963</v>
   <v>       0.00462963</v>
   <v>       0.00231481</v>
   <v>       0.00231481</v>
   <v>       0.00462963</v>
   <v>       0.00462963</v>
   <v>       0.00462963</v>
   <v>       0.00462963</v>
   <v>       0.00462963</v>
   <v>       0.00231481</v>
   <v>       0.00231481</v>
   <v>       0.00462963</v>
   <v>       0.00462963</v>
   <v>       0.00462963</v>
   <v>       0.00462963</v>
   <v>       0.00462963</v>
   <v>       0.00231481</v>
   <v>       0.00231481</v>
   <v>       0.00462963</v>
   <v>       0.00462963</v>
   <v>       0.00462963</v>
   <v>       0.00462963</v>
   <v>       0.00462963</v>
   <v>       0.00231481</v>
   <v>       0.00115741</v>
   <v>       0.00231481</v>
   <v>       0.00231481</v>
   <v>       0.00231481</v>
   <v>       0.00231481</v>
   <v>       0.00231481</v>
   <v>       0.00115741</v>
   <v>       0.00231481</v>
   <v>       0.00462963</v>
   <v>       0.00462963</v>
   <v>       0.00462963</v>
   <v>       0.00462963</v>
   <v>       0.00462963</v>
   <v>       0.00231481</v>
   <v>       0.00462963</v>
   <v>       0.00925926</v>
   <v>       0.00925926</v>
   <v>       0.00925926</v>
   <v>       0.00925926</v>
   <v>       0.00925926</v>
   <v>       0.00462963</v>
   <v>       0.00462963</v>
   <v>       0.00925926</v>
   <v>       0.00925926</v>
   <v>       0.00925926</v>
   <v>       0.00925926</v>
   <v>       0.00925926</v>
   <v>       0.00462963</v>
   <v>       0.00462963</v>
   <v>       0.00925926</v>
   <v>       0.00925926</v>
   <v>       0.00925926</v>
   <v>       0.00925926</v>
   <v>       0.00925926</v>
   <v>       0.00462963</v>
   <v>       0.00462963</v>
   <v>       0.00925926</v>
   <v>       0.00925926</v>
   <v>       0.00925926</v>
   <v>       0.00925926</v>
   <v>       0.00925926</v>
   <v>       0.00462963</v>
   <v>       0.00231481</v>
   <v>       0.00462963</v>
   <v>       0.00462963</v>
   <v>       0.00462963</v>
   <v>       0.00462963</v>
   <v>       0.00462963</v>
   <v>       0.00231481</v>
   <v>       0.00231481</v>
   <v>       0.00462963</v>
   <v>       0.00462963</v>
   <v>       0.00462963</v>
   <v>       0.00462963</v>
   <v>       0.00462963</v>
   <v>       0.00231481</v>
   <v>       0.00462963</v>
   <v>       0.00925926</v>
   <v>       0.00925926</v>
   <v>       0.00925926</v>
   <v>       0.00925926</v>
   <v>       0.00925926</v>
   <v>       0.00462963</v>
   <v>       0.00462963</v>
   <v>       0.00925926</v>
   <v>       0.00925926</v>
   <v>       0.00925926</v>
   <v>       0.00925926</v>
   <v>       0.00925926</v>
   <v>       0.00462963</v>
   <v>       0.00462963</v>
   <v>       0.00925926</v>
   <v>       0.00925926</v>
   <v>       0.00925926</v>
   <v>       0.00925926</v>
   <v>       0.00925926</v>
   <v>       0.00462963</v>
   <v>       0.00231481</v>
   <v>       0.00462963</v>
   <v>       0.00462963</v>
   <v>       0.00462963</v>
   <v>       0.00462963</v>
   <v>       0.00462963</v>
   <v>       0.00231481</v>
   <v>       0.00231481</v>
   <v>       0.00462963</v>
   <v>       0.00462963</v>
   <v>       0.00462963</v>
   <v>       0.00462963</v>
   <v>       0.00462963</v>
   <v>       0.00231481</v>
   <v>       0.00462963</v>
   <v>       0.00925926</v>
   <v>       0.00925926</v>
   <v>       0.00925926</v>
   <v>       0.00925926</v>
   <v>       0.00925926</v>
   <v>       0.00462963</v>
   <v>       0.00462963</v>
   <v>       0.00925926</v>
   <v>       0.00925926</v>
   <v>       0.00925926</v>
   <v>       0.00925926</v>
   <v>       0.00925926</v>
   <v>       0.00462963</v>
   <v>       0.00231481</v>
   <v>       0.00462963</v>
   <v>       0.00462963</v>
   <v>       0.00462963</v>
   <v>       0.00462963</v>
   <v>       0.00462963</v>
   <v>       0.00231481</v>
   <v>       0.00231481</v>
   <v>       0.00462963</v>
   <v>       0.00462963</v>
   <v>       0.00462963</v>
   <v>       0.00462963</v>
   <v>       0.00462963</v>
   <v>       0.00231481</v>
   <v>       0.00462963</v>
   <v>       0.00925926</v>
   <v>       0.00925926</v>
   <v>       0.00925926</v>
   <v>       0.00925926</v>
   <v>       0.00925926</v>
   <v>       0.00462963</v>
   <v>       0.00231481</v>
   <v>       0.00462963</v>
   <v>       0.00462963</v>
   <v>       0.00462963</v>
   <v>       0.00462963</v>
   <v>       0.00462963</v>
   <v>       0.00231481</v>
   <v>       0.00231481</v>
   <v>       0.00462963</v>
   <v>       0.00462963</v>
   <v>       0.00462963</v>
   <v>       0.00462963</v>
   <v>       0.00462963</v>
   <v>       0.00231481</v>
   <v>       0.00231481</v>
   <v>       0.00462963</v>
   <v>       0.00462963</v>
   <v>       0.00462963</v>
   <v>       0.00462963</v>
   <v>       0.00462963</v>
   <v>       0.00231481</v>
   <v>       0.00057870</v>
   <v>       0.00115741</v>
   <v>       0.00115741</v>
   <v>       0.00115741</v>
   <v>       0.00115741</v>
   <v>       0.00115741</v>
   <v>       0.00057870</v>
  </varray>
 </kpoints>
 <parameters>
  <separator name="general" >
   <i type="string" name="SYSTEM">unknown system</i>
   <i type="logical" name="LCOMPAT"> F  </i>
  </separator>
  <separator name="electronic" >
   <i type="string" name="PREC">accura</i>
   <i name="ENMAX">    500.00000000</i>
   <i name="ENAUG">    291.05200000</i>
   <i name="EDIFF">      0.00000001</i>
   <i type="int" name="IALGO">    38</i>
   <i type="int" name="IWAVPR">    10</i>
   <i type="int" name="NBANDS">    65</i>
   <i name="NELECT">     96.00000000</i>
   <separator name="electronic smearing" >
    <i type="int" name="ISMEAR">     0</i>
    <i name="SIGMA">      0.01000000</i>
   </separator>
   <separator name="electronic projectors" >
    <i type="logical" name="LREAL"> F  </i>
    <v name="ROPT">      0.00000000</v>
    <i type="int" name="LMAXPAW">  -100</i>
    <i type="int" name="LMAXMIX">     2</i>
   </separator>
   <separator name="electronic startup" >
    <i type="int" name="ISTART">     0</i>
    <i type="int" name="ICHARG">     2</i>
    <i type="int" name="INIWAV">     1</i>
   </separator>
   <separator name="electronic spin" >
    <i type="int" name="ISPIN">     1</i>
    <i type="logical" name="LNONCOLLINEAR"> F  </i>
    <v name="MAGMOM">      1.00000000      1.00000000      1.00000000      1.00000000      1.00000000      1.00000000      1.00000000      1.00000000      1.00000000      1.00000000      1.00000000      1.00000000      1.00000000      1.00000000      1.00000000      1.00000000      1.00000000      1.00000000      1.00000000      1.00000000
      1.00000000      1.00000000      1.00000000      1.00000000      1.00000000      1.00000000      1.00000000      1.00000000      1.00000000      1.00000000      1.00000000      1.00000000</v>
    <i name="NUPDOWN">     -1.00000000</i>
    <i type="logical" name="LSORBIT"> F  </i>
    <v name="SAXIS">      0.00000000      0.00000000      1.00000000</v>
    <i type="logical" name="LSPIRAL"> F  </i>
    <v name="QSPIRAL">      0.00000000      0.00000000      0.00000000</v>
    <i type="logical" name="LZEROZ"> F  </i>
   </separator>
   <separator name="electronic exchange-correlation" >
    <i type="string" name="GGA">--</i>
    <i type="int" name="VOSKOWN">     0</i>
    <i type="logical" name="LASPH"> F  </i>
    <i type="logical" name="LMETAGGA"> F  </i>
    <i type="string" name="GGA2">--</i>
   </separator>
   <separator name="electronic convergence" >
    <i type="int" name="NELM">    60</i>
    <i type="int" name="NELMDL">     0</i>
    <i type="int" name="NELMIN">     2</i>
    <i name="ENINI">    500.00000000</i>
    <separator name="electronic convergence detail" >
     <i type="logical" name="LDIAG"> T  </i>
     <i name="WEIMIN">      0.00000000</i>
     <i name="EBREAK">      0.00000000</i>
     <i name="DEPER">      0.30000000</i>
     <i type="int" name="NRMM">     4</i>
     <i name="TIME">      0.10000000</i>
    </separator>
   </separator>
   <separator name="electronic mixer" >
    <i name="AMIX">      0.40000000</i>
    <i name="BMIX">      1.00000000</i>
    <i name="AMIN">      0.10000000</i>
    <i name="AMIX_MAG">      1.60000000</i>
    <i name="BMIX_MAG">      1.00000000</i>
    <separator name="electronic mixer details" >
     <i type="int" name="IMIX">     4</i>
     <i type="int" name="MAXMIX">   -45</i>
     <i name="WC">    100.00000000</i>
     <i type="int" name="INIMIX">     1</i>
     <i type="int" name="MIXPRE">     1</i>
     <i type="int" name="MREMOVE">     5</i>
    </separator>
   </separator>
   <separator name="electronic dipolcorrection" >
    <i type="int" name="IDIPOL">     0</i>
    <i type="logical" name="LDIPOL"> F  </i>
    <v name="DIPOL">   -100.00000000</v>
    <i name="EFIELD">      0.00000000</i>
   </separator>
  </separator>
  <separator name="grids" >
   <i type="int" name="NGX">    60</i>
   <i type="int" name="NGY">    60</i>
   <i type="int" name="NGZ">    60</i>
   <i type="int" name="NGXF">   120</i>
   <i type="int" name="NGYF">   120</i>
   <i type="int" name="NGZF">   120</i>
   <i type="logical" name="ADDGRID"> F  </i>
  </separator>
  <separator name="ionic" >
   <i type="int" name="NSW">     0</i>
   <i type="int" name="IBRION">    -1</i>
   <i type="int" name="ISIF">     2</i>
   <i name="PSTRESS">      0.00000000</i>
   <i name="EDIFFG">      0.00000010</i>
   <i type="int" name="NFREE">     0</i>
   <i name="POTIM">      0.50000000</i>
   <i name="SMASS">     -3.00000000</i>
  </separator>
  <separator name="ionic md" >
   <i name="TEBEG">      0.00010000</i>
   <i name="TEEND">      0.00010000</i>
   <i type="int" name="NBLOCK">     1</i>
   <i type="int" name="KBLOCK">     1</i>
   <i type="int" name="NPACO">   256</i>
   <i name="APACO">     16.00000000</i>
  </separator>
  <separator name="symmetry" >
   <i type="int" name="ISYM">     2</i>
   <i name="SYMPREC">      0.00001000</i>
  </separator>
  <separator name="dos" >
   <i type="logical" name="LORBIT"> F  </i>
   <v name="RWIGS">     -1.00000000</v>
   <i type="int" name="NEDOS">   301</i>
   <i name="EMIN">     10.00000000</i>
   <i name="EMAX">    -10.00000000</i>
  </separator>
  <separator name="writing" >
   <i type="int" name="NWRITE">     2</i>
   <i type="logical" name="LWAVE"> F  </i>
   <i type="logical" name="LCHARG"> F  </i>
   <i type="logical" name="LPARD"> F  </i>
   <i type="logical" name="LVTOT"> F  </i>
   <i type="logical" name="LELF"> F  </i>
   <i type="logical" name="LOPTICS"> F  </i>
   <i name="STM">      0.00000000</i>
  </separator>
  <separator name="performance" >
   <i type="int" name="NPAR">     8</i>
   <i type="int" name="NSIM">     4</i>
   <i type="int" name="NBLK">   256</i>
   <i type="logical" name="LPLANE"> T  </i>
   <i type="logical" name="LCRITICAL_MEM"> F  </i>
   <i type="logical" name="LSCALAPACK"> F  </i>
   <i type="logical" name="LSCALU"> F  </i>
   <i type="logical" name="LASYNC"> F  </i>
  </separator>
  <separator name="miscellaneous" >
   <i type="int" name="IDIOT">     3</i>
   <i type="logical" name="LMUSIC"> F  </i>
   <v name="POMASS">     26.98200000</v>
   <i type="logical" name="LCORR"> T  </i>
  </separator>
  <i type="logical" name="LREAL_COMPAT"> F  </i>
  <i type="logical" name="GGA_COMPAT"> T  </i>
  <i type="logical" name="LBERRY"> F  </i>
  <i type="int" name="ICORELEVEL">     0</i>
  <i type="logical" name="LDAU"> F  </i>
  <i type="int" name="I_CONSTRAINED_M">     0</i>
 </parameters>
 <atominfo>
  <atoms>      32</atoms>
  <types>       1</types>
  <array name="atoms" >
   <dimension dim="1">ion</dimension>
   <field type="string">element</field>
   <field type="int">atomtype</field>
   <set>
    <rc><c>Al</c><c>   1</c></rc>
    <rc><c>Al</c><c>   1</c></rc>
    <rc><c>Al</c><c>   1</c></rc>
    <rc><c>Al</c><c>   1</c></rc>
    <rc><c>Al</c><c>   1</c></rc>
    <rc><c>Al</c><c>   1</c></rc>
    <rc><c>Al</c><c>   1</c></rc>
    <rc><c>Al</c><c>   1</c></rc>
    <rc><c>Al</c><c>   1</c></rc>
    <rc><c>Al</c><c>   1</c></rc>
    <rc><c>Al</c><c>   1</c></rc>
    <rc><c>Al</c><c>   1</c></rc>
    <rc><c>Al</c><c>   1</c></rc>
    <rc><c>Al</c><c>   1</c></rc>
    <rc><c>Al</c><c>   1</c></rc>
    <rc><c>Al</c><c>   1</c></rc>
    <rc><c>Al</c><c>   1</c></rc>
    <rc><c>Al</c><c>   1</c></rc>
    <rc><c>Al</c><c>   1</c></rc>
    <rc><c>Al</c><c>   1</c></rc>
    <rc><c>Al</c><c>   1</c></rc>
    <rc><c>Al</c><c>   1</c></rc>
    <rc><c>Al</c><c>   1</c></rc>
    <rc><c>Al</c><c>   1</c></rc>
    <rc><c>Al</c><c>   1</c></rc>
    <rc><c>Al</c><c>   1</c></rc>
    <rc><c>Al</c><c>   1</c></rc>
    <rc><c>Al</c><c>   1</c></rc>
    <rc><c>Al</c><c>   1</c></rc>
    <rc><c>Al</c><c>   1</c></rc>
    <rc><c>Al</c><c>   1</c></rc>
    <rc><c>Al</c><c>   1</c></rc>
   </set>
  </array>
  <array name="atomtypes" >
   <dimension dim="1">type</dimension>
   <field type="int">atomspertype</field>
   <field type="string">element</field>
   <field>mass</field>
   <field>valence</field>
   <field type="string">pseudopotential</field>
   <set>
    <rc><c>  32</c><c>Al</c><c>     26.98200000</c><c>      3.00000000</c><c> PAW_PBE Al 04Jan2001                   </c></rc>
   </set>
  </array>
 </atominfo>
 <structure name="initialpos" >
  <crystal>
   <varray name="basis" >
    <v>       8.07461274      0.00000000      0.00000000</v>
    <v>       0.00000000      8.07461274      0.00000000</v>
    <v>       0.00000000      0.00000000      8.07461274</v>
   </varray>
   <i name="volume">    526.45967079</i>
   <varray name="rec_basis" >
    <v>       0.12384495      0.00000000      0.00000000</v>
    <v>       0.00000000      0.12384495      0.00000000</v>
    <v>       0.00000000      0.00000000      0.12384495</v>
   </varray>
  </crystal>
  <varray name="positions" >
   <v>       0.25123845      0.25000000      0.00000000</v>
   <v>       0.75000000      0.25000000      0.00000000</v>
   <v>       0.25000000      0.75000000      0.00000000</v>
   <v>       0.75000000      0.75000000      0.00000000</v>
   <v>       0.25000000      0.25000000      0.50000000</v>
   <v>       0.75000000      0.25000000      0.50000000</v>
   <v>       0.25000000      0.75000000      0.50000000</v>
   <v>       0.75000000      0.75000000      0.50000000</v>
   <v>       0.25000000      0.00000000      0.25000000</v>
   <v>       0.75000000      0.00000000      0.25000000</v>
   <v>       0.25000000      0.50000000      0.25000000</v>
   <v>       0.75000000      0.50000000      0.25000000</v>
   <v>       0.25000000      0.00000000      0.75000000</v>
   <v>       0.75000000      0.00000000      0.75000000</v>
   <v>       0.25000000      0.50000000      0.75000000</v>
   <v>       0.75000000      0.50000000      0.75000000</v>
   <v>       0.00000000      0.25000000      0.25000000</v>
   <v>       0.50000000      0.25000000      0.25000000</v>
   <v>       0.00000000      0.75000000      0.25000000</v>
   <v>       0.50000000      0.75000000      0.25000000</v>
   <v>       0.00000000      0.25000000      0.75000000</v>
   <v>       0.50000000      0.25000000      0.75000000</v>
   <v>       0.00000000      0.75000000      0.75000000</v>
   <v>       0.50000000      0.75000000      0.75000000</v>
   <v>       0.00000000      0.00000000      0.00000000</v>
   <v>       0.50000000      0.00000000      0.00000000</v>
   <v>       0.00000000      0.50000000      0.00000000</v>
   <v>       0.50000000      0.50000000      0.00000000</v>
   <v>       0.00000000      0.00000000      0.50000000</v>
   <v>       0.50000000      0.00000000      0.50000000</v>
   <v>       0.00000000      0.50000000      0.50000000</v>
   <v>       0.50000000      0.50000000      0.50000000</v>
  </varray>
 </structure>
 <calculation>
  <scstep>
   <time name="dav">  279.08  279.74</time>
   <time name="total">  279.38  280.03</time>
   <energy>
    <i name="alphaZ">     -6.53311864</i>
    <i name="ewald">  -2354.79383508</i>
    <i name="hartreedc">     -3.21085913</i>
    <i name="XCdc">   -839.50335709</i>
    <i name="pawpsdc">   1137.73615723</i>
    <i name="pawaedc">   -115.16745734</i>
    <i name="eentropy">     -0.00040912</i>
    <i name="bandstr">    588.25226774</i>
    <i name="atom">   1713.22913220</i>
    <i name="e_fr_energy">    120.00852078</i>
    <i name="e_wo_entrp">    120.00892990</i>
    <i name="e_0_energy">    120.00872534</i>
   </energy>
  </scstep>
  <scstep>
   <time name="dav">  327.96  328.22</time>
   <time name="total">  327.99  328.25</time>
   <energy>
    <i name="e_fr_energy">   -107.45076018</i>
    <i name="e_wo_entrp">   -107.45025596</i>
    <i name="e_0_energy">   -107.45050807</i>
   </energy>
  </scstep>
  <scstep>
   <time name="dav">  339.91  340.69</time>
   <time name="total">  339.93  340.72</time>
   <energy>
    <i name="e_fr_energy">   -120.33033316</i>
    <i name="e_wo_entrp">   -120.32974804</i>
    <i name="e_0_energy">   -120.33004060</i>
   </energy>
  </scstep>
  <scstep>
   <time name="dav">  325.91  326.65</time>
   <time name="total">  325.93  326.68</time>
   <energy>
    <i name="e_fr_energy">   -120.57061635</i>
    <i name="e_wo_entrp">   -120.57011304</i>
    <i name="e_0_energy">   -120.57036469</i>
   </energy>
  </scstep>
  <scstep>
   <time name="dav">  326.01  326.76</time>
   <time name="total">  341.54  342.33</time>
   <energy>
    <i name="e_fr_energy">   -120.57349215</i>
    <i name="e_wo_entrp">   -120.57299067</i>
    <i name="e_0_energy">   -120.57324141</i>
   </energy>
  </scstep>
  <scstep>
   <time name="dav">  320.63  321.37</time>
   <time name="total">  336.24  337.02</time>
   <energy>
    <i name="e_fr_energy">   -120.15510737</i>
    <i name="e_wo_entrp">   -120.15463023</i>
    <i name="e_0_energy">   -120.15486880</i>
   </energy>
  </scstep>
  <scstep>
   <time name="dav">  313.11  313.84</time>
   <time name="total">  329.17  329.95</time>
   <energy>
    <i name="e_fr_energy">   -119.84945644</i>
    <i name="e_wo_entrp">   -119.84890550</i>
    <i name="e_0_energy">   -119.84918097</i>
   </energy>
  </scstep>
  <scstep>
   <time name="dav">  328.89  329.64</time>
   <time name="total">  344.66  345.46</time>
   <energy>
    <i name="e_fr_energy">   -119.84958031</i>
    <i name="e_wo_entrp">   -119.84902685</i>
    <i name="e_0_energy">   -119.84930358</i>
   </energy>
  </scstep>
  <scstep>
   <time name="dav">  324.80  325.55</time>
   <time name="total">  340.67  341.45</time>
   <energy>
    <i name="e_fr_energy">   -119.84961003</i>
    <i name="e_wo_entrp">   -119.84905452</i>
    <i name="e_0_energy">   -119.84933228</i>
   </energy>
  </scstep>
  <scstep>
   <time name="dav">  328.01  328.76</time>
   <time name="total">  343.76  344.56</time>
   <energy>
    <i name="e_fr_energy">   -119.84961104</i>
    <i name="e_wo_entrp">   -119.84905539</i>
    <i name="e_0_energy">   -119.84933321</i>
   </energy>
  </scstep>
  <scstep>
   <time name="dav">  325.62  326.38</time>
   <time name="total">  344.63  345.43</time>
   <energy>
    <i name="e_fr_energy">   -119.84960827</i>
    <i name="e_wo_entrp">   -119.84905260</i>
    <i name="e_0_energy">   -119.84933043</i>
   </energy>
  </scstep>
  <scstep>
   <time name="dav">  248.75  249.34</time>
   <time name="total">  264.65  265.29</time>
   <energy>
    <i name="e_fr_energy">   -119.84960724</i>
    <i name="e_wo_entrp">   -119.84905155</i>
    <i name="e_0_energy">   -119.84932939</i>
   </energy>
  </scstep>
  <scstep>
   <time name="dav">  222.42  222.93</time>
   <time name="total">  238.76  239.31</time>
   <energy>
    <i name="e_fr_energy">   -119.84960710</i>
    <i name="e_wo_entrp">   -119.84905142</i>
    <i name="e_0_energy">   -119.84932926</i>
   </energy>
  </scstep>
  <scstep>
   <time name="dav">  221.43  221.58</time>
   <time name="total">  221.79  221.94</time>
   <energy>
    <i name="alphaZ">     -6.53311864</i>
    <i name="ewald">  -2354.79383508</i>
    <i name="hartreedc">     -3.35952284</i>
    <i name="XCdc">   -835.97812645</i>
    <i name="pawpsdc">   1141.63553572</i>
    <i name="pawaedc">   -119.48580315</i>
    <i name="eentropy">     -0.00055568</i>
    <i name="bandstr">    345.43668682</i>
    <i name="atom">   1713.22913220</i>
    <i name="e_fr_energy">   -119.84960709</i>
    <i name="e_wo_entrp">   -119.84905141</i>
    <i name="e_0_energy">   -119.84932925</i>
   </energy>
  </scstep>
  <structure>
   <crystal>
    <varray name="basis" >
     <v>       8.07461274      0.00000000      0.00000000</v>
     <v>       0.00000000      8.07461274      0.00000000</v>
     <v>       0.00000000      0.00000000      8.07461274</v>
    </varray>
    <i name="volume">    526.45967079</i>
    <varray name="rec_basis" >
     <v>       0.12384495      0.00000000      0.00000000</v>
     <v>       0.00000000      0.12384495      0.00000000</v>
     <v>       0.00000000      0.00000000      0.12384495</v>
    </varray>
   </crystal>
   <varray name="positions" >
    <v>       0.25123845      0.25000000      0.00000000</v>
    <v>       0.75000000      0.25000000      0.00000000</v>
    <v>       0.25000000      0.75000000      0.00000000</v>
    <v>       0.75000000      0.75000000      0.00000000</v>
    <v>       0.25000000      0.25000000      0.50000000</v>
    <v>       0.75000000      0.25000000      0.50000000</v>
    <v>       0.25000000      0.75000000      0.50000000</v>
    <v>       0.75000000      0.75000000      0.50000000</v>
    <v>       0.25000000      0.00000000      0.25000000</v>
    <v>       0.75000000      0.00000000      0.25000000</v>
    <v>       0.25000000      0.50000000      0.25000000</v>
    <v>       0.75000000      0.50000000      0.25000000</v>
    <v>       0.25000000      0.00000000      0.75000000</v>
    <v>       0.75000000      0.00000000      0.75000000</v>
    <v>       0.25000000      0.50000000      0.75000000</v>
    <v>       0.75000000      0.50000000      0.75000000</v>
    <v>       0.00000000      0.25000000      0.25000000</v>
    <v>       0.50000000      0.25000000      0.25000000</v>
    <v>       0.00000000      0.75000000      0.25000000</v>
    <v>       0.50000000      0.75000000      0.25000000</v>
    <v>       0.00000000      0.25000000      0.75000000</v>
    <v>       0.50000000      0.25000000      0.75000000</v>
    <v>       0.00000000      0.75000000      0.75000000</v>
    <v>       0.50000000      0.75000000      0.75000000</v>
    <v>       0.00000000      0.00000000      0.00000000</v>
    <v>       0.50000000      0.00000000      0.00000000</v>
    <v>       0.00000000      0.50000000      0.00000000</v>
    <v>       0.50000000      0.50000000      0.00000000</v>
    <v>       0.00000000      0.00000000      0.50000000</v>
    <v>       0.50000000      0.00000000      0.50000000</v>
    <v>       0.00000000      0.50000000      0.50000000</v>
    <v>       0.50000000      0.50000000      0.50000000</v>
   </varray>
  </structure>
  <varray name="forces" >
   <v>      -0.04671358      0.00000000      0.00000000</v>
   <v>       0.00205015      0.00000000     -0.00000000</v>
   <v>      -0.00041868      0.00000000      0.00000000</v>
   <v>       0.00049799      0.00000000      0.00000000</v>
   <v>      -0.00041868     -0.00000000     -0.00000000</v>
   <v>       0.00049799      0.00000000      0.00000000</v>
   <v>       0.00001337      0.00000000     -0.00000000</v>
   <v>      -0.00028349     -0.00000000      0.00000000</v>
   <v>      -0.00145308      0.00002088     -0.00002088</v>
   <v>      -0.00041335     -0.00000073      0.00000073</v>
   <v>      -0.00145308     -0.00002088     -0.00002088</v>
   <v>      -0.00041335      0.00000073      0.00000073</v>
   <v>      -0.00145308      0.00002088      0.00002088</v>
   <v>      -0.00041335     -0.00000073     -0.00000073</v>
   <v>      -0.00145308     -0.00002088      0.00002088</v>
   <v>      -0.00041335      0.00000073     -0.00000073</v>
   <v>       0.00643485      0.00000000     -0.00648460</v>
   <v>       0.00658566      0.00000000      0.00670195</v>
   <v>       0.00001728     -0.00000000      0.00024178</v>
   <v>       0.00002237      0.00000000     -0.00024324</v>
   <v>       0.00643485      0.00000000      0.00648460</v>
   <v>       0.00658566     -0.00000000     -0.00670195</v>
   <v>       0.00001728      0.00000000     -0.00024178</v>
   <v>       0.00002237      0.00000000      0.00024324</v>
   <v>       0.00643485      0.00648460     -0.00000000</v>
   <v>       0.00658566     -0.00670195      0.00000000</v>
   <v>       0.00643485     -0.00648460      0.00000000</v>
   <v>       0.00658566      0.00670195      0.00000000</v>
   <v>       0.00001728     -0.00024178      0.00000000</v>
   <v>       0.00002237      0.00024324     -0.00000000</v>
   <v>       0.00001728      0.00024178     -0.00000000</v>
   <v>       0.00002237     -0.00024324     -0.00000000</v>
  </varray>
  <varray name="stress" >
   <v>       1.45284775     -0.00000000      0.00000000</v>
   <v>      -0.00000000      1.45279961      0.00000000</v>
   <v>       0.00000000      0.00000000      1.45279961</v>
  </varray>
  <energy>
   <i name="e_fr_energy">   -119.84960709</i>
   <i name="e_wo_entrp">   -119.84932925</i>
   <i name="e_0_energy">     -0.00055568</i>
  </energy>
  <eigenvalues>
   <array>
    <dimension dim="1">band</dimension>
    <dimension dim="2">kpoint</dimension>
    <dimension dim="3">spin</dimension>
    <field>eigene</field>
    <field>occ</field>
    <set>
     <set comment="spin 1">
      <set comment="kpoint 1">
       <r>  -3.1239  1.0000</r>
       <r>  -0.8751  1.0000</r>
       <r>  -0.8714  1.0000</r>
       <r>  -0.8714  1.0000</r>
       <r>  -0.8714  1.0000</r>
       <r>  -0.8714  1.0000</r>
       <r>  -0.8677  1.0000</r>
       <r>   1.3396  1.0000</r>
       <r>   1.3440  1.0000</r>
       <r>   1.3440  1.0000</r>
       <r>   1.3457  1.0000</r>
       <r>   1.3458  1.0000</r>
       <r>   1.3458  1.0000</r>
       <r>   1.3458  1.0000</r>
       <r>   1.3458  1.0000</r>
       <r>   1.3460  1.0000</r>
       <r>   1.3477  1.0000</r>
       <r>   1.3477  1.0000</r>
       <r>   1.3521  1.0000</r>
       <r>   3.4261  1.0000</r>
       <r>   3.4261  1.0000</r>
       <r>   3.4261  1.0000</r>
       <r>   3.4261  1.0000</r>
       <r>   3.6470  1.0000</r>
       <r>   3.6470  1.0000</r>
       <r>   3.6471  1.0000</r>
       <r>   3.6471  1.0000</r>
       <r>   5.0999  1.0000</r>
       <r>   5.0999  1.0000</r>
       <r>   5.0999  1.0000</r>
       <r>   6.4295  1.0000</r>
       <r>   6.4295  1.0000</r>
       <r>   6.4295  1.0000</r>
       <r>   7.1765  1.0000</r>
       <r>   7.1765  1.0000</r>
       <r>   7.1809  1.0000</r>
       <r>   7.1809  1.0000</r>
       <r>   7.1810  1.0000</r>
       <r>   7.1810  1.0000</r>
       <r>   7.1810  1.0000</r>
       <r>   7.1810  1.0000</r>
       <r>   7.1811  1.0000</r>
       <r>   7.1811  1.0000</r>
       <r>   7.1854  1.0000</r>
       <r>   7.1854  1.0000</r>
       <r>   8.1911  0.0000</r>
       <r>   8.1953  0.0000</r>
       <r>   8.1953  0.0000</r>
       <r>   8.1953  0.0000</r>
       <r>   8.1953  0.0000</r>
       <r>   8.1994  0.0000</r>
       <r>   9.1530  0.0000</r>
       <r>   9.1540  0.0000</r>
       <r>   9.1540  0.0000</r>
       <r>   9.1540  0.0000</r>
       <r>   9.1540  0.0000</r>
       <r>   9.1550  0.0000</r>
       <r>   9.2645  0.0000</r>
       <r>   9.2645  0.0000</r>
       <r>   9.2661  0.0000</r>
       <r>   9.2685  0.0000</r>
       <r>   9.2686  0.0000</r>
       <r>   9.2686  0.0000</r>
       <r>   9.2686  0.0000</r>
       <r>   9.2687  0.0000</r>
       <r>   9.2687  0.0000</r>
       <r>   9.2710  0.0000</r>
       <r>   9.2727  0.0000</r>
       <r>   9.2727  0.0000</r>
       <r>  10.7906  0.0000</r>
       <r>  10.7927  0.0000</r>
       <r>  10.7934  0.0000</r>
      </set>
      <set comment="kpoint 2">
       <r>  -3.1081  1.0000</r>
       <r>  -1.2287  1.0000</r>
       <r>  -0.8559  1.0000</r>
       <r>  -0.8559  1.0000</r>
       <r>  -0.8559  1.0000</r>
       <r>  -0.8559  1.0000</r>
       <r>  -0.4841  1.0000</r>
       <r>   0.9940  1.0000</r>
       <r>   0.9941  1.0000</r>
       <r>   0.9941  1.0000</r>
       <r>   0.9941  1.0000</r>
       <r>   1.3611  1.0000</r>
       <r>   1.3611  1.0000</r>
       <r>   1.3611  1.0000</r>
       <r>   1.3611  1.0000</r>
       <r>   1.7271  1.0000</r>
       <r>   1.7271  1.0000</r>
       <r>   1.7271  1.0000</r>
       <r>   1.7271  1.0000</r>
       <r>   3.1726  1.0000</r>
       <r>   3.1726  1.0000</r>
       <r>   3.1726  1.0000</r>
       <r>   3.1726  1.0000</r>
       <r>   3.9298  1.0000</r>
       <r>   3.9298  1.0000</r>
       <r>   3.9298  1.0000</r>
       <r>   3.9298  1.0000</r>
       <r>   4.7975  1.0000</r>
       <r>   5.1143  1.0000</r>
       <r>   5.1143  1.0000</r>
       <r>   6.4448  1.0000</r>
       <r>   6.4448  1.0000</r>
       <r>   6.7591  1.0000</r>
       <r>   6.8480  1.0000</r>
       <r>   6.8480  1.0000</r>
       <r>   6.8905  1.0000</r>
       <r>   6.8905  1.0000</r>
       <r>   6.8905  1.0000</r>
       <r>   6.8905  1.0000</r>
       <r>   7.1955  1.0000</r>
       <r>   7.1955  1.0000</r>
       <r>   7.1955  1.0000</r>
       <r>   7.1955  1.0000</r>
       <r>   7.5431  1.0000</r>
       <r>   7.5431  1.0000</r>
       <r>   8.0886  0.0000</r>
       <r>   8.0886  0.0000</r>
       <r>   8.3762  0.0000</r>
       <r>   8.3762  0.0000</r>
       <r>   8.3762  0.0000</r>
       <r>   8.3762  0.0000</r>
       <r>   8.9348  0.0000</r>
       <r>   8.9348  0.0000</r>
       <r>   8.9348  0.0000</r>
       <r>   8.9348  0.0000</r>
       <r>   9.0061  0.0000</r>
       <r>   9.0061  0.0000</r>
       <r>   9.0062  0.0000</r>
       <r>   9.0062  0.0000</r>
       <r>   9.2877  0.0000</r>
       <r>   9.2878  0.0000</r>
       <r>   9.3054  0.0000</r>
       <r>   9.3054  0.0000</r>
       <r>   9.3055  0.0000</r>
       <r>   9.3055  0.0000</r>
       <r>   9.6315  0.0000</r>
       <r>   9.6315  0.0000</r>
       <r>   9.6315  0.0000</r>
       <r>   9.6315  0.0000</r>
       <r>  10.4577  0.0000</r>
       <r>  10.4577  0.0000</r>
       <r>  10.4577  0.0000</r>
      </set>
      <set comment="kpoint 3">
       <r>  -3.0609  1.0000</r>
       <r>  -1.5558  1.0000</r>
       <r>  -0.8094  1.0000</r>
       <r>  -0.8093  1.0000</r>
       <r>  -0.8093  1.0000</r>
       <r>  -0.8093  1.0000</r>
       <r>  -0.0672  1.0000</r>
       <r>   0.6721  1.0000</r>
       <r>   0.6721  1.0000</r>
       <r>   0.6721  1.0000</r>
       <r>   0.6721  1.0000</r>
       <r>   1.4070  1.0000</r>
       <r>   1.4070  1.0000</r>
       <r>   1.4070  1.0000</r>
       <r>   1.4070  1.0000</r>
       <r>   2.1375  1.0000</r>
       <r>   2.1375  1.0000</r>
       <r>   2.1375  1.0000</r>
       <r>   2.1375  1.0000</r>
       <r>   2.8627  1.0000</r>
       <r>   2.8627  1.0000</r>
       <r>   2.8627  1.0000</r>
       <r>   2.8627  1.0000</r>
       <r>   4.2314  1.0000</r>
       <r>   4.3273  1.0000</r>
       <r>   4.3273  1.0000</r>
       <r>   4.3273  1.0000</r>
       <r>   4.3273  1.0000</r>
       <r>   5.1576  1.0000</r>
       <r>   5.1576  1.0000</r>
       <r>   6.3461  1.0000</r>
       <r>   6.3462  1.0000</r>
       <r>   6.3462  1.0000</r>
       <r>   6.3462  1.0000</r>
       <r>   6.4904  1.0000</r>
       <r>   6.4905  1.0000</r>
       <r>   6.5442  1.0000</r>
       <r>   6.5442  1.0000</r>
       <r>   7.2389  1.0000</r>
       <r>   7.2389  1.0000</r>
       <r>   7.2389  1.0000</r>
       <r>   7.2389  1.0000</r>
       <r>   7.4071  1.0000</r>
       <r>   7.8642  1.0000</r>
       <r>   7.8642  1.0000</r>
       <r>   7.9343  1.0000</r>
       <r>   7.9343  1.0000</r>
       <r>   8.4819  0.0000</r>
       <r>   8.4819  0.0000</r>
       <r>   8.4819  0.0000</r>
       <r>   8.4820  0.0000</r>
       <r>   8.5884  0.0000</r>
       <r>   8.5884  0.0000</r>
       <r>   8.5885  0.0000</r>
       <r>   8.5885  0.0000</r>
       <r>   8.6302  0.0000</r>
       <r>   8.6302  0.0000</r>
       <r>   8.6303  0.0000</r>
       <r>   8.6303  0.0000</r>
       <r>   9.5931  0.0000</r>
       <r>   9.5931  0.0000</r>
       <r>   9.7628  0.0000</r>
       <r>   9.7628  0.0000</r>
       <r>   9.7629  0.0000</r>
       <r>   9.7629  0.0000</r>
       <r>  10.0235  0.0000</r>
       <r>  10.0235  0.0000</r>
       <r>  10.0235  0.0000</r>
       <r>  10.0235  0.0000</r>
       <r>  10.1489  0.0000</r>
       <r>  10.1489  0.0000</r>
       <r>  10.1489  0.0000</r>
      </set>
      <set comment="kpoint 4">
       <r>  -2.9821  1.0000</r>
       <r>  -1.8524  1.0000</r>
       <r>  -0.7318  1.0000</r>
       <r>  -0.7318  1.0000</r>
       <r>  -0.7318  1.0000</r>
       <r>  -0.7318  1.0000</r>
       <r>   0.3769  1.0000</r>
       <r>   0.3801  1.0000</r>
       <r>   0.3801  1.0000</r>
       <r>   0.3801  1.0000</r>
       <r>   0.3822  1.0000</r>
       <r>   1.4833  1.0000</r>
       <r>   1.4833  1.0000</r>
       <r>   1.4833  1.0000</r>
       <r>   1.4833  1.0000</r>
       <r>   2.5736  1.0000</r>
       <r>   2.5755  1.0000</r>
       <r>   2.5755  1.0000</r>
       <r>   2.5766  1.0000</r>
       <r>   2.5772  1.0000</r>
       <r>   2.5782  1.0000</r>
       <r>   2.5782  1.0000</r>
       <r>   2.5801  1.0000</r>
       <r>   3.6253  1.0000</r>
       <r>   4.7587  1.0000</r>
       <r>   4.7587  1.0000</r>
       <r>   4.7587  1.0000</r>
       <r>   4.7587  1.0000</r>
       <r>   5.2297  1.0000</r>
       <r>   5.2297  1.0000</r>
       <r>   5.7588  1.0000</r>
       <r>   5.7588  1.0000</r>
       <r>   5.7588  1.0000</r>
       <r>   5.7588  1.0000</r>
       <r>   6.2695  1.0000</r>
       <r>   6.2695  1.0000</r>
       <r>   6.5664  1.0000</r>
       <r>   6.5664  1.0000</r>
       <r>   7.3113  1.0000</r>
       <r>   7.3113  1.0000</r>
       <r>   7.3113  1.0000</r>
       <r>   7.3113  1.0000</r>
       <r>   7.6172  1.0000</r>
       <r>   7.6172  1.0000</r>
       <r>   7.9042  1.0000</r>
       <r>   7.9042  1.0000</r>
       <r>   7.9042  1.0000</r>
       <r>   7.9042  1.0000</r>
       <r>   8.1496  0.0000</r>
       <r>   8.3524  0.0000</r>
       <r>   8.3524  0.0000</r>
       <r>   8.3547  0.0000</r>
       <r>   8.3547  0.0000</r>
       <r>   8.3571  0.0000</r>
       <r>   8.3571  0.0000</r>
       <r>   8.7326  0.0000</r>
       <r>   8.7326  0.0000</r>
       <r>   8.7326  0.0000</r>
       <r>   8.7326  0.0000</r>
       <r>   9.8674  0.0000</r>
       <r>   9.8674  0.0000</r>
       <r>   9.8674  0.0000</r>
       <r>   9.8674  0.0000</r>
       <r>   9.9743  0.0000</r>
       <r>   9.9743  0.0000</r>
       <r>  10.4146  0.0000</r>
       <r>  10.4146  0.0000</r>
       <r>  10.4147  0.0000</r>
       <r>  10.4149  0.0000</r>
       <r>  10.4446  0.0000</r>
       <r>  10.4446  0.0000</r>
       <r>  10.4447  0.0000</r>
      </set>
      <set comment="kpoint 5">
       <r>  -2.8718  1.0000</r>
       <r>  -2.1183  1.0000</r>
       <r>  -0.6234  1.0000</r>
       <r>  -0.6233  1.0000</r>
       <r>  -0.6233  1.0000</r>
       <r>  -0.6233  1.0000</r>
       <r>   0.1184  1.0000</r>
       <r>   0.1184  1.0000</r>
       <r>   0.1184  1.0000</r>
       <r>   0.1184  1.0000</r>
       <r>   0.8541  1.0000</r>
       <r>   1.5902  1.0000</r>
       <r>   1.5902  1.0000</r>
       <r>   1.5902  1.0000</r>
       <r>   1.5902  1.0000</r>
       <r>   2.3201  1.0000</r>
       <r>   2.3201  1.0000</r>
       <r>   2.3201  1.0000</r>
       <r>   2.3201  1.0000</r>
       <r>   3.0256  1.0000</r>
       <r>   3.0439  1.0000</r>
       <r>   3.0439  1.0000</r>
       <r>   3.0439  1.0000</r>
       <r>   3.0439  1.0000</r>
       <r>   5.1742  1.0000</r>
       <r>   5.1742  1.0000</r>
       <r>   5.1742  1.0000</r>
       <r>   5.1742  1.0000</r>
       <r>   5.2196  1.0000</r>
       <r>   5.2196  1.0000</r>
       <r>   5.2196  1.0000</r>
       <r>   5.2196  1.0000</r>
       <r>   5.3307  1.0000</r>
       <r>   5.3307  1.0000</r>
       <r>   6.0238  1.0000</r>
       <r>   6.0238  1.0000</r>
       <r>   6.6723  1.0000</r>
       <r>   6.6723  1.0000</r>
       <r>   7.3262  1.0000</r>
       <r>   7.3262  1.0000</r>
       <r>   7.3262  1.0000</r>
       <r>   7.3262  1.0000</r>
       <r>   7.3799  1.0000</r>
       <r>   7.3800  1.0000</r>
       <r>   7.4127  1.0000</r>
       <r>   7.4127  1.0000</r>
       <r>   7.4127  1.0000</r>
       <r>   7.4127  1.0000</r>
       <r>   8.1082  0.0000</r>
       <r>   8.1082  0.0000</r>
       <r>   8.1082  0.0000</r>
       <r>   8.1082  0.0000</r>
       <r>   8.8045  0.0000</r>
       <r>   8.8045  0.0000</r>
       <r>   8.8667  0.0000</r>
       <r>   8.8667  0.0000</r>
       <r>   8.8667  0.0000</r>
       <r>   8.8667  0.0000</r>
       <r>   8.9402  0.0000</r>
       <r>   9.6135  0.0000</r>
       <r>   9.6135  0.0000</r>
       <r>   9.6135  0.0000</r>
       <r>   9.6135  0.0000</r>
       <r>  10.3979  0.0000</r>
       <r>  10.3979  0.0000</r>
       <r>  10.8938  0.0000</r>
       <r>  10.8938  0.0000</r>
       <r>  10.8949  0.0000</r>
       <r>  10.8949  0.0000</r>
       <r>  10.8965  0.0000</r>
       <r>  10.8965  0.0000</r>
       <r>  11.1563  0.0000</r>
      </set>
      <set comment="kpoint 6">
       <r>  -2.7302  1.0000</r>
       <r>  -2.3533  1.0000</r>
       <r>  -0.4840  1.0000</r>
       <r>  -0.4840  1.0000</r>
       <r>  -0.4840  1.0000</r>
       <r>  -0.4840  1.0000</r>
       <r>  -0.1130  1.0000</r>
       <r>  -0.1130  1.0000</r>
       <r>  -0.1130  1.0000</r>
       <r>  -0.1130  1.0000</r>
       <r>   1.3573  1.0000</r>
       <r>   1.7274  1.0000</r>
       <r>   1.7274  1.0000</r>
       <r>   1.7274  1.0000</r>
       <r>   1.7274  1.0000</r>
       <r>   2.0926  1.0000</r>
       <r>   2.0926  1.0000</r>
       <r>   2.0926  1.0000</r>
       <r>   2.0926  1.0000</r>
       <r>   2.4449  1.0000</r>
       <r>   3.5387  1.0000</r>
       <r>   3.5387  1.0000</r>
       <r>   3.5387  1.0000</r>
       <r>   3.5387  1.0000</r>
       <r>   4.6060  1.0000</r>
       <r>   4.6060  1.0000</r>
       <r>   4.6060  1.0000</r>
       <r>   4.6060  1.0000</r>
       <r>   5.4605  1.0000</r>
       <r>   5.4605  1.0000</r>
       <r>   5.7083  1.0000</r>
       <r>   5.7083  1.0000</r>
       <r>   5.7084  1.0000</r>
       <r>   5.7084  1.0000</r>
       <r>   5.8071  1.0000</r>
       <r>   5.8071  1.0000</r>
       <r>   6.7640  1.0000</r>
       <r>   6.7640  1.0000</r>
       <r>   6.7640  1.0000</r>
       <r>   6.7640  1.0000</r>
       <r>   6.8077  1.0000</r>
       <r>   6.8077  1.0000</r>
       <r>   7.1632  1.0000</r>
       <r>   7.1633  1.0000</r>
       <r>   7.5430  1.0000</r>
       <r>   7.5430  1.0000</r>
       <r>   7.5430  1.0000</r>
       <r>   7.5430  1.0000</r>
       <r>   7.8908  1.0000</r>
       <r>   7.8908  1.0000</r>
       <r>   7.8908  1.0000</r>
       <r>   7.8908  1.0000</r>
       <r>   9.0159  0.0000</r>
       <r>   9.0159  0.0000</r>
       <r>   9.0159  0.0000</r>
       <r>   9.0159  0.0000</r>
       <r>   9.2835  0.0000</r>
       <r>   9.2835  0.0000</r>
       <r>   9.3873  0.0000</r>
       <r>   9.3873  0.0000</r>
       <r>   9.3873  0.0000</r>
       <r>   9.3873  0.0000</r>
       <r>   9.7661  0.0000</r>
       <r>  10.3290  0.0000</r>
       <r>  10.3290  0.0000</r>
       <r>  10.8507  0.0000</r>
       <r>  10.8507  0.0000</r>
       <r>  11.3743  0.0000</r>
       <r>  11.3743  0.0000</r>
       <r>  11.3743  0.0000</r>
       <r>  11.3743  0.0000</r>
       <r>  11.5067  0.0000</r>
      </set>
      <set comment="kpoint 7">
       <r>  -2.5588  1.0000</r>
       <r>  -2.5559  1.0000</r>
       <r>  -0.3178  1.0000</r>
       <r>  -0.3147  1.0000</r>
       <r>  -0.3147  1.0000</r>
       <r>  -0.3139  1.0000</r>
       <r>  -0.3137  1.0000</r>
       <r>  -0.3130  1.0000</r>
       <r>  -0.3130  1.0000</r>
       <r>  -0.3099  1.0000</r>
       <r>   1.8859  1.0000</r>
       <r>   1.8882  1.0000</r>
       <r>   1.8932  1.0000</r>
       <r>   1.8937  1.0000</r>
       <r>   1.8937  1.0000</r>
       <r>   1.8945  1.0000</r>
       <r>   1.8954  1.0000</r>
       <r>   1.8962  1.0000</r>
       <r>   1.8962  1.0000</r>
       <r>   1.8986  1.0000</r>
       <r>   4.0591  1.0000</r>
       <r>   4.0591  1.0000</r>
       <r>   4.0591  1.0000</r>
       <r>   4.0598  1.0000</r>
       <r>   4.0601  1.0000</r>
       <r>   4.0608  1.0000</r>
       <r>   4.0608  1.0000</r>
       <r>   4.0608  1.0000</r>
       <r>   5.6178  1.0000</r>
       <r>   5.6178  1.0000</r>
       <r>   5.6209  1.0000</r>
       <r>   5.6209  1.0000</r>
       <r>   6.2227  1.0000</r>
       <r>   6.2227  1.0000</r>
       <r>   6.2232  1.0000</r>
       <r>   6.2236  1.0000</r>
       <r>   6.2239  1.0000</r>
       <r>   6.2243  1.0000</r>
       <r>   6.2248  1.0000</r>
       <r>   6.2248  1.0000</r>
       <r>   6.9698  1.0000</r>
       <r>   6.9708  1.0000</r>
       <r>   6.9726  1.0000</r>
       <r>   6.9737  1.0000</r>
       <r>   7.7000  1.0000</r>
       <r>   7.7000  1.0000</r>
       <r>   7.7010  1.0000</r>
       <r>   7.7023  1.0000</r>
       <r>   7.7025  1.0000</r>
       <r>   7.7038  1.0000</r>
       <r>   7.7048  1.0000</r>
       <r>   7.7048  1.0000</r>
       <r>   9.1863  0.0000</r>
       <r>   9.1872  0.0000</r>
       <r>   9.1872  0.0000</r>
       <r>   9.1874  0.0000</r>
       <r>   9.1896  0.0000</r>
       <r>   9.1897  0.0000</r>
       <r>   9.1897  0.0000</r>
       <r>   9.1907  0.0000</r>
       <r>   9.7905  0.0000</r>
       <r>   9.7905  0.0000</r>
       <r>   9.7928  0.0000</r>
       <r>   9.7928  0.0000</r>
       <r>  10.6218  0.0000</r>
       <r>  10.6231  0.0000</r>
       <r>  11.3237  0.0000</r>
       <r>  11.3242  0.0000</r>
       <r>  11.3255  0.0000</r>
       <r>  11.3260  0.0000</r>
       <r>  11.8824  0.0000</r>
       <r>  11.8833  0.0000</r>
      </set>
      <set comment="kpoint 8">
       <r>  -3.1081  1.0000</r>
       <r>  -1.2287  1.0000</r>
       <r>  -0.8587  1.0000</r>
       <r>  -0.8559  1.0000</r>
       <r>  -0.8559  1.0000</r>
       <r>  -0.8530  1.0000</r>
       <r>  -0.4841  1.0000</r>
       <r>   0.9912  1.0000</r>
       <r>   0.9941  1.0000</r>
       <r>   0.9941  1.0000</r>
       <r>   0.9970  1.0000</r>
       <r>   1.3590  1.0000</r>
       <r>   1.3600  1.0000</r>
       <r>   1.3623  1.0000</r>
       <r>   1.3633  1.0000</r>
       <r>   1.7242  1.0000</r>
       <r>   1.7271  1.0000</r>
       <r>   1.7271  1.0000</r>
       <r>   1.7300  1.0000</r>
       <r>   3.1705  1.0000</r>
       <r>   3.1715  1.0000</r>
       <r>   3.1737  1.0000</r>
       <r>   3.1747  1.0000</r>
       <r>   3.9277  1.0000</r>
       <r>   3.9287  1.0000</r>
       <r>   3.9309  1.0000</r>
       <r>   3.9319  1.0000</r>
       <r>   4.7975  1.0000</r>
       <r>   5.1143  1.0000</r>
       <r>   5.1143  1.0000</r>
       <r>   6.4447  1.0000</r>
       <r>   6.4448  1.0000</r>
       <r>   6.7592  1.0000</r>
       <r>   6.8479  1.0000</r>
       <r>   6.8480  1.0000</r>
       <r>   6.8873  1.0000</r>
       <r>   6.8905  1.0000</r>
       <r>   6.8905  1.0000</r>
       <r>   6.8937  1.0000</r>
       <r>   7.1927  1.0000</r>
       <r>   7.1955  1.0000</r>
       <r>   7.1955  1.0000</r>
       <r>   7.1982  1.0000</r>
       <r>   7.5431  1.0000</r>
       <r>   7.5431  1.0000</r>
       <r>   8.0886  0.0000</r>
       <r>   8.0886  0.0000</r>
       <r>   8.3734  0.0000</r>
       <r>   8.3762  0.0000</r>
       <r>   8.3762  0.0000</r>
       <r>   8.3790  0.0000</r>
       <r>   8.9320  0.0000</r>
       <r>   8.9348  0.0000</r>
       <r>   8.9348  0.0000</r>
       <r>   8.9376  0.0000</r>
       <r>   9.0034  0.0000</r>
       <r>   9.0050  0.0000</r>
       <r>   9.0072  0.0000</r>
       <r>   9.0088  0.0000</r>
       <r>   9.2877  0.0000</r>
       <r>   9.2878  0.0000</r>
       <r>   9.3044  0.0000</r>
       <r>   9.3054  0.0000</r>
       <r>   9.3055  0.0000</r>
       <r>   9.3065  0.0000</r>
       <r>   9.6287  0.0000</r>
       <r>   9.6315  0.0000</r>
       <r>   9.6315  0.0000</r>
       <r>   9.6343  0.0000</r>
       <r>  10.4558  0.0000</r>
       <r>  10.4577  0.0000</r>
       <r>  10.4598  0.0000</r>
      </set>
      <set comment="kpoint 9">
       <r>  -3.0924  1.0000</r>
       <r>  -1.2143  1.0000</r>
       <r>  -1.2120  1.0000</r>
       <r>  -0.8404  1.0000</r>
       <r>  -0.8404  1.0000</r>
       <r>  -0.4698  1.0000</r>
       <r>  -0.4675  1.0000</r>
       <r>   0.6415  1.0000</r>
       <r>   1.0078  1.0000</r>
       <r>   1.0087  1.0000</r>
       <r>   1.0101  1.0000</r>
       <r>   1.0111  1.0000</r>
       <r>   1.3758  1.0000</r>
       <r>   1.3768  1.0000</r>
       <r>   1.7407  1.0000</r>
       <r>   1.7416  1.0000</r>
       <r>   1.7430  1.0000</r>
       <r>   1.7440  1.0000</r>
       <r>   2.1073  1.0000</r>
       <r>   2.8326  1.0000</r>
       <r>   2.8326  1.0000</r>
       <r>   3.4553  1.0000</r>
       <r>   3.4553  1.0000</r>
       <r>   3.6779  1.0000</r>
       <r>   3.6779  1.0000</r>
       <r>   4.2974  1.0000</r>
       <r>   4.2974  1.0000</r>
       <r>   4.8117  1.0000</r>
       <r>   4.8125  1.0000</r>
       <r>   5.1287  1.0000</r>
       <r>   6.4600  1.0000</r>
       <r>   6.5584  1.0000</r>
       <r>   6.5606  1.0000</r>
       <r>   6.7738  1.0000</r>
       <r>   6.7746  1.0000</r>
       <r>   6.8469  1.0000</r>
       <r>   6.8470  1.0000</r>
       <r>   6.8612  1.0000</r>
       <r>   6.8639  1.0000</r>
       <r>   6.9723  1.0000</r>
       <r>   6.9723  1.0000</r>
       <r>   7.2427  1.0000</r>
       <r>   7.2445  1.0000</r>
       <r>   7.5562  1.0000</r>
       <r>   7.5589  1.0000</r>
       <r>   8.1988  0.0000</r>
       <r>   8.2010  0.0000</r>
       <r>   8.3547  0.0000</r>
       <r>   8.3574  0.0000</r>
       <r>   8.5882  0.0000</r>
       <r>   8.5882  0.0000</r>
       <r>   8.6012  0.0000</r>
       <r>   8.6695  0.0000</r>
       <r>   8.6705  0.0000</r>
       <r>   8.6719  0.0000</r>
       <r>   8.6728  0.0000</r>
       <r>   9.2967  0.0000</r>
       <r>   9.2986  0.0000</r>
       <r>   9.3504  0.0000</r>
       <r>   9.3510  0.0000</r>
       <r>   9.3687  0.0000</r>
       <r>   9.3697  0.0000</r>
       <r>   9.3702  0.0000</r>
       <r>   9.3712  0.0000</r>
       <r>   9.4164  0.0000</r>
       <r>   9.4164  0.0000</r>
       <r>   9.5169  0.0000</r>
       <r>   9.5185  0.0000</r>
       <r>   9.9944  0.0000</r>
       <r>  10.1212  0.0000</r>
       <r>  10.7471  0.0000</r>
       <r>  10.7483  0.0000</r>
      </set>
      <set comment="kpoint 10">
       <r>  -3.0451  1.0000</r>
       <r>  -1.5402  1.0000</r>
       <r>  -1.1665  1.0000</r>
       <r>  -0.7938  1.0000</r>
       <r>  -0.7938  1.0000</r>
       <r>  -0.4223  1.0000</r>
       <r>  -0.0518  1.0000</r>
       <r>   0.3187  1.0000</r>
       <r>   0.6875  1.0000</r>
       <r>   0.6875  1.0000</r>
       <r>   1.0546  1.0000</r>
       <r>   1.0554  1.0000</r>
       <r>   1.0560  1.0000</r>
       <r>   1.7872  1.0000</r>
       <r>   1.7880  1.0000</r>
       <r>   1.7886  1.0000</r>
       <r>   2.1527  1.0000</r>
       <r>   2.1527  1.0000</r>
       <r>   2.5161  1.0000</r>
       <r>   2.5168  1.0000</r>
       <r>   2.5171  1.0000</r>
       <r>   3.2323  1.0000</r>
       <r>   3.2323  1.0000</r>
       <r>   3.9900  1.0000</r>
       <r>   3.9900  1.0000</r>
       <r>   4.2462  1.0000</r>
       <r>   4.6994  1.0000</r>
       <r>   4.6994  1.0000</r>
       <r>   4.8560  1.0000</r>
       <r>   5.1720  1.0000</r>
       <r>   6.0124  1.0000</r>
       <r>   6.2554  1.0000</r>
       <r>   6.3546  1.0000</r>
       <r>   6.3546  1.0000</r>
       <r>   6.5056  1.0000</r>
       <r>   6.5587  1.0000</r>
       <r>   6.7041  1.0000</r>
       <r>   6.8192  1.0000</r>
       <r>   6.9059  1.0000</r>
       <r>   6.9692  1.0000</r>
       <r>   6.9692  1.0000</r>
       <r>   7.4219  1.0000</r>
       <r>   7.5835  1.0000</r>
       <r>   7.6010  1.0000</r>
       <r>   7.9488  1.0000</r>
       <r>   7.9969  1.0000</r>
       <r>   8.1454  0.0000</r>
       <r>   8.1454  0.0000</r>
       <r>   8.1644  0.0000</r>
       <r>   8.2966  0.0000</r>
       <r>   8.3181  0.0000</r>
       <r>   8.3652  0.0000</r>
       <r>   8.3652  0.0000</r>
       <r>   8.7723  0.0000</r>
       <r>   8.8469  0.0000</r>
       <r>   8.8472  0.0000</r>
       <r>   8.8579  0.0000</r>
       <r>   8.8581  0.0000</r>
       <r>   8.9929  0.0000</r>
       <r>   9.6071  0.0000</r>
       <r>   9.6237  0.0000</r>
       <r>   9.6896  0.0000</r>
       <r>   9.7625  0.0000</r>
       <r>   9.7625  0.0000</r>
       <r>   9.8107  0.0000</r>
       <r>   9.8111  0.0000</r>
       <r>   9.8121  0.0000</r>
       <r>   9.8529  0.0000</r>
       <r>  10.0639  0.0000</r>
       <r>  10.3864  0.0000</r>
       <r>  10.4403  0.0000</r>
       <r>  10.4417  0.0000</r>
      </set>
      <set comment="kpoint 11">
       <r>  -2.9663  1.0000</r>
       <r>  -1.8367  1.0000</r>
       <r>  -1.0888  1.0000</r>
       <r>  -0.7163  1.0000</r>
       <r>  -0.7163  1.0000</r>
       <r>  -0.3449  1.0000</r>
       <r>   0.0260  1.0000</r>
       <r>   0.3931  1.0000</r>
       <r>   0.3955  1.0000</r>
       <r>   0.3969  1.0000</r>
       <r>   0.7640  1.0000</r>
       <r>   1.1319  1.0000</r>
       <r>   1.1319  1.0000</r>
       <r>   1.8642  1.0000</r>
       <r>   1.8642  1.0000</r>
       <r>   2.2267  1.0000</r>
       <r>   2.2293  1.0000</r>
       <r>   2.2306  1.0000</r>
       <r>   2.5917  1.0000</r>
       <r>   2.5917  1.0000</r>
       <r>   2.9516  1.0000</r>
       <r>   2.9529  1.0000</r>
       <r>   2.9555  1.0000</r>
       <r>   3.6403  1.0000</r>
       <r>   4.4169  1.0000</r>
       <r>   4.4169  1.0000</r>
       <r>   4.9291  1.0000</r>
       <r>   5.1312  1.0000</r>
       <r>   5.1312  1.0000</r>
       <r>   5.2441  1.0000</r>
       <r>   5.4216  1.0000</r>
       <r>   5.7716  1.0000</r>
       <r>   5.7716  1.0000</r>
       <r>   5.9793  1.0000</r>
       <r>   6.1224  1.0000</r>
       <r>   6.2839  1.0000</r>
       <r>   6.5814  1.0000</r>
       <r>   6.8941  1.0000</r>
       <r>   6.9783  1.0000</r>
       <r>   7.0393  1.0000</r>
       <r>   7.0393  1.0000</r>
       <r>   7.5662  1.0000</r>
       <r>   7.5662  1.0000</r>
       <r>   7.5978  1.0000</r>
       <r>   7.6735  1.0000</r>
       <r>   7.9281  1.0000</r>
       <r>   8.0212  0.9862</r>
       <r>   8.0882  0.0000</r>
       <r>   8.0882  0.0000</r>
       <r>   8.1450  0.0000</r>
       <r>   8.1641  0.0000</r>
       <r>   8.2709  0.0000</r>
       <r>   8.2710  0.0000</r>
       <r>   8.3693  0.0000</r>
       <r>   8.4227  0.0000</r>
       <r>   8.7173  0.0000</r>
       <r>   9.0230  0.0000</r>
       <r>   9.0230  0.0000</r>
       <r>   9.0350  0.0000</r>
       <r>   9.5296  0.0000</r>
       <r>   9.9955  0.0000</r>
       <r>  10.1107  0.0000</r>
       <r>  10.1442  0.0000</r>
       <r>  10.1602  0.0000</r>
       <r>  10.1602  0.0000</r>
       <r>  10.1838  0.0000</r>
       <r>  10.1838  0.0000</r>
       <r>  10.2314  0.0000</r>
       <r>  10.2449  0.0000</r>
       <r>  10.4397  0.0000</r>
       <r>  10.4397  0.0000</r>
       <r>  10.7501  0.0000</r>
      </set>
      <set comment="kpoint 12">
       <r>  -2.8561  1.0000</r>
       <r>  -2.1026  1.0000</r>
       <r>  -0.9800  1.0000</r>
       <r>  -0.6079  1.0000</r>
       <r>  -0.6078  1.0000</r>
       <r>  -0.2372  1.0000</r>
       <r>  -0.2360  1.0000</r>
       <r>   0.1338  1.0000</r>
       <r>   0.1338  1.0000</r>
       <r>   0.5030  1.0000</r>
       <r>   0.8694  1.0000</r>
       <r>   1.2390  1.0000</r>
       <r>   1.2390  1.0000</r>
       <r>   1.9701  1.0000</r>
       <r>   1.9705  1.0000</r>
       <r>   1.9714  1.0000</r>
       <r>   1.9718  1.0000</r>
       <r>   2.6964  1.0000</r>
       <r>   2.6978  1.0000</r>
       <r>   2.6980  1.0000</r>
       <r>   3.0406  1.0000</r>
       <r>   3.0589  1.0000</r>
       <r>   3.0590  1.0000</r>
       <r>   3.4202  1.0000</r>
       <r>   4.8341  1.0000</r>
       <r>   4.8772  1.0000</r>
       <r>   4.8772  1.0000</r>
       <r>   5.0314  1.0000</r>
       <r>   5.1882  1.0000</r>
       <r>   5.1882  1.0000</r>
       <r>   5.3451  1.0000</r>
       <r>   5.5418  1.0000</r>
       <r>   5.5916  1.0000</r>
       <r>   5.5916  1.0000</r>
       <r>   5.7318  1.0000</r>
       <r>   6.0382  1.0000</r>
       <r>   6.6871  1.0000</r>
       <r>   6.9870  1.0000</r>
       <r>   6.9870  1.0000</r>
       <r>   6.9986  1.0000</r>
       <r>   7.0796  1.0000</r>
       <r>   7.1406  1.0000</r>
       <r>   7.1406  1.0000</r>
       <r>   7.3863  1.0000</r>
       <r>   7.6936  1.0000</r>
       <r>   7.6943  1.0000</r>
       <r>   7.6967  1.0000</r>
       <r>   7.7741  1.0000</r>
       <r>   7.7757  1.0000</r>
       <r>   7.8404  1.0000</r>
       <r>   7.8404  1.0000</r>
       <r>   8.4707  0.0000</r>
       <r>   8.5413  0.0000</r>
       <r>   8.5639  0.0000</r>
       <r>   8.8191  0.0000</r>
       <r>   8.9545  0.0000</r>
       <r>   9.1624  0.0000</r>
       <r>   9.1624  0.0000</r>
       <r>   9.2076  0.0000</r>
       <r>   9.2757  0.0000</r>
       <r>   9.9077  0.0000</r>
       <r>   9.9077  0.0000</r>
       <r>   9.9774  0.0000</r>
       <r>  10.4156  0.0000</r>
       <r>  10.5610  0.0000</r>
       <r>  10.6295  0.0000</r>
       <r>  10.6335  0.0000</r>
       <r>  10.6338  0.0000</r>
       <r>  10.6729  0.0000</r>
       <r>  10.8511  0.0000</r>
       <r>  10.9099  0.0000</r>
       <r>  11.1748  0.0000</r>
      </set>
      <set comment="kpoint 13">
       <r>  -2.7145  1.0000</r>
       <r>  -2.3376  1.0000</r>
       <r>  -0.8403  1.0000</r>
       <r>  -0.4698  1.0000</r>
       <r>  -0.4685  1.0000</r>
       <r>  -0.4671  1.0000</r>
       <r>  -0.0990  1.0000</r>
       <r>  -0.0976  1.0000</r>
       <r>  -0.0963  1.0000</r>
       <r>   0.2722  1.0000</r>
       <r>   1.3722  1.0000</r>
       <r>   1.3766  1.0000</r>
       <r>   1.3770  1.0000</r>
       <r>   1.7428  1.0000</r>
       <r>   1.7429  1.0000</r>
       <r>   2.1075  1.0000</r>
       <r>   2.1075  1.0000</r>
       <r>   2.4599  1.0000</r>
       <r>   2.4714  1.0000</r>
       <r>   2.4716  1.0000</r>
       <r>   3.1928  1.0000</r>
       <r>   3.5536  1.0000</r>
       <r>   3.5536  1.0000</r>
       <r>   3.9134  1.0000</r>
       <r>   4.2637  1.0000</r>
       <r>   4.6206  1.0000</r>
       <r>   4.6206  1.0000</r>
       <r>   4.9766  1.0000</r>
       <r>   5.1628  1.0000</r>
       <r>   5.3664  1.0000</r>
       <r>   5.3664  1.0000</r>
       <r>   5.4750  1.0000</r>
       <r>   5.5132  1.0000</r>
       <r>   5.8215  1.0000</r>
       <r>   6.0796  1.0000</r>
       <r>   6.0796  1.0000</r>
       <r>   6.4238  1.0000</r>
       <r>   6.4238  1.0000</r>
       <r>   6.8220  1.0000</r>
       <r>   7.1313  1.0000</r>
       <r>   7.1332  1.0000</r>
       <r>   7.1340  1.0000</r>
       <r>   7.1750  1.0000</r>
       <r>   7.2099  1.0000</r>
       <r>   7.2716  1.0000</r>
       <r>   7.2716  1.0000</r>
       <r>   7.4827  1.0000</r>
       <r>   7.5575  1.0000</r>
       <r>   7.6216  1.0000</r>
       <r>   7.6216  1.0000</r>
       <r>   7.9053  1.0000</r>
       <r>   8.2532  0.0000</r>
       <r>   8.6836  0.0000</r>
       <r>   9.0344  0.0000</r>
       <r>   9.0501  0.0000</r>
       <r>   9.2980  0.0000</r>
       <r>   9.3127  0.0000</r>
       <r>   9.3127  0.0000</r>
       <r>   9.3705  0.0000</r>
       <r>   9.6828  0.0000</r>
       <r>   9.6828  0.0000</r>
       <r>   9.7503  0.0000</r>
       <r>   9.7801  0.0000</r>
       <r>  10.0704  0.0000</r>
       <r>  10.3436  0.0000</r>
       <r>  10.8669  0.0000</r>
       <r>  11.0405  0.0000</r>
       <r>  11.1114  0.0000</r>
       <r>  11.1114  0.0000</r>
       <r>  11.1279  0.0000</r>
       <r>  11.5197  0.0000</r>
       <r>  11.6327  0.0000</r>
      </set>
      <set comment="kpoint 14">
       <r>  -2.5431  1.0000</r>
       <r>  -2.5402  1.0000</r>
       <r>  -0.6712  1.0000</r>
       <r>  -0.6683  1.0000</r>
       <r>  -0.3004  1.0000</r>
       <r>  -0.2992  1.0000</r>
       <r>  -0.2975  1.0000</r>
       <r>  -0.2963  1.0000</r>
       <r>   0.0705  1.0000</r>
       <r>   0.0734  1.0000</r>
       <r>   1.5425  1.0000</r>
       <r>   1.5438  1.0000</r>
       <r>   1.5455  1.0000</r>
       <r>   1.5467  1.0000</r>
       <r>   1.9026  1.0000</r>
       <r>   1.9039  1.0000</r>
       <r>   2.2724  1.0000</r>
       <r>   2.2736  1.0000</r>
       <r>   2.2753  1.0000</r>
       <r>   2.2766  1.0000</r>
       <r>   3.7150  1.0000</r>
       <r>   3.7163  1.0000</r>
       <r>   4.0739  1.0000</r>
       <r>   4.0743  1.0000</r>
       <r>   4.0752  1.0000</r>
       <r>   4.0756  1.0000</r>
       <r>   4.4321  1.0000</r>
       <r>   4.4334  1.0000</r>
       <r>   5.3219  1.0000</r>
       <r>   5.3250  1.0000</r>
       <r>   5.6322  1.0000</r>
       <r>   5.6353  1.0000</r>
       <r>   5.8818  1.0000</r>
       <r>   5.8819  1.0000</r>
       <r>   5.8832  1.0000</r>
       <r>   5.8833  1.0000</r>
       <r>   6.5932  1.0000</r>
       <r>   6.5934  1.0000</r>
       <r>   6.5947  1.0000</r>
       <r>   6.5948  1.0000</r>
       <r>   6.9839  1.0000</r>
       <r>   6.9867  1.0000</r>
       <r>   7.2925  1.0000</r>
       <r>   7.2954  1.0000</r>
       <r>   7.3676  1.0000</r>
       <r>   7.3708  1.0000</r>
       <r>   7.4297  1.0000</r>
       <r>   7.4312  1.0000</r>
       <r>   7.4329  1.0000</r>
       <r>   7.4343  1.0000</r>
       <r>   8.0632  0.0001</r>
       <r>   8.0663  0.0000</r>
       <r>   8.8514  0.0000</r>
       <r>   8.8542  0.0000</r>
       <r>   9.4831  0.0000</r>
       <r>   9.4837  0.0000</r>
       <r>   9.4861  0.0000</r>
       <r>   9.4867  0.0000</r>
       <r>   9.5367  0.0000</r>
       <r>   9.5388  0.0000</r>
       <r>   9.5475  0.0000</r>
       <r>   9.5505  0.0000</r>
       <r>   9.8051  0.0000</r>
       <r>   9.8074  0.0000</r>
       <r>  10.6353  0.0000</r>
       <r>  10.6367  0.0000</r>
       <r>  11.3400  0.0000</r>
       <r>  11.3405  0.0000</r>
       <r>  11.5482  0.0000</r>
       <r>  11.5525  0.0000</r>
       <r>  11.6076  0.0000</r>
       <r>  11.6167  0.0000</r>
      </set>
      <set comment="kpoint 15">
       <r>  -3.0609  1.0000</r>
       <r>  -1.5558  1.0000</r>
       <r>  -0.8122  1.0000</r>
       <r>  -0.8093  1.0000</r>
       <r>  -0.8093  1.0000</r>
       <r>  -0.8065  1.0000</r>
       <r>  -0.0672  1.0000</r>
       <r>   0.6692  1.0000</r>
       <r>   0.6721  1.0000</r>
       <r>   0.6721  1.0000</r>
       <r>   0.6750  1.0000</r>
       <r>   1.4048  1.0000</r>
       <r>   1.4058  1.0000</r>
       <r>   1.4081  1.0000</r>
       <r>   1.4091  1.0000</r>
       <r>   2.1346  1.0000</r>
       <r>   2.1375  1.0000</r>
       <r>   2.1375  1.0000</r>
       <r>   2.1404  1.0000</r>
       <r>   2.8605  1.0000</r>
       <r>   2.8615  1.0000</r>
       <r>   2.8638  1.0000</r>
       <r>   2.8648  1.0000</r>
       <r>   4.2314  1.0000</r>
       <r>   4.3251  1.0000</r>
       <r>   4.3262  1.0000</r>
       <r>   4.3285  1.0000</r>
       <r>   4.3295  1.0000</r>
       <r>   5.1576  1.0000</r>
       <r>   5.1576  1.0000</r>
       <r>   6.3430  1.0000</r>
       <r>   6.3462  1.0000</r>
       <r>   6.3462  1.0000</r>
       <r>   6.3492  1.0000</r>
       <r>   6.4904  1.0000</r>
       <r>   6.4904  1.0000</r>
       <r>   6.5442  1.0000</r>
       <r>   6.5443  1.0000</r>
       <r>   7.2362  1.0000</r>
       <r>   7.2389  1.0000</r>
       <r>   7.2389  1.0000</r>
       <r>   7.2416  1.0000</r>
       <r>   7.4071  1.0000</r>
       <r>   7.8642  1.0000</r>
       <r>   7.8642  1.0000</r>
       <r>   7.9343  1.0000</r>
       <r>   7.9344  1.0000</r>
       <r>   8.4794  0.0000</r>
       <r>   8.4808  0.0000</r>
       <r>   8.4831  0.0000</r>
       <r>   8.4845  0.0000</r>
       <r>   8.5859  0.0000</r>
       <r>   8.5885  0.0000</r>
       <r>   8.5885  0.0000</r>
       <r>   8.5910  0.0000</r>
       <r>   8.6275  0.0000</r>
       <r>   8.6302  0.0000</r>
       <r>   8.6303  0.0000</r>
       <r>   8.6330  0.0000</r>
       <r>   9.5931  0.0000</r>
       <r>   9.5931  0.0000</r>
       <r>   9.7611  0.0000</r>
       <r>   9.7628  0.0000</r>
       <r>   9.7629  0.0000</r>
       <r>   9.7646  0.0000</r>
       <r>  10.0207  0.0000</r>
       <r>  10.0235  0.0000</r>
       <r>  10.0235  0.0000</r>
       <r>  10.0263  0.0000</r>
       <r>  10.1479  0.0000</r>
       <r>  10.1489  0.0000</r>
       <r>  10.1507  0.0000</r>
      </set>
      <set comment="kpoint 16">
       <r>  -3.0451  1.0000</r>
       <r>  -1.5402  1.0000</r>
       <r>  -1.1665  1.0000</r>
       <r>  -0.7938  1.0000</r>
       <r>  -0.7938  1.0000</r>
       <r>  -0.4223  1.0000</r>
       <r>  -0.0518  1.0000</r>
       <r>   0.3187  1.0000</r>
       <r>   0.6875  1.0000</r>
       <r>   0.6875  1.0000</r>
       <r>   1.0539  1.0000</r>
       <r>   1.0554  1.0000</r>
       <r>   1.0567  1.0000</r>
       <r>   1.7865  1.0000</r>
       <r>   1.7880  1.0000</r>
       <r>   1.7893  1.0000</r>
       <r>   2.1527  1.0000</r>
       <r>   2.1527  1.0000</r>
       <r>   2.5161  1.0000</r>
       <r>   2.5168  1.0000</r>
       <r>   2.5171  1.0000</r>
       <r>   3.2323  1.0000</r>
       <r>   3.2323  1.0000</r>
       <r>   3.9900  1.0000</r>
       <r>   3.9900  1.0000</r>
       <r>   4.2462  1.0000</r>
       <r>   4.6994  1.0000</r>
       <r>   4.6994  1.0000</r>
       <r>   4.8560  1.0000</r>
       <r>   5.1720  1.0000</r>
       <r>   6.0124  1.0000</r>
       <r>   6.2553  1.0000</r>
       <r>   6.3546  1.0000</r>
       <r>   6.3546  1.0000</r>
       <r>   6.5056  1.0000</r>
       <r>   6.5587  1.0000</r>
       <r>   6.7041  1.0000</r>
       <r>   6.8192  1.0000</r>
       <r>   6.9059  1.0000</r>
       <r>   6.9693  1.0000</r>
       <r>   6.9693  1.0000</r>
       <r>   7.4219  1.0000</r>
       <r>   7.5835  1.0000</r>
       <r>   7.6010  1.0000</r>
       <r>   7.9488  1.0000</r>
       <r>   7.9969  1.0000</r>
       <r>   8.1454  0.0000</r>
       <r>   8.1454  0.0000</r>
       <r>   8.1644  0.0000</r>
       <r>   8.2966  0.0000</r>
       <r>   8.3181  0.0000</r>
       <r>   8.3652  0.0000</r>
       <r>   8.3652  0.0000</r>
       <r>   8.7722  0.0000</r>
       <r>   8.8473  0.0000</r>
       <r>   8.8473  0.0000</r>
       <r>   8.8578  0.0000</r>
       <r>   8.8578  0.0000</r>
       <r>   8.9929  0.0000</r>
       <r>   9.6072  0.0000</r>
       <r>   9.6237  0.0000</r>
       <r>   9.6896  0.0000</r>
       <r>   9.7625  0.0000</r>
       <r>   9.7625  0.0000</r>
       <r>   9.8107  0.0000</r>
       <r>   9.8111  0.0000</r>
       <r>   9.8121  0.0000</r>
       <r>   9.8529  0.0000</r>
       <r>  10.0640  0.0000</r>
       <r>  10.3864  0.0000</r>
       <r>  10.4403  0.0000</r>
       <r>  10.4406  0.0000</r>
      </set>
      <set comment="kpoint 17">
       <r>  -2.9978  1.0000</r>
       <r>  -1.4946  1.0000</r>
       <r>  -1.4923  1.0000</r>
       <r>  -0.7473  1.0000</r>
       <r>  -0.7473  1.0000</r>
       <r>  -0.0072  1.0000</r>
       <r>  -0.0052  1.0000</r>
       <r>  -0.0034  1.0000</r>
       <r>   0.7319  1.0000</r>
       <r>   0.7328  1.0000</r>
       <r>   0.7342  1.0000</r>
       <r>   0.7352  1.0000</r>
       <r>   1.4671  1.0000</r>
       <r>   1.4681  1.0000</r>
       <r>   2.1959  1.0000</r>
       <r>   2.1972  1.0000</r>
       <r>   2.1984  1.0000</r>
       <r>   2.1985  1.0000</r>
       <r>   2.1998  1.0000</r>
       <r>   2.2009  1.0000</r>
       <r>   2.9244  1.0000</r>
       <r>   3.5428  1.0000</r>
       <r>   3.5428  1.0000</r>
       <r>   3.7703  1.0000</r>
       <r>   3.7703  1.0000</r>
       <r>   4.2902  1.0000</r>
       <r>   4.2911  1.0000</r>
       <r>   5.1017  1.0000</r>
       <r>   5.1017  1.0000</r>
       <r>   5.2153  1.0000</r>
       <r>   5.7045  1.0000</r>
       <r>   5.7069  1.0000</r>
       <r>   6.3026  1.0000</r>
       <r>   6.3026  1.0000</r>
       <r>   6.5285  1.0000</r>
       <r>   6.5285  1.0000</r>
       <r>   6.5510  1.0000</r>
       <r>   6.6008  1.0000</r>
       <r>   6.6034  1.0000</r>
       <r>   7.0754  1.0000</r>
       <r>   7.0772  1.0000</r>
       <r>   7.4657  1.0000</r>
       <r>   7.4667  1.0000</r>
       <r>   7.8360  1.0000</r>
       <r>   7.8370  1.0000</r>
       <r>   7.8384  1.0000</r>
       <r>   7.8394  1.0000</r>
       <r>   7.9900  1.0000</r>
       <r>   7.9923  1.0000</r>
       <r>   7.9946  1.0000</r>
       <r>   8.0534  0.0093</r>
       <r>   8.0550  0.0051</r>
       <r>   8.7264  0.0000</r>
       <r>   8.7289  0.0000</r>
       <r>   9.2399  0.0000</r>
       <r>   9.2410  0.0000</r>
       <r>   9.2413  0.0000</r>
       <r>   9.2423  0.0000</r>
       <r>   9.3092  0.0000</r>
       <r>   9.3092  0.0000</r>
       <r>   9.3839  0.0000</r>
       <r>   9.3858  0.0000</r>
       <r>   9.5015  0.0000</r>
       <r>   9.7355  0.0000</r>
       <r>   9.7361  0.0000</r>
       <r>  10.0210  0.0000</r>
       <r>  10.0210  0.0000</r>
       <r>  10.4260  0.0000</r>
       <r>  10.4282  0.0000</r>
       <r>  10.7784  0.0000</r>
       <r>  10.9011  0.0000</r>
       <r>  10.9013  0.0000</r>
      </set>
      <set comment="kpoint 18">
       <r>  -2.9191  1.0000</r>
       <r>  -1.7899  1.0000</r>
       <r>  -1.4155  1.0000</r>
       <r>  -0.6698  1.0000</r>
       <r>  -0.6698  1.0000</r>
       <r>  -0.2982  1.0000</r>
       <r>   0.0716  1.0000</r>
       <r>   0.4392  1.0000</r>
       <r>   0.4417  1.0000</r>
       <r>   0.4430  1.0000</r>
       <r>   0.8103  1.0000</r>
       <r>   0.8103  1.0000</r>
       <r>   1.1772  1.0000</r>
       <r>   1.9077  1.0000</r>
       <r>   1.9104  1.0000</r>
       <r>   1.9116  1.0000</r>
       <r>   2.2741  1.0000</r>
       <r>   2.2741  1.0000</r>
       <r>   2.6371  1.0000</r>
       <r>   2.6371  1.0000</r>
       <r>   3.3512  1.0000</r>
       <r>   3.3516  1.0000</r>
       <r>   3.3612  1.0000</r>
       <r>   3.6851  1.0000</r>
       <r>   4.1103  1.0000</r>
       <r>   4.1103  1.0000</r>
       <r>   4.3647  1.0000</r>
       <r>   5.1121  1.0000</r>
       <r>   5.2874  1.0000</r>
[...]
       <r>   7.1114  1.0000</r>
       <r>   7.4651  1.0000</r>
       <r>   7.4664  1.0000</r>
       <r>   7.4666  1.0000</r>
       <r>   7.4678  1.0000</r>
       <r>   7.8046  1.0000</r>
       <r>   7.8067  1.0000</r>
       <r>   7.8086  1.0000</r>
       <r>   7.8088  1.0000</r>
       <r>   7.8089  1.0000</r>
       <r>   7.8092  1.0000</r>
       <r>   7.8111  1.0000</r>
       <r>   7.8132  1.0000</r>
       <r>  10.8466  0.0000</r>
       <r>  10.8488  0.0000</r>
       <r>  10.8496  0.0000</r>
       <r>  10.8518  0.0000</r>
       <r>  10.9725  0.0000</r>
       <r>  10.9737  0.0000</r>
       <r>  10.9742  0.0000</r>
       <r>  10.9753  0.0000</r>
       <r>  11.5333  0.0000</r>
       <r>  11.5341  0.0000</r>
       <r>  11.5343  0.0000</r>
       <r>  11.5356  0.0000</r>
       <r>  11.5358  0.0000</r>
       <r>  11.5370  0.0000</r>
       <r>  11.5373  0.0000</r>
       <r>  11.5381  0.0000</r>
      </set>
      <set comment="kpoint 190">
       <r>  -1.9931  1.0000</r>
       <r>  -1.9931  1.0000</r>
       <r>  -1.9931  1.0000</r>
       <r>  -1.9931  1.0000</r>
       <r>   0.2364  1.0000</r>
       <r>   0.2410  1.0000</r>
       <r>   0.2410  1.0000</r>
       <r>   0.2416  1.0000</r>
       <r>   0.2417  1.0000</r>
       <r>   0.2423  1.0000</r>
       <r>   0.2423  1.0000</r>
       <r>   0.2469  1.0000</r>
       <r>   2.4344  1.0000</r>
       <r>   2.4344  1.0000</r>
       <r>   2.4344  1.0000</r>
       <r>   2.4344  1.0000</r>
       <r>   2.4344  1.0000</r>
       <r>   2.4344  1.0000</r>
       <r>   2.4344  1.0000</r>
       <r>   2.4344  1.0000</r>
       <r>   4.4728  1.0000</r>
       <r>   4.4728  1.0000</r>
       <r>   4.4743  1.0000</r>
       <r>   4.4744  1.0000</r>
       <r>   4.4744  1.0000</r>
       <r>   4.4744  1.0000</r>
       <r>   4.4759  1.0000</r>
       <r>   4.4759  1.0000</r>
       <r>   4.7397  1.0000</r>
       <r>   4.7397  1.0000</r>
       <r>   4.7414  1.0000</r>
       <r>   4.7414  1.0000</r>
       <r>   4.7414  1.0000</r>
       <r>   4.7415  1.0000</r>
       <r>   4.7431  1.0000</r>
       <r>   4.7431  1.0000</r>
       <r>   6.1394  1.0000</r>
       <r>   6.1394  1.0000</r>
       <r>   6.1394  1.0000</r>
       <r>   6.1394  1.0000</r>
       <r>   6.6649  1.0000</r>
       <r>   6.6650  1.0000</r>
       <r>   6.6650  1.0000</r>
       <r>   6.6650  1.0000</r>
       <r>   7.6387  1.0000</r>
       <r>   7.6387  1.0000</r>
       <r>   7.6387  1.0000</r>
       <r>   7.6388  1.0000</r>
       <r>   8.8635  0.0000</r>
       <r>   8.8635  0.0000</r>
       <r>   8.8640  0.0000</r>
       <r>   8.8650  0.0000</r>
       <r>   8.8666  0.0000</r>
       <r>   8.8676  0.0000</r>
       <r>   8.8681  0.0000</r>
       <r>   8.8681  0.0000</r>
       <r>  10.3148  0.0000</r>
       <r>  10.3148  0.0000</r>
       <r>  10.3148  0.0000</r>
       <r>  10.3148  0.0000</r>
       <r>  10.3148  0.0000</r>
       <r>  10.3148  0.0000</r>
       <r>  10.3148  0.0000</r>
       <r>  10.3148  0.0000</r>
       <r>  11.0280  0.0000</r>
       <r>  11.0280  0.0000</r>
       <r>  11.0280  0.0000</r>
       <r>  11.0280  0.0000</r>
       <r>  11.0280  0.0000</r>
       <r>  11.0280  0.0000</r>
       <r>  11.0280  0.0000</r>
       <r>  11.0280  0.0000</r>
      </set>
      <set comment="kpoint 191">
       <r>  -1.9775  1.0000</r>
       <r>  -1.9774  1.0000</r>
       <r>  -1.9774  1.0000</r>
       <r>  -1.9774  1.0000</r>
       <r>  -0.1129  1.0000</r>
       <r>  -0.1129  1.0000</r>
       <r>  -0.1129  1.0000</r>
       <r>  -0.1129  1.0000</r>
       <r>   0.6259  1.0000</r>
       <r>   0.6259  1.0000</r>
       <r>   0.6259  1.0000</r>
       <r>   0.6259  1.0000</r>
       <r>   2.4495  1.0000</r>
       <r>   2.4495  1.0000</r>
       <r>   2.4495  1.0000</r>
       <r>   2.4496  1.0000</r>
       <r>   2.4496  1.0000</r>
       <r>   2.4496  1.0000</r>
       <r>   2.4496  1.0000</r>
       <r>   2.4496  1.0000</r>
       <r>   4.2388  1.0000</r>
       <r>   4.2388  1.0000</r>
       <r>   4.2392  1.0000</r>
       <r>   4.2392  1.0000</r>
       <r>   4.2392  1.0000</r>
       <r>   4.2392  1.0000</r>
       <r>   4.2397  1.0000</r>
       <r>   4.2397  1.0000</r>
       <r>   5.0048  1.0000</r>
       <r>   5.0048  1.0000</r>
       <r>   5.0055  1.0000</r>
       <r>   5.0055  1.0000</r>
       <r>   5.0055  1.0000</r>
       <r>   5.0055  1.0000</r>
       <r>   5.0062  1.0000</r>
       <r>   5.0062  1.0000</r>
       <r>   5.8420  1.0000</r>
       <r>   5.8420  1.0000</r>
       <r>   5.8420  1.0000</r>
       <r>   5.8421  1.0000</r>
       <r>   6.7182  1.0000</r>
       <r>   6.7182  1.0000</r>
       <r>   6.7182  1.0000</r>
       <r>   6.7182  1.0000</r>
       <r>   7.9248  1.0000</r>
       <r>   7.9248  1.0000</r>
       <r>   7.9248  1.0000</r>
       <r>   7.9248  1.0000</r>
       <r>   8.5282  0.0000</r>
       <r>   8.5282  0.0000</r>
       <r>   8.5282  0.0000</r>
       <r>   8.5282  0.0000</r>
       <r>   9.2318  0.0000</r>
       <r>   9.2318  0.0000</r>
       <r>   9.2318  0.0000</r>
       <r>   9.2318  0.0000</r>
       <r>  10.0365  0.0000</r>
       <r>  10.0365  0.0000</r>
       <r>  10.0370  0.0000</r>
       <r>  10.0370  0.0000</r>
       <r>  10.0370  0.0000</r>
       <r>  10.0370  0.0000</r>
       <r>  10.0375  0.0000</r>
       <r>  10.0375  0.0000</r>
       <r>  11.1068  0.0000</r>
       <r>  11.1068  0.0000</r>
       <r>  11.1078  0.0000</r>
       <r>  11.1078  0.0000</r>
       <r>  11.1078  0.0000</r>
       <r>  11.1078  0.0000</r>
       <r>  11.1087  0.0000</r>
       <r>  11.1087  0.0000</r>
      </set>
      <set comment="kpoint 192">
       <r>  -1.9306  1.0000</r>
       <r>  -1.9305  1.0000</r>
       <r>  -1.9305  1.0000</r>
       <r>  -1.9305  1.0000</r>
       <r>  -0.4374  1.0000</r>
       <r>  -0.4374  1.0000</r>
       <r>  -0.4374  1.0000</r>
       <r>  -0.4374  1.0000</r>
       <r>   1.0396  1.0000</r>
       <r>   1.0396  1.0000</r>
       <r>   1.0396  1.0000</r>
       <r>   1.0396  1.0000</r>
       <r>   2.4950  1.0000</r>
       <r>   2.4950  1.0000</r>
       <r>   2.4950  1.0000</r>
       <r>   2.4950  1.0000</r>
       <r>   2.4950  1.0000</r>
       <r>   2.4950  1.0000</r>
       <r>   2.4950  1.0000</r>
       <r>   2.4950  1.0000</r>
       <r>   3.9353  1.0000</r>
       <r>   3.9353  1.0000</r>
       <r>   3.9355  1.0000</r>
       <r>   3.9356  1.0000</r>
       <r>   3.9356  1.0000</r>
       <r>   3.9356  1.0000</r>
       <r>   3.9358  1.0000</r>
       <r>   3.9358  1.0000</r>
       <r>   5.2901  1.0000</r>
       <r>   5.2901  1.0000</r>
       <r>   5.2902  1.0000</r>
       <r>   5.2902  1.0000</r>
       <r>   5.3957  1.0000</r>
       <r>   5.3957  1.0000</r>
       <r>   5.3961  1.0000</r>
       <r>   5.3961  1.0000</r>
       <r>   5.3961  1.0000</r>
       <r>   5.3961  1.0000</r>
       <r>   5.3965  1.0000</r>
       <r>   5.3965  1.0000</r>
       <r>   6.7860  1.0000</r>
       <r>   6.7860  1.0000</r>
       <r>   6.7860  1.0000</r>
       <r>   6.7860  1.0000</r>
       <r>   8.2194  0.0000</r>
       <r>   8.2194  0.0000</r>
       <r>   8.2194  0.0000</r>
       <r>   8.2194  0.0000</r>
       <r>   8.5346  0.0000</r>
       <r>   8.5346  0.0000</r>
       <r>   8.5346  0.0000</r>
       <r>   8.5346  0.0000</r>
       <r>   9.5100  0.0000</r>
       <r>   9.5100  0.0000</r>
       <r>   9.5105  0.0000</r>
       <r>   9.5105  0.0000</r>
       <r>   9.5105  0.0000</r>
       <r>   9.5105  0.0000</r>
       <r>   9.5109  0.0000</r>
       <r>   9.5109  0.0000</r>
       <r>   9.6261  0.0000</r>
       <r>   9.6261  0.0000</r>
       <r>   9.6261  0.0000</r>
       <r>   9.6261  0.0000</r>
       <r>  11.2005  0.0000</r>
       <r>  11.2005  0.0000</r>
       <r>  11.2013  0.0000</r>
       <r>  11.2013  0.0000</r>
       <r>  11.2013  0.0000</r>
       <r>  11.2013  0.0000</r>
       <r>  11.2022  0.0000</r>
       <r>  11.2022  0.0000</r>
      </set>
      <set comment="kpoint 193">
       <r>  -1.8524  1.0000</r>
       <r>  -1.8524  1.0000</r>
       <r>  -1.8524  1.0000</r>
       <r>  -1.8524  1.0000</r>
       <r>  -0.7316  1.0000</r>
       <r>  -0.7316  1.0000</r>
       <r>  -0.7316  1.0000</r>
       <r>  -0.7316  1.0000</r>
       <r>   1.4822  1.0000</r>
       <r>   1.4822  1.0000</r>
       <r>   1.4822  1.0000</r>
       <r>   1.4822  1.0000</r>
       <r>   2.5706  1.0000</r>
       <r>   2.5706  1.0000</r>
       <r>   2.5706  1.0000</r>
       <r>   2.5706  1.0000</r>
       <r>   2.5706  1.0000</r>
       <r>   2.5706  1.0000</r>
       <r>   2.5707  1.0000</r>
       <r>   2.5707  1.0000</r>
       <r>   3.6536  1.0000</r>
       <r>   3.6536  1.0000</r>
       <r>   3.6537  1.0000</r>
       <r>   3.6537  1.0000</r>
       <r>   3.6537  1.0000</r>
       <r>   3.6537  1.0000</r>
       <r>   3.6538  1.0000</r>
       <r>   3.6538  1.0000</r>
       <r>   4.6953  1.0000</r>
       <r>   4.6953  1.0000</r>
       <r>   4.6953  1.0000</r>
       <r>   4.6953  1.0000</r>
       <r>   5.8223  1.0000</r>
       <r>   5.8223  1.0000</r>
       <r>   5.8227  1.0000</r>
       <r>   5.8227  1.0000</r>
       <r>   5.8227  1.0000</r>
       <r>   5.8227  1.0000</r>
       <r>   5.8230  1.0000</r>
       <r>   5.8230  1.0000</r>
       <r>   6.8681  1.0000</r>
       <r>   6.8681  1.0000</r>
       <r>   6.8681  1.0000</r>
       <r>   6.8681  1.0000</r>
       <r>   7.9394  1.0000</r>
       <r>   7.9394  1.0000</r>
       <r>   7.9394  1.0000</r>
       <r>   7.9394  1.0000</r>
       <r>   8.9372  0.0000</r>
       <r>   8.9372  0.0000</r>
       <r>   8.9376  0.0000</r>
       <r>   8.9376  0.0000</r>
       <r>   8.9376  0.0000</r>
       <r>   8.9376  0.0000</r>
       <r>   8.9380  0.0000</r>
       <r>   8.9380  0.0000</r>
       <r>   9.2568  0.0000</r>
       <r>   9.2568  0.0000</r>
       <r>   9.2568  0.0000</r>
       <r>   9.2568  0.0000</r>
       <r>  10.0482  0.0000</r>
       <r>  10.0482  0.0000</r>
       <r>  10.0482  0.0000</r>
       <r>  10.0482  0.0000</r>
       <r>  11.2921  0.0000</r>
       <r>  11.2921  0.0000</r>
       <r>  11.2928  0.0000</r>
       <r>  11.2928  0.0000</r>
       <r>  11.2928  0.0000</r>
       <r>  11.2928  0.0000</r>
       <r>  11.2935  0.0000</r>
       <r>  11.2935  0.0000</r>
      </set>
      <set comment="kpoint 194">
       <r>  -1.7431  1.0000</r>
       <r>  -1.7430  1.0000</r>
       <r>  -1.7430  1.0000</r>
       <r>  -1.7430  1.0000</r>
       <r>  -0.9955  1.0000</r>
       <r>  -0.9955  1.0000</r>
       <r>  -0.9955  1.0000</r>
       <r>  -0.9955  1.0000</r>
       <r>   1.9534  1.0000</r>
       <r>   1.9534  1.0000</r>
       <r>   1.9534  1.0000</r>
       <r>   1.9534  1.0000</r>
       <r>   2.6765  1.0000</r>
       <r>   2.6765  1.0000</r>
       <r>   2.6765  1.0000</r>
       <r>   2.6765  1.0000</r>
       <r>   2.6765  1.0000</r>
       <r>   2.6765  1.0000</r>
       <r>   2.6765  1.0000</r>
       <r>   2.6765  1.0000</r>
       <r>   3.3994  1.0000</r>
       <r>   3.3994  1.0000</r>
       <r>   3.3994  1.0000</r>
       <r>   3.3994  1.0000</r>
       <r>   3.3994  1.0000</r>
       <r>   3.3994  1.0000</r>
       <r>   3.3995  1.0000</r>
       <r>   3.3995  1.0000</r>
       <r>   4.1039  1.0000</r>
       <r>   4.1039  1.0000</r>
       <r>   4.1039  1.0000</r>
       <r>   4.1040  1.0000</r>
       <r>   6.2787  1.0000</r>
       <r>   6.2787  1.0000</r>
       <r>   6.2790  1.0000</r>
       <r>   6.2790  1.0000</r>
       <r>   6.2790  1.0000</r>
       <r>   6.2790  1.0000</r>
       <r>   6.2793  1.0000</r>
       <r>   6.2793  1.0000</r>
       <r>   6.9751  1.0000</r>
       <r>   6.9751  1.0000</r>
       <r>   6.9751  1.0000</r>
       <r>   6.9751  1.0000</r>
       <r>   7.6884  1.0000</r>
       <r>   7.6884  1.0000</r>
       <r>   7.6884  1.0000</r>
       <r>   7.6884  1.0000</r>
       <r>   8.3652  0.0000</r>
       <r>   8.3652  0.0000</r>
       <r>   8.3656  0.0000</r>
       <r>   8.3656  0.0000</r>
       <r>   8.3656  0.0000</r>
       <r>   8.3656  0.0000</r>
       <r>   8.3659  0.0000</r>
       <r>   8.3659  0.0000</r>
       <r>  10.0340  0.0000</r>
       <r>  10.0340  0.0000</r>
       <r>  10.0340  0.0000</r>
       <r>  10.0340  0.0000</r>
       <r>  10.4977  0.0000</r>
       <r>  10.4977  0.0000</r>
       <r>  10.4977  0.0000</r>
       <r>  10.4977  0.0000</r>
       <r>  11.4015  0.0000</r>
       <r>  11.4015  0.0000</r>
       <r>  11.4021  0.0000</r>
       <r>  11.4021  0.0000</r>
       <r>  11.4021  0.0000</r>
       <r>  11.4021  0.0000</r>
       <r>  11.4027  0.0000</r>
       <r>  11.4027  0.0000</r>
      </set>
      <set comment="kpoint 195">
       <r>  -1.6026  1.0000</r>
       <r>  -1.6026  1.0000</r>
       <r>  -1.6026  1.0000</r>
       <r>  -1.6026  1.0000</r>
       <r>  -1.2287  1.0000</r>
       <r>  -1.2287  1.0000</r>
       <r>  -1.2287  1.0000</r>
       <r>  -1.2286  1.0000</r>
       <r>   2.4524  1.0000</r>
       <r>   2.4525  1.0000</r>
       <r>   2.4525  1.0000</r>
       <r>   2.4525  1.0000</r>
       <r>   2.8124  1.0000</r>
       <r>   2.8124  1.0000</r>
       <r>   2.8124  1.0000</r>
       <r>   2.8125  1.0000</r>
       <r>   2.8125  1.0000</r>
       <r>   2.8125  1.0000</r>
       <r>   2.8125  1.0000</r>
       <r>   2.8125  1.0000</r>
       <r>   3.1741  1.0000</r>
       <r>   3.1741  1.0000</r>
       <r>   3.1742  1.0000</r>
       <r>   3.1742  1.0000</r>
       <r>   3.1742  1.0000</r>
       <r>   3.1742  1.0000</r>
       <r>   3.1742  1.0000</r>
       <r>   3.1742  1.0000</r>
       <r>   3.5298  1.0000</r>
       <r>   3.5298  1.0000</r>
       <r>   3.5298  1.0000</r>
       <r>   3.5299  1.0000</r>
       <r>   6.7628  1.0000</r>
       <r>   6.7628  1.0000</r>
       <r>   6.7631  1.0000</r>
       <r>   6.7631  1.0000</r>
       <r>   6.7631  1.0000</r>
       <r>   6.7631  1.0000</r>
       <r>   6.7634  1.0000</r>
       <r>   6.7634  1.0000</r>
       <r>   7.1100  1.0000</r>
       <r>   7.1100  1.0000</r>
       <r>   7.1100  1.0000</r>
       <r>   7.1100  1.0000</r>
       <r>   7.4665  1.0000</r>
       <r>   7.4665  1.0000</r>
       <r>   7.4665  1.0000</r>
       <r>   7.4665  1.0000</r>
       <r>   7.8086  1.0000</r>
       <r>   7.8086  1.0000</r>
       <r>   7.8089  1.0000</r>
       <r>   7.8089  1.0000</r>
       <r>   7.8089  1.0000</r>
       <r>   7.8089  1.0000</r>
       <r>   7.8092  1.0000</r>
       <r>   7.8092  1.0000</r>
       <r>  10.8492  0.0000</r>
       <r>  10.8492  0.0000</r>
       <r>  10.8492  0.0000</r>
       <r>  10.8492  0.0000</r>
       <r>  10.9739  0.0000</r>
       <r>  10.9739  0.0000</r>
       <r>  10.9739  0.0000</r>
       <r>  10.9740  0.0000</r>
       <r>  11.5352  0.0000</r>
       <r>  11.5352  0.0000</r>
       <r>  11.5357  0.0000</r>
       <r>  11.5357  0.0000</r>
       <r>  11.5357  0.0000</r>
       <r>  11.5357  0.0000</r>
       <r>  11.5362  0.0000</r>
       <r>  11.5362  0.0000</r>
      </set>
      <set comment="kpoint 196">
       <r>  -1.4358  1.0000</r>
       <r>  -1.4316  1.0000</r>
       <r>  -1.4316  1.0000</r>
       <r>  -1.4312  1.0000</r>
       <r>  -1.4310  1.0000</r>
       <r>  -1.4306  1.0000</r>
       <r>  -1.4306  1.0000</r>
       <r>  -1.4263  1.0000</r>
       <r>   2.9682  1.0000</r>
       <r>   2.9743  1.0000</r>
       <r>   2.9743  1.0000</r>
       <r>   2.9776  1.0000</r>
       <r>   2.9779  1.0000</r>
       <r>   2.9779  1.0000</r>
       <r>   2.9783  1.0000</r>
       <r>   2.9783  1.0000</r>
       <r>   2.9783  1.0000</r>
       <r>   2.9783  1.0000</r>
       <r>   2.9784  1.0000</r>
       <r>   2.9784  1.0000</r>
       <r>   2.9784  1.0000</r>
       <r>   2.9785  1.0000</r>
       <r>   2.9785  1.0000</r>
       <r>   2.9785  1.0000</r>
       <r>   2.9785  1.0000</r>
       <r>   2.9785  1.0000</r>
       <r>   2.9789  1.0000</r>
       <r>   2.9790  1.0000</r>
       <r>   2.9792  1.0000</r>
       <r>   2.9825  1.0000</r>
       <r>   2.9825  1.0000</r>
       <r>   2.9887  1.0000</r>
       <r>   7.2677  1.0000</r>
       <r>   7.2677  1.0000</r>
       <r>   7.2697  1.0000</r>
       <r>   7.2715  1.0000</r>
       <r>   7.2730  1.0000</r>
       <r>   7.2734  1.0000</r>
       <r>   7.2735  1.0000</r>
       <r>   7.2735  1.0000</r>
       <r>   7.2737  1.0000</r>
       <r>   7.2737  1.0000</r>
       <r>   7.2737  1.0000</r>
       <r>   7.2737  1.0000</r>
       <r>   7.2738  1.0000</r>
       <r>   7.2738  1.0000</r>
       <r>   7.2738  1.0000</r>
       <r>   7.2738  1.0000</r>
       <r>   7.2740  1.0000</r>
       <r>   7.2740  1.0000</r>
       <r>   7.2741  1.0000</r>
       <r>   7.2745  1.0000</r>
       <r>   7.2760  1.0000</r>
       <r>   7.2778  1.0000</r>
       <r>   7.2798  1.0000</r>
       <r>   7.2798  1.0000</r>
       <r>  11.4744  0.0000</r>
       <r>  11.4746  0.0000</r>
       <r>  11.4746  0.0000</r>
       <r>  11.4751  0.0000</r>
       <r>  11.4767  0.0000</r>
       <r>  11.4772  0.0000</r>
       <r>  11.4772  0.0000</r>
       <r>  11.4775  0.0000</r>
       <r>  11.6925  0.0000</r>
       <r>  11.6932  0.0000</r>
       <r>  11.6940  0.0000</r>
       <r>  11.6947  0.0000</r>
       <r>  11.6954  0.0000</r>
       <r>  11.6958  0.0000</r>
       <r>  11.6965  0.0000</r>
       <r>  11.6968  0.0000</r>
      </set>
     </set>
    </set>
   </array>
  </eigenvalues>
 </calculation>
 <structure name="finalpos" >
  <crystal>
   <varray name="basis" >
    <v>       8.07461274      0.00000000      0.00000000</v>
    <v>       0.00000000      8.07461274      0.00000000</v>
    <v>       0.00000000      0.00000000      8.07461274</v>
   </varray>
   <i name="volume">    526.45967079</i>
   <varray name="rec_basis" >
    <v>       0.12384495      0.00000000      0.00000000</v>
    <v>       0.00000000      0.12384495      0.00000000</v>
    <v>       0.00000000      0.00000000      0.12384495</v>
   </varray>
  </crystal>
  <varray name="positions" >
   <v>       0.25123845      0.25000000      0.00000000</v>
   <v>       0.75000000      0.25000000      0.00000000</v>
   <v>       0.25000000      0.75000000      0.00000000</v>
   <v>       0.75000000      0.75000000      0.00000000</v>
   <v>       0.25000000      0.25000000      0.50000000</v>
   <v>       0.75000000      0.25000000      0.50000000</v>
   <v>       0.25000000      0.75000000      0.50000000</v>
   <v>       0.75000000      0.75000000      0.50000000</v>
   <v>       0.25000000      0.00000000      0.25000000</v>
   <v>       0.75000000      0.00000000      0.25000000</v>
   <v>       0.25000000      0.50000000      0.25000000</v>
   <v>       0.75000000      0.50000000      0.25000000</v>
   <v>       0.25000000      0.00000000      0.75000000</v>
   <v>       0.75000000      0.00000000      0.75000000</v>
   <v>       0.25000000      0.50000000      0.75000000</v>
   <v>       0.75000000      0.50000000      0.75000000</v>
   <v>       0.00000000      0.25000000      0.25000000</v>
   <v>       0.50000000      0.25000000      0.25000000</v>
   <v>       0.00000000      0.75000000      0.25000000</v>
   <v>       0.50000000      0.75000000      0.25000000</v>
   <v>       0.00000000      0.25000000      0.75000000</v>
   <v>       0.50000000      0.25000000      0.75000000</v>
   <v>       0.00000000      0.75000000      0.75000000</v>
   <v>       0.50000000      0.75000000      0.75000000</v>
   <v>       0.00000000      0.00000000      0.00000000</v>
   <v>       0.50000000      0.00000000      0.00000000</v>
   <v>       0.00000000      0.50000000      0.00000000</v>
   <v>       0.50000000      0.50000000      0.00000000</v>
   <v>       0.00000000      0.00000000      0.50000000</v>
   <v>       0.50000000      0.00000000      0.50000000</v>
   <v>       0.00000000      0.50000000      0.50000000</v>
   <v>       0.50000000      0.50000000      0.50000000</v>
  </varray>
 </structure>
</modeling>
