  32  32   0   0
  0.1750391E+02  0.8243185E-09  0.8243185E-09  0.8243185E-09  0.5000000E-15
  1.000000000000000E-004
  CAR 
 unknown system                          
     13.16555642     -5.11900772  301      3.29522216      1.00000000
     -5.119  0.0000E+00  0.0000E+00
     -5.058  0.0000E+00  0.0000E+00
     -4.997  0.0000E+00  0.0000E+00
     -4.936  0.0000E+00  0.0000E+00
     -4.875  0.0000E+00  0.0000E+00
     -4.814  0.0000E+00  0.0000E+00
     -4.753  0.0000E+00  0.0000E+00
     -4.692  0.0000E+00  0.0000E+00
     -4.631  0.0000E+00  0.0000E+00
     -4.570  0.0000E+00  0.0000E+00
     -4.510  0.0000E+00  0.0000E+00
     -4.449  0.0000E+00  0.0000E+00
     -4.388  0.0000E+00  0.0000E+00
     -4.327  0.3924E-09  0.2392E-10
     -4.266  0.1083E+00  0.6600E-02
     -4.205  0.6058E+00  0.4352E-01
     -4.144  0.9773E+00  0.1031E+00
     -4.083  0.1558E+01  0.1981E+00
     -4.022  0.1517E+01  0.2905E+00
     -3.961  0.1811E+01  0.4010E+00
     -3.900  0.2115E+01  0.5299E+00
     -3.839  0.1748E+01  0.6364E+00
     -3.778  0.2804E+01  0.8073E+00
     -3.717  0.2049E+01  0.9322E+00
     -3.656  0.2605E+01  0.1091E+01
     -3.595  0.3101E+01  0.1280E+01
     -3.534  0.3493E+01  0.1493E+01
     -3.473  0.2786E+01  0.1663E+01
     -3.412  0.3789E+01  0.1894E+01
     -3.351  0.3992E+01  0.2137E+01
     -3.291  0.3584E+01  0.2355E+01
     -3.230  0.4497E+01  0.2630E+01
     -3.169  0.4759E+01  0.2920E+01
     -3.108  0.5506E+01  0.3255E+01
     -3.047  0.5091E+01  0.3565E+01
     -2.986  0.6520E+01  0.3963E+01
     -2.925  0.1896E+02  0.5119E+01
     -2.864  0.3137E+02  0.7030E+01
     -2.803  0.5426E+02  0.1034E+02
     -2.742  0.6453E+02  0.1427E+02
     -2.681  0.7290E+02  0.1871E+02
     -2.620  0.8118E+02  0.2366E+02
     -2.559  0.9141E+02  0.2924E+02
     -2.498  0.1192E+03  0.3650E+02
     -2.437  0.1347E+03  0.4471E+02
     -2.376  0.1156E+03  0.5176E+02
     -2.315  0.1045E+03  0.5813E+02
     -2.254  0.9602E+02  0.6398E+02
     -2.193  0.8263E+02  0.6902E+02
     -2.133  0.8908E+02  0.7445E+02
     -2.072  0.6510E+02  0.7842E+02
     -2.011  0.6870E+02  0.8260E+02
     -1.950  0.7737E+02  0.8732E+02
     -1.889  0.7147E+02  0.9168E+02
     -1.828  0.8552E+02  0.9689E+02
     -1.767  0.8594E+02  0.1021E+03
     -1.706  0.1002E+03  0.1082E+03
     -1.645  0.8437E+02  0.1134E+03
     -1.584  0.8462E+02  0.1185E+03
     -1.523  0.8560E+02  0.1238E+03
     -1.462  0.9022E+02  0.1293E+03
     -1.401  0.8345E+02  0.1343E+03
     -1.340  0.1085E+03  0.1410E+03
     -1.279  0.1297E+03  0.1489E+03
     -1.218  0.1449E+03  0.1577E+03
     -1.157  0.1704E+03  0.1681E+03
     -1.096  0.1185E+03  0.1753E+03
     -1.035  0.1102E+03  0.1820E+03
     -0.975  0.8180E+02  0.1870E+03
     -0.914  0.7445E+02  0.1915E+03
     -0.853  0.9737E+02  0.1975E+03
     -0.792  0.8200E+02  0.2025E+03
     -0.731  0.8829E+02  0.2079E+03
     -0.670  0.9240E+02  0.2135E+03
     -0.609  0.1081E+03  0.2201E+03
     -0.548  0.1051E+03  0.2265E+03
     -0.487  0.1024E+03  0.2327E+03
     -0.426  0.1147E+03  0.2397E+03
     -0.365  0.1079E+03  0.2463E+03
     -0.304  0.9258E+02  0.2519E+03
     -0.243  0.9041E+02  0.2574E+03
     -0.182  0.9230E+02  0.2631E+03
     -0.121  0.7680E+02  0.2678E+03
     -0.060  0.9234E+02  0.2734E+03
      0.001  0.8578E+02  0.2786E+03
      0.062  0.9253E+02  0.2843E+03
      0.123  0.8976E+02  0.2897E+03
      0.184  0.1215E+03  0.2971E+03
      0.244  0.1418E+03  0.3058E+03
      0.305  0.1526E+03  0.3151E+03
      0.366  0.1238E+03  0.3226E+03
      0.427  0.7013E+02  0.3269E+03
      0.488  0.5425E+02  0.3302E+03
      0.549  0.1403E+02  0.3311E+03
      0.610  0.9335E+01  0.3316E+03
      0.671  0.5763E+01  0.3320E+03
      0.732  0.5473E+01  0.3323E+03
      0.793  0.1012E+02  0.3329E+03
      0.854  0.7891E+01  0.3334E+03
      0.915  0.4057E+01  0.3337E+03
      0.976  0.7051E+01  0.3341E+03
      1.037  0.6362E+01  0.3345E+03
      1.098  0.1016E+02  0.3351E+03
      1.159  0.6715E+01  0.3355E+03
      1.220  0.3634E+01  0.3357E+03
      1.281  0.6600E+01  0.3361E+03
      1.342  0.9278E+01  0.3367E+03
      1.402  0.1010E+02  0.3373E+03
      1.463  0.5356E+01  0.3376E+03
      1.524  0.5435E+01  0.3380E+03
      1.585  0.4326E+01  0.3382E+03
      1.646  0.9590E+01  0.3388E+03
      1.707  0.9187E+01  0.3394E+03
      1.768  0.8818E+01  0.3399E+03
      1.829  0.4493E+01  0.3402E+03
      1.890  0.5833E+01  0.3405E+03
      1.951  0.5444E+01  0.3409E+03
      2.012  0.1115E+02  0.3416E+03
      2.073  0.7864E+01  0.3420E+03
      2.134  0.7600E+01  0.3425E+03
      2.195  0.6109E+01  0.3429E+03
      2.256  0.6474E+01  0.3433E+03
      2.317  0.4643E+01  0.3435E+03
      2.378  0.1043E+02  0.3442E+03
      2.439  0.9028E+01  0.3447E+03
      2.500  0.1022E+02  0.3454E+03
      2.561  0.4127E+01  0.3456E+03
      2.621  0.8978E+01  0.3462E+03
      2.682  0.5385E+01  0.3465E+03
      2.743  0.8569E+01  0.3470E+03
      2.804  0.9626E+01  0.3476E+03
      2.865  0.8789E+01  0.3481E+03
      2.926  0.7948E+01  0.3486E+03
      2.987  0.9378E+01  0.3492E+03
      3.048  0.7033E+01  0.3496E+03
      3.109  0.5890E+01  0.3500E+03
      3.170  0.1007E+02  0.3506E+03
      3.231  0.1067E+02  0.3512E+03
      3.292  0.1177E+02  0.3519E+03
      3.353  0.6896E+01  0.3524E+03
      3.414  0.7703E+01  0.3528E+03
      3.475  0.7440E+01  0.3533E+03
      3.536  0.6459E+01  0.3537E+03
      3.597  0.9241E+01  0.3543E+03
      3.658  0.1228E+02  0.3550E+03
      3.719  0.1138E+02  0.3557E+03
      3.779  0.4808E+01  0.3560E+03
      3.840  0.8197E+01  0.3565E+03
      3.901  0.9239E+01  0.3570E+03
      3.962  0.4562E+01  0.3573E+03
      4.023  0.1001E+02  0.3579E+03
      4.084  0.1112E+02  0.3586E+03
      4.145  0.8656E+01  0.3591E+03
      4.206  0.1333E+02  0.3600E+03
      4.267  0.2165E+01  0.3601E+03
      4.328  0.7825E+01  0.3606E+03
      4.389  0.9241E+01  0.3611E+03
      4.450  0.5859E+01  0.3615E+03
      4.511  0.1157E+02  0.3622E+03
      4.572  0.9364E+01  0.3628E+03
      4.633  0.8404E+01  0.3633E+03
      4.694  0.1076E+02  0.3639E+03
      4.755  0.5105E+01  0.3642E+03
      4.816  0.8104E+01  0.3647E+03
      4.877  0.3931E+01  0.3650E+03
      4.938  0.1345E+02  0.3658E+03
      4.998  0.8215E+01  0.3663E+03
      5.059  0.9938E+01  0.3669E+03
      5.120  0.7837E+01  0.3674E+03
      5.181  0.8057E+01  0.3679E+03
      5.242  0.8070E+01  0.3684E+03
      5.303  0.8790E+01  0.3689E+03
      5.364  0.3683E+01  0.3691E+03
      5.425  0.1081E+02  0.3698E+03
      5.486  0.8410E+01  0.3703E+03
      5.547  0.8617E+01  0.3708E+03
      5.608  0.9153E+01  0.3714E+03
      5.669  0.5381E+01  0.3717E+03
      5.730  0.7613E+01  0.3722E+03
      5.791  0.5639E+01  0.3725E+03
      5.852  0.8405E+01  0.3730E+03
      5.913  0.7290E+01  0.3735E+03
      5.974  0.8480E+01  0.3740E+03
      6.035  0.6226E+01  0.3744E+03
      6.096  0.6304E+01  0.3747E+03
      6.156  0.6391E+01  0.3751E+03
      6.217  0.8206E+01  0.3756E+03
      6.278  0.3854E+01  0.3759E+03
      6.339  0.5811E+01  0.3762E+03
      6.400  0.7973E+01  0.3767E+03
      6.461  0.6226E+01  0.3771E+03
      6.522  0.4139E+01  0.3773E+03
      6.583  0.8657E+01  0.3779E+03
      6.644  0.3347E+01  0.3781E+03
      6.705  0.4105E+01  0.3783E+03
      6.766  0.8496E+01  0.3788E+03
      6.827  0.6946E+01  0.3793E+03
      6.888  0.9275E+01  0.3798E+03
      6.949  0.1071E+02  0.3805E+03
      7.010  0.1317E+02  0.3813E+03
      7.071  0.1085E+02  0.3820E+03
      7.132  0.9311E+01  0.3825E+03
      7.193  0.1299E+02  0.3833E+03
      7.254  0.8075E+01  0.3838E+03
      7.314  0.1248E+02  0.3846E+03
      7.375  0.1150E+02  0.3853E+03
      7.436  0.1027E+02  0.3859E+03
      7.497  0.1189E+02  0.3866E+03
      7.558  0.8259E+01  0.3871E+03
      7.619  0.1101E+02  0.3878E+03
      7.680  0.1279E+02  0.3886E+03
      7.741  0.1044E+02  0.3892E+03
      7.802  0.8950E+01  0.3898E+03
      7.863  0.8856E+01  0.3903E+03
      7.924  0.1103E+02  0.3910E+03
      7.985  0.1049E+02  0.3916E+03
      8.046  0.1263E+02  0.3924E+03
      8.107  0.8130E+01  0.3929E+03
      8.168  0.9512E+01  0.3934E+03
      8.229  0.1106E+02  0.3941E+03
      8.290  0.9131E+01  0.3947E+03
      8.351  0.6842E+01  0.3951E+03
      8.412  0.1191E+02  0.3958E+03
      8.473  0.9982E+01  0.3964E+03
      8.533  0.6338E+01  0.3968E+03
      8.594  0.1237E+02  0.3976E+03
      8.655  0.1005E+02  0.3982E+03
      8.716  0.6615E+01  0.3986E+03
      8.777  0.1019E+02  0.3992E+03
      8.838  0.8061E+01  0.3997E+03
      8.899  0.1214E+02  0.4004E+03
      8.960  0.7102E+01  0.4009E+03
      9.021  0.7510E+01  0.4013E+03
      9.082  0.1023E+02  0.4020E+03
      9.143  0.8514E+01  0.4025E+03
      9.204  0.7863E+01  0.4030E+03
      9.265  0.1040E+02  0.4036E+03
      9.326  0.9701E+01  0.4042E+03
      9.387  0.7613E+01  0.4046E+03
      9.448  0.8145E+01  0.4051E+03
      9.509  0.8969E+01  0.4057E+03
      9.570  0.7802E+01  0.4062E+03
      9.631  0.7487E+01  0.4066E+03
      9.691  0.9212E+01  0.4072E+03
      9.752  0.1117E+02  0.4079E+03
      9.813  0.6753E+01  0.4083E+03
      9.874  0.1135E+02  0.4090E+03
      9.935  0.1414E+02  0.4098E+03
      9.996  0.1183E+02  0.4105E+03
     10.057  0.1215E+02  0.4113E+03
     10.118  0.1385E+02  0.4121E+03
     10.179  0.1291E+02  0.4129E+03
     10.240  0.1030E+02  0.4135E+03
     10.301  0.9764E+01  0.4141E+03
     10.362  0.1197E+02  0.4149E+03
     10.423  0.1133E+02  0.4156E+03
     10.484  0.1667E+02  0.4166E+03
     10.545  0.1587E+02  0.4175E+03
     10.606  0.1922E+02  0.4187E+03
     10.667  0.1308E+02  0.4195E+03
     10.728  0.1053E+02  0.4202E+03
     10.789  0.1522E+02  0.4211E+03
     10.850  0.1003E+02  0.4217E+03
     10.910  0.1076E+02  0.4223E+03
     10.971  0.9495E+01  0.4229E+03
     11.032  0.1584E+02  0.4239E+03
     11.093  0.1957E+02  0.4251E+03
     11.154  0.1744E+02  0.4261E+03
     11.215  0.1176E+02  0.4269E+03
     11.276  0.1093E+02  0.4275E+03
     11.337  0.8730E+01  0.4281E+03
     11.398  0.1015E+02  0.4287E+03
     11.459  0.1014E+02  0.4293E+03
     11.520  0.7777E+01  0.4298E+03
     11.581  0.7188E+01  0.4302E+03
     11.642  0.9687E+01  0.4308E+03
     11.703  0.5250E+01  0.4311E+03
     11.764  0.3755E+01  0.4314E+03
     11.825  0.1441E+01  0.4314E+03
     11.886  0.3695E+01  0.4317E+03
     11.947  0.2616E+01  0.4318E+03
     12.008  0.1220E+01  0.4319E+03
     12.068  0.4411E+00  0.4319E+03
     12.129  0.4382E+00  0.4320E+03
     12.190  0.2566E+00  0.4320E+03
     12.251  0.6484E-01  0.4320E+03
     12.312  0.1632E+00  0.4320E+03
     12.373  0.2926E+00  0.4320E+03
     12.434  0.0000E+00  0.4320E+03
     12.495  0.0000E+00  0.4320E+03
     12.556  0.0000E+00  0.4320E+03
     12.617  0.0000E+00  0.4320E+03
     12.678  0.0000E+00  0.4320E+03
     12.739  0.0000E+00  0.4320E+03
     12.800  0.0000E+00  0.4320E+03
     12.861  0.0000E+00  0.4320E+03
     12.922  0.0000E+00  0.4320E+03
     12.983  0.0000E+00  0.4320E+03
     13.044  0.0000E+00  0.4320E+03
     13.105  0.0000E+00  0.4320E+03
     13.166  0.0000E+00  0.4320E+03
