   32   32    1    1
  0.1750391E+02  0.8243185E-09  0.8243185E-09  0.8243185E-09  0.5000000E-15
  1.000000000000000E-004
  CAR 
 unknown system                          
  352  196  216
 
  0.0000000E+00  0.0000000E+00  0.0000000E+00  0.5787037E-03
   1       -4.2879
   2       -3.0095
   3       -3.0095
   4       -3.0095
   5       -2.9672
   6       -2.9672
   7       -2.9672
   8       -2.9672
   9       -2.8810
  10       -2.8810
  11       -2.8810
  12       -2.5540
  13       -2.5521
  14       -2.5521
  15       -2.5521
  16       -2.5521
  17       -2.5503
  18       -2.2884
  19       -2.2867
  20       -2.2867
  21       -2.2867
  22       -2.2867
  23       -2.2850
  24       -2.2061
  25       -2.2044
  26       -2.2044
  27       -2.2044
  28       -2.2044
  29       -2.2027
  30       -1.9689
  31       -1.9689
  32       -1.9685
  33       -1.9678
  34       -1.9674
  35       -1.9674
  36       -1.9674
  37       -1.9674
  38       -1.9671
  39       -1.9663
  40       -1.9659
  41       -1.9659
  42       -1.7613
  43       -1.7592
  44       -1.7592
  45       -1.7582
  46       -1.7582
  47       -1.7582
  48       -1.7582
  49       -1.7582
  50       -1.7582
  51       -1.7573
  52       -1.7573
  53       -1.7552
  54       -1.7036
  55       -1.7036
  56       -1.7018
  57       -1.7018
  58       -1.7018
  59       -1.7018
  60       -1.7017
  61       -1.7017
  62       -1.7017
  63       -1.7016
  64       -1.6998
  65       -1.6998
  66       -1.4690
  67       -1.4690
  68       -1.4690
  69       -1.4690
  70       -1.4690
  71       -1.4690
  72       -1.4690
  73       -1.4690
  74       -1.4492
  75       -1.4492
  76       -1.4492
  77       -1.3674
  78       -1.3652
  79       -1.3649
  80       -1.3649
  81       -1.3647
  82       -1.3647
  83       -1.3647
  84       -1.3647
  85       -1.3646
  86       -1.3646
  87       -1.3643
  88       -1.3620
  89       -0.8202
  90       -0.8196
  91       -0.8187
  92       -0.8187
  93       -0.8182
  94       -0.8182
  95       -0.8182
  96       -0.8182
  97       -0.8178
  98       -0.8178
  99       -0.8168
 100       -0.8163
 101       -0.6136
 102       -0.6136
 103       -0.6116
 104       -0.6116
 105       -0.6114
 106       -0.6114
 107       -0.6114
 108       -0.6114
 109       -0.6112
 110       -0.6112
 111       -0.6093
 112       -0.6093
 113       -0.4607
 114       -0.4605
 115       -0.4502
 116       -0.4495
 117       -0.4494
 118       -0.4494
 119       -0.4480
 120       -0.4477
 121       -0.4477
 122       -0.4470
 123       -0.4466
 124       -0.4466
 125       -0.4463
 126       -0.4462
 127       -0.4462
 128       -0.4462
 129       -0.4462
 130       -0.4459
 131       -0.4455
 132       -0.4455
 133       -0.4454
 134       -0.4451
 135       -0.4439
 136       -0.4430
 137       -0.4430
 138       -0.4428
 139       -0.1060
 140       -0.1050
 141       -0.1050
 142       -0.1050
 143       -0.1050
 144       -0.1041
 145        0.2684
 146        0.2684
 147        0.2684
 148        0.2990
 149        0.2990
 150        0.2990
 151        0.2990
 152        0.2990
 153        0.2990
 154        0.2990
 155        0.2990
 156        0.4966
 157        0.4969
 158        0.4969
 159        0.4969
 160        0.4969
 161        0.4969
 162        0.4978
 163        0.4979
 164        0.4979
 165        0.4979
 166        0.4979
 167        0.4982
 168        2.7124
 169        2.7130
 170        2.7130
 171        2.7141
 172        2.7144
 173        2.7144
 174        2.7144
 175        2.7144
 176        2.7147
 177        2.7158
 178        2.7158
 179        2.7164
 180        2.9556
 181        2.9556
 182        2.9556
 183        2.9556
 184        4.9305
 185        4.9305
 186        4.9306
 187        6.7578
 188        6.7578
 189        6.7578
 190        6.7578
 191        9.1539
 192        9.1539
 193        9.1565
 194        9.1565
 195        9.1569
 196        9.1569
 197        9.1569
 198        9.1569
 199        9.1573
 200        9.1573
 201        9.1599
 202        9.1599
 203        9.8384
 204        9.8384
 205        9.8384
 206       10.2074
 207       10.2074
 208       10.2074
 209       10.2074
 210       10.2074
 211       10.2075
 212       11.3262
 213       11.3274
 214       11.3274
 215       11.3274
 216       11.3289
 
  0.8333333E-01  0.0000000E+00  0.0000000E+00  0.1157407E-02
   1       -4.2700
   2       -3.0022
   3       -3.0000
   4       -3.0000
   5       -2.9585
   6       -2.9585
   7       -2.9585
   8       -2.9584
   9       -2.8755
  10       -2.8726
  11       -2.8726
  12       -2.6550
  13       -2.5404
  14       -2.5403
  15       -2.5403
  16       -2.5403
  17       -2.5128
  18       -2.3041
  19       -2.3040
  20       -2.2967
  21       -2.2795
  22       -2.2795
  23       -2.2795
  24       -2.2794
  25       -2.1997
  26       -2.1997
  27       -2.1997
  28       -2.1996
  29       -2.1107
  30       -2.0364
  31       -2.0364
  32       -2.0364
  33       -2.0364
  34       -1.9843
  35       -1.9843
  36       -1.9843
  37       -1.9842
  38       -1.9493
  39       -1.9493
  40       -1.9493
  41       -1.9493
  42       -1.8851
  43       -1.8851
  44       -1.7968
  45       -1.7967
  46       -1.7967
  47       -1.7967
  48       -1.7283
  49       -1.7279
  50       -1.7279
  51       -1.7279
  52       -1.7203
  53       -1.7202
  54       -1.7202
  55       -1.7199
  56       -1.7049
  57       -1.7049
  58       -1.7049
  59       -1.7049
  60       -1.7009
  61       -1.7009
  62       -1.7009
  63       -1.7007
  64       -1.5055
  65       -1.5055
  66       -1.4720
  67       -1.4720
  68       -1.4720
  69       -1.4720
  70       -1.4625
  71       -1.4625
  72       -1.4625
  73       -1.4625
  74       -1.4560
  75       -1.4428
  76       -1.4428
  77       -1.4078
  78       -1.4078
  79       -1.4078
  80       -1.4078
  81       -1.3724
  82       -1.3723
  83       -1.3723
  84       -1.3723
  85       -1.3201
  86       -1.3201
  87       -1.3201
  88       -1.3200
  89       -0.8488
  90       -0.8487
  91       -0.8487
  92       -0.8487
  93       -0.8107
  94       -0.8106
  95       -0.8106
  96       -0.8106
  97       -0.7779
  98       -0.7779
  99       -0.7779
 100       -0.7778
 101       -0.7327
 102       -0.7327
 103       -0.7163
 104       -0.7163
 105       -0.7163
 106       -0.7163
 107       -0.6448
 108       -0.6119
 109       -0.6119
 110       -0.6119
 111       -0.6118
 112       -0.5034
 113       -0.5034
 114       -0.5032
 115       -0.5032
 116       -0.4856
 117       -0.4856
 118       -0.4674
 119       -0.4576
 120       -0.4453
 121       -0.4451
 122       -0.4451
 123       -0.4451
 124       -0.4278
 125       -0.4277
 126       -0.4142
 127       -0.4141
 128       -0.4141
 129       -0.4140
 130       -0.3750
 131       -0.3750
 132       -0.3749
 133       -0.3749
 134       -0.3504
 135       -0.3504
 136       -0.3504
 137       -0.3503
 138       -0.1547
 139       -0.1524
 140       -0.0932
 141       -0.0932
 142       -0.0932
 143       -0.0931
 144       -0.0574
 145        0.2592
 146        0.2592
 147        0.2651
 148        0.2735
 149        0.2735
 150        0.2735
 151        0.2735
 152        0.2909
 153        0.2909
 154        0.2909
 155        0.2909
 156        0.4635
 157        0.4635
 158        0.4855
 159        0.4855
 160        0.4855
 161        0.4855
 162        0.4856
 163        0.4856
 164        0.4966
 165        0.4969
 166        0.4978
 167        0.4982
 168        2.3387
 169        2.3387
 170        2.3387
 171        2.3387
 172        2.7168
 173        2.7168
 174        2.7169
 175        2.7169
 176        2.9480
 177        2.9480
 178        2.9480
 179        2.9480
 180        3.1218
 181        3.1218
 182        3.1218
 183        3.1218
 184        4.8004
 185        4.9787
 186        4.9787
 187        6.8163
 188        6.8163
 189        6.8163
 190        6.8163
 191        8.6514
 192        8.6514
 193        8.8319
 194        8.8319
 195        8.8319
 196        8.8319
 197        9.1851
 198        9.1851
 199        9.1851
 200        9.1851
 201        9.6694
 202        9.6694
 203        9.8412
 204        9.8412
 205        9.9965
 206       10.1916
 207       10.1916
 208       10.3934
 209       10.3934
 210       10.3934
 211       10.3934
 212       11.3705
 213       11.3706
 214       11.5037
 215       11.5038
 216       11.5038
 
  0.1666667E+00  0.0000000E+00  0.0000000E+00  0.1157407E-02
   1       -4.2166
   2       -2.9805
   3       -2.9720
   4       -2.9719
   5       -2.9323
   6       -2.9323
   7       -2.9323
   8       -2.9323
   9       -2.8590
  10       -2.8474
  11       -2.8474
  12       -2.8185
  13       -2.5242
  14       -2.5052
  15       -2.5052
  16       -2.5052
  17       -2.5052
  18       -2.3862
  19       -2.3530
  20       -2.3530
  21       -2.2584
  22       -2.2584
  23       -2.2584
  24       -2.2584
  25       -2.1857
  26       -2.1856
  27       -2.1856
  28       -2.1855
  29       -2.1650
  30       -2.1650
  31       -2.1650
  32       -2.1650
  33       -2.0545
  34       -2.0545
  35       -2.0173
  36       -1.9980
  37       -1.9980
  38       -1.9980
  39       -1.9980
  40       -1.9370
  41       -1.9370
  42       -1.9370
  43       -1.9370
  44       -1.8421
  45       -1.8421
  46       -1.8421
  47       -1.8420
  48       -1.7137
  49       -1.7137
  50       -1.7137
  51       -1.7136
  52       -1.7065
  53       -1.7060
  54       -1.7060
  55       -1.7060
  56       -1.6986
  57       -1.6986
  58       -1.6986
  59       -1.6981
  60       -1.6725
  61       -1.6725
  62       -1.6725
  63       -1.6724
  64       -1.4821
  65       -1.4817
  66       -1.4817
  67       -1.4816
  68       -1.4808
  69       -1.4807
  70       -1.4807
  71       -1.4803
  72       -1.4764
  73       -1.4432
  74       -1.4432
  75       -1.4432
  76       -1.4431
  77       -1.4237
  78       -1.4237
  79       -1.4197
  80       -1.4197
  81       -1.4197
  82       -1.4197
  83       -1.2977
  84       -1.2977
  85       -1.1989
  86       -1.1989
  87       -1.1989
  88       -1.1989
  89       -0.9192
  90       -0.9192
  91       -0.9192
  92       -0.9192
  93       -0.8682
  94       -0.8682
  95       -0.8682
  96       -0.8682
  97       -0.8480
  98       -0.8480
  99       -0.7565
 100       -0.7564
 101       -0.7564
 102       -0.7564
 103       -0.7487
 104       -0.7128
 105       -0.7128
 106       -0.7128
 107       -0.7127
 108       -0.6132
 109       -0.6132
 110       -0.6132
 111       -0.6132
 112       -0.5464
 113       -0.5464
 114       -0.5463
 115       -0.5463
 116       -0.4878
 117       -0.4487
 118       -0.4457
 119       -0.4456
 120       -0.4456
 121       -0.4456
 122       -0.3789
 123       -0.3788
 124       -0.3575
 125       -0.3575
 126       -0.3390
 127       -0.3390
 128       -0.3390
 129       -0.3389
 130       -0.2905
 131       -0.2905
 132       -0.2905
 133       -0.2905
 134       -0.2603
 135       -0.2603
 136       -0.2603
 137       -0.2603
 138       -0.1987
 139       -0.0172
 140       -0.0172
 141       -0.0172
 142       -0.0172
 143       -0.0102
 144        0.1990
 145        0.1991
 146        0.1991
 147        0.1991
 148        0.2228
 149        0.2320
 150        0.2321
 151        0.2553
 152        0.2668
 153        0.2668
 154        0.2668
 155        0.2668
 156        0.3678
 157        0.3678
 158        0.4492
 159        0.4492
 160        0.4492
 161        0.4492
 162        0.4523
 163        0.4523
 164        0.4966
 165        0.4969
 166        0.4978
 167        0.4981
 168        1.9920
 169        1.9920
 170        1.9920
 171        1.9920
 172        2.7241
 173        2.7242
 174        2.7242
 175        2.7242
 176        2.9270
 177        2.9270
 178        2.9270
 179        2.9271
 180        3.5628
 181        3.5628
 182        3.5628
 183        3.5628
 184        4.4522
 185        5.1187
 186        5.1187
 187        6.9877
 188        6.9877
 189        6.9877
 190        6.9877
 191        8.1560
 192        8.1560
 193        8.2251
 194        8.2251
 195        8.2251
 196        8.2251
 197        9.2688
 198        9.2688
 199        9.2688
 200        9.2688
 201        9.8497
 202        9.8497
 203       10.1507
 204       10.1507
 205       10.1856
 206       10.1856
 207       10.4287
 208       10.6016
 209       10.6016
 210       10.6016
 211       10.6016
 212       11.0343
 213       11.0343
 214       11.0343
 215       11.0343
 216       11.5030
 
  0.2500000E+00  0.0000000E+00  0.0000000E+00  0.1157407E-02
   1       -4.1282
   2       -3.0235
   3       -2.9452
   4       -2.9261
   5       -2.9261
   6       -2.8889
   7       -2.8889
   8       -2.8889
   9       -2.8889
  10       -2.8318
  11       -2.8055
  12       -2.8055
  13       -2.5684
  14       -2.4715
  15       -2.4484
  16       -2.4483
  17       -2.4482
  18       -2.4482
  19       -2.4261
  20       -2.4260
  21       -2.3014
  22       -2.3014
  23       -2.3014
  24       -2.3014
  25       -2.2247
  26       -2.2247
  27       -2.2247
  28       -2.2247
  29       -2.2092
  30       -2.2092
  31       -2.1625
  32       -2.1625
  33       -2.1625
  34       -2.1625
  35       -2.0100
  36       -2.0100
  37       -2.0100
  38       -2.0100
  39       -1.9460
  40       -1.9460
  41       -1.9460
  42       -1.9460
  43       -1.9258
  44       -1.8923
  45       -1.8923
  46       -1.8923
  47       -1.8923
  48       -1.7256
  49       -1.7256
  50       -1.7256
  51       -1.7255
  52       -1.6960
  53       -1.6951
  54       -1.6951
  55       -1.6951
  56       -1.6919
  57       -1.6919
  58       -1.6919
  59       -1.6910
  60       -1.6386
  61       -1.6386
  62       -1.6386
  63       -1.6386
  64       -1.5644
  65       -1.5644
  66       -1.5644
  67       -1.5643
  68       -1.5099
  69       -1.4949
  70       -1.4949
  71       -1.4949
  72       -1.4949
  73       -1.4674
  74       -1.4674
  75       -1.4674
  76       -1.4674
  77       -1.4112
  78       -1.4112
  79       -1.4112
  80       -1.4112
  81       -1.3919
  82       -1.3919
  83       -1.0800
  84       -1.0800
  85       -1.0311
  86       -1.0311
  87       -1.0311
  88       -1.0311
  89       -1.0146
  90       -1.0146
  91       -1.0146
  92       -1.0145
  93       -1.0036
  94       -1.0036
  95       -1.0035
  96       -1.0035
  97       -0.9558
  98       -0.9558
  99       -0.7804
 100       -0.6766
 101       -0.6766
 102       -0.6766
 103       -0.6766
 104       -0.6440
 105       -0.6440
 106       -0.6440
 107       -0.6440
 108       -0.6150
 109       -0.6149
 110       -0.6149
 111       -0.6149
 112       -0.5769
 113       -0.5769
 114       -0.5769
 115       -0.5769
 116       -0.5207
 117       -0.4484
 118       -0.4484
 119       -0.4484
 120       -0.4484
 121       -0.4340
 122       -0.3060
 123       -0.3060
 124       -0.2573
 125       -0.2573
 126       -0.2573
 127       -0.2572
 128       -0.2475
 129       -0.2472
 130       -0.2472
 131       -0.2472
 132       -0.2427
 133       -0.2291
 134       -0.2291
 135       -0.1950
 136       -0.1950
 137       -0.1950
 138       -0.1950
 139        0.0356
 140        0.0818
 141        0.0818
 142        0.0818
 143        0.0818
 144        0.1511
 145        0.1511
 146        0.1511
 147        0.1511
 148        0.1874
 149        0.1874
 150        0.2209
 151        0.2209
 152        0.2272
 153        0.2273
 154        0.2273
 155        0.2273
 156        0.2393
 157        0.3910
 158        0.3910
 159        0.3910
 160        0.3910
 161        0.3982
 162        0.3982
 163        0.4967
 164        0.4970
 165        0.4977
 166        0.4981
 167        0.6673
 168        1.6712
 169        1.6712
 170        1.6712
 171        1.6712
 172        2.7363
 173        2.7363
 174        2.7363
 175        2.7363
 176        2.8975
 177        2.8975
 178        2.8975
 179        2.8975
 180        3.9684
 181        4.0387
 182        4.0387
 183        4.0387
 184        4.0387
 185        5.3393
 186        5.3393
 187        7.2614
 188        7.2614
 189        7.2614
 190        7.2614
 191        7.5695
 192        7.5695
 193        7.5695
 194        7.5695
 195        7.6742
 196        7.6742
 197        9.4059
 198        9.4059
 199        9.4059
 200        9.4059
 201        9.8642
 202        9.8642
 203       10.0976
 204       10.0976
 205       10.3584
 206       10.3584
 207       10.3584
 208       10.3584
 209       10.7018
 210       10.7018
 211       10.7342
 212       10.7342
 213       10.7342
 214       10.7342
 215       11.0555
 216       11.1387
 
  0.3333333E+00  0.0000000E+00  0.0000000E+00  0.1157407E-02
   1       -4.0063
   2       -3.2457
   3       -2.8974
   4       -2.8641
   5       -2.8641
   6       -2.8286
   7       -2.8286
   8       -2.8286
   9       -2.8286
  10       -2.7942
  11       -2.7470
  12       -2.7470
  13       -2.6310
  14       -2.5513
  15       -2.5141
  16       -2.5141
  17       -2.4323
  18       -2.4323
  19       -2.4322
  20       -2.4322
  21       -2.3718
  22       -2.3717
  23       -2.3717
  24       -2.3717
  25       -2.3487
  26       -2.3487
  27       -2.1812
  28       -2.1812
  29       -2.1811
  30       -2.1811
  31       -2.1311
  32       -2.1311
  33       -2.1311
  34       -2.1311
  35       -2.0249
  36       -2.0248
  37       -2.0248
  38       -2.0248
  39       -1.9933
  40       -1.9933
  41       -1.9933
  42       -1.9933
  43       -1.9449
  44       -1.9449
  45       -1.9449
  46       -1.9449
  47       -1.8379
  48       -1.7367
  49       -1.7367
  50       -1.7367
  51       -1.7367
  52       -1.6914
  53       -1.6908
  54       -1.6908
  55       -1.6908
  56       -1.6844
  57       -1.6844
  58       -1.6844
  59       -1.6839
  60       -1.6405
  61       -1.6405
  62       -1.6405
  63       -1.6405
  64       -1.6108
  65       -1.6108
  66       -1.6108
  67       -1.6107
  68       -1.5557
  69       -1.5134
  70       -1.5134
  71       -1.5134
  72       -1.5134
  73       -1.4780
  74       -1.4780
  75       -1.4780
  76       -1.4780
  77       -1.3672
  78       -1.3672
  79       -1.3672
  80       -1.3672
  81       -1.3478
  82       -1.3478
  83       -1.1489
  84       -1.1489
  85       -1.1489
  86       -1.1488
  87       -1.0895
  88       -1.0894
  89       -1.0894
  90       -1.0894
  91       -1.0550
  92       -1.0550
  93       -0.8548
  94       -0.8548
  95       -0.8404
  96       -0.8404
  97       -0.8404
  98       -0.8404
  99       -0.7653
 100       -0.6165
 101       -0.6165
 102       -0.6165
 103       -0.6165
 104       -0.5970
 105       -0.5970
 106       -0.5970
 107       -0.5970
 108       -0.5888
 109       -0.5885
 110       -0.5885
 111       -0.5885
 112       -0.5825
 113       -0.5825
 114       -0.5824
 115       -0.5822
 116       -0.5643
 117       -0.4559
 118       -0.4559
 119       -0.4559
 120       -0.4559
 121       -0.4138
 122       -0.2943
 123       -0.2943
 124       -0.2943
 125       -0.2943
 126       -0.2849
 127       -0.2185
 128       -0.2185
 129       -0.1516
 130       -0.1516
 131       -0.1516
 132       -0.1515
 133       -0.1027
 134       -0.1027
 135       -0.0918
 136       -0.0918
 137       -0.0918
 138       -0.0918
 139       -0.0700
 140       -0.0700
 141       -0.0700
 142       -0.0700
 143        0.0364
 144        0.0364
 145        0.0793
 146        0.1269
 147        0.1269
 148        0.1734
 149        0.1734
 150        0.1734
 151        0.1734
 152        0.2172
 153        0.3143
 154        0.3143
 155        0.3143
 156        0.3143
 157        0.3251
 158        0.3251
 159        0.3600
 160        0.3600
 161        0.3600
 162        0.3600
 163        0.4967
 164        0.4971
 165        0.4976
 166        0.4980
 167        1.1631
 168        1.3731
 169        1.3731
 170        1.3731
 171        1.3731
 172        2.7533
 173        2.7533
 174        2.7533
 175        2.7533
 176        2.8643
 177        2.8643
 178        2.8643
 179        2.8643
 180        3.4166
 181        4.5496
 182        4.5496
 183        4.5496
 184        4.5496
 185        5.6265
 186        5.6265
 187        6.9161
 188        6.9161
 189        6.9161
 190        6.9161
 191        7.2095
 192        7.2095
 193        7.6236
 194        7.6236
 195        7.6236
 196        7.6236
 197        9.5934
 198        9.5934
 199        9.5934
 200        9.5934
 201        9.7173
 202        9.7173
 203        9.7173
 204        9.7173
 205        9.8852
 206        9.8852
 207       10.0429
 208       10.0429
 209       10.7628
 210       10.7628
 211       10.7628
 212       10.7628
 213       10.8499
 214       10.8499
 215       10.8499
 216       10.8499
 
  0.4166667E+00  0.0000000E+00  0.0000000E+00  0.1157407E-02
   1       -3.8528
   2       -3.4659
   3       -2.8389
   4       -2.7882
   5       -2.7882
   6       -2.7519
   7       -2.7519
   8       -2.7519
   9       -2.7519
  10       -2.7467
  11       -2.7014
  12       -2.6719
  13       -2.6719
  14       -2.6244
  15       -2.6082
  16       -2.6082
  17       -2.5525
  18       -2.5524
  19       -2.5524
  20       -2.5524
  21       -2.4725
  22       -2.4725
  23       -2.2796
  24       -2.2796
  25       -2.2796
  26       -2.2796
  27       -2.1325
  28       -2.1324
  29       -2.1324
  30       -2.1324
  31       -2.0922
  32       -2.0922
  33       -2.0922
  34       -2.0922
  35       -2.0769
  36       -2.0769
  37       -2.0769
  38       -2.0769
  39       -2.0487
  40       -2.0487
  41       -2.0486
  42       -2.0486
  43       -1.9973
  44       -1.9972
  45       -1.9972
  46       -1.9972
  47       -1.7554
  48       -1.7412
  49       -1.7412
  50       -1.7412
  51       -1.7412
  52       -1.6983
  53       -1.6983
  54       -1.6983
  55       -1.6983
  56       -1.6873
  57       -1.6865
  58       -1.6865
  59       -1.6865
  60       -1.6820
  61       -1.6820
  62       -1.6820
  63       -1.6812
  64       -1.6127
  65       -1.5847
  66       -1.5847
  67       -1.5847
  68       -1.5847
  69       -1.5353
  70       -1.5353
  71       -1.5353
  72       -1.5353
  73       -1.4410
  74       -1.4410
  75       -1.4410
  76       -1.4410
  77       -1.3119
  78       -1.3118
  79       -1.3118
  80       -1.3118
  81       -1.2916
  82       -1.2916
  83       -1.2677
  84       -1.2676
  85       -1.2676
  86       -1.2676
  87       -1.1713
  88       -1.1713
  89       -1.1713
  90       -1.1713
  91       -1.1445
  92       -1.1445
  93       -0.7241
  94       -0.6404
  95       -0.6404
  96       -0.6404
  97       -0.6404
  98       -0.6255
  99       -0.6255
 100       -0.6170
 101       -0.6169
 102       -0.6169
 103       -0.6169
 104       -0.6159
 105       -0.6090
 106       -0.6090
 107       -0.6089
 108       -0.6089
 109       -0.5327
 110       -0.5327
 111       -0.5327
 112       -0.5327
 113       -0.5015
 114       -0.5015
 115       -0.5015
 116       -0.5014
 117       -0.4708
 118       -0.4708
 119       -0.4708
 120       -0.4708
 121       -0.3884
 122       -0.3509
 123       -0.3509
 124       -0.3509
 125       -0.3509
 126       -0.3234
 127       -0.2469
 128       -0.2469
 129       -0.2469
 130       -0.2469
 131       -0.1728
 132       -0.1728
 133       -0.1251
 134       -0.1251
 135       -0.0584
 136       -0.0584
 137       -0.0584
 138       -0.0584
 139        0.0153
 140        0.0153
 141        0.0153
 142        0.0153
 143        0.0188
 144        0.0188
 145        0.0524
 146        0.0525
 147        0.1065
 148        0.1066
 149        0.1066
 150        0.1066
 151        0.1201
 152        0.1896
 153        0.2230
 154        0.2230
 155        0.2231
 156        0.2231
 157        0.2357
 158        0.2357
 159        0.4967
 160        0.4972
 161        0.4975
 162        0.4980
 163        0.5889
 164        0.5889
 165        0.5889
 166        0.5889
 167        1.0948
 168        1.0948
 169        1.0948
 170        1.0948
 171        1.6979
 172        2.7749
 173        2.7750
 174        2.7751
 175        2.7751
 176        2.8312
 177        2.8314
 178        2.8314
 179        2.8314
 180        2.8392
 181        5.0949
 182        5.0949
 183        5.0949
 184        5.0949
 185        5.9671
 186        5.9671
 187        6.2815
 188        6.2815
 189        6.2815
 190        6.2815
 191        6.7663
 192        6.7663
 193        8.0608
 194        8.0608
 195        8.0608
 196        8.0608
 197        9.1163
 198        9.1163
 199        9.1163
 200        9.1163
 201        9.8271
 202        9.8271
 203        9.8271
 204        9.8271
 205        9.9133
 206        9.9133
 207        9.9925
 208        9.9925
 209       10.4162
 210       10.4162
 211       10.4162
 212       10.4162
 213       10.9750
 214       10.9750
 215       10.9750
 216       10.9750
 
  0.5000000E+00  0.0000000E+00  0.0000000E+00  0.5787037E-03
   1       -3.6722
   2       -3.6697
   3       -2.7734
   4       -2.7714
   5       -2.7029
   6       -2.7021
   7       -2.7008
   8       -2.7001
   9       -2.6908
  10       -2.6888
  11       -2.6607
  12       -2.6607
  13       -2.6605
  14       -2.6604
  15       -2.6586
  16       -2.6585
  17       -2.6583
  18       -2.6583
  19       -2.5814
  20       -2.5814
  21       -2.5792
  22       -2.5792
  23       -2.1799
  24       -2.1792
  25       -2.1782
  26       -2.1782
  27       -2.1776
  28       -2.1776
  29       -2.1766
  30       -2.1758
  31       -2.0882
  32       -2.0857
  33       -2.0857
  34       -2.0857
  35       -2.0855
  36       -2.0855
  37       -2.0855
  38       -2.0829
  39       -2.0484
  40       -2.0481
  41       -2.0481
  42       -2.0473
  43       -2.0467
  44       -2.0459
  45       -2.0459
  46       -2.0456
  47       -1.7323
  48       -1.7316
  49       -1.7316
  50       -1.7311
  51       -1.7311
  52       -1.7306
  53       -1.7306
  54       -1.7299
  55       -1.6856
  56       -1.6837
  57       -1.6837
  58       -1.6834
  59       -1.6830
  60       -1.6827
  61       -1.6827
  62       -1.6818
  63       -1.6799
  64       -1.6787
  65       -1.5599
  66       -1.5597
  67       -1.5596
  68       -1.5596
  69       -1.5592
  70       -1.5592
  71       -1.5591
  72       -1.5588
  73       -1.3683
  74       -1.3681
  75       -1.3681
  76       -1.3672
  77       -1.3672
  78       -1.3663
  79       -1.3663
  80       -1.3661
  81       -1.2478
  82       -1.2473
  83       -1.2473
  84       -1.2463
  85       -1.2458
  86       -1.2448
  87       -1.2448
  88       -1.2443
  89       -1.2245
  90       -1.2245
  91       -1.2226
  92       -1.2226
  93       -0.6718
  94       -0.6707
  95       -0.6154
  96       -0.6154
  97       -0.6152
  98       -0.6151
  99       -0.6149
 100       -0.6148
 101       -0.6146
 102       -0.6146
 103       -0.4966
 104       -0.4964
 105       -0.4959
 106       -0.4959
 107       -0.4956
 108       -0.4956
 109       -0.4951
 110       -0.4949
 111       -0.4409
 112       -0.4403
 113       -0.4403
 114       -0.4400
 115       -0.4399
 116       -0.4395
 117       -0.4395
 118       -0.4389
 119       -0.4222
 120       -0.4215
 121       -0.4215
 122       -0.4213
 123       -0.4209
 124       -0.4207
 125       -0.4207
 126       -0.4198
 127       -0.3967
 128       -0.3967
 129       -0.3954
 130       -0.3954
 131       -0.3589
 132       -0.3573
 133       -0.0331
 134       -0.0330
 135       -0.0329
 136       -0.0327
 137        0.0276
 138        0.0280
 139        0.0280
 140        0.0282
 141        0.0289
 142        0.0291
 143        0.0291
 144        0.0296
 145        0.1206
 146        0.1206
 147        0.1215
 148        0.1216
 149        0.1220
 150        0.1221
 151        0.1230
 152        0.1230
 153        0.1323
 154        0.1323
 155        0.1329
 156        0.1329
 157        0.1569
 158        0.1571
 159        0.4967
 160        0.4973
 161        0.4974
 162        0.4980
 163        0.8331
 164        0.8332
 165        0.8339
 166        0.8339
 167        0.8339
 168        0.8339
 169        0.8346
 170        0.8347
 171        2.2601
 172        2.2610
 173        2.7995
 174        2.8005
 175        2.8009
 176        2.8009
 177        2.8017
 178        2.8017
 179        2.8021
 180        2.8031
 181        5.6712
 182        5.6712
 183        5.6712
 184        5.6727
 185        5.6734
 186        5.6749
 187        5.6749
 188        5.6750
 189        6.3487
 190        6.3487
 191        6.3512
 192        6.3512
 193        8.5596
 194        8.5596
 195        8.5599
 196        8.5611
 197        8.5621
 198        8.5633
 199        8.5635
 200        8.5635
 201        9.9487
 202        9.9490
 203        9.9491
 204        9.9494
 205       10.1013
 206       10.1013
 207       10.1024
 208       10.1026
 209       10.1031
 210       10.1034
 211       10.1044
 212       10.1044
 213       11.1189
 214       11.1193
 215       11.1195
 216       11.1199
 
  0.0000000E+00  0.8333333E-01  0.0000000E+00  0.2314815E-02
   1       -4.2700
   2       -3.0022
   3       -3.0000
   4       -3.0000
   5       -2.9585
   6       -2.9585
   7       -2.9584
   8       -2.9584
   9       -2.8755
  10       -2.8726
  11       -2.8726
  12       -2.6550
  13       -2.5416
  14       -2.5403
  15       -2.5403
  16       -2.5390
  17       -2.5128
  18       -2.3041
  19       -2.3040
  20       -2.2967
  21       -2.2807
  22       -2.2795
  23       -2.2795
  24       -2.2783
  25       -2.2010
  26       -2.1997
  27       -2.1996
  28       -2.1982
  29       -2.1107
  30       -2.0365