 vasp.4.6.28 25Jul05 complex 
 executed on             LinuxIFC date 2017.01.13  00:07:55
 running on    8 nodes
 distr:  one band on    1 nodes,    8 groups


--------------------------------------------------------------------------------------------------------


 INCAR:
 POTCAR:   PAW_PBE Ag 06Sep2000                   
 POTCAR:   PAW_PBE Ag 06Sep2000                   
   VRHFIN =Ag : s1 d10                                                          
   LEXCH  = PE                                                                  
   EATOM  =  1037.4134 eV,   76.2477 Ry                                         
                                                                                
   TITEL  = PAW_PBE Ag 06Sep2000                                                
   LULTRA =        F    use ultrasoft PP ?                                      
   IUNSCR =        1    unscreen: 0-lin 1-nonlin 2-no                           
   RPACOR =    2.000    partial core radius                                     
   POMASS =  107.868; ZVAL   =   11.000    mass and valenz                      
   RCORE  =    2.400    outmost cutoff radius                                   
   RWIGS  =    2.840; RWIGS  =    1.503    wigner-seitz radius (au A)           
   ENMAX  =  249.846; ENMIN  =  187.385 eV                                      
   RCLOC  =    1.962    cutoff for local pot                                    
   LCOR   =        T    correct aug charges                                     
   LPAW   =        T    paw PP                                                  
   EAUG   =  412.496                                                            
   DEXC   =    -.047                                                            
   RMAX   =    2.917    core radius for proj-oper                               
   RAUG   =    1.300    factor for augmentation sphere                          
   RDEP   =    2.416    radius for radial grids                                 
   QCUT   =   -4.285; QGAM   =    8.570    optimization parameters              
                                                                                
   Description                                                                  
     l     E      TYP  RCUT    TYP  RCUT                                        
     2   .000     23  2.400                                                     
     2   .000     23  2.400                                                     
     0   .000     23  2.400                                                     
     0   .000     23  2.400                                                     
     1  -.200     23  2.400                                                     
     1  1.500     23  2.400                                                     
     3   .000      7   .000                                                     
  local pseudopotential read in
  partial core-charges read in
  atomic valenz-charges read in
  non local Contribution for L=           2  read in
    real space projection operators read in
  non local Contribution for L=           2  read in
    real space projection operators read in
  non local Contribution for L=           0  read in
    real space projection operators read in
  non local Contribution for L=           0  read in
    real space projection operators read in
  non local Contribution for L=           1  read in
    real space projection operators read in
  non local Contribution for L=           1  read in
    real space projection operators read in
    PAW grid and wavefunctions read in
 
   number of l-projection  operators is LMAX  =           6
   number of lm-projection operators is LMMAX =          18
 

 ----------------------------------------------------------------------------- 
|                                                                             |
|  ADVICE TO THIS USER RUNNING 'VASP/VAMP'   (HEAR YOUR MASTER'S VOICE ...):  |
|                                                                             |
|      You have a (more or less) 'large supercell' and for larger cells       |
|      it might be more efficient to use real space projection operators      |
|      So try LREAL= Auto  in the INCAR   file.                               |
|      Mind: If you want to do an extremely accurate calculations keep the    |
|      reciprocal projection scheme          (i.e. LREAL=.FALSE.)             |
|                                                                             |
 ----------------------------------------------------------------------------- 

 PAW_PBE Ag 06Sep2000                   :
 energy of atom  1       EATOM=-1037.4134
 kinetic energy error for atom=    0.0010 (will be added to EATOM!!)
 
 EXHCAR: internal setup
 exchange correlation table for  LEXCH =        8
   RHO(1)=    0.500       N(1)  =     2000
   RHO(2)=  100.500       N(2)  =     4000
 
 POSCAR: Ag                                      
  positions in direct lattice
  No initial velocities read in
 


--------------------------------------------------------------------------------------------------------


 ion  position               nearest neighbor table
   1  0.001  0.000  0.000-   9 2.91  11 2.91  17 2.91  21 2.91  25 2.91  27 2.91  29 2.91  31 2.91
                            10 2.92  18 2.92  12 2.92  22 2.92
   2  0.500  0.000  0.000-   9 2.91  10 2.91  11 2.91  12 2.91  17 2.91  18 2.91  21 2.91  22 2.91
                            26 2.91  28 2.91  30 2.91  32 2.91
   3  0.000  0.500  0.000-   9 2.91  10 2.91  11 2.91  12 2.91  19 2.91  20 2.91  23 2.91  24 2.91
                            25 2.91  27 2.91  29 2.91  31 2.91
   4  0.500  0.500  0.000-   9 2.91  10 2.91  11 2.91  12 2.91  19 2.91  20 2.91  23 2.91  24 2.91
                            26 2.91  28 2.91  30 2.91  32 2.91
   5  0.000  0.000  0.500-  13 2.91  14 2.91  15 2.91  16 2.91  17 2.91  18 2.91  21 2.91  22 2.91
                            25 2.91  27 2.91  29 2.91  31 2.91
   6  0.500  0.000  0.500-  13 2.91  14 2.91  15 2.91  16 2.91  17 2.91  18 2.91  21 2.91  22 2.91
                            26 2.91  28 2.91  30 2.91  32 2.91
   7  0.000  0.500  0.500-  13 2.91  14 2.91  15 2.91  16 2.91  19 2.91  20 2.91  23 2.91  24 2.91
                            25 2.91  27 2.91  29 2.91  31 2.91
   8  0.500  0.500  0.500-  13 2.91  14 2.91  15 2.91  16 2.91  19 2.91  20 2.91  23 2.91  24 2.91
                            26 2.91  28 2.91  30 2.91  32 2.91
   9  0.250  0.250  0.000-   1 2.91   2 2.91   3 2.91   4 2.91  17 2.91  19 2.91  21 2.91  23 2.91
                            25 2.91  26 2.91  29 2.91  30 2.91
  10  0.750  0.250  0.000-   2 2.91   3 2.91   4 2.91  18 2.91  20 2.91  22 2.91  24 2.91  25 2.91
                            26 2.91  29 2.91  30 2.91   1 2.92
  11  0.250  0.750  0.000-   1 2.91   2 2.91   3 2.91   4 2.91  17 2.91  19 2.91  21 2.91  23 2.91
                            27 2.91  28 2.91  31 2.91  32 2.91
  12  0.750  0.750  0.000-   2 2.91   3 2.91   4 2.91  18 2.91  20 2.91  22 2.91  24 2.91  27 2.91
                            28 2.91  31 2.91  32 2.91   1 2.92
  13  0.250  0.250  0.500-   5 2.91   6 2.91   7 2.91   8 2.91  17 2.91  19 2.91  21 2.91  23 2.91
                            25 2.91  26 2.91  29 2.91  30 2.91
  14  0.750  0.250  0.500-   5 2.91   6 2.91   7 2.91   8 2.91  18 2.91  20 2.91  22 2.91  24 2.91
                            25 2.91  26 2.91  29 2.91  30 2.91
  15  0.250  0.750  0.500-   5 2.91   6 2.91   7 2.91   8 2.91  17 2.91  19 2.91  21 2.91  23 2.91
                            27 2.91  28 2.91  31 2.91  32 2.91
  16  0.750  0.750  0.500-   5 2.91   6 2.91   7 2.91   8 2.91  18 2.91  20 2.91  22 2.91  24 2.91
                            27 2.91  28 2.91  31 2.91  32 2.91
  17  0.250  0.000  0.250-   1 2.91   2 2.91   5 2.91   6 2.91   9 2.91  11 2.91  13 2.91  15 2.91
                            25 2.91  26 2.91  27 2.91  28 2.91
  18  0.750  0.000  0.250-   2 2.91   5 2.91   6 2.91  10 2.91  12 2.91  14 2.91  16 2.91  25 2.91
                            26 2.91  27 2.91  28 2.91   1 2.92
  19  0.250  0.500  0.250-   3 2.91   4 2.91   7 2.91   8 2.91   9 2.91  11 2.91  13 2.91  15 2.91
                            25 2.91  26 2.91  27 2.91  28 2.91
  20  0.750  0.500  0.250-   3 2.91   4 2.91   7 2.91   8 2.91  10 2.91  12 2.91  14 2.91  16 2.91
                            25 2.91  26 2.91  27 2.91  28 2.91
  21  0.250  0.000  0.750-   1 2.91   2 2.91   5 2.91   6 2.91   9 2.91  11 2.91  13 2.91  15 2.91
                            29 2.91  30 2.91  31 2.91  32 2.91
  22  0.750  0.000  0.750-   2 2.91   5 2.91   6 2.91  10 2.91  12 2.91  14 2.91  16 2.91  29 2.91
                            30 2.91  31 2.91  32 2.91   1 2.92
  23  0.250  0.500  0.750-   3 2.91   4 2.91   7 2.91   8 2.91   9 2.91  11 2.91  13 2.91  15 2.91
                            29 2.91  30 2.91  31 2.91  32 2.91
  24  0.750  0.500  0.750-   3 2.91   4 2.91   7 2.91   8 2.91  10 2.91  12 2.91  14 2.91  16 2.91
                            29 2.91  30 2.91  31 2.91  32 2.91
  25  0.000  0.250  0.250-   3 2.91   5 2.91   7 2.91   9 2.91  10 2.91  13 2.91  14 2.91  17 2.91
                            18 2.91  19 2.91  20 2.91   1 2.91
  26  0.500  0.250  0.250-   2 2.91   4 2.91   6 2.91   8 2.91   9 2.91  10 2.91  13 2.91  14 2.91
                            17 2.91  18 2.91  19 2.91  20 2.91
  27  0.000  0.750  0.250-   3 2.91   5 2.91   7 2.91  11 2.91  12 2.91  15 2.91  16 2.91  17 2.91
                            18 2.91  19 2.91  20 2.91   1 2.91
  28  0.500  0.750  0.250-   2 2.91   4 2.91   6 2.91   8 2.91  11 2.91  12 2.91  15 2.91  16 2.91
                            17 2.91  18 2.91  19 2.91  20 2.91
  29  0.000  0.250  0.750-   3 2.91   5 2.91   7 2.91   9 2.91  10 2.91  13 2.91  14 2.91  21 2.91
                            22 2.91  23 2.91  24 2.91   1 2.91
  30  0.500  0.250  0.750-   2 2.91   4 2.91   6 2.91   8 2.91   9 2.91  10 2.91  13 2.91  14 2.91
                            21 2.91  22 2.91  23 2.91  24 2.91
  31  0.000  0.750  0.750-   3 2.91   5 2.91   7 2.91  11 2.91  12 2.91  15 2.91  16 2.91  21 2.91
                            22 2.91  23 2.91  24 2.91   1 2.91
  32  0.500  0.750  0.750-   2 2.91   4 2.91   6 2.91   8 2.91  11 2.91  12 2.91  15 2.91  16 2.91
                            21 2.91  22 2.91  23 2.91  24 2.91
 
  LATTYP: Found a simple cubic cell.
 ALAT       =     8.2431850676
  
  Lattice vectors:
  
 A1 = (   8.2431850676,   0.0000000000,   0.0000000000)
 A2 = (   0.0000000000,   8.2431850676,   0.0000000000)
 A3 = (   0.0000000000,   0.0000000000,   8.2431850676)
 Subroutine PRICEL returns:
 Original cell was already a primitive cell.
 

Analysis of symmetry for initial positions (statically):

 Routine SETGRP: Setting up the symmetry group for a 
 simple cubic supercell.


 Subroutine GETGRP returns: Found  8 space group operations
 (whereof  8 operations were pure point group operations)
 out of a pool of 48 trial point group operations.


The static configuration has the point symmetry C_4v.

Analysis of symmetry for dynamics (positions and initial velocities):

 Subroutine DYNSYM returns: Found  8 space group operations
 (whereof  8 operations were pure point group operations)
 out of a pool of  8 trial space group operations
 (whereof  8 operations were pure point group operations)
 and found also     1 'primitive' translations


The dynamic configuration has the point symmetry C_4v.
 
 
 KPOINTS: Automatic mesh                          

Automatic generation of k-mesh.
 
 Subroutine IBZKPT returns following result:
 ===========================================
 
 Found    196 irreducible k-points:
 
 Following reciprocal coordinates:
            Coordinates               Weight
  0.000000  0.000000  0.000000      1.000000
  0.083333  0.000000  0.000000      2.000000
  0.166667  0.000000  0.000000      2.000000
  0.250000  0.000000  0.000000      2.000000
  0.333333  0.000000  0.000000      2.000000
  0.416667  0.000000  0.000000      2.000000
  0.500000  0.000000  0.000000      1.000000
  0.000000  0.083333  0.000000      4.000000
  0.083333  0.083333  0.000000      8.000000
  0.166667  0.083333  0.000000      8.000000
  0.250000  0.083333  0.000000      8.000000
  0.333333  0.083333  0.000000      8.000000
  0.416667  0.083333  0.000000      8.000000
  0.500000  0.083333  0.000000      4.000000
  0.000000  0.166667  0.000000      4.000000
  0.083333  0.166667  0.000000      8.000000
  0.166667  0.166667  0.000000      8.000000
  0.250000  0.166667  0.000000      8.000000
  0.333333  0.166667  0.000000      8.000000
  0.416667  0.166667  0.000000      8.000000
  0.500000  0.166667  0.000000      4.000000
  0.000000  0.250000  0.000000      4.000000
  0.083333  0.250000  0.000000      8.000000
  0.166667  0.250000  0.000000      8.000000
  0.250000  0.250000  0.000000      8.000000
  0.333333  0.250000  0.000000      8.000000
  0.416667  0.250000  0.000000      8.000000
  0.500000  0.250000  0.000000      4.000000
  0.000000  0.333333  0.000000      4.000000
  0.083333  0.333333  0.000000      8.000000
  0.166667  0.333333  0.000000      8.000000
  0.250000  0.333333  0.000000      8.000000
  0.333333  0.333333  0.000000      8.000000
  0.416667  0.333333  0.000000      8.000000
  0.500000  0.333333  0.000000      4.000000
  0.000000  0.416667  0.000000      4.000000
  0.083333  0.416667  0.000000      8.000000
  0.166667  0.416667  0.000000      8.000000
  0.250000  0.416667  0.000000      8.000000
  0.333333  0.416667  0.000000      8.000000
  0.416667  0.416667  0.000000      8.000000
  0.500000  0.416667  0.000000      4.000000
  0.000000  0.500000  0.000000      2.000000
  0.083333  0.500000  0.000000      4.000000
  0.166667  0.500000  0.000000      4.000000
  0.250000  0.500000  0.000000      4.000000
  0.333333  0.500000  0.000000      4.000000
  0.416667  0.500000  0.000000      4.000000
  0.500000  0.500000  0.000000      2.000000
  0.000000  0.083333  0.083333      4.000000
  0.083333  0.083333  0.083333      8.000000
  0.166667  0.083333  0.083333      8.000000
  0.250000  0.083333  0.083333      8.000000
  0.333333  0.083333  0.083333      8.000000
  0.416667  0.083333  0.083333      8.000000
  0.500000  0.083333  0.083333      4.000000
  0.000000  0.166667  0.083333      8.000000
  0.083333  0.166667  0.083333     16.000000
  0.166667  0.166667  0.083333     16.000000
  0.250000  0.166667  0.083333     16.000000
  0.333333  0.166667  0.083333     16.000000
  0.416667  0.166667  0.083333     16.000000
  0.500000  0.166667  0.083333      8.000000
  0.000000  0.250000  0.083333      8.000000
  0.083333  0.250000  0.083333     16.000000
  0.166667  0.250000  0.083333     16.000000
  0.250000  0.250000  0.083333     16.000000
  0.333333  0.250000  0.083333     16.000000
  0.416667  0.250000  0.083333     16.000000
  0.500000  0.250000  0.083333      8.000000
  0.000000  0.333333  0.083333      8.000000
  0.083333  0.333333  0.083333     16.000000
  0.166667  0.333333  0.083333     16.000000
  0.250000  0.333333  0.083333     16.000000
  0.333333  0.333333  0.083333     16.000000
  0.416667  0.333333  0.083333     16.000000
  0.500000  0.333333  0.083333      8.000000
  0.000000  0.416667  0.083333      8.000000
  0.083333  0.416667  0.083333     16.000000
  0.166667  0.416667  0.083333     16.000000
  0.250000  0.416667  0.083333     16.000000
  0.333333  0.416667  0.083333     16.000000
  0.416667  0.416667  0.083333     16.000000
  0.500000  0.416667  0.083333      8.000000
  0.000000  0.500000  0.083333      4.000000
  0.083333  0.500000  0.083333      8.000000
  0.166667  0.500000  0.083333      8.000000
  0.250000  0.500000  0.083333      8.000000
  0.333333  0.500000  0.083333      8.000000
  0.416667  0.500000  0.083333      8.000000
  0.500000  0.500000  0.083333      4.000000
  0.000000  0.166667  0.166667      4.000000
  0.083333  0.166667  0.166667      8.000000
  0.166667  0.166667  0.166667      8.000000
  0.250000  0.166667  0.166667      8.000000
  0.333333  0.166667  0.166667      8.000000
  0.416667  0.166667  0.166667      8.000000
  0.500000  0.166667  0.166667      4.000000
  0.000000  0.250000  0.166667      8.000000
  0.083333  0.250000  0.166667     16.000000
  0.166667  0.250000  0.166667     16.000000
  0.250000  0.250000  0.166667     16.000000
  0.333333  0.250000  0.166667     16.000000
  0.416667  0.250000  0.166667     16.000000
  0.500000  0.250000  0.166667      8.000000
  0.000000  0.333333  0.166667      8.000000
  0.083333  0.333333  0.166667     16.000000
  0.166667  0.333333  0.166667     16.000000
  0.250000  0.333333  0.166667     16.000000
  0.333333  0.333333  0.166667     16.000000
  0.416667  0.333333  0.166667     16.000000
  0.500000  0.333333  0.166667      8.000000
  0.000000  0.416667  0.166667      8.000000
  0.083333  0.416667  0.166667     16.000000
  0.166667  0.416667  0.166667     16.000000
  0.250000  0.416667  0.166667     16.000000
  0.333333  0.416667  0.166667     16.000000
  0.416667  0.416667  0.166667     16.000000
  0.500000  0.416667  0.166667      8.000000
  0.000000  0.500000  0.166667      4.000000
  0.083333  0.500000  0.166667      8.000000
  0.166667  0.500000  0.166667      8.000000
  0.250000  0.500000  0.166667      8.000000
  0.333333  0.500000  0.166667      8.000000
  0.416667  0.500000  0.166667      8.000000
  0.500000  0.500000  0.166667      4.000000
  0.000000  0.250000  0.250000      4.000000
  0.083333  0.250000  0.250000      8.000000
  0.166667  0.250000  0.250000      8.000000
  0.250000  0.250000  0.250000      8.000000
  0.333333  0.250000  0.250000      8.000000
  0.416667  0.250000  0.250000      8.000000
  0.500000  0.250000  0.250000      4.000000
  0.000000  0.333333  0.250000      8.000000
  0.083333  0.333333  0.250000     16.000000
  0.166667  0.333333  0.250000     16.000000
  0.250000  0.333333  0.250000     16.000000
  0.333333  0.333333  0.250000     16.000000
  0.416667  0.333333  0.250000     16.000000
  0.500000  0.333333  0.250000      8.000000
  0.000000  0.416667  0.250000      8.000000
  0.083333  0.416667  0.250000     16.000000
  0.166667  0.416667  0.250000     16.000000
  0.250000  0.416667  0.250000     16.000000
  0.333333  0.416667  0.250000     16.000000
  0.416667  0.416667  0.250000     16.000000
  0.500000  0.416667  0.250000      8.000000
  0.000000  0.500000  0.250000      4.000000
  0.083333  0.500000  0.250000      8.000000
  0.166667  0.500000  0.250000      8.000000
  0.250000  0.500000  0.250000      8.000000
  0.333333  0.500000  0.250000      8.000000
  0.416667  0.500000  0.250000      8.000000
  0.500000  0.500000  0.250000      4.000000
  0.000000  0.333333  0.333333      4.000000
  0.083333  0.333333  0.333333      8.000000
  0.166667  0.333333  0.333333      8.000000
  0.250000  0.333333  0.333333      8.000000
  0.333333  0.333333  0.333333      8.000000
  0.416667  0.333333  0.333333      8.000000
  0.500000  0.333333  0.333333      4.000000
  0.000000  0.416667  0.333333      8.000000
  0.083333  0.416667  0.333333     16.000000
  0.166667  0.416667  0.333333     16.000000
  0.250000  0.416667  0.333333     16.000000
  0.333333  0.416667  0.333333     16.000000
  0.416667  0.416667  0.333333     16.000000
  0.500000  0.416667  0.333333      8.000000
  0.000000  0.500000  0.333333      4.000000
  0.083333  0.500000  0.333333      8.000000
  0.166667  0.500000  0.333333      8.000000
  0.250000  0.500000  0.333333      8.000000
  0.333333  0.500000  0.333333      8.000000
  0.416667  0.500000  0.333333      8.000000
  0.500000  0.500000  0.333333      4.000000
  0.000000  0.416667  0.416667      4.000000
  0.083333  0.416667  0.416667      8.000000
  0.166667  0.416667  0.416667      8.000000
  0.250000  0.416667  0.416667      8.000000
  0.333333  0.416667  0.416667      8.000000
  0.416667  0.416667  0.416667      8.000000
  0.500000  0.416667  0.416667      4.000000
  0.000000  0.500000  0.416667      4.000000
  0.083333  0.500000  0.416667      8.000000
  0.166667  0.500000  0.416667      8.000000
  0.250000  0.500000  0.416667      8.000000
  0.333333  0.500000  0.416667      8.000000
  0.416667  0.500000  0.416667      8.000000
  0.500000  0.500000  0.416667      4.000000
  0.000000  0.500000  0.500000      1.000000
  0.083333  0.500000  0.500000      2.000000
  0.166667  0.500000  0.500000      2.000000
  0.250000  0.500000  0.500000      2.000000
  0.333333  0.500000  0.500000      2.000000
  0.416667  0.500000  0.500000      2.000000
  0.500000  0.500000  0.500000      1.000000
 
 Following cartesian coordinates:
            Coordinates               Weight
  0.000000  0.000000  0.000000      1.000000
  0.010109  0.000000  0.000000      2.000000
  0.020219  0.000000  0.000000      2.000000
  0.030328  0.000000  0.000000      2.000000
  0.040437  0.000000  0.000000      2.000000
  0.050547  0.000000  0.000000      2.000000
  0.060656  0.000000  0.000000      1.000000
  0.000000  0.010109  0.000000      4.000000
  0.010109  0.010109  0.000000      8.000000
  0.020219  0.010109  0.000000      8.000000
  0.030328  0.010109  0.000000      8.000000
  0.040437  0.010109  0.000000      8.000000
  0.050547  0.010109  0.000000      8.000000
  0.060656  0.010109  0.000000      4.000000
  0.000000  0.020219  0.000000      4.000000
  0.010109  0.020219  0.000000      8.000000
  0.020219  0.020219  0.000000      8.000000
  0.030328  0.020219  0.000000      8.000000
  0.040437  0.020219  0.000000      8.000000
  0.050547  0.020219  0.000000      8.000000
  0.060656  0.020219  0.000000      4.000000
  0.000000  0.030328  0.000000      4.000000
  0.010109  0.030328  0.000000      8.000000
  0.020219  0.030328  0.000000      8.000000
  0.030328  0.030328  0.000000      8.000000
  0.040437  0.030328  0.000000      8.000000
  0.050547  0.030328  0.000000      8.000000
  0.060656  0.030328  0.000000      4.000000
  0.000000  0.040437  0.000000      4.000000
  0.010109  0.040437  0.000000      8.000000
  0.020219  0.040437  0.000000      8.000000
  0.030328  0.040437  0.000000      8.000000
  0.040437  0.040437  0.000000      8.000000
  0.050547  0.040437  0.000000      8.000000
  0.060656  0.040437  0.000000      4.000000
  0.000000  0.050547  0.000000      4.000000
  0.010109  0.050547  0.000000      8.000000
  0.020219  0.050547  0.000000      8.000000
  0.030328  0.050547  0.000000      8.000000
  0.040437  0.050547  0.000000      8.000000
  0.050547  0.050547  0.000000      8.000000
  0.060656  0.050547  0.000000      4.000000
  0.000000  0.060656  0.000000      2.000000
  0.010109  0.060656  0.000000      4.000000
  0.020219  0.060656  0.000000      4.000000
  0.030328  0.060656  0.000000      4.000000
  0.040437  0.060656  0.000000      4.000000
  0.050547  0.060656  0.000000      4.000000
  0.060656  0.060656  0.000000      2.000000
  0.000000  0.010109  0.010109      4.000000
  0.010109  0.010109  0.010109      8.000000
  0.020219  0.010109  0.010109      8.000000
  0.030328  0.010109  0.010109      8.000000
  0.040437  0.010109  0.010109      8.000000
  0.050547  0.010109  0.010109      8.000000
  0.060656  0.010109  0.010109      4.000000
  0.000000  0.020219  0.010109      8.000000
  0.010109  0.020219  0.010109     16.000000
  0.020219  0.020219  0.010109     16.000000
  0.030328  0.020219  0.010109     16.000000
  0.040437  0.020219  0.010109     16.000000
  0.050547  0.020219  0.010109     16.000000
  0.060656  0.020219  0.010109      8.000000
  0.000000  0.030328  0.010109      8.000000
  0.010109  0.030328  0.010109     16.000000
  0.020219  0.030328  0.010109     16.000000
  0.030328  0.030328  0.010109     16.000000
  0.040437  0.030328  0.010109     16.000000
  0.050547  0.030328  0.010109     16.000000
  0.060656  0.030328  0.010109      8.000000
  0.000000  0.040437  0.010109      8.000000
  0.010109  0.040437  0.010109     16.000000
  0.020219  0.040437  0.010109     16.000000
  0.030328  0.040437  0.010109     16.000000
  0.040437  0.040437  0.010109     16.000000
  0.050547  0.040437  0.010109     16.000000
  0.060656  0.040437  0.010109      8.000000
  0.000000  0.050547  0.010109      8.000000
  0.010109  0.050547  0.010109     16.000000
  0.020219  0.050547  0.010109     16.000000
  0.030328  0.050547  0.010109     16.000000
  0.040437  0.050547  0.010109     16.000000
  0.050547  0.050547  0.010109     16.000000
  0.060656  0.050547  0.010109      8.000000
  0.000000  0.060656  0.010109      4.000000
  0.010109  0.060656  0.010109      8.000000
  0.020219  0.060656  0.010109      8.000000
  0.030328  0.060656  0.010109      8.000000
  0.040437  0.060656  0.010109      8.000000
  0.050547  0.060656  0.010109      8.000000
  0.060656  0.060656  0.010109      4.000000
  0.000000  0.020219  0.020219      4.000000
  0.010109  0.020219  0.020219      8.000000
  0.020219  0.020219  0.020219      8.000000
  0.030328  0.020219  0.020219      8.000000
  0.040437  0.020219  0.020219      8.000000
  0.050547  0.020219  0.020219      8.000000
  0.060656  0.020219  0.020219      4.000000
  0.000000  0.030328  0.020219      8.000000
  0.010109  0.030328  0.020219     16.000000
  0.020219  0.030328  0.020219     16.000000
  0.030328  0.030328  0.020219     16.000000
  0.040437  0.030328  0.020219     16.000000
  0.050547  0.030328  0.020219     16.000000
  0.060656  0.030328  0.020219      8.000000
  0.000000  0.040437  0.020219      8.000000
  0.010109  0.040437  0.020219     16.000000
  0.020219  0.040437  0.020219     16.000000
  0.030328  0.040437  0.020219     16.000000
  0.040437  0.040437  0.020219     16.000000
  0.050547  0.040437  0.020219     16.000000
  0.060656  0.040437  0.020219      8.000000
  0.000000  0.050547  0.020219      8.000000
  0.010109  0.050547  0.020219     16.000000
  0.020219  0.050547  0.020219     16.000000
  0.030328  0.050547  0.020219     16.000000
  0.040437  0.050547  0.020219     16.000000
  0.050547  0.050547  0.020219     16.000000
  0.060656  0.050547  0.020219      8.000000
  0.000000  0.060656  0.020219      4.000000
  0.010109  0.060656  0.020219      8.000000
  0.020219  0.060656  0.020219      8.000000
  0.030328  0.060656  0.020219      8.000000
  0.040437  0.060656  0.020219      8.000000
  0.050547  0.060656  0.020219      8.000000
  0.060656  0.060656  0.020219      4.000000
  0.000000  0.030328  0.030328      4.000000
  0.010109  0.030328  0.030328      8.000000
  0.020219  0.030328  0.030328      8.000000
  0.030328  0.030328  0.030328      8.000000
  0.040437  0.030328  0.030328      8.000000
  0.050547  0.030328  0.030328      8.000000
  0.060656  0.030328  0.030328      4.000000
  0.000000  0.040437  0.030328      8.000000
  0.010109  0.040437  0.030328     16.000000
  0.020219  0.040437  0.030328     16.000000
  0.030328  0.040437  0.030328     16.000000
  0.040437  0.040437  0.030328     16.000000
  0.050547  0.040437  0.030328     16.000000
  0.060656  0.040437  0.030328      8.000000
  0.000000  0.050547  0.030328      8.000000
  0.010109  0.050547  0.030328     16.000000
  0.020219  0.050547  0.030328     16.000000
  0.030328  0.050547  0.030328     16.000000
  0.040437  0.050547  0.030328     16.000000
  0.050547  0.050547  0.030328     16.000000
  0.060656  0.050547  0.030328      8.000000
  0.000000  0.060656  0.030328      4.000000
  0.010109  0.060656  0.030328      8.000000
  0.020219  0.060656  0.030328      8.000000
  0.030328  0.060656  0.030328      8.000000
  0.040437  0.060656  0.030328      8.000000
  0.050547  0.060656  0.030328      8.000000
  0.060656  0.060656  0.030328      4.000000
  0.000000  0.040437  0.040437      4.000000
  0.010109  0.040437  0.040437      8.000000
  0.020219  0.040437  0.040437      8.000000
  0.030328  0.040437  0.040437      8.000000
  0.040437  0.040437  0.040437      8.000000
  0.050547  0.040437  0.040437      8.000000
  0.060656  0.040437  0.040437      4.000000
  0.000000  0.050547  0.040437      8.000000
  0.010109  0.050547  0.040437     16.000000
  0.020219  0.050547  0.040437     16.000000
  0.030328  0.050547  0.040437     16.000000
  0.040437  0.050547  0.040437     16.000000
  0.050547  0.050547  0.040437     16.000000
  0.060656  0.050547  0.040437      8.000000
  0.000000  0.060656  0.040437      4.000000
  0.010109  0.060656  0.040437      8.000000
  0.020219  0.060656  0.040437      8.000000
  0.030328  0.060656  0.040437      8.000000
  0.040437  0.060656  0.040437      8.000000
  0.050547  0.060656  0.040437      8.000000
  0.060656  0.060656  0.040437      4.000000
  0.000000  0.050547  0.050547      4.000000
  0.010109  0.050547  0.050547      8.000000
  0.020219  0.050547  0.050547      8.000000
  0.030328  0.050547  0.050547      8.000000
  0.040437  0.050547  0.050547      8.000000
  0.050547  0.050547  0.050547      8.000000
  0.060656  0.050547  0.050547      4.000000
  0.000000  0.060656  0.050547      4.000000
  0.010109  0.060656  0.050547      8.000000
  0.020219  0.060656  0.050547      8.000000
  0.030328  0.060656  0.050547      8.000000
  0.040437  0.060656  0.050547      8.000000
  0.050547  0.060656  0.050547      8.000000
  0.060656  0.060656  0.050547      4.000000
  0.000000  0.060656  0.060656      1.000000
  0.010109  0.060656  0.060656      2.000000
  0.020219  0.060656  0.060656      2.000000
  0.030328  0.060656  0.060656      2.000000
  0.040437  0.060656  0.060656      2.000000
  0.050547  0.060656  0.060656      2.000000
  0.060656  0.060656  0.060656      1.000000
 


--------------------------------------------------------------------------------------------------------




 Dimension of arrays:
   k-Points           NKPTS =    196   number of bands    NBANDS=    216
   number of dos      NEDOS =    301   number of ions     NIONS =     32
   non local maximal  LDIM  =      6   non local SUM 2l+1 LMDIM =     18
   total plane-waves  NPLWV = 512000
   max r-space proj   IRMAX =      1   max aug-charges    IRDMAX= 359711
   dimension x,y,z NGX =    80 NGY =   80 NGZ =   80
   dimension x,y,z NGXF=   160 NGYF=  160 NGZF=  160
   support grid    NGXF=   320 NGYF=  320 NGZF=  320
   ions per type =              32
 NGX,Y,Z   is equivalent  to a cutoff of  16.13, 16.13, 16.13 a.u.
 NGXF,Y,Z  is equivalent  to a cutoff of  32.27, 32.27, 32.27 a.u.


 I would recommend the setting:
   dimension x,y,z NGX =    74 NGY =   74 NGZ =   74
 SYSTEM =  unknown system                          
 POSCAR =  Ag                                      

 Startparameter for this run:
   NWRITE =      2    write-flag & timer
   PREC   = accura    medium, high low
   ISTART =      0    job   : 0-new  1-cont  2-samecut
   ICHARG =      2    charge: 1-file 2-atom 10-const
   ISPIN  =      1    spin polarized calculation?
   LNONCOLLINEAR =      F non collinear calculations
   LSORBIT =      F    spin-orbit coupling
   INIWAV =      1    electr: 0-lowe 1-rand  2-diag
   LASPH  =      F    aspherical Exc in radial PAW
   METAGGA=      F    non-selfconsistent MetaGGA calc.

 Electronic Relaxation 1
   ENCUT  =  750.0 eV  55.12 Ry    7.42 a.u.  18.41 18.41 18.41*2*pi/ulx,y,z
   ENINI  =  750.0     initial cutoff
   ENAUG  =  412.5 eV  augmentation charge cutoff
   NELM   =     60;   NELMIN=  2; NELMDL= -5     # of ELM steps 
   EDIFF  = 0.1E-07   stopping-criterion for ELM
   LREAL  =      F    real-space projection
   LCOMPAT=      F    compatible to vasp.4.4
   LREAL_COMPAT= F    compatible to vasp.4.5.1-3
   GGA_COMPAT  = T    GGA compatible to vasp.4.4-vasp.4.6
   LMAXPAW     = -100 max onsite density
   LMAXMIX     =    2 max onsite mixed and CHGCAR
   VOSKOWN=      0    Vosko Wilk Nusair interpolation
   ROPT   =    0.00000
 Ionic relaxation
   EDIFFG = 0.1E-06   stopping-criterion for IOM
   NSW    =      0    number of steps for IOM
   NBLOCK =      1;   KBLOCK =      1    inner block; outer block 
   IBRION =     -1    ionic relax: 0-MD 1-quasi-New 2-CG
   NFREE  =      0    steps in history (QN), initial steepest desc. (CG)
   ISIF   =      2    stress and relaxation
   IWAVPR =     10    prediction:  0-non 1-charg 2-wave 3-comb
   ISYM   =      2    0-nonsym 1-usesym 2-fastsym
   LCORR  =      T    Harris-Foulkes like correction to forces

   POTIM  =   0.50    time-step for ionic-motion
   TEIN   =    0.0    initial temperature
   TEBEG  =    0.0;   TEEND  =   0.0 temperature during run
   SMASS  =  -3.00    Nose mass-parameter (am)
   estimated Nose-frequenzy (Omega)   =  0.10E-29 period in steps =****** mass=  -0.155E-26a.u.
   NPACO  =    256;   APACO  = 16.0  distance and # of slots for P.C.
   PSTRESS=    0.0 pullay stress

  Mass of Ions in am
   POMASS = 107.87
  Ionic Valenz
   ZVAL   =  11.00
  Atomic Wigner-Seitz radii
   RWIGS  =  -1.00
   NELECT =     352.0000    total number of electrons
   NUPDOWN=      -1.0000    fix difference up-down

 DOS related values:
   EMIN   =  10.00;   EMAX   =-10.00  energy-range for DOS
   ISMEAR =     0;   SIGMA  =   0.01  broadening in eV -4-tet -1-fermi 0-gaus

 Electronic relaxation 2 (details)
   IALGO  =     38    algorithm
   LDIAG  =      T    sub-space diagonalisation
   IMIX   =      4    mixing-type and parameters
     AMIX     =   0.40;   BMIX     =  1.00
     AMIX_MAG =   1.60;   BMIX_MAG =  1.00
     AMIN     =   0.10
     WC   =   100.;   INIMIX=   1;  MIXPRE=   1

 Intra band minimization:
   WEIMIN = 0.0000     energy-eigenvalue tresh-hold
   EBREAK =  0.12E-10  absolut break condition
   DEPER  =   0.30     relativ break condition  

   TIME   =   0.10     timestep for ELM

  volume/ion in A,a.u.               =      17.50       118.12
  Fermi-wavevector in a.u.,eV,Ry     =   1.402256 26.753437  1.966322

 Second variation
   LSECVAR=     F    do a second variation
 
 Write flags
   LWAVE  =      F    write WAVECAR
   LCHARG =      F    write CHGCAR
   LVTOT  =      F    write LOCPOT, local potential
   LELF   =      F    write electronic localiz. function (ELF)
   LORBIT =      0    0 simple, 1 ext, 2 COOP (PROOUT)


 Dipole corrections
   IDIPOL =      0    1-x, 2-y, 3-z
   LDIPOL =      F    correct potential



--------------------------------------------------------------------------------------------------------


 Static calculation
 charge density will be updated during run
 non-spin polarized calculation
 Variant of blocked Davidson
 Davidson routine will perform the subspace rotation
 performe sub-space diagonalisation
    after iterative eigenvector-optimisation
 modified Broyden-mixing scheme, WC =      100.0
 initial mixing is a Kerker type mixing with AMIX =  0.4000 and BMIX =      1.0000
 Hartree-type preconditioning will be used
 using additional bands           40
 reciprocal scheme for non local part
 use partial core corrections
 calculate Harris-corrections to forces 
   (improved forces if not selfconsistent)
 use gradient corrections 
 use of overlap-Matrix (Vanderbilt PP)
 Gauss-broadening in eV      SIGMA  =   0.01


--------------------------------------------------------------------------------------------------------


  energy-cutoff  :      750.00
  volume of cell :      560.13
      direct lattice vectors                 reciprocal lattice vectors
     8.243185068  0.000000000  0.000000000     0.121312332  0.000000000  0.000000000
     0.000000000  8.243185068  0.000000000     0.000000000  0.121312332  0.000000000
     0.000000000  0.000000000  8.243185068     0.000000000  0.000000000  0.121312332

  length of vectors
     8.243185068  8.243185068  8.243185068     0.121312332  0.121312332  0.121312332


 
 k-points in units of 2pi/SCALE and weight: Automatic mesh                          
   0.00000000  0.00000000  0.00000000       0.001
   0.01010936  0.00000000  0.00000000       0.001
   0.02021872  0.00000000  0.00000000       0.001
   0.03032808  0.00000000  0.00000000       0.001
   0.04043744  0.00000000  0.00000000       0.001
   0.05054680  0.00000000  0.00000000       0.001
   0.06065617  0.00000000  0.00000000       0.001
   0.00000000  0.01010936  0.00000000       0.002
   0.01010936  0.01010936  0.00000000       0.005
   0.02021872  0.01010936  0.00000000       0.005
   0.03032808  0.01010936  0.00000000       0.005
   0.04043744  0.01010936  0.00000000       0.005
   0.05054680  0.01010936  0.00000000       0.005
   0.06065617  0.01010936  0.00000000       0.002
   0.00000000  0.02021872  0.00000000       0.002
   0.01010936  0.02021872  0.00000000       0.005
   0.02021872  0.02021872  0.00000000       0.005
   0.03032808  0.02021872  0.00000000       0.005
   0.04043744  0.02021872  0.00000000       0.005
   0.05054680  0.02021872  0.00000000       0.005
   0.06065617  0.02021872  0.00000000       0.002
   0.00000000  0.03032808  0.00000000       0.002
   0.01010936  0.03032808  0.00000000       0.005
   0.02021872  0.03032808  0.00000000       0.005
   0.03032808  0.03032808  0.00000000       0.005
   0.04043744  0.03032808  0.00000000       0.005
   0.05054680  0.03032808  0.00000000       0.005
   0.06065617  0.03032808  0.00000000       0.002
   0.00000000  0.04043744  0.00000000       0.002
   0.01010936  0.04043744  0.00000000       0.005
   0.02021872  0.04043744  0.00000000       0.005
   0.03032808  0.04043744  0.00000000       0.005
   0.04043744  0.04043744  0.00000000       0.005
   0.05054680  0.04043744  0.00000000       0.005
   0.06065617  0.04043744  0.00000000       0.002
   0.00000000  0.05054680  0.00000000       0.002
   0.01010936  0.05054680  0.00000000       0.005
   0.02021872  0.05054680  0.00000000       0.005
   0.03032808  0.05054680  0.00000000       0.005
   0.04043744  0.05054680  0.00000000       0.005
   0.05054680  0.05054680  0.00000000       0.005
   0.06065617  0.05054680  0.00000000       0.002
   0.00000000  0.06065617  0.00000000       0.001
   0.01010936  0.06065617  0.00000000       0.002
   0.02021872  0.06065617  0.00000000       0.002
   0.03032808  0.06065617  0.00000000       0.002
   0.04043744  0.06065617  0.00000000       0.002
   0.05054680  0.06065617  0.00000000       0.002
   0.06065617  0.06065617  0.00000000       0.001
   0.00000000  0.01010936  0.01010936       0.002
   0.01010936  0.01010936  0.01010936       0.005
   0.02021872  0.01010936  0.01010936       0.005
   0.03032808  0.01010936  0.01010936       0.005
   0.04043744  0.01010936  0.01010936       0.005
   0.05054680  0.01010936  0.01010936       0.005
   0.06065617  0.01010936  0.01010936       0.002
   0.00000000  0.02021872  0.01010936       0.005
   0.01010936  0.02021872  0.01010936       0.009
   0.02021872  0.02021872  0.01010936       0.009
   0.03032808  0.02021872  0.01010936       0.009
   0.04043744  0.02021872  0.01010936       0.009
   0.05054680  0.02021872  0.01010936       0.009
   0.06065617  0.02021872  0.01010936       0.005
   0.00000000  0.03032808  0.01010936       0.005
   0.01010936  0.03032808  0.01010936       0.009
   0.02021872  0.03032808  0.01010936       0.009
   0.03032808  0.03032808  0.01010936       0.009
   0.04043744  0.03032808  0.01010936       0.009
   0.05054680  0.03032808  0.01010936       0.009
   0.06065617  0.03032808  0.01010936       0.005
   0.00000000  0.04043744  0.01010936       0.005
   0.01010936  0.04043744  0.01010936       0.009
   0.02021872  0.04043744  0.01010936       0.009
   0.03032808  0.04043744  0.01010936       0.009
   0.04043744  0.04043744  0.01010936       0.009
   0.05054680  0.04043744  0.01010936       0.009
   0.06065617  0.04043744  0.01010936       0.005
   0.00000000  0.05054680  0.01010936       0.005
   0.01010936  0.05054680  0.01010936       0.009
   0.02021872  0.05054680  0.01010936       0.009
   0.03032808  0.05054680  0.01010936       0.009
   0.04043744  0.05054680  0.01010936       0.009
   0.05054680  0.05054680  0.01010936       0.009
   0.06065617  0.05054680  0.01010936       0.005
   0.00000000  0.06065617  0.01010936       0.002
   0.01010936  0.06065617  0.01010936       0.005
   0.02021872  0.06065617  0.01010936       0.005
   0.03032808  0.06065617  0.01010936       0.005
   0.04043744  0.06065617  0.01010936       0.005
   0.05054680  0.06065617  0.01010936       0.005
   0.06065617  0.06065617  0.01010936       0.002
   0.00000000  0.02021872  0.02021872       0.002
   0.01010936  0.02021872  0.02021872       0.005
   0.02021872  0.02021872  0.02021872       0.005
   0.03032808  0.02021872  0.02021872       0.005
   0.04043744  0.02021872  0.02021872       0.005
   0.05054680  0.02021872  0.02021872       0.005
   0.06065617  0.02021872  0.02021872       0.002
   0.00000000  0.03032808  0.02021872       0.005
   0.01010936  0.03032808  0.02021872       0.009
   0.02021872  0.03032808  0.02021872       0.009
   0.03032808  0.03032808  0.02021872       0.009
   0.04043744  0.03032808  0.02021872       0.009
   0.05054680  0.03032808  0.02021872       0.009
   0.06065617  0.03032808  0.02021872       0.005
   0.00000000  0.04043744  0.02021872       0.005
   0.01010936  0.04043744  0.02021872       0.009
   0.02021872  0.04043744  0.02021872       0.009
   0.03032808  0.04043744  0.02021872       0.009
   0.04043744  0.04043744  0.02021872       0.009
   0.05054680  0.04043744  0.02021872       0.009
   0.06065617  0.04043744  0.02021872       0.005
   0.00000000  0.05054680  0.02021872       0.005
   0.01010936  0.05054680  0.02021872       0.009
   0.02021872  0.05054680  0.02021872       0.009
   0.03032808  0.05054680  0.02021872       0.009
   0.04043744  0.05054680  0.02021872       0.009
   0.05054680  0.05054680  0.02021872       0.009
   0.06065617  0.05054680  0.02021872       0.005
   0.00000000  0.06065617  0.02021872       0.002
   0.01010936  0.06065617  0.02021872       0.005
   0.02021872  0.06065617  0.02021872       0.005
   0.03032808  0.06065617  0.02021872       0.005
   0.04043744  0.06065617  0.02021872       0.005
   0.05054680  0.06065617  0.02021872       0.005
   0.06065617  0.06065617  0.02021872       0.002
   0.00000000  0.03032808  0.03032808       0.002
   0.01010936  0.03032808  0.03032808       0.005
   0.02021872  0.03032808  0.03032808       0.005
   0.03032808  0.03032808  0.03032808       0.005
   0.04043744  0.03032808  0.03032808       0.005
   0.05054680  0.03032808  0.03032808       0.005
   0.06065617  0.03032808  0.03032808       0.002
   0.00000000  0.04043744  0.03032808       0.005
   0.01010936  0.04043744  0.03032808       0.009
   0.02021872  0.04043744  0.03032808       0.009
   0.03032808  0.04043744  0.03032808       0.009
   0.04043744  0.04043744  0.03032808       0.009
   0.05054680  0.04043744  0.03032808       0.009
   0.06065617  0.04043744  0.03032808       0.005
   0.00000000  0.05054680  0.03032808       0.005
   0.01010936  0.05054680  0.03032808       0.009
   0.02021872  0.05054680  0.03032808       0.009
   0.03032808  0.05054680  0.03032808       0.009
   0.04043744  0.05054680  0.03032808       0.009
   0.05054680  0.05054680  0.03032808       0.009
   0.06065617  0.05054680  0.03032808       0.005
   0.00000000  0.06065617  0.03032808       0.002
   0.01010936  0.06065617  0.03032808       0.005
   0.02021872  0.06065617  0.03032808       0.005
   0.03032808  0.06065617  0.03032808       0.005
   0.04043744  0.06065617  0.03032808       0.005
   0.05054680  0.06065617  0.03032808       0.005
   0.06065617  0.06065617  0.03032808       0.002
   0.00000000  0.04043744  0.04043744       0.002
   0.01010936  0.04043744  0.04043744       0.005
   0.02021872  0.04043744  0.04043744       0.005
   0.03032808  0.04043744  0.04043744       0.005
   0.04043744  0.04043744  0.04043744       0.005
   0.05054680  0.04043744  0.04043744       0.005
   0.06065617  0.04043744  0.04043744       0.002
   0.00000000  0.05054680  0.04043744       0.005
   0.01010936  0.05054680  0.04043744       0.009
   0.02021872  0.05054680  0.04043744       0.009
   0.03032808  0.05054680  0.04043744       0.009
   0.04043744  0.05054680  0.04043744       0.009
   0.05054680  0.05054680  0.04043744       0.009
   0.06065617  0.05054680  0.04043744       0.005
   0.00000000  0.06065617  0.04043744       0.002
   0.01010936  0.06065617  0.04043744       0.005
   0.02021872  0.06065617  0.04043744       0.005
   0.03032808  0.06065617  0.04043744       0.005
   0.04043744  0.06065617  0.04043744       0.005
   0.05054680  0.06065617  0.04043744       0.005
   0.06065617  0.06065617  0.04043744       0.002
   0.00000000  0.05054680  0.05054680       0.002
   0.01010936  0.05054680  0.05054680       0.005
   0.02021872  0.05054680  0.05054680       0.005
   0.03032808  0.05054680  0.05054680       0.005
   0.04043744  0.05054680  0.05054680       0.005
   0.05054680  0.05054680  0.05054680       0.005
   0.06065617  0.05054680  0.05054680       0.002
   0.00000000  0.06065617  0.05054680       0.002
   0.01010936  0.06065617  0.05054680       0.005
   0.02021872  0.06065617  0.05054680       0.005
   0.03032808  0.06065617  0.05054680       0.005
   0.04043744  0.06065617  0.05054680       0.005
   0.05054680  0.06065617  0.05054680       0.005
   0.06065617  0.06065617  0.05054680       0.002
   0.00000000  0.06065617  0.06065617       0.001
   0.01010936  0.06065617  0.06065617       0.001
   0.02021872  0.06065617  0.06065617       0.001
   0.03032808  0.06065617  0.06065617       0.001
   0.04043744  0.06065617  0.06065617       0.001
   0.05054680  0.06065617  0.06065617       0.001
   0.06065617  0.06065617  0.06065617       0.001
 
 k-points in reciprocal lattice and weights: Automatic mesh                          
   0.00000000  0.00000000  0.00000000       0.001
   0.08333333  0.00000000  0.00000000       0.001
   0.16666667  0.00000000  0.00000000       0.001
   0.25000000  0.00000000  0.00000000       0.001
   0.33333333  0.00000000  0.00000000       0.001
   0.41666667  0.00000000  0.00000000       0.001
   0.50000000  0.00000000  0.00000000       0.001
   0.00000000  0.08333333  0.00000000       0.002
   0.08333333  0.08333333  0.00000000       0.005
   0.16666667  0.08333333  0.00000000       0.005
   0.25000000  0.08333333  0.00000000       0.005
   0.33333333  0.08333333  0.00000000       0.005
   0.41666667  0.08333333  0.00000000       0.005
   0.50000000  0.08333333  0.00000000       0.002
   0.00000000  0.16666667  0.00000000       0.002
   0.08333333  0.16666667  0.00000000       0.005
   0.16666667  0.16666667  0.00000000       0.005
   0.25000000  0.16666667  0.00000000       0.005
   0.33333333  0.16666667  0.00000000       0.005
   0.41666667  0.16666667  0.00000000       0.005
   0.50000000  0.16666667  0.00000000       0.002
   0.00000000  0.25000000  0.00000000       0.002
   0.08333333  0.25000000  0.00000000       0.005
   0.16666667  0.25000000  0.00000000       0.005
   0.25000000  0.25000000  0.00000000       0.005
   0.33333333  0.25000000  0.00000000       0.005
   0.41666667  0.25000000  0.00000000       0.005
   0.50000000  0.25000000  0.00000000       0.002
   0.00000000  0.33333333  0.00000000       0.002
   0.08333333  0.33333333  0.00000000       0.005
   0.16666667  0.33333333  0.00000000       0.005
   0.25000000  0.33333333  0.00000000       0.005
   0.33333333  0.33333333  0.00000000       0.005
   0.41666667  0.33333333  0.00000000       0.005
   0.50000000  0.33333333  0.00000000       0.002
   0.00000000  0.41666667  0.00000000       0.002
   0.08333333  0.41666667  0.00000000       0.005
   0.16666667  0.41666667  0.00000000       0.005
   0.25000000  0.41666667  0.00000000       0.005
   0.33333333  0.41666667  0.00000000       0.005
   0.41666667  0.41666667  0.00000000       0.005
   0.50000000  0.41666667  0.00000000       0.002
   0.00000000  0.50000000  0.00000000       0.001
   0.08333333  0.50000000  0.00000000       0.002
   0.16666667  0.50000000  0.00000000       0.002
   0.25000000  0.50000000  0.00000000       0.002
   0.33333333  0.50000000  0.00000000       0.002
   0.41666667  0.50000000  0.00000000       0.002
   0.50000000  0.50000000  0.00000000       0.001
   0.00000000  0.08333333  0.08333333       0.002
   0.08333333  0.08333333  0.08333333       0.005
   0.16666667  0.08333333  0.08333333       0.005
   0.25000000  0.08333333  0.08333333       0.005
   0.33333333  0.08333333  0.08333333       0.005
   0.41666667  0.08333333  0.08333333       0.005
   0.50000000  0.08333333  0.08333333       0.002
   0.00000000  0.16666667  0.08333333       0.005
   0.08333333  0.16666667  0.08333333       0.009
   0.16666667  0.16666667  0.08333333       0.009
   0.25000000  0.16666667  0.08333333       0.009
   0.33333333  0.16666667  0.08333333       0.009
   0.41666667  0.16666667  0.08333333       0.009
   0.50000000  0.16666667  0.08333333       0.005
   0.00000000  0.25000000  0.08333333       0.005
   0.08333333  0.25000000  0.08333333       0.009
   0.16666667  0.25000000  0.08333333       0.009
   0.25000000  0.25000000  0.08333333       0.009
   0.33333333  0.25000000  0.08333333       0.009
   0.41666667  0.25000000  0.08333333       0.009
   0.50000000  0.25000000  0.08333333       0.005
   0.00000000  0.33333333  0.08333333       0.005
   0.08333333  0.33333333  0.08333333       0.009
   0.16666667  0.33333333  0.08333333       0.009
   0.25000000  0.33333333  0.08333333       0.009
   0.33333333  0.33333333  0.08333333       0.009
   0.41666667  0.33333333  0.08333333       0.009
   0.50000000  0.33333333  0.08333333       0.005
   0.00000000  0.41666667  0.08333333       0.005
   0.08333333  0.41666667  0.08333333       0.009
   0.16666667  0.41666667  0.08333333       0.009
   0.25000000  0.41666667  0.08333333       0.009
   0.33333333  0.41666667  0.08333333       0.009
   0.41666667  0.41666667  0.08333333       0.009
   0.50000000  0.41666667  0.08333333       0.005
   0.00000000  0.50000000  0.08333333       0.002
   0.08333333  0.50000000  0.08333333       0.005
   0.16666667  0.50000000  0.08333333       0.005
   0.25000000  0.50000000  0.08333333       0.005
   0.33333333  0.50000000  0.08333333       0.005
   0.41666667  0.50000000  0.08333333       0.005
   0.50000000  0.50000000  0.08333333       0.002
   0.00000000  0.16666667  0.16666667       0.002
   0.08333333  0.16666667  0.16666667       0.005
   0.16666667  0.16666667  0.16666667       0.005
   0.25000000  0.16666667  0.16666667       0.005
   0.33333333  0.16666667  0.16666667       0.005
   0.41666667  0.16666667  0.16666667       0.005
   0.50000000  0.16666667  0.16666667       0.002
   0.00000000  0.25000000  0.16666667       0.005
   0.08333333  0.25000000  0.16666667       0.009
   0.16666667  0.25000000  0.16666667       0.009
   0.25000000  0.25000000  0.16666667       0.009
   0.33333333  0.25000000  0.16666667       0.009
   0.41666667  0.25000000  0.16666667       0.009
   0.50000000  0.25000000  0.16666667       0.005
   0.00000000  0.33333333  0.16666667       0.005
   0.08333333  0.33333333  0.16666667       0.009
   0.16666667  0.33333333  0.16666667       0.009
   0.25000000  0.33333333  0.16666667       0.009
   0.33333333  0.33333333  0.16666667       0.009
   0.41666667  0.33333333  0.16666667       0.009
   0.50000000  0.33333333  0.16666667       0.005
   0.00000000  0.41666667  0.16666667       0.005
   0.08333333  0.41666667  0.16666667       0.009
   0.16666667  0.41666667  0.16666667       0.009
   0.25000000  0.41666667  0.16666667       0.009
   0.33333333  0.41666667  0.16666667       0.009
   0.41666667  0.41666667  0.16666667       0.009
   0.50000000  0.41666667  0.16666667       0.005
   0.00000000  0.50000000  0.16666667       0.002
   0.08333333  0.50000000  0.16666667       0.005
   0.16666667  0.50000000  0.16666667       0.005
   0.25000000  0.50000000  0.16666667       0.005
   0.33333333  0.50000000  0.16666667       0.005
   0.41666667  0.50000000  0.16666667       0.005
   0.50000000  0.50000000  0.16666667       0.002
   0.00000000  0.25000000  0.25000000       0.002
   0.08333333  0.25000000  0.25000000       0.005
   0.16666667  0.25000000  0.25000000       0.005
   0.25000000  0.25000000  0.25000000       0.005
   0.33333333  0.25000000  0.25000000       0.005
   0.41666667  0.25000000  0.25000000       0.005
   0.50000000  0.25000000  0.25000000       0.002
   0.00000000  0.33333333  0.25000000       0.005
   0.08333333  0.33333333  0.25000000       0.009
   0.16666667  0.33333333  0.25000000       0.009
   0.25000000  0.33333333  0.25000000       0.009
   0.33333333  0.33333333  0.25000000       0.009
   0.41666667  0.33333333  0.25000000       0.009
   0.50000000  0.33333333  0.25000000       0.005
   0.00000000  0.41666667  0.25000000       0.005
   0.08333333  0.41666667  0.25000000       0.009
   0.16666667  0.41666667  0.25000000       0.009
   0.25000000  0.41666667  0.25000000       0.009
   0.33333333  0.41666667  0.25000000       0.009
   0.41666667  0.41666667  0.25000000       0.009
   0.50000000  0.41666667  0.25000000       0.005
   0.00000000  0.50000000  0.25000000       0.002
   0.08333333  0.50000000  0.25000000       0.005
   0.16666667  0.50000000  0.25000000       0.005
   0.25000000  0.50000000  0.25000000       0.005
   0.33333333  0.50000000  0.25000000       0.005
   0.41666667  0.50000000  0.25000000       0.005
   0.50000000  0.50000000  0.25000000       0.002
   0.00000000  0.33333333  0.33333333       0.002
   0.08333333  0.33333333  0.33333333       0.005
   0.16666667  0.33333333  0.33333333       0.005
   0.25000000  0.33333333  0.33333333       0.005
   0.33333333  0.33333333  0.33333333       0.005
   0.41666667  0.33333333  0.33333333       0.005
   0.50000000  0.33333333  0.33333333       0.002
   0.00000000  0.41666667  0.33333333       0.005
   0.08333333  0.41666667  0.33333333       0.009
   0.16666667  0.41666667  0.33333333       0.009
   0.25000000  0.41666667  0.33333333       0.009
   0.33333333  0.41666667  0.33333333       0.009
   0.41666667  0.41666667  0.33333333       0.009
   0.50000000  0.41666667  0.33333333       0.005
   0.00000000  0.50000000  0.33333333       0.002
   0.08333333  0.50000000  0.33333333       0.005
   0.16666667  0.50000000  0.33333333       0.005
   0.25000000  0.50000000  0.33333333       0.005
   0.33333333  0.50000000  0.33333333       0.005
   0.41666667  0.50000000  0.33333333       0.005
   0.50000000  0.50000000  0.33333333       0.002
   0.00000000  0.41666667  0.41666667       0.002
   0.08333333  0.41666667  0.41666667       0.005
   0.16666667  0.41666667  0.41666667       0.005
   0.25000000  0.41666667  0.41666667       0.005
   0.33333333  0.41666667  0.41666667       0.005
   0.41666667  0.41666667  0.41666667       0.005
   0.50000000  0.41666667  0.41666667       0.002
   0.00000000  0.50000000  0.41666667       0.002
   0.08333333  0.50000000  0.41666667       0.005
   0.16666667  0.50000000  0.41666667       0.005
   0.25000000  0.50000000  0.41666667       0.005
   0.33333333  0.50000000  0.41666667       0.005
   0.41666667  0.50000000  0.41666667       0.005
   0.50000000  0.50000000  0.41666667       0.002
   0.00000000  0.50000000  0.50000000       0.001
   0.08333333  0.50000000  0.50000000       0.001
   0.16666667  0.50000000  0.50000000       0.001
   0.25000000  0.50000000  0.50000000       0.001
   0.33333333  0.50000000  0.50000000       0.001
   0.41666667  0.50000000  0.50000000       0.001
   0.50000000  0.50000000  0.50000000       0.001
 
 position of ions in fractional coordinates (direct lattice) 
   0.00121312  0.00000000  0.00000000
   0.50000000  0.00000000  0.00000000
   0.00000000  0.50000000  0.00000000
   0.50000000  0.50000000  0.00000000
   0.00000000  0.00000000  0.50000000
   0.50000000  0.00000000  0.50000000
   0.00000000  0.50000000  0.50000000
   0.50000000  0.50000000  0.50000000
   0.25000000  0.25000000  0.00000000
   0.75000000  0.25000000  0.00000000
   0.25000000  0.75000000  0.00000000
   0.75000000  0.75000000  0.00000000
   0.25000000  0.25000000  0.50000000
   0.75000000  0.25000000  0.50000000
   0.25000000  0.75000000  0.50000000
   0.75000000  0.75000000  0.50000000
   0.25000000  0.00000000  0.25000000
   0.75000000  0.00000000  0.25000000
   0.25000000  0.50000000  0.25000000
   0.75000000  0.50000000  0.25000000
   0.25000000  0.00000000  0.75000000
   0.75000000  0.00000000  0.75000000
   0.25000000  0.50000000  0.75000000
   0.75000000  0.50000000  0.75000000
   0.00000000  0.25000000  0.25000000
   0.50000000  0.25000000  0.25000000
   0.00000000  0.75000000  0.25000000
   0.50000000  0.75000000  0.25000000
   0.00000000  0.25000000  0.75000000
   0.50000000  0.25000000  0.75000000
   0.00000000  0.75000000  0.75000000
   0.50000000  0.75000000  0.75000000
 
 position of ions in cartesian coordinates  (Angst):
   0.01000000  0.00000000  0.00000000
   4.12159253  0.00000000  0.00000000
   0.00000000  4.12159253  0.00000000
   4.12159253  4.12159253  0.00000000
   0.00000000  0.00000000  4.12159253
   4.12159253  0.00000000  4.12159253
   0.00000000  4.12159253  4.12159253
   4.12159253  4.12159253  4.12159253
   2.06079627  2.06079627  0.00000000
   6.18238880  2.06079627  0.00000000
   2.06079627  6.18238880  0.00000000
   6.18238880  6.18238880  0.00000000
   2.06079627  2.06079627  4.12159253
   6.18238880  2.06079627  4.12159253
   2.06079627  6.18238880  4.12159253
   6.18238880  6.18238880  4.12159253
   2.06079627  0.00000000  2.06079627
   6.18238880  0.00000000  2.06079627
   2.06079627  4.12159253  2.06079627
   6.18238880  4.12159253  2.06079627
   2.06079627  0.00000000  6.18238880
   6.18238880  0.00000000  6.18238880
   2.06079627  4.12159253  6.18238880
   6.18238880  4.12159253  6.18238880
   0.00000000  2.06079627  2.06079627
   4.12159253  2.06079627  2.06079627
   0.00000000  6.18238880  2.06079627
   4.12159253  6.18238880  2.06079627
   0.00000000  2.06079627  6.18238880
   4.12159253  2.06079627  6.18238880
   0.00000000  6.18238880  6.18238880
   4.12159253  6.18238880  6.18238880
 


--------------------------------------------------------------------------------------------------------


 k-point  1 :  0.00000.00000.0000  plane waves:  26001
 k-point  2 :  0.08330.00000.0000  plane waves:  26033
 k-point  3 :  0.16670.00000.0000  plane waves:  26117
 k-point  4 :  0.25000.00000.0000  plane waves:  26161
 k-point  5 :  0.33330.00000.0000  plane waves:  26193
 k-point  6 :  0.41670.00000.0000  plane waves:  26168
 k-point  7 :  0.50000.00000.0000  plane waves:  26148
 k-point  8 :  0.00000.08330.0000  plane waves:  26033
 k-point  9 :  0.08330.08330.0000  plane waves:  26074
 k-point 10 :  0.16670.08330.0000  plane waves:  26128
 k-point 11 :  0.25000.08330.0000  plane waves:  26145
 k-point 12 :  0.33330.08330.0000  plane waves:  26159
 k-point 13 :  0.41670.08330.0000  plane waves:  26143
 k-point 14 :  0.50000.08330.0000  plane waves:  26144
 k-point 15 :  0.00000.16670.0000  plane waves:  26117
 k-point 16 :  0.08330.16670.0000  plane waves:  26128
 k-point 17 :  0.16670.16670.0000  plane waves:  26144
 k-point 18 :  0.25000.16670.0000  plane waves:  26138
 k-point 19 :  0.33330.16670.0000  plane waves:  26157
 k-point 20 :  0.41670.16670.0000  plane waves:  26132
 k-point 21 :  0.50000.16670.0000  plane waves:  26142
 k-point 22 :  0.00000.25000.0000  plane waves:  26161
 k-point 23 :  0.08330.25000.0000  plane waves:  26145
 k-point 24 :  0.16670.25000.0000  plane waves:  26138
 k-point 25 :  0.25000.25000.0000  plane waves:  26150
 k-point 26 :  0.33330.25000.0000  plane waves:  26126
 k-point 27 :  0.41670.25000.0000  plane waves:  26135
 k-point 28 :  0.50000.25000.0000  plane waves:  26150
 k-point 29 :  0.00000.33330.0000  plane waves:  26193
 k-point 30 :  0.08330.33330.0000  plane waves:  26159
 k-point 31 :  0.16670.33330.0000  plane waves:  26157
 k-point 32 :  0.25000.33330.0000  plane waves:  26126
 k-point 33 :  0.33330.33330.0000  plane waves:  26120
 k-point 34 :  0.41670.33330.0000  plane waves:  26128
 k-point 35 :  0.50000.33330.0000  plane waves:  26142
 k-point 36 :  0.00000.41670.0000  plane waves:  26168
 k-point 37 :  0.08330.41670.0000  plane waves:  26143
 k-point 38 :  0.16670.41670.0000  plane waves:  26132
 k-point 39 :  0.25000.41670.0000  plane waves:  26135
 k-point 40 :  0.33330.41670.0000  plane waves:  26128
 k-point 41 :  0.41670.41670.0000  plane waves:  26092
 k-point 42 :  0.50000.41670.0000  plane waves:  26122
 k-point 43 :  0.00000.50000.0000  plane waves:  26148
 k-point 44 :  0.08330.50000.0000  plane waves:  26144
 k-point 45 :  0.16670.50000.0000  plane waves:  26142
 k-point 46 :  0.25000.50000.0000  plane waves:  26150
 k-point 47 :  0.33330.50000.0000  plane waves:  26142
 k-point 48 :  0.41670.50000.0000  plane waves:  26122
 k-point 49 :  0.50000.50000.0000  plane waves:  26148
 k-point 50 :  0.00000.08330.0833  plane waves:  26074
 k-point 51 :  0.08330.08330.0833  plane waves:  26109
 k-point 52 :  0.16670.08330.0833  plane waves:  26121
 k-point 53 :  0.25000.08330.0833  plane waves:  26134
 k-point 54 :  0.33330.08330.0833  plane waves:  26168
 k-point 55 :  0.41670.08330.0833  plane waves:  26146
 k-point 56 :  0.50000.08330.0833  plane waves:  26162
 k-point 57 :  0.00000.16670.0833  plane waves:  26128
 k-point 58 :  0.08330.16670.0833  plane waves:  26121
 k-point 59 :  0.16670.16670.0833  plane waves:  26136
 k-point 60 :  0.25000.16670.0833  plane waves:  26147
 k-point 61 :  0.33330.16670.0833  plane waves:  26158
 k-point 62 :  0.41670.16670.0833  plane waves:  26133
 k-point 63 :  0.50000.16670.0833  plane waves:  26128
 k-point 64 :  0.00000.25000.0833  plane waves:  26145
 k-point 65 :  0.08330.25000.0833  plane waves:  26134
 k-point 66 :  0.16670.25000.0833  plane waves:  26147
 k-point 67 :  0.25000.25000.0833  plane waves:  26137
 k-point 68 :  0.33330.25000.0833  plane waves:  26123
 k-point 69 :  0.41670.25000.0833  plane waves:  26133
 k-point 70 :  0.50000.25000.0833  plane waves:  26120
 k-point 71 :  0.00000.33330.0833  plane waves:  26159
 k-point 72 :  0.08330.33330.0833  plane waves:  26168
 k-point 73 :  0.16670.33330.0833  plane waves:  26158
 k-point 74 :  0.25000.33330.0833  plane waves:  26123
 k-point 75 :  0.33330.33330.0833  plane waves:  26121
 k-point 76 :  0.41670.33330.0833  plane waves:  26136
 k-point 77 :  0.50000.33330.0833  plane waves:  26120
 k-point 78 :  0.00000.41670.0833  plane waves:  26143
 k-point 79 :  0.08330.41670.0833  plane waves:  26146
 k-point 80 :  0.16670.41670.0833  plane waves:  26133
 k-point 81 :  0.25000.41670.0833  plane waves:  26133
 k-point 82 :  0.33330.41670.0833  plane waves:  26136
 k-point 83 :  0.41670.41670.0833  plane waves:  26111
 k-point 84 :  0.50000.41670.0833  plane waves:  26110
 k-point 85 :  0.00000.50000.0833  plane waves:  26144
 k-point 86 :  0.08330.50000.0833  plane waves:  26162
 k-point 87 :  0.16670.50000.0833  plane waves:  26128
 k-point 88 :  0.25000.50000.0833  plane waves:  26120
 k-point 89 :  0.33330.50000.0833  plane waves:  26120
 k-point 90 :  0.41670.50000.0833  plane waves:  26110
 k-point 91 :  0.50000.50000.0833  plane waves:  26108
 k-point 92 :  0.00000.16670.1667  plane waves:  26144
 k-point 93 :  0.08330.16670.1667  plane waves:  26136
 k-point 94 :  0.16670.16670.1667  plane waves:  26160
 k-point 95 :  0.25000.16670.1667  plane waves:  26139
 k-point 96 :  0.33330.16670.1667  plane waves:  26120
 k-point 97 :  0.41670.16670.1667  plane waves:  26114
 k-point 98 :  0.50000.16670.1667  plane waves:  26120
 k-point 99 :  0.00000.25000.1667  plane waves:  26138
 k-point ** :  0.08330.25000.1667  plane waves:  26147
 k-point ** :  0.16670.25000.1667  plane waves:  26139
 k-point ** :  0.25000.25000.1667  plane waves:  26117
 k-point ** :  0.33330.25000.1667  plane waves:  26128
 k-point ** :  0.41670.25000.1667  plane waves:  26133
 k-point ** :  0.50000.25000.1667  plane waves:  26132
 k-point ** :  0.00000.33330.1667  plane waves:  26157
 k-point ** :  0.08330.33330.1667  plane waves:  26158
 k-point ** :  0.16670.33330.1667  plane waves:  26120
 k-point ** :  0.25000.33330.1667  plane waves:  26128
 k-point ** :  0.33330.33330.1667  plane waves:  26104
 k-point ** :  0.41670.33330.1667  plane waves:  26131
 k-point ** :  0.50000.33330.1667  plane waves:  26110
 k-point ** :  0.00000.41670.1667  plane waves:  26132
 k-point ** :  0.08330.41670.1667  plane waves:  26133
 k-point ** :  0.16670.41670.1667  plane waves:  26114
 k-point ** :  0.25000.41670.1667  plane waves:  26133
 k-point ** :  0.33330.41670.1667  plane waves:  26131
 k-point ** :  0.41670.41670.1667  plane waves:  26116
 k-point ** :  0.50000.41670.1667  plane waves:  26116
 k-point ** :  0.00000.50000.1667  plane waves:  26142
 k-point ** :  0.08330.50000.1667  plane waves:  26128
 k-point ** :  0.16670.50000.1667  plane waves:  26120
 k-point ** :  0.25000.50000.1667  plane waves:  26132
 k-point ** :  0.33330.50000.1667  plane waves:  26110
 k-point ** :  0.41670.50000.1667  plane waves:  26116
 k-point ** :  0.50000.50000.1667  plane waves:  26108
 k-point ** :  0.00000.25000.2500  plane waves:  26150
 k-point ** :  0.08330.25000.2500  plane waves:  26137
 k-point ** :  0.16670.25000.2500  plane waves:  26117
 k-point ** :  0.25000.25000.2500  plane waves:  26133
 k-point ** :  0.33330.25000.2500  plane waves:  26116
 k-point ** :  0.41670.25000.2500  plane waves:  26115
 k-point ** :  0.50000.25000.2500  plane waves:  26118
 k-point ** :  0.00000.33330.2500  plane waves:  26126
 k-point ** :  0.08330.33330.2500  plane waves:  26123
 k-point ** :  0.16670.33330.2500  plane waves:  26128
 k-point ** :  0.25000.33330.2500  plane waves:  26116
 k-point ** :  0.33330.33330.2500  plane waves:  26096
 k-point ** :  0.41670.33330.2500  plane waves:  26088
 k-point ** :  0.50000.33330.2500  plane waves:  26112
 k-point ** :  0.00000.41670.2500  plane waves:  26135
 k-point ** :  0.08330.41670.2500  plane waves:  26133
 k-point ** :  0.16670.41670.2500  plane waves:  26133
 k-point ** :  0.25000.41670.2500  plane waves:  26115
 k-point ** :  0.33330.41670.2500  plane waves:  26088
 k-point ** :  0.41670.41670.2500  plane waves:  26098
 k-point ** :  0.50000.41670.2500  plane waves:  26082
 k-point ** :  0.00000.50000.2500  plane waves:  26150
 k-point ** :  0.08330.50000.2500  plane waves:  26120
 k-point ** :  0.16670.50000.2500  plane waves:  26132
 k-point ** :  0.25000.50000.2500  plane waves:  26118
 k-point ** :  0.33330.50000.2500  plane waves:  26112
 k-point ** :  0.41670.50000.2500  plane waves:  26082
 k-point ** :  0.50000.50000.2500  plane waves:  26124
 k-point ** :  0.00000.33330.3333  plane waves:  26120
 k-point ** :  0.08330.33330.3333  plane waves:  26121
 k-point ** :  0.16670.33330.3333  plane waves:  26104
 k-point ** :  0.25000.33330.3333  plane waves:  26096
 k-point ** :  0.33330.33330.3333  plane waves:  26064
 k-point ** :  0.41670.33330.3333  plane waves:  26092
 k-point ** :  0.50000.33330.3333  plane waves:  26132
 k-point ** :  0.00000.41670.3333  plane waves:  26128
 k-point ** :  0.08330.41670.3333  plane waves:  26136
 k-point ** :  0.16670.41670.3333  plane waves:  26131
 k-point ** :  0.25000.41670.3333  plane waves:  26088
 k-point ** :  0.33330.41670.3333  plane waves:  26092
 k-point ** :  0.41670.41670.3333  plane waves:  26110
 k-point ** :  0.50000.41670.3333  plane waves:  26088
 k-point ** :  0.00000.50000.3333  plane waves:  26142
 k-point ** :  0.08330.50000.3333  plane waves:  26120
 k-point ** :  0.16670.50000.3333  plane waves:  26110
 k-point ** :  0.25000.50000.3333  plane waves:  26112
 k-point ** :  0.33330.50000.3333  plane waves:  26132
 k-point ** :  0.41670.50000.3333  plane waves:  26088
 k-point ** :  0.50000.50000.3333  plane waves:  26084
 k-point ** :  0.00000.41670.4167  plane waves:  26092
 k-point ** :  0.08330.41670.4167  plane waves:  26111
 k-point ** :  0.16670.41670.4167  plane waves:  26116
 k-point ** :  0.25000.41670.4167  plane waves:  26098
 k-point ** :  0.33330.41670.4167  plane waves:  26110
 k-point ** :  0.41670.41670.4167  plane waves:  26068
 k-point ** :  0.50000.41670.4167  plane waves:  26074
 k-point ** :  0.00000.50000.4167  plane waves:  26122
 k-point ** :  0.08330.50000.4167  plane waves:  26110
 k-point ** :  0.16670.50000.4167  plane waves:  26116
 k-point ** :  0.25000.50000.4167  plane waves:  26082
 k-point ** :  0.33330.50000.4167  plane waves:  26088
 k-point ** :  0.41670.50000.4167  plane waves:  26074
 k-point ** :  0.50000.50000.4167  plane waves:  26068
 k-point ** :  0.00000.50000.5000  plane waves:  26148
 k-point ** :  0.08330.50000.5000  plane waves:  26108
 k-point ** :  0.16670.50000.5000  plane waves:  26108
 k-point ** :  0.25000.50000.5000  plane waves:  26124
 k-point ** :  0.33330.50000.5000  plane waves:  26084
 k-point ** :  0.41670.50000.5000  plane waves:  26068
 k-point ** :  0.50000.50000.5000  plane waves:  26200

 maximum and minimum number of plane-waves per node :  26200 26001

 maximum number of plane-waves:  26200
 maximal index in each direction: 
   IXMAX= 18   IYMAX= 18   IZMAX= 18
   IXMIN=-18   IYMIN=-18   IZMIN=-18

 NGX is ok and might be reduce to  74
 NGY is ok and might be reduce to  74
 NGZ is ok and might be reduce to  74

 parallel 3dFFT wavefunction:
    minimum data exchange during FFTs selected (reduces bandwidth)
 parallel 3dFFT charge:
    minimum data exchange during FFTs selected (reduces bandwidth)

 For storing wavefunctions ******* MBYTES are necessary
 For predicting wavefunctions  190.95 MBYTES are necessary
Broyden mixing: mesh for mixing (old mesh)
   NGX = 37   NGY = 37   NGZ = 37
  (NGX  =160   NGY  =160   NGZ  =160)
 gives a total of  50653 points
 initial charge density was supplied:
 charge density of overlapping atoms calculated
 number of electron  352.0000000 magnetization 
 keeping initial charge density in first step


--------------------------------------------------------------------------------------------------------


 Maximum index for augmentation-charges        43759 (set IRDMAX)


--------------------------------------------------------------------------------------------------------


 First call to EWALD:  gamma=   0.215
 Maximum number of real-space cells 3x 3x 3
 Maximum number of reciprocal cells 3x 3x 3

    FEWALD:  VPU time    0.00: CPU time    0.00


----------------------------------------- Iteration    1(   1)  ---------------------------------------


    POTLOK:  VPU time    0.38: CPU time    0.38
    SETDIJ:  VPU time    0.63: CPU time    0.63
    EDDAV :  VPU time 1761.04: CPU time 1763.94
    DOS   :  VPU time    0.00: CPU time   -0.00
    ------------------------------------------
      LOOP:  VPU time 1762.14: CPU time 1765.05

 eigenvalue-minimisations  : 84760
 total energy-change (2. order) : 0.4320034E+04  (-0.2134517E+05)
 number of electron  352.0000000 magnetization 
 augmentation part   352.0000000 magnetization 

 Free energy of the ion-electron system (eV)
  ---------------------------------------------------
  alpha Z        PSCENC =      3246.40913697
  Ewald energy   TEWEN  =    -31011.47444228
  -1/2 Hartree   DENC   =     -6611.16332392
  -V(xc)+E(xc)   XCENC  =      -344.60255447
  PAW double counting   =     27861.41421209   -26376.63839568
  entropy T*S    EENTRO =        -0.00041071
  eigenvalues    EBANDS =      4358.89318723
  atomic energy  EATOM  =     33197.19690173
  ---------------------------------------------------
  free energy    TOTEN  =      4320.03431097 eV

  energy without entropy =     4320.03472167  energy(sigma->0) =     4320.03451632


--------------------------------------------------------------------------------------------------------




----------------------------------------- Iteration    1(   2)  ---------------------------------------


    EDDAV :  VPU time 1751.50: CPU time 1755.50
    DOS   :  VPU time    0.00: CPU time   -0.00
    ------------------------------------------
      LOOP:  VPU time 1751.60: CPU time 1755.60

 eigenvalue-minimisations  : 84672
 total energy-change (2. order) :-0.4194724E+04  (-0.4001479E+04)
 number of electron  352.0000000 magnetization 
 augmentation part   352.0000000 magnetization 

 Free energy of the ion-electron system (eV)
  ---------------------------------------------------
  alpha Z        PSCENC =      3246.40913697
  Ewald energy   TEWEN  =    -31011.47444228
  -1/2 Hartree   DENC   =     -6611.16332392
  -V(xc)+E(xc)   XCENC  =      -344.60255447
  PAW double counting   =     27861.41421209   -26376.63839568
  entropy T*S    EENTRO =        -0.00042787
  eigenvalues    EBANDS =       164.16878799
  atomic energy  EATOM  =     33197.19690173
  ---------------------------------------------------
  free energy    TOTEN  =       125.30989457 eV

  energy without entropy =      125.31032243  energy(sigma->0) =      125.31010850


--------------------------------------------------------------------------------------------------------




----------------------------------------- Iteration    1(   3)  ---------------------------------------


    EDDAV :  VPU time 1821.78: CPU time 1825.70
    DOS   :  VPU time    0.00: CPU time   -0.00
    ------------------------------------------
      LOOP:  VPU time 1821.88: CPU time 1825.80

 eigenvalue-minimisations  : 88696
 total energy-change (2. order) :-0.2188093E+03  (-0.2089536E+03)
 number of electron  352.0000000 magnetization 
 augmentation part   352.0000000 magnetization 

 Free energy of the ion-electron system (eV)
  ---------------------------------------------------
  alpha Z        PSCENC =      3246.40913697
  Ewald energy   TEWEN  =    -31011.47444228
  -1/2 Hartree   DENC   =     -6611.16332392
  -V(xc)+E(xc)   XCENC  =      -344.60255447
  PAW double counting   =     27861.41421209   -26376.63839568
  entropy T*S    EENTRO =        -0.00086027
  eigenvalues    EBANDS =       -54.64009870
  atomic energy  EATOM  =     33197.19690173
  ---------------------------------------------------
  free energy    TOTEN  =       -93.49942453 eV

  energy without entropy =      -93.49856426  energy(sigma->0) =      -93.49899440


--------------------------------------------------------------------------------------------------------




----------------------------------------- Iteration    1(   4)  ---------------------------------------


    EDDAV :  VPU time 1860.80: CPU time 1863.84
    DOS   :  VPU time    0.00: CPU time   -0.00
    ------------------------------------------
      LOOP:  VPU time 1860.90: CPU time 1863.95

 eigenvalue-minimisations  : 91288
 total energy-change (2. order) :-0.4202105E+01  (-0.4176001E+01)
 number of electron  352.0000000 magnetization 
 augmentation part   352.0000000 magnetization 

 Free energy of the ion-electron system (eV)
  ---------------------------------------------------
  alpha Z        PSCENC =      3246.40913697
  Ewald energy   TEWEN  =    -31011.47444228
  -1/2 Hartree   DENC   =     -6611.16332392
  -V(xc)+E(xc)   XCENC  =      -344.60255447
  PAW double counting   =     27861.41421209   -26376.63839568
  entropy T*S    EENTRO =        -0.00083208
  eigenvalues    EBANDS =       -58.84223196
  atomic energy  EATOM  =     33197.19690173
  ---------------------------------------------------
  free energy    TOTEN  =       -97.70152960 eV

  energy without entropy =      -97.70069752  energy(sigma->0) =      -97.70111356


--------------------------------------------------------------------------------------------------------




----------------------------------------- Iteration    1(   5)  ---------------------------------------


    EDDAV :  VPU time 1842.42: CPU time 1846.99
    DOS   :  VPU time    0.00: CPU time   -0.00
    CHARGE:  VPU time   62.47: CPU time   62.64
    MIXING:  VPU time    0.01: CPU time    0.01
    ------------------------------------------
      LOOP:  VPU time 1905.00: CPU time 1909.74

 eigenvalue-minimisations  : 90088
 total energy-change (2. order) :-0.2157208E-01  (-0.2154946E-01)
 number of electron  352.0000005 magnetization 
 augmentation part   162.9713130 magnetization 

 Broyden mixing:
  rms(total) = 0.16192E+01    rms(broyden)= 0.16192E+01
  rms(prec ) = 0.24506E+01
  weight for this iteration     100.00

 Free energy of the ion-electron system (eV)
  ---------------------------------------------------
  alpha Z        PSCENC =      3246.40913697
  Ewald energy   TEWEN  =    -31011.47444228
  -1/2 Hartree   DENC   =     -6611.16332392
  -V(xc)+E(xc)   XCENC  =      -344.60255447
  PAW double counting   =     27861.41421209   -26376.63839568
  entropy T*S    EENTRO =        -0.00083058
  eigenvalues    EBANDS =       -58.86380553
  atomic energy  EATOM  =     33197.19690173
  ---------------------------------------------------
  free energy    TOTEN  =       -97.72310167 eV

  energy without entropy =      -97.72227109  energy(sigma->0) =      -97.72268638


--------------------------------------------------------------------------------------------------------




----------------------------------------- Iteration    1(   6)  ---------------------------------------


    POTLOK:  VPU time    0.38: CPU time    0.39
    SETDIJ:  VPU time    0.62: CPU time    0.62
    EDDAV :  VPU time 1835.69: CPU time 1838.72
    DOS   :  VPU time    0.00: CPU time   -0.00
    CHARGE:  VPU time   61.57: CPU time   61.67
    MIXING:  VPU time    0.01: CPU time    0.01
    ------------------------------------------
      LOOP:  VPU time 1898.37: CPU time 1901.50

 eigenvalue-minimisations  : 89616
 total energy-change (2. order) : 0.7106542E+01  (-0.2549406E+01)
 number of electron  352.0000005 magnetization 
 augmentation part   168.3548882 magnetization 

 Broyden mixing:
  rms(total) = 0.29369E+00    rms(broyden)= 0.29369E+00
  rms(prec ) = 0.41403E+00
  weight for this iteration     100.00

 eigenvalues of (default mixing * dielectric matrix)
  average eigenvalue GAMMA=   1.0744
  1.0744

 Free energy of the ion-electron system (eV)
  ---------------------------------------------------
  alpha Z        PSCENC =      3246.40913697
  Ewald energy   TEWEN  =    -31011.47444228
  -1/2 Hartree   DENC   =     -6311.34361508
  -V(xc)+E(xc)   XCENC  =      -355.40543256
  PAW double counting   =     27498.68910414   -26040.25599490
  entropy T*S    EENTRO =        -0.00080067
  eigenvalues    EBANDS =      -314.43141674
  atomic energy  EATOM  =     33197.19690173
  ---------------------------------------------------
  free energy    TOTEN  =       -90.61655938 eV

  energy without entropy =      -90.61575871  energy(sigma->0) =      -90.61615904


--------------------------------------------------------------------------------------------------------




----------------------------------------- Iteration    1(   7)  ---------------------------------------


    POTLOK:  VPU time    0.38: CPU time    0.38
    SETDIJ:  VPU time    0.63: CPU time    0.63
    EDDAV :  VPU time 1816.53: CPU time 1819.52
    DOS   :  VPU time    0.00: CPU time   -0.00
    CHARGE:  VPU time   61.74: CPU time   61.84
    MIXING:  VPU time    0.01: CPU time    0.01
    ------------------------------------------
      LOOP:  VPU time 1879.39: CPU time 1882.47

 eigenvalue-minimisations  : 88344
 total energy-change (2. order) : 0.2016293E+00  (-0.4865651E-01)
 number of electron  352.0000005 magnetization 
 augmentation part   168.6970145 magnetization 

 Broyden mixing:
  rms(total) = 0.15263E+00    rms(broyden)= 0.15263E+00
  rms(prec ) = 0.20097E+00
  weight for this iteration     100.00

 eigenvalues of (default mixing * dielectric matrix)
  average eigenvalue GAMMA=   1.7292
  1.0473  2.4111

 Free energy of the ion-electron system (eV)
  ---------------------------------------------------
  alpha Z        PSCENC =      3246.40913697
  Ewald energy   TEWEN  =    -31011.47444228
  -1/2 Hartree   DENC   =     -6267.10126987
  -V(xc)+E(xc)   XCENC  =      -357.08808513
  PAW double counting   =     27599.59314652   -26162.44653442
  entropy T*S    EENTRO =        -0.00074677
  eigenvalues    EBANDS =      -335.50303685
  atomic energy  EATOM  =     33197.19690173
[...]
     72      -1.2547      2.00000
     73      -1.1884      2.00000
     74      -1.1883      2.00000
     75      -1.1870      2.00000
     76      -1.1870      2.00000
     77      -1.1869      2.00000
     78      -1.1869      2.00000
     79      -1.1856      2.00000
     80      -1.1854      2.00000
     81      -0.9769      2.00000
     82      -0.9769      2.00000
     83      -0.9757      2.00000
     84      -0.9754      2.00000
     85      -0.9742      2.00000
     86      -0.9739      2.00000
     87      -0.9739      2.00000
     88      -0.9739      2.00000
     89      -0.9739      2.00000
     90      -0.9739      2.00000
     91      -0.9738      2.00000
     92      -0.9738      2.00000
     93      -0.9737      2.00000
     94      -0.9737      2.00000
     95      -0.9737      2.00000
     96      -0.9736      2.00000
     97      -0.9736      2.00000
     98      -0.9736      2.00000
     99      -0.9736      2.00000
    100      -0.9734      2.00000
    101      -0.9722      2.00000
    102      -0.9718      2.00000
    103      -0.9706      2.00000
    104      -0.9706      2.00000
    105      -0.6494      2.00000
    106      -0.6483      2.00000
    107      -0.6483      2.00000
    108      -0.6465      2.00000
    109      -0.6463      2.00000
    110      -0.6462      2.00000
    111      -0.6462      2.00000
    112      -0.6460      2.00000
    113      -0.6459      2.00000
    114      -0.6459      2.00000
    115      -0.6459      2.00000
    116      -0.6459      2.00000
    117      -0.6458      2.00000
    118      -0.6458      2.00000
    119      -0.6458      2.00000
    120      -0.6458      2.00000
    121      -0.6456      2.00000
    122      -0.6454      2.00000
    123      -0.6454      2.00000
    124      -0.6453      2.00000
    125      -0.6452      2.00000
    126      -0.6434      2.00000
    127      -0.6434      2.00000
    128      -0.6423      2.00000
    129      -0.3406      2.00000
    130      -0.3394      2.00000
    131      -0.3394      2.00000
    132      -0.3394      2.00000
    133      -0.3385      2.00000
    134      -0.3385      2.00000
    135      -0.3383      2.00000
    136      -0.3382      2.00000
    137      -0.3382      2.00000
    138      -0.3381      2.00000
    139      -0.3379      2.00000
    140      -0.3379      2.00000
    141      -0.3370      2.00000
    142      -0.3370      2.00000
    143      -0.3370      2.00000
    144      -0.3357      2.00000
    145       0.3528      2.00000
    146       0.3528      2.00000
    147       0.3530      2.00000
    148       0.3532      2.00000
    149       0.3532      2.00000
    150       0.3532      2.00000
    151       0.3532      2.00000
    152       0.3533      2.00000
    153       0.3533      2.00000
    154       0.3534      2.00000
    155       0.3534      2.00000
    156       0.3535      2.00000
    157       0.3536      2.00000
    158       0.3536      2.00000
    159       0.3536      2.00000
    160       0.3537      2.00000
    161       0.3537      2.00000
    162       0.3538      2.00000
    163       0.3538      2.00000
    164       0.3538      2.00000
    165       0.3539      2.00000
    166       0.3540      2.00000
    167       0.3542      2.00000
    168       0.3542      2.00000
    169       4.2628      0.00000
    170       4.2648      0.00000
    171       4.2648      0.00000
    172       4.2671      0.00000
    173       4.2675      0.00000
    174       4.2676      0.00000
    175       4.2676      0.00000
    176       4.2677      0.00000
    177       4.2677      0.00000
    178       4.2678      0.00000
    179       4.2678      0.00000
    180       4.2678      0.00000
    181       4.2680      0.00000
    182       4.2680      0.00000
    183       4.2680      0.00000
    184       4.2680      0.00000
    185       4.2681      0.00000
    186       4.2682      0.00000
    187       4.2682      0.00000
    188       4.2683      0.00000
    189       4.2687      0.00000
    190       4.2710      0.00000
    191       4.2710      0.00000
    192       4.2730      0.00000
    193       9.3106      0.00000
    194       9.3106      0.00000
    195       9.3122      0.00000
    196       9.3145      0.00000
    197       9.3148      0.00000
    198       9.3152      0.00000
    199       9.3152      0.00000
    200       9.3156      0.00000
    201       9.3157      0.00000
    202       9.3157      0.00000
    203       9.3157      0.00000
    204       9.3157      0.00000
    205       9.3159      0.00000
    206       9.3159      0.00000
    207       9.3159      0.00000
    208       9.3159      0.00000
    209       9.3160      0.00000
    210       9.3164      0.00000
    211       9.3164      0.00000
    212       9.3168      0.00000
    213       9.3171      0.00000
    214       9.3194      0.00000
    215       9.3210      0.00000
    216       9.3210      0.00000


--------------------------------------------------------------------------------------------------------


 soft charge-density along one line, spin component           1
         0         1         2         3         4         5         6         7         8         9
 total charge-density along one line
 
 pseudopotential strength for first ion, spin component:           1
-12.075  -0.000   0.000  -0.000   0.000   0.113   0.000  -0.000
 -0.000 -12.075   0.000  -0.000   0.000   0.000   0.113  -0.000
  0.000   0.000 -12.065   0.000  -0.000  -0.000  -0.000   0.111
 -0.000  -0.000   0.000 -12.075  -0.000   0.000   0.000  -0.000
  0.000   0.000  -0.000  -0.000 -12.065  -0.000  -0.000   0.000
  0.113   0.000  -0.000   0.000  -0.000   0.461  -0.000   0.000
  0.000   0.113  -0.000   0.000  -0.000  -0.000   0.461   0.000
 -0.000  -0.000   0.111  -0.000   0.000   0.000   0.000   0.461
  0.000   0.000  -0.000   0.113   0.000  -0.000  -0.000   0.000
 -0.000  -0.000   0.000   0.000   0.111   0.000   0.000  -0.000
  0.000   0.000   0.000   0.000  -0.000  -0.000  -0.000  -0.000
 -0.000  -0.000   0.000  -0.000   0.000   0.000   0.000   0.000
 -0.000  -0.000   0.000  -0.000  -0.000   0.000   0.000  -0.000
 -0.000  -0.000   0.000  -0.000  -0.000   0.000   0.000   0.000
 -0.000  -0.000   0.000  -0.000  -0.000   0.000   0.000  -0.000
  0.000   0.000  -0.000   0.000   0.000  -0.000  -0.000   0.000
  0.000  -0.000  -0.000   0.000   0.000  -0.000  -0.000   0.000
  0.000   0.000  -0.000   0.000   0.000  -0.000  -0.000   0.000
 total augmentation occupancy for first ion, spin component:           1
  1.937   0.000  -0.001  -0.000  -0.000  -0.018  -0.000  -0.000   0.000   0.000   0.004  -0.001   0.000   0.000  -0.000  -0.000
  0.000   1.940  -0.001  -0.001  -0.001  -0.000  -0.022   0.002   0.000   0.000   0.003  -0.001   0.000   0.000  -0.000  -0.000
 -0.001  -0.001   1.966  -0.001  -0.002  -0.000   0.002  -0.052   0.001   0.002   0.013   0.001  -0.000  -0.000  -0.000  -0.000
 -0.000  -0.001  -0.001   1.943   0.000   0.000   0.000   0.001  -0.025   0.001   0.003  -0.001   0.000   0.000  -0.000  -0.000
 -0.000  -0.001  -0.002   0.000   1.957   0.000   0.000   0.002   0.001  -0.045   0.008   0.001   0.000   0.000   0.000  -0.000
 -0.018  -0.000  -0.000   0.000   0.000   0.082   0.000   0.001  -0.000  -0.000  -0.001   0.001   0.001  -0.000  -0.000  -0.000
 -0.000  -0.022   0.002   0.000   0.000   0.000   0.085  -0.002  -0.000   0.001  -0.001   0.001  -0.000  -0.000   0.000   0.000
 -0.000   0.002  -0.052   0.001   0.002   0.001  -0.002   0.073  -0.002  -0.001  -0.011   0.000   0.000   0.000  -0.000   0.000
  0.000   0.000   0.001  -0.025   0.001  -0.000  -0.000  -0.002   0.088  -0.002   0.000   0.001  -0.000   0.001   0.000   0.000
  0.000   0.000   0.002   0.001  -0.045  -0.000   0.001  -0.001  -0.002   0.069  -0.006   0.000  -0.000  -0.000   0.000   0.000
  0.004   0.003   0.013   0.003   0.008  -0.001  -0.001  -0.011   0.000  -0.006   1.052  -0.362   0.000  -0.000   0.002   0.000
 -0.001  -0.001   0.001  -0.001   0.001   0.001   0.001   0.000   0.001   0.000  -0.362   0.190   0.000  -0.000  -0.001  -0.000
  0.000   0.000  -0.000   0.000   0.000   0.001  -0.000   0.000  -0.000  -0.000   0.000   0.000   0.112   0.000   0.002  -0.006
  0.000   0.000  -0.000   0.000   0.000  -0.000  -0.000   0.000   0.001  -0.000  -0.000  -0.000   0.000   0.118  -0.001  -0.000
 -0.000  -0.000  -0.000  -0.000   0.000  -0.000   0.000  -0.000   0.000   0.000   0.002  -0.001   0.002  -0.001   0.115  -0.000
 -0.000  -0.000  -0.000  -0.000  -0.000  -0.000   0.000   0.000   0.000   0.000   0.000  -0.000  -0.006  -0.000  -0.000   0.000
 -0.000  -0.000   0.000  -0.000   0.000   0.000   0.000  -0.000  -0.000   0.000   0.000   0.000  -0.000  -0.007  -0.000   0.000
  0.000  -0.000   0.000   0.000  -0.000  -0.000  -0.000   0.000  -0.000  -0.000  -0.000   0.000  -0.000  -0.000  -0.006   0.000


------------------------ aborting loop because EDIFF is reached ----------------------------------------




--------------------------------------------------------------------------------------------------------


    CHARGE:  VPU time   61.95: CPU time   62.11
    FORLOC:  VPU time    0.06: CPU time    0.06
    FORNL :  VPU time  349.57: CPU time  350.26
    STRESS:  VPU time 2097.24: CPU time 2102.71
    FORCOR:  VPU time    0.41: CPU time    0.42
    FORHAR:  VPU time    0.13: CPU time    0.13
    MIXING:  VPU time    0.01: CPU time    0.01


--------------------------------------------------------------------------------------------------------



  FREE ENERGIE OF THE ION-ELECTRON SYSTEM (eV)
  ---------------------------------------------------
  free  energy   TOTEN  =       -90.322332 eV

  energy  without entropy=      -90.321606  energy(sigma->0) =      -90.321969
 

  FORCE on cell =-STRESS in cart. coord.  units (eV/reduce length):
  Direction    X        Y        Z        XY       YZ       ZX
  --------------------------------------------------------------------------------------
  Alpha Z   3246.41   3246.41   3246.41
  Ewald   -10337.23 -10337.19 -10337.19      0.00      0.00      0.00
  Hartree   2076.14   2076.16   2076.16      0.00     -0.00     -0.00
  E(xc)    -1861.77  -1861.77  -1861.77      0.00      0.00     -0.00
  Local     3284.65   3284.59   3284.59     -0.00      0.00     -0.00
  n-local  -2095.86  -2099.81  -2091.91      1.76      1.14      0.52
  augment   1341.89   1341.89   1341.89     -0.00     -0.00     -0.00
  Kinetic   4356.16   4349.57   4362.75      0.64     -0.64     -1.92
  -------------------------------------------------------------------------------------
  Total       10.39     10.39     10.39      0.00      0.00      0.00
  in kB       29.72     29.72     29.72      0.00      0.00      0.00
  external pressure =       29.72 kB  Pullay stress =        0.00 kB


 VOLUME and BASIS-vectors are now :
 -----------------------------------------------------------------------------
  energy-cutoff  :      750.00
  volume of cell :      560.13
      direct lattice vectors                 reciprocal lattice vectors
     8.243185068  0.000000000  0.000000000     0.121312332  0.000000000  0.000000000
     0.000000000  8.243185068  0.000000000     0.000000000  0.121312332  0.000000000
     0.000000000  0.000000000  8.243185068     0.000000000  0.000000000  0.121312332

  length of vectors
     8.243185068  8.243185068  8.243185068     0.121312332  0.121312332  0.121312332


 FORCES acting on ions
    electron-ion (+dipol)            ewald-force                    non-local-force                 convergence-correction
 -----------------------------------------------------------------------------------------------
   0.401E+01 0.589E-13 0.570E-07   -.404E+01 0.533E-13 0.107E-13   -.258E-01 -.164E-20 -.371E-20   -.145E-04 0.942E-13 -.131E-12
   -.106E+01 0.220E-12 -.571E-07   0.107E+01 0.114E-12 0.128E-12   -.836E-02 0.226E-20 -.598E-20   0.211E-05 0.727E-13 -.213E-12
   0.335E+00 -.112E-12 0.355E-10   -.338E+00 0.888E-13 0.533E-13   0.200E-02 0.107E-20 0.236E-21   0.119E-05 -.247E-12 -.776E-13
   -.269E+00 0.109E-11 0.356E-10   0.265E+00 0.853E-13 0.568E-13   0.367E-02 -.360E-20 0.248E-20   -.310E-05 -.223E-12 -.114E-12
   0.335E+00 0.715E-13 -.164E-10   -.338E+00 0.817E-13 0.110E-12   0.200E-02 0.123E-19 -.499E-21   0.163E-05 0.762E-13 -.141E-13
   -.269E+00 0.266E-13 -.151E-10   0.265E+00 0.853E-13 0.171E-12   0.367E-02 -.535E-21 0.107E-19   -.319E-05 0.554E-13 0.562E-13
   0.140E+00 -.123E-12 -.171E-10   -.139E+00 0.117E-12 0.121E-12   -.937E-03 0.135E-20 0.125E-19   0.432E-05 -.231E-12 -.723E-13
   -.130E+00 -.635E-11 -.154E-10   0.130E+00 0.114E-12 0.114E-12   -.561E-03 -.232E-20 -.409E-20   -.240E-05 -.209E-12 -.502E-13
   -.510E+00 -.979E+00 -.543E-10   0.512E+00 0.985E+00 0.675E-13   0.448E-02 0.281E-02 0.163E-20   0.179E-05 0.486E-05 -.171E-12
   -.513E+00 0.972E+00 -.624E-10   0.515E+00 -.976E+00 0.110E-12   0.451E-02 -.284E-02 -.408E-20   0.582E-05 -.598E-05 -.119E-12
   -.510E+00 0.979E+00 -.544E-10   0.512E+00 -.985E+00 0.128E-12   0.448E-02 -.281E-02 0.245E-20   0.179E-05 -.486E-05 -.133E-12
   -.513E+00 -.972E+00 -.469E-10   0.515E+00 0.976E+00 0.128E-12   0.451E-02 0.284E-02 0.846E-20   0.582E-05 0.598E-05 -.971E-13
   -.140E-01 -.811E-01 0.525E-10   0.156E-01 0.809E-01 0.153E-12   -.141E-02 0.259E-03 -.205E-20   -.192E-05 0.106E-07 0.238E-13
   -.155E-01 0.810E-01 0.533E-10   0.172E-01 -.808E-01 0.959E-13   -.140E-02 -.262E-03 -.360E-21   0.164E-05 -.106E-05 -.272E-13
   -.140E-01 0.811E-01 0.526E-10   0.156E-01 -.809E-01 0.853E-13   -.141E-02 -.259E-03 -.137E-20   -.192E-05 -.106E-07 -.215E-13
   -.155E-01 -.810E-01 0.378E-10   0.172E-01 0.808E-01 0.853E-13   -.140E-02 0.262E-03 0.169E-21   0.164E-05 0.106E-05 -.515E-13
   -.510E+00 0.298E-13 -.979E+00   0.512E+00 0.107E-12 0.985E+00   0.448E-02 -.693E-20 0.281E-02   0.170E-05 0.426E-13 0.493E-05
   -.513E+00 0.336E-13 0.972E+00   0.515E+00 0.107E-12 -.976E+00   0.451E-02 0.195E-19 -.284E-02   0.574E-05 0.817E-13 -.605E-05
   -.140E-01 0.786E-12 -.811E-01   0.156E-01 0.924E-13 0.809E-01   -.141E-02 0.259E-20 0.259E-03   -.190E-05 -.191E-12 0.822E-07
   -.155E-01 0.923E-11 0.810E-01   0.172E-01 0.924E-13 -.808E-01   -.140E-02 0.110E-20 -.262E-03   0.166E-05 -.231E-12 -.113E-05
   -.510E+00 0.120E-12 0.979E+00   0.512E+00 0.568E-13 -.985E+00   0.448E-02 0.651E-21 -.281E-02   0.170E-05 0.849E-13 -.493E-05
   -.513E+00 0.684E-13 -.972E+00   0.515E+00 0.853E-13 0.976E+00   0.451E-02 -.455E-20 0.284E-02   0.574E-05 0.105E-12 0.605E-05
   -.140E-01 0.103E-11 0.811E-01   0.156E-01 0.995E-13 -.809E-01   -.141E-02 -.218E-21 -.259E-03   -.190E-05 -.230E-12 -.822E-07
   -.155E-01 -.671E-11 -.810E-01   0.172E-01 0.995E-13 0.808E-01   -.140E-02 -.229E-20 0.262E-03   0.166E-05 -.254E-12 0.113E-05
   0.634E+00 0.244E-02 0.244E-02   -.637E+00 -.243E-02 -.243E-02   0.184E-02 -.172E-04 -.172E-04   -.146E-05 -.725E-06 -.725E-06
   -.356E+00 -.713E-03 -.713E-03   0.358E+00 0.728E-03 0.728E-03   -.193E-02 -.131E-04 -.131E-04   -.234E-05 -.447E-06 -.447E-06
   0.634E+00 -.244E-02 0.244E-02   -.637E+00 0.243E-02 -.243E-02   0.184E-02 0.172E-04 -.172E-04   -.146E-05 0.725E-06 -.725E-06
   -.356E+00 0.713E-03 -.713E-03   0.358E+00 -.728E-03 0.728E-03   -.193E-02 0.131E-04 -.131E-04   -.234E-05 0.447E-06 -.447E-06
   0.634E+00 0.244E-02 -.244E-02   -.637E+00 -.243E-02 0.243E-02   0.184E-02 -.172E-04 0.172E-04   -.146E-05 -.725E-06 0.725E-06
   -.356E+00 -.713E-03 0.713E-03   0.358E+00 0.728E-03 -.728E-03   -.193E-02 -.131E-04 0.131E-04   -.234E-05 -.447E-06 0.447E-06
   0.634E+00 -.244E-02 -.244E-02   -.637E+00 0.243E-02 0.243E-02   0.184E-02 0.172E-04 0.172E-04   -.146E-05 0.725E-06 0.725E-06
   -.356E+00 0.713E-03 0.713E-03   0.358E+00 -.728E-03 -.728E-03   -.193E-02 0.131E-04 0.131E-04   -.234E-05 0.447E-06 0.447E-06
 -----------------------------------------------------------------------------------------------
   -.591E-06 0.199E-11 -.250E-09   0.720E-13 0.816E-13 -.122E-12   0.616E-05 -.405E-18 -.610E-19   -.709E-07 -.644E-12 -.535E-12
 
 
 POSITION                                       TOTAL-FORCE (eV/Angst)
 -----------------------------------------------------------------------------------
      0.01000      0.00000      0.00000        -0.052336      0.000000      0.000000
      4.12159      0.00000      0.00000         0.001160     -0.000000     -0.000000
      0.00000      4.12159      0.00000        -0.000363      0.000000     -0.000000
      4.12159      4.12159      0.00000        -0.000446      0.000000      0.000000
      0.00000      0.00000      4.12159        -0.000363     -0.000000      0.000000
      4.12159      0.00000      4.12159        -0.000446      0.000000     -0.000000
      0.00000      4.12159      4.12159        -0.000174      0.000000      0.000000
      4.12159      4.12159      4.12159        -0.000123      0.000000      0.000000
      2.06080      2.06080      0.00000         0.006874      0.008060      0.000000
      6.18239      2.06080      0.00000         0.006665     -0.007765     -0.000000
      2.06080      6.18239      0.00000         0.006874     -0.008060      0.000000
      6.18239      6.18239      0.00000         0.006665      0.007765     -0.000000
      2.06080      2.06080      4.12159         0.000236      0.000053      0.000000
      6.18239      2.06080      4.12159         0.000238     -0.000051      0.000000
      2.06080      6.18239      4.12159         0.000236     -0.000053      0.000000
      6.18239      6.18239      4.12159         0.000238      0.000051     -0.000000
      2.06080      0.00000      2.06080         0.006874     -0.000000      0.008060
      6.18239      0.00000      2.06080         0.006665     -0.000000     -0.007765
      2.06080      4.12159      2.06080         0.000236      0.000000      0.000053
      6.18239      4.12159      2.06080         0.000238     -0.000000     -0.000051
      2.06080      0.00000      6.18239         0.006874      0.000000     -0.008060
      6.18239      0.00000      6.18239         0.006665     -0.000000      0.007765
      2.06080      4.12159      6.18239         0.000236      0.000000     -0.000053
      6.18239      4.12159      6.18239         0.000238     -0.000000      0.000051
      0.00000      2.06080      2.06080        -0.001308     -0.000010     -0.000010
      4.12159      2.06080      2.06080         0.000567      0.000001      0.000001
      0.00000      6.18239      2.06080        -0.001308      0.000010     -0.000010
      4.12159      6.18239      2.06080         0.000567     -0.000001      0.000001
      0.00000      2.06080      6.18239        -0.001308     -0.000010      0.000010
      4.12159      2.06080      6.18239         0.000567      0.000001     -0.000001
      0.00000      6.18239      6.18239        -0.001308      0.000010      0.000010
      4.12159      6.18239      6.18239         0.000567     -0.000001     -0.000001
 -----------------------------------------------------------------------------------
    total drift:                                0.000006      0.000000     -0.000000


--------------------------------------------------------------------------------------------------------



 mean value of Nose-termostat <S>:     1.000 mean value of <T> :     0.000
 mean temperature <T/S>/<1/S>  :     0.000

     LOOP+:  VPU time30117.13: CPU time30179.38
  
  
 General timing and accounting informations for this job:
 ========================================================
  
                  Total CPU time used (sec):    30417.244
                            User time (sec):    29941.974
                          System time (sec):      475.270
                         Elapsed time (sec):    30480.173
  
                   Maximum memory used (kb):     8003340.
                   Average memory used (kb):           0.
  
                          Minor page faults:      1075482
                          Major page faults:            0
                 Voluntary context switches:         1021
