<?xml version="1.0" encoding="ISO-8859-1"?>
<modeling>
 <generator>
  <i name="program" type="string">vasp</i>
  <i name="version" type="string">4.6.28 </i>
  <i name="subversion" type="string">25Jul05 complex  parallel</i>
  <i name="platform" type="string">LinuxIFC</i>
  <i name="date" type="string">2017 01 13</i>
  <i name="time" type="string">00:07:55</i>
 </generator>
 <incar>
  <i type="string" name="PREC">accurate</i>
  <i type="int" name="IALGO">    38</i>
  <i type="logical" name="ADDGRID"> T  </i>
  <i name="EDIFF">      0.00000001</i>
  <i type="int" name="IBRION">    -1</i>
  <i name="ENCUT">    750.00000000</i>
  <i type="logical" name="LREAL"> F  </i>
  <i type="int" name="ISMEAR">     0</i>
  <i name="SIGMA">      0.01000000</i>
  <i type="logical" name="LWAVE"> F  </i>
  <i type="logical" name="LCHARG"> F  </i>
 </incar>
 <kpoints>
  <generation param="Gamma">
   <v type="int" name="divisions">      12      12      12</v>
   <v name="usershift">      0.00000000      0.00000000      0.00000000</v>
   <v name="genvec1">      0.08333333      0.00000000      0.00000000</v>
   <v name="genvec2">      0.00000000      0.08333333      0.00000000</v>
   <v name="genvec3">      0.00000000      0.00000000      0.08333333</v>
   <v name="shift">      0.00000000      0.00000000      0.00000000</v>
  </generation>
  <varray name="kpointlist" >
   <v>       0.00000000      0.00000000      0.00000000</v>
   <v>       0.08333333      0.00000000      0.00000000</v>
   <v>       0.16666667      0.00000000      0.00000000</v>
   <v>       0.25000000      0.00000000      0.00000000</v>
   <v>       0.33333333      0.00000000      0.00000000</v>
   <v>       0.41666667      0.00000000      0.00000000</v>
   <v>       0.50000000      0.00000000      0.00000000</v>
   <v>       0.00000000      0.08333333      0.00000000</v>
   <v>       0.08333333      0.08333333      0.00000000</v>
   <v>       0.16666667      0.08333333      0.00000000</v>
   <v>       0.25000000      0.08333333      0.00000000</v>
   <v>       0.33333333      0.08333333      0.00000000</v>
   <v>       0.41666667      0.08333333      0.00000000</v>
   <v>       0.50000000      0.08333333      0.00000000</v>
   <v>       0.00000000      0.16666667      0.00000000</v>
   <v>       0.08333333      0.16666667      0.00000000</v>
   <v>       0.16666667      0.16666667      0.00000000</v>
   <v>       0.25000000      0.16666667      0.00000000</v>
   <v>       0.33333333      0.16666667      0.00000000</v>
   <v>       0.41666667      0.16666667      0.00000000</v>
   <v>       0.50000000      0.16666667      0.00000000</v>
   <v>       0.00000000      0.25000000      0.00000000</v>
   <v>       0.08333333      0.25000000      0.00000000</v>
   <v>       0.16666667      0.25000000      0.00000000</v>
   <v>       0.25000000      0.25000000      0.00000000</v>
   <v>       0.33333333      0.25000000      0.00000000</v>
   <v>       0.41666667      0.25000000      0.00000000</v>
   <v>       0.50000000      0.25000000      0.00000000</v>
   <v>       0.00000000      0.33333333      0.00000000</v>
   <v>       0.08333333      0.33333333      0.00000000</v>
   <v>       0.16666667      0.33333333      0.00000000</v>
   <v>       0.25000000      0.33333333      0.00000000</v>
   <v>       0.33333333      0.33333333      0.00000000</v>
   <v>       0.41666667      0.33333333      0.00000000</v>
   <v>       0.50000000      0.33333333      0.00000000</v>
   <v>       0.00000000      0.41666667      0.00000000</v>
   <v>       0.08333333      0.41666667      0.00000000</v>
   <v>       0.16666667      0.41666667      0.00000000</v>
   <v>       0.25000000      0.41666667      0.00000000</v>
   <v>       0.33333333      0.41666667      0.00000000</v>
   <v>       0.41666667      0.41666667      0.00000000</v>
   <v>       0.50000000      0.41666667      0.00000000</v>
   <v>       0.00000000      0.50000000      0.00000000</v>
   <v>       0.08333333      0.50000000      0.00000000</v>
   <v>       0.16666667      0.50000000      0.00000000</v>
   <v>       0.25000000      0.50000000      0.00000000</v>
   <v>       0.33333333      0.50000000      0.00000000</v>
   <v>       0.41666667      0.50000000      0.00000000</v>
   <v>       0.50000000      0.50000000      0.00000000</v>
   <v>       0.00000000      0.08333333      0.08333333</v>
   <v>       0.08333333      0.08333333      0.08333333</v>
   <v>       0.16666667      0.08333333      0.08333333</v>
   <v>       0.25000000      0.08333333      0.08333333</v>
   <v>       0.33333333      0.08333333      0.08333333</v>
   <v>       0.41666667      0.08333333      0.08333333</v>
   <v>       0.50000000      0.08333333      0.08333333</v>
   <v>       0.00000000      0.16666667      0.08333333</v>
   <v>       0.08333333      0.16666667      0.08333333</v>
   <v>       0.16666667      0.16666667      0.08333333</v>
   <v>       0.25000000      0.16666667      0.08333333</v>
   <v>       0.33333333      0.16666667      0.08333333</v>
   <v>       0.41666667      0.16666667      0.08333333</v>
   <v>       0.50000000      0.16666667      0.08333333</v>
   <v>       0.00000000      0.25000000      0.08333333</v>
   <v>       0.08333333      0.25000000      0.08333333</v>
   <v>       0.16666667      0.25000000      0.08333333</v>
   <v>       0.25000000      0.25000000      0.08333333</v>
   <v>       0.33333333      0.25000000      0.08333333</v>
   <v>       0.41666667      0.25000000      0.08333333</v>
   <v>       0.50000000      0.25000000      0.08333333</v>
   <v>       0.00000000      0.33333333      0.08333333</v>
   <v>       0.08333333      0.33333333      0.08333333</v>
   <v>       0.16666667      0.33333333      0.08333333</v>
   <v>       0.25000000      0.33333333      0.08333333</v>
   <v>       0.33333333      0.33333333      0.08333333</v>
   <v>       0.41666667      0.33333333      0.08333333</v>
   <v>       0.50000000      0.33333333      0.08333333</v>
   <v>       0.00000000      0.41666667      0.08333333</v>
   <v>       0.08333333      0.41666667      0.08333333</v>
   <v>       0.16666667      0.41666667      0.08333333</v>
   <v>       0.25000000      0.41666667      0.08333333</v>
   <v>       0.33333333      0.41666667      0.08333333</v>
   <v>       0.41666667      0.41666667      0.08333333</v>
   <v>       0.50000000      0.41666667      0.08333333</v>
   <v>       0.00000000      0.50000000      0.08333333</v>
   <v>       0.08333333      0.50000000      0.08333333</v>
   <v>       0.16666667      0.50000000      0.08333333</v>
   <v>       0.25000000      0.50000000      0.08333333</v>
   <v>       0.33333333      0.50000000      0.08333333</v>
   <v>       0.41666667      0.50000000      0.08333333</v>
   <v>       0.50000000      0.50000000      0.08333333</v>
   <v>       0.00000000      0.16666667      0.16666667</v>
   <v>       0.08333333      0.16666667      0.16666667</v>
   <v>       0.16666667      0.16666667      0.16666667</v>
   <v>       0.25000000      0.16666667      0.16666667</v>
   <v>       0.33333333      0.16666667      0.16666667</v>
   <v>       0.41666667      0.16666667      0.16666667</v>
   <v>       0.50000000      0.16666667      0.16666667</v>
   <v>       0.00000000      0.25000000      0.16666667</v>
   <v>       0.08333333      0.25000000      0.16666667</v>
   <v>       0.16666667      0.25000000      0.16666667</v>
   <v>       0.25000000      0.25000000      0.16666667</v>
   <v>       0.33333333      0.25000000      0.16666667</v>
   <v>       0.41666667      0.25000000      0.16666667</v>
   <v>       0.50000000      0.25000000      0.16666667</v>
   <v>       0.00000000      0.33333333      0.16666667</v>
   <v>       0.08333333      0.33333333      0.16666667</v>
   <v>       0.16666667      0.33333333      0.16666667</v>
   <v>       0.25000000      0.33333333      0.16666667</v>
   <v>       0.33333333      0.33333333      0.16666667</v>
   <v>       0.41666667      0.33333333      0.16666667</v>
   <v>       0.50000000      0.33333333      0.16666667</v>
   <v>       0.00000000      0.41666667      0.16666667</v>
   <v>       0.08333333      0.41666667      0.16666667</v>
   <v>       0.16666667      0.41666667      0.16666667</v>
   <v>       0.25000000      0.41666667      0.16666667</v>
   <v>       0.33333333      0.41666667      0.16666667</v>
   <v>       0.41666667      0.41666667      0.16666667</v>
   <v>       0.50000000      0.41666667      0.16666667</v>
   <v>       0.00000000      0.50000000      0.16666667</v>
   <v>       0.08333333      0.50000000      0.16666667</v>
   <v>       0.16666667      0.50000000      0.16666667</v>
   <v>       0.25000000      0.50000000      0.16666667</v>
   <v>       0.33333333      0.50000000      0.16666667</v>
   <v>       0.41666667      0.50000000      0.16666667</v>
   <v>       0.50000000      0.50000000      0.16666667</v>
   <v>       0.00000000      0.25000000      0.25000000</v>
   <v>       0.08333333      0.25000000      0.25000000</v>
   <v>       0.16666667      0.25000000      0.25000000</v>
   <v>       0.25000000      0.25000000      0.25000000</v>
   <v>       0.33333333      0.25000000      0.25000000</v>
   <v>       0.41666667      0.25000000      0.25000000</v>
   <v>       0.50000000      0.25000000      0.25000000</v>
   <v>       0.00000000      0.33333333      0.25000000</v>
   <v>       0.08333333      0.33333333      0.25000000</v>
   <v>       0.16666667      0.33333333      0.25000000</v>
   <v>       0.25000000      0.33333333      0.25000000</v>
   <v>       0.33333333      0.33333333      0.25000000</v>
   <v>       0.41666667      0.33333333      0.25000000</v>
   <v>       0.50000000      0.33333333      0.25000000</v>
   <v>       0.00000000      0.41666667      0.25000000</v>
   <v>       0.08333333      0.41666667      0.25000000</v>
   <v>       0.16666667      0.41666667      0.25000000</v>
   <v>       0.25000000      0.41666667      0.25000000</v>
   <v>       0.33333333      0.41666667      0.25000000</v>
   <v>       0.41666667      0.41666667      0.25000000</v>
   <v>       0.50000000      0.41666667      0.25000000</v>
   <v>       0.00000000      0.50000000      0.25000000</v>
   <v>       0.08333333      0.50000000      0.25000000</v>
   <v>       0.16666667      0.50000000      0.25000000</v>
   <v>       0.25000000      0.50000000      0.25000000</v>
   <v>       0.33333333      0.50000000      0.25000000</v>
   <v>       0.41666667      0.50000000      0.25000000</v>
   <v>       0.50000000      0.50000000      0.25000000</v>
   <v>       0.00000000      0.33333333      0.33333333</v>
   <v>       0.08333333      0.33333333      0.33333333</v>
   <v>       0.16666667      0.33333333      0.33333333</v>
   <v>       0.25000000      0.33333333      0.33333333</v>
   <v>       0.33333333      0.33333333      0.33333333</v>
   <v>       0.41666667      0.33333333      0.33333333</v>
   <v>       0.50000000      0.33333333      0.33333333</v>
   <v>       0.00000000      0.41666667      0.33333333</v>
   <v>       0.08333333      0.41666667      0.33333333</v>
   <v>       0.16666667      0.41666667      0.33333333</v>
   <v>       0.25000000      0.41666667      0.33333333</v>
   <v>       0.33333333      0.41666667      0.33333333</v>
   <v>       0.41666667      0.41666667      0.33333333</v>
   <v>       0.50000000      0.41666667      0.33333333</v>
   <v>       0.00000000      0.50000000      0.33333333</v>
   <v>       0.08333333      0.50000000      0.33333333</v>
   <v>       0.16666667      0.50000000      0.33333333</v>
   <v>       0.25000000      0.50000000      0.33333333</v>
   <v>       0.33333333      0.50000000      0.33333333</v>
   <v>       0.41666667      0.50000000      0.33333333</v>
   <v>       0.50000000      0.50000000      0.33333333</v>
   <v>       0.00000000      0.41666667      0.41666667</v>
   <v>       0.08333333      0.41666667      0.41666667</v>
   <v>       0.16666667      0.41666667      0.41666667</v>
   <v>       0.25000000      0.41666667      0.41666667</v>
   <v>       0.33333333      0.41666667      0.41666667</v>
   <v>       0.41666667      0.41666667      0.41666667</v>
   <v>       0.50000000      0.41666667      0.41666667</v>
   <v>       0.00000000      0.50000000      0.41666667</v>
   <v>       0.08333333      0.50000000      0.41666667</v>
   <v>       0.16666667      0.50000000      0.41666667</v>
   <v>       0.25000000      0.50000000      0.41666667</v>
   <v>       0.33333333      0.50000000      0.41666667</v>
   <v>       0.41666667      0.50000000      0.41666667</v>
   <v>       0.50000000      0.50000000      0.41666667</v>
   <v>       0.00000000      0.50000000      0.50000000</v>
   <v>       0.08333333      0.50000000      0.50000000</v>
   <v>       0.16666667      0.50000000      0.50000000</v>
   <v>       0.25000000      0.50000000      0.50000000</v>
   <v>       0.33333333      0.50000000      0.50000000</v>
   <v>       0.41666667      0.50000000      0.50000000</v>
   <v>       0.50000000      0.50000000      0.50000000</v>
  </varray>
  <varray name="weights" >
   <v>       0.00057870</v>
   <v>       0.00115741</v>
   <v>       0.00115741</v>
   <v>       0.00115741</v>
   <v>       0.00115741</v>
   <v>       0.00115741</v>
   <v>       0.00057870</v>
   <v>       0.00231481</v>
   <v>       0.00462963</v>
   <v>       0.00462963</v>
   <v>       0.00462963</v>
   <v>       0.00462963</v>
   <v>       0.00462963</v>
   <v>       0.00231481</v>
   <v>       0.00231481</v>
   <v>       0.00462963</v>
   <v>       0.00462963</v>
   <v>       0.00462963</v>
   <v>       0.00462963</v>
   <v>       0.00462963</v>
   <v>       0.00231481</v>
   <v>       0.00231481</v>
   <v>       0.00462963</v>
   <v>       0.00462963</v>
   <v>       0.00462963</v>
   <v>       0.00462963</v>
   <v>       0.00462963</v>
   <v>       0.00231481</v>
   <v>       0.00231481</v>
   <v>       0.00462963</v>
   <v>       0.00462963</v>
   <v>       0.00462963</v>
   <v>       0.00462963</v>
   <v>       0.00462963</v>
   <v>       0.00231481</v>
   <v>       0.00231481</v>
   <v>       0.00462963</v>
   <v>       0.00462963</v>
   <v>       0.00462963</v>
   <v>       0.00462963</v>
   <v>       0.00462963</v>
   <v>       0.00231481</v>
   <v>       0.00115741</v>
   <v>       0.00231481</v>
   <v>       0.00231481</v>
   <v>       0.00231481</v>
   <v>       0.00231481</v>
   <v>       0.00231481</v>
   <v>       0.00115741</v>
   <v>       0.00231481</v>
   <v>       0.00462963</v>
   <v>       0.00462963</v>
   <v>       0.00462963</v>
   <v>       0.00462963</v>
   <v>       0.00462963</v>
   <v>       0.00231481</v>
   <v>       0.00462963</v>
   <v>       0.00925926</v>
   <v>       0.00925926</v>
   <v>       0.00925926</v>
   <v>       0.00925926</v>
   <v>       0.00925926</v>
   <v>       0.00462963</v>
   <v>       0.00462963</v>
   <v>       0.00925926</v>
   <v>       0.00925926</v>
   <v>       0.00925926</v>
   <v>       0.00925926</v>
   <v>       0.00925926</v>
   <v>       0.00462963</v>
   <v>       0.00462963</v>
   <v>       0.00925926</v>
   <v>       0.00925926</v>
   <v>       0.00925926</v>
   <v>       0.00925926</v>
   <v>       0.00925926</v>
   <v>       0.00462963</v>
   <v>       0.00462963</v>
   <v>       0.00925926</v>
   <v>       0.00925926</v>
   <v>       0.00925926</v>
   <v>       0.00925926</v>
   <v>       0.00925926</v>
   <v>       0.00462963</v>
   <v>       0.00231481</v>
   <v>       0.00462963</v>
   <v>       0.00462963</v>
   <v>       0.00462963</v>
   <v>       0.00462963</v>
   <v>       0.00462963</v>
   <v>       0.00231481</v>
   <v>       0.00231481</v>
   <v>       0.00462963</v>
   <v>       0.00462963</v>
   <v>       0.00462963</v>
   <v>       0.00462963</v>
   <v>       0.00462963</v>
   <v>       0.00231481</v>
   <v>       0.00462963</v>
   <v>       0.00925926</v>
   <v>       0.00925926</v>
   <v>       0.00925926</v>
   <v>       0.00925926</v>
   <v>       0.00925926</v>
   <v>       0.00462963</v>
   <v>       0.00462963</v>
   <v>       0.00925926</v>
   <v>       0.00925926</v>
   <v>       0.00925926</v>
   <v>       0.00925926</v>
   <v>       0.00925926</v>
   <v>       0.00462963</v>
   <v>       0.00462963</v>
   <v>       0.00925926</v>
   <v>       0.00925926</v>
   <v>       0.00925926</v>
   <v>       0.00925926</v>
   <v>       0.00925926</v>
   <v>       0.00462963</v>
   <v>       0.00231481</v>
   <v>       0.00462963</v>
   <v>       0.00462963</v>
   <v>       0.00462963</v>
   <v>       0.00462963</v>
   <v>       0.00462963</v>
   <v>       0.00231481</v>
   <v>       0.00231481</v>
   <v>       0.00462963</v>
   <v>       0.00462963</v>
   <v>       0.00462963</v>
   <v>       0.00462963</v>
   <v>       0.00462963</v>
   <v>       0.00231481</v>
   <v>       0.00462963</v>
   <v>       0.00925926</v>
   <v>       0.00925926</v>
   <v>       0.00925926</v>
   <v>       0.00925926</v>
   <v>       0.00925926</v>
   <v>       0.00462963</v>
   <v>       0.00462963</v>
   <v>       0.00925926</v>
   <v>       0.00925926</v>
   <v>       0.00925926</v>
   <v>       0.00925926</v>
   <v>       0.00925926</v>
   <v>       0.00462963</v>
   <v>       0.00231481</v>
   <v>       0.00462963</v>
   <v>       0.00462963</v>
   <v>       0.00462963</v>
   <v>       0.00462963</v>
   <v>       0.00462963</v>
   <v>       0.00231481</v>
   <v>       0.00231481</v>
   <v>       0.00462963</v>
   <v>       0.00462963</v>
   <v>       0.00462963</v>
   <v>       0.00462963</v>
   <v>       0.00462963</v>
   <v>       0.00231481</v>
   <v>       0.00462963</v>
   <v>       0.00925926</v>
   <v>       0.00925926</v>
   <v>       0.00925926</v>
   <v>       0.00925926</v>
   <v>       0.00925926</v>
   <v>       0.00462963</v>
   <v>       0.00231481</v>
   <v>       0.00462963</v>
   <v>       0.00462963</v>
   <v>       0.00462963</v>
   <v>       0.00462963</v>
   <v>       0.00462963</v>
   <v>       0.00231481</v>
   <v>       0.00231481</v>
   <v>       0.00462963</v>
   <v>       0.00462963</v>
   <v>       0.00462963</v>
   <v>       0.00462963</v>
   <v>       0.00462963</v>
   <v>       0.00231481</v>
   <v>       0.00231481</v>
   <v>       0.00462963</v>
   <v>       0.00462963</v>
   <v>       0.00462963</v>
   <v>       0.00462963</v>
   <v>       0.00462963</v>
   <v>       0.00231481</v>
   <v>       0.00057870</v>
   <v>       0.00115741</v>
   <v>       0.00115741</v>
   <v>       0.00115741</v>
   <v>       0.00115741</v>
   <v>       0.00115741</v>
   <v>       0.00057870</v>
  </varray>
 </kpoints>
 <parameters>
  <separator name="general" >
   <i type="string" name="SYSTEM">unknown system</i>
   <i type="logical" name="LCOMPAT"> F  </i>
  </separator>
  <separator name="electronic" >
   <i type="string" name="PREC">accura</i>
   <i name="ENMAX">    750.00000000</i>
   <i name="ENAUG">    412.49600000</i>
   <i name="EDIFF">      0.00000001</i>
   <i type="int" name="IALGO">    38</i>
   <i type="int" name="IWAVPR">    10</i>
   <i type="int" name="NBANDS">   211</i>
   <i name="NELECT">    352.00000000</i>
   <separator name="electronic smearing" >
    <i type="int" name="ISMEAR">     0</i>
    <i name="SIGMA">      0.01000000</i>
   </separator>
   <separator name="electronic projectors" >
    <i type="logical" name="LREAL"> F  </i>
    <v name="ROPT">      0.00000000</v>
    <i type="int" name="LMAXPAW">  -100</i>
    <i type="int" name="LMAXMIX">     2</i>
   </separator>
   <separator name="electronic startup" >
    <i type="int" name="ISTART">     0</i>
    <i type="int" name="ICHARG">     2</i>
    <i type="int" name="INIWAV">     1</i>
   </separator>
   <separator name="electronic spin" >
    <i type="int" name="ISPIN">     1</i>
    <i type="logical" name="LNONCOLLINEAR"> F  </i>
    <v name="MAGMOM">      1.00000000      1.00000000      1.00000000      1.00000000      1.00000000      1.00000000      1.00000000      1.00000000      1.00000000      1.00000000      1.00000000      1.00000000      1.00000000      1.00000000      1.00000000      1.00000000      1.00000000      1.00000000      1.00000000      1.00000000
      1.00000000      1.00000000      1.00000000      1.00000000      1.00000000      1.00000000      1.00000000      1.00000000      1.00000000      1.00000000      1.00000000      1.00000000</v>
    <i name="NUPDOWN">     -1.00000000</i>
    <i type="logical" name="LSORBIT"> F  </i>
    <v name="SAXIS">      0.00000000      0.00000000      1.00000000</v>
    <i type="logical" name="LSPIRAL"> F  </i>
    <v name="QSPIRAL">      0.00000000      0.00000000      0.00000000</v>
    <i type="logical" name="LZEROZ"> F  </i>
   </separator>
   <separator name="electronic exchange-correlation" >
    <i type="string" name="GGA">--</i>
    <i type="int" name="VOSKOWN">     0</i>
    <i type="logical" name="LASPH"> F  </i>
    <i type="logical" name="LMETAGGA"> F  </i>
    <i type="string" name="GGA2">--</i>
   </separator>
   <separator name="electronic convergence" >
    <i type="int" name="NELM">    60</i>
    <i type="int" name="NELMDL">    -5</i>
    <i type="int" name="NELMIN">     2</i>
    <i name="ENINI">    750.00000000</i>
    <separator name="electronic convergence detail" >
     <i type="logical" name="LDIAG"> T  </i>
     <i name="WEIMIN">      0.00000000</i>
     <i name="EBREAK">      0.00000000</i>
     <i name="DEPER">      0.30000000</i>
     <i type="int" name="NRMM">     4</i>
     <i name="TIME">      0.10000000</i>
    </separator>
   </separator>
   <separator name="electronic mixer" >
    <i name="AMIX">      0.40000000</i>
    <i name="BMIX">      1.00000000</i>
    <i name="AMIN">      0.10000000</i>
    <i name="AMIX_MAG">      1.60000000</i>
    <i name="BMIX_MAG">      1.00000000</i>
    <separator name="electronic mixer details" >
     <i type="int" name="IMIX">     4</i>
     <i type="int" name="MAXMIX">   -45</i>
     <i name="WC">    100.00000000</i>
     <i type="int" name="INIMIX">     1</i>
     <i type="int" name="MIXPRE">     1</i>
     <i type="int" name="MREMOVE">     5</i>
    </separator>
   </separator>
   <separator name="electronic dipolcorrection" >
    <i type="int" name="IDIPOL">     0</i>
    <i type="logical" name="LDIPOL"> F  </i>
    <v name="DIPOL">   -100.00000000</v>
    <i name="EFIELD">      0.00000000</i>
   </separator>
  </separator>
  <separator name="grids" >
   <i type="int" name="NGX">    80</i>
   <i type="int" name="NGY">    80</i>
   <i type="int" name="NGZ">    80</i>
   <i type="int" name="NGXF">   160</i>
   <i type="int" name="NGYF">   160</i>
   <i type="int" name="NGZF">   160</i>
   <i type="logical" name="ADDGRID"> T  </i>
  </separator>
  <separator name="ionic" >
   <i type="int" name="NSW">     0</i>
   <i type="int" name="IBRION">    -1</i>
   <i type="int" name="ISIF">     2</i>
   <i name="PSTRESS">      0.00000000</i>
   <i name="EDIFFG">      0.00000010</i>
   <i type="int" name="NFREE">     0</i>
   <i name="POTIM">      0.50000000</i>
   <i name="SMASS">     -3.00000000</i>
  </separator>
  <separator name="ionic md" >
   <i name="TEBEG">      0.00010000</i>
   <i name="TEEND">      0.00010000</i>
   <i type="int" name="NBLOCK">     1</i>
   <i type="int" name="KBLOCK">     1</i>
   <i type="int" name="NPACO">   256</i>
   <i name="APACO">     16.00000000</i>
  </separator>
  <separator name="symmetry" >
   <i type="int" name="ISYM">     2</i>
   <i name="SYMPREC">      0.00001000</i>
  </separator>
  <separator name="dos" >
   <i type="logical" name="LORBIT"> F  </i>
   <v name="RWIGS">     -1.00000000</v>
   <i type="int" name="NEDOS">   301</i>
   <i name="EMIN">     10.00000000</i>
   <i name="EMAX">    -10.00000000</i>
  </separator>
  <separator name="writing" >
   <i type="int" name="NWRITE">     2</i>
   <i type="logical" name="LWAVE"> F  </i>
   <i type="logical" name="LCHARG"> F  </i>
   <i type="logical" name="LPARD"> F  </i>
   <i type="logical" name="LVTOT"> F  </i>
   <i type="logical" name="LELF"> F  </i>
   <i type="logical" name="LOPTICS"> F  </i>
   <i name="STM">      0.00000000</i>
  </separator>
  <separator name="performance" >
   <i type="int" name="NPAR">     8</i>
   <i type="int" name="NSIM">     4</i>
   <i type="int" name="NBLK">   256</i>
   <i type="logical" name="LPLANE"> T  </i>
   <i type="logical" name="LCRITICAL_MEM"> F  </i>
   <i type="logical" name="LSCALAPACK"> F  </i>
   <i type="logical" name="LSCALU"> F  </i>
   <i type="logical" name="LASYNC"> F  </i>
  </separator>
  <separator name="miscellaneous" >
   <i type="int" name="IDIOT">     3</i>
   <i type="logical" name="LMUSIC"> F  </i>
   <v name="POMASS">    107.86800000</v>
   <i type="logical" name="LCORR"> T  </i>
  </separator>
  <i type="logical" name="LREAL_COMPAT"> F  </i>
  <i type="logical" name="GGA_COMPAT"> T  </i>
  <i type="logical" name="LBERRY"> F  </i>
  <i type="int" name="ICORELEVEL">     0</i>
  <i type="logical" name="LDAU"> F  </i>
  <i type="int" name="I_CONSTRAINED_M">     0</i>
 </parameters>
 <atominfo>
  <atoms>      32</atoms>
  <types>       1</types>
  <array name="atoms" >
   <dimension dim="1">ion</dimension>
   <field type="string">element</field>
   <field type="int">atomtype</field>
   <set>
    <rc><c>Ag</c><c>   1</c></rc>
    <rc><c>Ag</c><c>   1</c></rc>
    <rc><c>Ag</c><c>   1</c></rc>
    <rc><c>Ag</c><c>   1</c></rc>
    <rc><c>Ag</c><c>   1</c></rc>
    <rc><c>Ag</c><c>   1</c></rc>
    <rc><c>Ag</c><c>   1</c></rc>
    <rc><c>Ag</c><c>   1</c></rc>
    <rc><c>Ag</c><c>   1</c></rc>
    <rc><c>Ag</c><c>   1</c></rc>
    <rc><c>Ag</c><c>   1</c></rc>
    <rc><c>Ag</c><c>   1</c></rc>
    <rc><c>Ag</c><c>   1</c></rc>
    <rc><c>Ag</c><c>   1</c></rc>
    <rc><c>Ag</c><c>   1</c></rc>
    <rc><c>Ag</c><c>   1</c></rc>
    <rc><c>Ag</c><c>   1</c></rc>
    <rc><c>Ag</c><c>   1</c></rc>
    <rc><c>Ag</c><c>   1</c></rc>
    <rc><c>Ag</c><c>   1</c></rc>
    <rc><c>Ag</c><c>   1</c></rc>
    <rc><c>Ag</c><c>   1</c></rc>
    <rc><c>Ag</c><c>   1</c></rc>
    <rc><c>Ag</c><c>   1</c></rc>
    <rc><c>Ag</c><c>   1</c></rc>
    <rc><c>Ag</c><c>   1</c></rc>
    <rc><c>Ag</c><c>   1</c></rc>
    <rc><c>Ag</c><c>   1</c></rc>
    <rc><c>Ag</c><c>   1</c></rc>
    <rc><c>Ag</c><c>   1</c></rc>
    <rc><c>Ag</c><c>   1</c></rc>
    <rc><c>Ag</c><c>   1</c></rc>
   </set>
  </array>
  <array name="atomtypes" >
   <dimension dim="1">type</dimension>
   <field type="int">atomspertype</field>
   <field type="string">element</field>
   <field>mass</field>
   <field>valence</field>
   <field type="string">pseudopotential</field>
   <set>
    <rc><c>  32</c><c>Ag</c><c>    107.86800000</c><c>     11.00000000</c><c> PAW_PBE Ag 06Sep2000                   </c></rc>
   </set>
  </array>
 </atominfo>
 <structure name="initialpos" >
  <crystal>
   <varray name="basis" >
    <v>       8.24318507      0.00000000      0.00000000</v>
    <v>       0.00000000      8.24318507      0.00000000</v>
    <v>       0.00000000      0.00000000      8.24318507</v>
   </varray>
   <i name="volume">    560.12525015</i>
   <varray name="rec_basis" >
    <v>       0.12131233      0.00000000      0.00000000</v>
    <v>       0.00000000      0.12131233      0.00000000</v>
    <v>       0.00000000      0.00000000      0.12131233</v>
   </varray>
  </crystal>
  <varray name="positions" >
   <v>       0.00121312      0.00000000      0.00000000</v>
   <v>       0.50000000      0.00000000      0.00000000</v>
   <v>       0.00000000      0.50000000      0.00000000</v>
   <v>       0.50000000      0.50000000      0.00000000</v>
   <v>       0.00000000      0.00000000      0.50000000</v>
   <v>       0.50000000      0.00000000      0.50000000</v>
   <v>       0.00000000      0.50000000      0.50000000</v>
   <v>       0.50000000      0.50000000      0.50000000</v>
   <v>       0.25000000      0.25000000      0.00000000</v>
   <v>       0.75000000      0.25000000      0.00000000</v>
   <v>       0.25000000      0.75000000      0.00000000</v>
   <v>       0.75000000      0.75000000      0.00000000</v>
   <v>       0.25000000      0.25000000      0.50000000</v>
   <v>       0.75000000      0.25000000      0.50000000</v>
   <v>       0.25000000      0.75000000      0.50000000</v>
   <v>       0.75000000      0.75000000      0.50000000</v>
   <v>       0.25000000      0.00000000      0.25000000</v>
   <v>       0.75000000      0.00000000      0.25000000</v>
   <v>       0.25000000      0.50000000      0.25000000</v>
   <v>       0.75000000      0.50000000      0.25000000</v>
   <v>       0.25000000      0.00000000      0.75000000</v>
   <v>       0.75000000      0.00000000      0.75000000</v>
   <v>       0.25000000      0.50000000      0.75000000</v>
   <v>       0.75000000      0.50000000      0.75000000</v>
   <v>       0.00000000      0.25000000      0.25000000</v>
   <v>       0.50000000      0.25000000      0.25000000</v>
   <v>       0.00000000      0.75000000      0.25000000</v>
   <v>       0.50000000      0.75000000      0.25000000</v>
   <v>       0.00000000      0.25000000      0.75000000</v>
   <v>       0.50000000      0.25000000      0.75000000</v>
   <v>       0.00000000      0.75000000      0.75000000</v>
   <v>       0.50000000      0.75000000      0.75000000</v>
  </varray>
 </structure>
 <calculation>
  <scstep>
   <time name="dav"> 1761.04 1763.94</time>
   <time name="total"> 1762.14 1765.05</time>
   <energy>
    <i name="alphaZ">   3246.40913697</i>
    <i name="ewald"> -31011.47444228</i>
    <i name="hartreedc">  -6611.16332392</i>
    <i name="XCdc">   -344.60255447</i>
    <i name="pawpsdc">  27861.41421209</i>
    <i name="pawaedc"> -26376.63839568</i>
    <i name="eentropy">     -0.00041071</i>
    <i name="bandstr">   4358.89318723</i>
    <i name="atom">  33197.19690173</i>
    <i name="e_fr_energy">   4320.03431097</i>
    <i name="e_wo_entrp">   4320.03472167</i>
    <i name="e_0_energy">   4320.03451632</i>
   </energy>
  </scstep>
  <scstep>
   <time name="dav"> 1751.50 1755.50</time>
   <time name="total"> 1751.60 1755.60</time>
   <energy>
    <i name="e_fr_energy">    125.30989457</i>
    <i name="e_wo_entrp">    125.31032243</i>
    <i name="e_0_energy">    125.31010850</i>
   </energy>
  </scstep>
  <scstep>
   <time name="dav"> 1821.78 1825.70</time>
   <time name="total"> 1821.88 1825.80</time>
   <energy>
    <i name="e_fr_energy">    -93.49942453</i>
    <i name="e_wo_entrp">    -93.49856426</i>
    <i name="e_0_energy">    -93.49899440</i>
   </energy>
  </scstep>
  <scstep>
   <time name="dav"> 1860.80 1863.84</time>
   <time name="total"> 1860.90 1863.95</time>
   <energy>
    <i name="e_fr_energy">    -97.70152960</i>
    <i name="e_wo_entrp">    -97.70069752</i>
    <i name="e_0_energy">    -97.70111356</i>
   </energy>
  </scstep>
  <scstep>
   <time name="dav"> 1842.42 1846.99</time>
   <time name="total"> 1905.00 1909.74</time>
   <energy>
    <i name="e_fr_energy">    -97.72310167</i>
    <i name="e_wo_entrp">    -97.72227109</i>
    <i name="e_0_energy">    -97.72268638</i>
   </energy>
  </scstep>
  <scstep>
   <time name="dav"> 1835.69 1838.72</time>
   <time name="total"> 1898.37 1901.50</time>
   <energy>
    <i name="e_fr_energy">    -90.61655938</i>
    <i name="e_wo_entrp">    -90.61575871</i>
    <i name="e_0_energy">    -90.61615904</i>
   </energy>
  </scstep>
  <scstep>
   <time name="dav"> 1816.53 1819.52</time>
   <time name="total"> 1879.39 1882.47</time>
   <energy>
    <i name="e_fr_energy">    -90.41493010</i>
    <i name="e_wo_entrp">    -90.41418334</i>
    <i name="e_0_energy">    -90.41455672</i>
   </energy>
  </scstep>
  <scstep>
   <time name="dav"> 1835.53 1838.54</time>
   <time name="total"> 1898.64 1901.75</time>
   <energy>
    <i name="e_fr_energy">    -90.32156432</i>
    <i name="e_wo_entrp">    -90.32083492</i>
    <i name="e_0_energy">    -90.32119962</i>
   </energy>
  </scstep>
  <scstep>
   <time name="dav"> 1848.59 1852.23</time>
   <time name="total"> 1911.75 1915.52</time>
   <energy>
    <i name="e_fr_energy">    -90.32248344</i>
    <i name="e_wo_entrp">    -90.32175961</i>
    <i name="e_0_energy">    -90.32212152</i>
   </energy>
  </scstep>
  <scstep>
   <time name="dav"> 1826.34 1829.36</time>
   <time name="total"> 1889.48 1892.62</time>
   <energy>
    <i name="e_fr_energy">    -90.32234434</i>
    <i name="e_wo_entrp">    -90.32161874</i>
    <i name="e_0_energy">    -90.32198154</i>
   </energy>
  </scstep>
  <scstep>
   <time name="dav"> 1844.52 1848.26</time>
   <time name="total"> 1907.25 1911.13</time>
   <energy>
    <i name="e_fr_energy">    -90.32233776</i>
    <i name="e_wo_entrp">    -90.32161188</i>
    <i name="e_0_energy">    -90.32197482</i>
   </energy>
  </scstep>
  <scstep>
   <time name="dav"> 1825.63 1828.61</time>
   <time name="total"> 1888.39 1891.46</time>
   <energy>
    <i name="e_fr_energy">    -90.32233447</i>
    <i name="e_wo_entrp">    -90.32160852</i>
    <i name="e_0_energy">    -90.32197150</i>
   </energy>
  </scstep>
  <scstep>
   <time name="dav"> 1563.29 1567.62</time>
   <time name="total"> 1626.59 1631.08</time>
   <energy>
    <i name="e_fr_energy">    -90.32233234</i>
    <i name="e_wo_entrp">    -90.32160638</i>
    <i name="e_0_energy">    -90.32196936</i>
   </energy>
  </scstep>
  <scstep>
   <time name="dav"> 1164.98 1168.94</time>
   <time name="total"> 1227.88 1232.04</time>
   <energy>
    <i name="e_fr_energy">    -90.32233202</i>
    <i name="e_wo_entrp">    -90.32160606</i>
    <i name="e_0_energy">    -90.32196904</i>
   </energy>
  </scstep>
  <scstep>
   <time name="dav"> 1159.90 1162.06</time>
   <time name="total"> 1223.04 1225.31</time>
   <energy>
    <i name="e_fr_energy">    -90.32233201</i>
    <i name="e_wo_entrp">    -90.32160606</i>
    <i name="e_0_energy">    -90.32196903</i>
   </energy>
  </scstep>
  <scstep>
   <time name="dav"> 1154.21 1157.38</time>
   <time name="total"> 1155.29 1158.47</time>
   <energy>
    <i name="alphaZ">   3246.40913697</i>
    <i name="ewald"> -31011.47444228</i>
    <i name="hartreedc">  -6228.46279536</i>
    <i name="XCdc">   -358.60779776</i>
    <i name="pawpsdc">  27809.09852622</i>
    <i name="pawaedc"> -26396.61031465</i>
    <i name="eentropy">     -0.00072596</i>
    <i name="bandstr">   -347.87082093</i>
    <i name="atom">  33197.19690173</i>
    <i name="e_fr_energy">    -90.32233200</i>
    <i name="e_wo_entrp">    -90.32160605</i>
    <i name="e_0_energy">    -90.32196903</i>
   </energy>
  </scstep>
  <structure>
   <crystal>
    <varray name="basis" >
     <v>       8.24318507      0.00000000      0.00000000</v>
     <v>       0.00000000      8.24318507      0.00000000</v>
     <v>       0.00000000      0.00000000      8.24318507</v>
    </varray>
    <i name="volume">    560.12525015</i>
    <varray name="rec_basis" >
     <v>       0.12131233      0.00000000      0.00000000</v>
     <v>       0.00000000      0.12131233      0.00000000</v>
     <v>       0.00000000      0.00000000      0.12131233</v>
    </varray>
   </crystal>
   <varray name="positions" >
    <v>       0.00121312      0.00000000      0.00000000</v>
    <v>       0.50000000      0.00000000      0.00000000</v>
    <v>       0.00000000      0.50000000      0.00000000</v>
    <v>       0.50000000      0.50000000      0.00000000</v>
    <v>       0.00000000      0.00000000      0.50000000</v>
    <v>       0.50000000      0.00000000      0.50000000</v>
    <v>       0.00000000      0.50000000      0.50000000</v>
    <v>       0.50000000      0.50000000      0.50000000</v>
    <v>       0.25000000      0.25000000      0.00000000</v>
    <v>       0.75000000      0.25000000      0.00000000</v>
    <v>       0.25000000      0.75000000      0.00000000</v>
    <v>       0.75000000      0.75000000      0.00000000</v>
    <v>       0.25000000      0.25000000      0.50000000</v>
    <v>       0.75000000      0.25000000      0.50000000</v>
    <v>       0.25000000      0.75000000      0.50000000</v>
    <v>       0.75000000      0.75000000      0.50000000</v>
    <v>       0.25000000      0.00000000      0.25000000</v>
    <v>       0.75000000      0.00000000      0.25000000</v>
    <v>       0.25000000      0.50000000      0.25000000</v>
    <v>       0.75000000      0.50000000      0.25000000</v>
    <v>       0.25000000      0.00000000      0.75000000</v>
    <v>       0.75000000      0.00000000      0.75000000</v>
    <v>       0.25000000      0.50000000      0.75000000</v>
    <v>       0.75000000      0.50000000      0.75000000</v>
    <v>       0.00000000      0.25000000      0.25000000</v>
    <v>       0.50000000      0.25000000      0.25000000</v>
    <v>       0.00000000      0.75000000      0.25000000</v>
    <v>       0.50000000      0.75000000      0.25000000</v>
    <v>       0.00000000      0.25000000      0.75000000</v>
    <v>       0.50000000      0.25000000      0.75000000</v>
    <v>       0.00000000      0.75000000      0.75000000</v>
    <v>       0.50000000      0.75000000      0.75000000</v>
   </varray>
  </structure>
  <varray name="forces" >
   <v>      -0.05233621      0.00000000      0.00000000</v>
   <v>       0.00115989     -0.00000000     -0.00000000</v>
   <v>      -0.00036305      0.00000000     -0.00000000</v>
   <v>      -0.00044553      0.00000000      0.00000000</v>
   <v>      -0.00036305     -0.00000000      0.00000000</v>
   <v>      -0.00044553      0.00000000     -0.00000000</v>
   <v>      -0.00017385      0.00000000      0.00000000</v>
   <v>      -0.00012302      0.00000000      0.00000000</v>
   <v>       0.00687417      0.00806036      0.00000000</v>
   <v>       0.00666549     -0.00776519     -0.00000000</v>
   <v>       0.00687417     -0.00806036      0.00000000</v>
   <v>       0.00666549      0.00776519     -0.00000000</v>
   <v>       0.00023565      0.00005254      0.00000000</v>
   <v>       0.00023822     -0.00005132      0.00000000</v>
   <v>       0.00023565     -0.00005254      0.00000000</v>
   <v>       0.00023822      0.00005132     -0.00000000</v>
   <v>       0.00687417     -0.00000000      0.00806036</v>
   <v>       0.00666549     -0.00000000     -0.00776519</v>
   <v>       0.00023565      0.00000000      0.00005254</v>
   <v>       0.00023822     -0.00000000     -0.00005132</v>
   <v>       0.00687417      0.00000000     -0.00806036</v>
   <v>       0.00666549     -0.00000000      0.00776519</v>
   <v>       0.00023565      0.00000000     -0.00005254</v>
   <v>       0.00023822     -0.00000000      0.00005132</v>
   <v>      -0.00130799     -0.00001044     -0.00001044</v>
   <v>       0.00056704      0.00000129      0.00000129</v>
   <v>      -0.00130799      0.00001044     -0.00001044</v>
   <v>       0.00056704     -0.00000129      0.00000129</v>
   <v>      -0.00130799     -0.00001044      0.00001044</v>
   <v>       0.00056704      0.00000129     -0.00000129</v>
   <v>      -0.00130799      0.00001044      0.00001044</v>
   <v>       0.00056704     -0.00000129     -0.00000129</v>
  </varray>
  <varray name="stress" >
   <v>      29.71593585     -0.00000000      0.00000000</v>
   <v>       0.00000000     29.71598433      0.00000000</v>
   <v>       0.00000000      0.00000000     29.71598433</v>
  </varray>
  <energy>
   <i name="e_fr_energy">    -90.32233200</i>
   <i name="e_wo_entrp">    -90.32196903</i>
   <i name="e_0_energy">     -0.00072596</i>
  </energy>
  <eigenvalues>
   <array>
    <dimension dim="1">band</dimension>
    <dimension dim="2">kpoint</dimension>
    <dimension dim="3">spin</dimension>
    <field>eigene</field>
    <field>occ</field>
    <set>
     <set comment="spin 1">
      <set comment="kpoint 1">
       <r>  -4.2879  1.0000</r>
       <r>  -3.0095  1.0000</r>
       <r>  -3.0095  1.0000</r>
       <r>  -3.0095  1.0000</r>
       <r>  -2.9672  1.0000</r>
       <r>  -2.9672  1.0000</r>
       <r>  -2.9672  1.0000</r>
       <r>  -2.9672  1.0000</r>
       <r>  -2.8810  1.0000</r>
       <r>  -2.8810  1.0000</r>
       <r>  -2.8810  1.0000</r>
       <r>  -2.5540  1.0000</r>
       <r>  -2.5521  1.0000</r>
       <r>  -2.5521  1.0000</r>
       <r>  -2.5521  1.0000</r>
       <r>  -2.5521  1.0000</r>
       <r>  -2.5503  1.0000</r>
       <r>  -2.2884  1.0000</r>
       <r>  -2.2867  1.0000</r>
       <r>  -2.2867  1.0000</r>
       <r>  -2.2867  1.0000</r>
       <r>  -2.2867  1.0000</r>
       <r>  -2.2850  1.0000</r>
       <r>  -2.2061  1.0000</r>
       <r>  -2.2044  1.0000</r>
       <r>  -2.2044  1.0000</r>
       <r>  -2.2044  1.0000</r>
       <r>  -2.2044  1.0000</r>
       <r>  -2.2027  1.0000</r>
       <r>  -1.9689  1.0000</r>
       <r>  -1.9689  1.0000</r>
       <r>  -1.9685  1.0000</r>
       <r>  -1.9678  1.0000</r>
       <r>  -1.9674  1.0000</r>
       <r>  -1.9674  1.0000</r>
       <r>  -1.9674  1.0000</r>
       <r>  -1.9674  1.0000</r>
       <r>  -1.9671  1.0000</r>
       <r>  -1.9663  1.0000</r>
       <r>  -1.9659  1.0000</r>
       <r>  -1.9659  1.0000</r>
       <r>  -1.7613  1.0000</r>
       <r>  -1.7592  1.0000</r>
       <r>  -1.7592  1.0000</r>
       <r>  -1.7582  1.0000</r>
       <r>  -1.7582  1.0000</r>
       <r>  -1.7582  1.0000</r>
       <r>  -1.7582  1.0000</r>
       <r>  -1.7582  1.0000</r>
       <r>  -1.7582  1.0000</r>
       <r>  -1.7573  1.0000</r>
       <r>  -1.7573  1.0000</r>
       <r>  -1.7552  1.0000</r>
       <r>  -1.7036  1.0000</r>
       <r>  -1.7036  1.0000</r>
       <r>  -1.7018  1.0000</r>
       <r>  -1.7018  1.0000</r>
       <r>  -1.7018  1.0000</r>
       <r>  -1.7018  1.0000</r>
       <r>  -1.7017  1.0000</r>
       <r>  -1.7017  1.0000</r>
       <r>  -1.7017  1.0000</r>
       <r>  -1.7016  1.0000</r>
       <r>  -1.6998  1.0000</r>
       <r>  -1.6998  1.0000</r>
       <r>  -1.4690  1.0000</r>
       <r>  -1.4690  1.0000</r>
       <r>  -1.4690  1.0000</r>
       <r>  -1.4690  1.0000</r>
       <r>  -1.4690  1.0000</r>
       <r>  -1.4690  1.0000</r>
       <r>  -1.4690  1.0000</r>
       <r>  -1.4690  1.0000</r>
       <r>  -1.4492  1.0000</r>
       <r>  -1.4492  1.0000</r>
       <r>  -1.4492  1.0000</r>
       <r>  -1.3674  1.0000</r>
       <r>  -1.3652  1.0000</r>
       <r>  -1.3649  1.0000</r>
       <r>  -1.3649  1.0000</r>
       <r>  -1.3647  1.0000</r>
       <r>  -1.3647  1.0000</r>
       <r>  -1.3647  1.0000</r>
       <r>  -1.3647  1.0000</r>
       <r>  -1.3646  1.0000</r>
       <r>  -1.3646  1.0000</r>
       <r>  -1.3643  1.0000</r>
       <r>  -1.3620  1.0000</r>
       <r>  -0.8202  1.0000</r>
       <r>  -0.8196  1.0000</r>
       <r>  -0.8187  1.0000</r>
       <r>  -0.8187  1.0000</r>
       <r>  -0.8182  1.0000</r>
       <r>  -0.8182  1.0000</r>
       <r>  -0.8182  1.0000</r>
       <r>  -0.8182  1.0000</r>
       <r>  -0.8178  1.0000</r>
       <r>  -0.8178  1.0000</r>
       <r>  -0.8168  1.0000</r>
       <r>  -0.8163  1.0000</r>
       <r>  -0.6136  1.0000</r>
       <r>  -0.6136  1.0000</r>
       <r>  -0.6116  1.0000</r>
       <r>  -0.6116  1.0000</r>
       <r>  -0.6114  1.0000</r>
       <r>  -0.6114  1.0000</r>
       <r>  -0.6114  1.0000</r>
       <r>  -0.6114  1.0000</r>
       <r>  -0.6112  1.0000</r>
       <r>  -0.6112  1.0000</r>
       <r>  -0.6093  1.0000</r>
       <r>  -0.6093  1.0000</r>
       <r>  -0.4607  1.0000</r>
       <r>  -0.4605  1.0000</r>
       <r>  -0.4502  1.0000</r>
       <r>  -0.4495  1.0000</r>
       <r>  -0.4494  1.0000</r>
       <r>  -0.4494  1.0000</r>
       <r>  -0.4480  1.0000</r>
       <r>  -0.4477  1.0000</r>
       <r>  -0.4477  1.0000</r>
       <r>  -0.4470  1.0000</r>
       <r>  -0.4466  1.0000</r>
       <r>  -0.4466  1.0000</r>
       <r>  -0.4463  1.0000</r>
       <r>  -0.4462  1.0000</r>
       <r>  -0.4462  1.0000</r>
       <r>  -0.4462  1.0000</r>
       <r>  -0.4462  1.0000</r>
       <r>  -0.4459  1.0000</r>
       <r>  -0.4455  1.0000</r>
       <r>  -0.4455  1.0000</r>
       <r>  -0.4454  1.0000</r>
       <r>  -0.4451  1.0000</r>
       <r>  -0.4439  1.0000</r>
       <r>  -0.4430  1.0000</r>
       <r>  -0.4430  1.0000</r>
       <r>  -0.4428  1.0000</r>
       <r>  -0.1060  1.0000</r>
       <r>  -0.1050  1.0000</r>
       <r>  -0.1050  1.0000</r>
       <r>  -0.1050  1.0000</r>
       <r>  -0.1050  1.0000</r>
       <r>  -0.1041  1.0000</r>
       <r>   0.2684  1.0000</r>
       <r>   0.2684  1.0000</r>
       <r>   0.2684  1.0000</r>
       <r>   0.2990  1.0000</r>
       <r>   0.2990  1.0000</r>
       <r>   0.2990  1.0000</r>
       <r>   0.2990  1.0000</r>
       <r>   0.2990  1.0000</r>
       <r>   0.2990  1.0000</r>
       <r>   0.2990  1.0000</r>
       <r>   0.2990  1.0000</r>
       <r>   0.4966  1.0000</r>
       <r>   0.4969  1.0000</r>
       <r>   0.4969  1.0000</r>
       <r>   0.4969  1.0000</r>
       <r>   0.4969  1.0000</r>
       <r>   0.4969  1.0000</r>
       <r>   0.4978  1.0000</r>
       <r>   0.4979  1.0000</r>
       <r>   0.4979  1.0000</r>
       <r>   0.4979  1.0000</r>
       <r>   0.4979  1.0000</r>
       <r>   0.4982  1.0000</r>
       <r>   2.7124  1.0000</r>
       <r>   2.7130  1.0000</r>
       <r>   2.7130  1.0000</r>
       <r>   2.7141  1.0000</r>
       <r>   2.7144  1.0000</r>
       <r>   2.7144  1.0000</r>
       <r>   2.7144  1.0000</r>
       <r>   2.7144  1.0000</r>
       <r>   2.7147  1.0000</r>
       <r>   2.7158  1.0000</r>
       <r>   2.7158  1.0000</r>
       <r>   2.7164  1.0000</r>
       <r>   2.9556  1.0000</r>
       <r>   2.9556  1.0000</r>
       <r>   2.9556  1.0000</r>
       <r>   2.9556  1.0000</r>
       <r>   4.9305  0.0000</r>
       <r>   4.9305  0.0000</r>
       <r>   4.9306  0.0000</r>
       <r>   6.7578  0.0000</r>
       <r>   6.7578  0.0000</r>
       <r>   6.7578  0.0000</r>
       <r>   6.7578  0.0000</r>
       <r>   9.1539  0.0000</r>
       <r>   9.1539  0.0000</r>
       <r>   9.1565  0.0000</r>
       <r>   9.1565  0.0000</r>
       <r>   9.1569  0.0000</r>
       <r>   9.1569  0.0000</r>
       <r>   9.1569  0.0000</r>
       <r>   9.1569  0.0000</r>
       <r>   9.1573  0.0000</r>
       <r>   9.1573  0.0000</r>
       <r>   9.1599  0.0000</r>
       <r>   9.1599  0.0000</r>
       <r>   9.8384  0.0000</r>
       <r>   9.8384  0.0000</r>
       <r>   9.8384  0.0000</r>
       <r>  10.2074  0.0000</r>
       <r>  10.2074  0.0000</r>
       <r>  10.2074  0.0000</r>
       <r>  10.2074  0.0000</r>
       <r>  10.2074  0.0000</r>
       <r>  10.2075  0.0000</r>
       <r>  11.3262  0.0000</r>
       <r>  11.3274  0.0000</r>
       <r>  11.3274  0.0000</r>
       <r>  11.3274  0.0000</r>
       <r>  11.3289  0.0000</r>
      </set>
      <set comment="kpoint 2">
       <r>  -4.2700  1.0000</r>
       <r>  -3.0022  1.0000</r>
       <r>  -3.0000  1.0000</r>
       <r>  -3.0000  1.0000</r>
       <r>  -2.9585  1.0000</r>
       <r>  -2.9585  1.0000</r>
       <r>  -2.9585  1.0000</r>
       <r>  -2.9584  1.0000</r>
       <r>  -2.8755  1.0000</r>
       <r>  -2.8726  1.0000</r>
       <r>  -2.8726  1.0000</r>
       <r>  -2.6550  1.0000</r>
       <r>  -2.5404  1.0000</r>
       <r>  -2.5403  1.0000</r>
       <r>  -2.5403  1.0000</r>
       <r>  -2.5403  1.0000</r>
       <r>  -2.5128  1.0000</r>
       <r>  -2.3041  1.0000</r>
       <r>  -2.3040  1.0000</r>
       <r>  -2.2967  1.0000</r>
       <r>  -2.2795  1.0000</r>
       <r>  -2.2795  1.0000</r>
       <r>  -2.2795  1.0000</r>
       <r>  -2.2794  1.0000</r>
       <r>  -2.1997  1.0000</r>
       <r>  -2.1997  1.0000</r>
       <r>  -2.1997  1.0000</r>
       <r>  -2.1996  1.0000</r>
       <r>  -2.1107  1.0000</r>
       <r>  -2.0364  1.0000</r>
       <r>  -2.0364  1.0000</r>
       <r>  -2.0364  1.0000</r>
       <r>  -2.0364  1.0000</r>
       <r>  -1.9843  1.0000</r>
       <r>  -1.9843  1.0000</r>
       <r>  -1.9843  1.0000</r>
       <r>  -1.9842  1.0000</r>
       <r>  -1.9493  1.0000</r>
       <r>  -1.9493  1.0000</r>
       <r>  -1.9493  1.0000</r>
       <r>  -1.9493  1.0000</r>
       <r>  -1.8851  1.0000</r>
       <r>  -1.8851  1.0000</r>
       <r>  -1.7968  1.0000</r>
       <r>  -1.7967  1.0000</r>
       <r>  -1.7967  1.0000</r>
       <r>  -1.7967  1.0000</r>
       <r>  -1.7283  1.0000</r>
       <r>  -1.7279  1.0000</r>
       <r>  -1.7279  1.0000</r>
       <r>  -1.7279  1.0000</r>
       <r>  -1.7203  1.0000</r>
       <r>  -1.7202  1.0000</r>
       <r>  -1.7202  1.0000</r>
       <r>  -1.7199  1.0000</r>
       <r>  -1.7049  1.0000</r>
       <r>  -1.7049  1.0000</r>
       <r>  -1.7049  1.0000</r>
       <r>  -1.7049  1.0000</r>
       <r>  -1.7009  1.0000</r>
       <r>  -1.7009  1.0000</r>
       <r>  -1.7009  1.0000</r>
       <r>  -1.7007  1.0000</r>
       <r>  -1.5055  1.0000</r>
       <r>  -1.5055  1.0000</r>
       <r>  -1.4720  1.0000</r>
       <r>  -1.4720  1.0000</r>
       <r>  -1.4720  1.0000</r>
       <r>  -1.4720  1.0000</r>
       <r>  -1.4625  1.0000</r>
       <r>  -1.4625  1.0000</r>
       <r>  -1.4625  1.0000</r>
       <r>  -1.4625  1.0000</r>
       <r>  -1.4560  1.0000</r>
       <r>  -1.4428  1.0000</r>
       <r>  -1.4428  1.0000</r>
       <r>  -1.4078  1.0000</r>
       <r>  -1.4078  1.0000</r>
       <r>  -1.4078  1.0000</r>
       <r>  -1.4078  1.0000</r>
       <r>  -1.3724  1.0000</r>
       <r>  -1.3723  1.0000</r>
       <r>  -1.3723  1.0000</r>
       <r>  -1.3723  1.0000</r>
       <r>  -1.3201  1.0000</r>
       <r>  -1.3201  1.0000</r>
       <r>  -1.3201  1.0000</r>
       <r>  -1.3200  1.0000</r>
       <r>  -0.8488  1.0000</r>
       <r>  -0.8487  1.0000</r>
       <r>  -0.8487  1.0000</r>
       <r>  -0.8487  1.0000</r>
       <r>  -0.8107  1.0000</r>
       <r>  -0.8106  1.0000</r>
       <r>  -0.8106  1.0000</r>
       <r>  -0.8106  1.0000</r>
       <r>  -0.7779  1.0000</r>
       <r>  -0.7779  1.0000</r>
       <r>  -0.7779  1.0000</r>
       <r>  -0.7778  1.0000</r>
       <r>  -0.7327  1.0000</r>
       <r>  -0.7327  1.0000</r>
       <r>  -0.7163  1.0000</r>
       <r>  -0.7163  1.0000</r>
       <r>  -0.7163  1.0000</r>
       <r>  -0.7163  1.0000</r>
       <r>  -0.6448  1.0000</r>
       <r>  -0.6119  1.0000</r>
       <r>  -0.6119  1.0000</r>
       <r>  -0.6119  1.0000</r>
       <r>  -0.6118  1.0000</r>
       <r>  -0.5034  1.0000</r>
       <r>  -0.5034  1.0000</r>
       <r>  -0.5032  1.0000</r>
       <r>  -0.5032  1.0000</r>
       <r>  -0.4856  1.0000</r>
       <r>  -0.4856  1.0000</r>
       <r>  -0.4674  1.0000</r>
       <r>  -0.4576  1.0000</r>
       <r>  -0.4453  1.0000</r>
       <r>  -0.4451  1.0000</r>
       <r>  -0.4451  1.0000</r>
       <r>  -0.4451  1.0000</r>
       <r>  -0.4278  1.0000</r>
       <r>  -0.4277  1.0000</r>
       <r>  -0.4142  1.0000</r>
       <r>  -0.4141  1.0000</r>
       <r>  -0.4141  1.0000</r>
       <r>  -0.4140  1.0000</r>
       <r>  -0.3750  1.0000</r>
       <r>  -0.3750  1.0000</r>
       <r>  -0.3749  1.0000</r>
       <r>  -0.3749  1.0000</r>
       <r>  -0.3504  1.0000</r>
       <r>  -0.3504  1.0000</r>
       <r>  -0.3504  1.0000</r>
       <r>  -0.3503  1.0000</r>
       <r>  -0.1547  1.0000</r>
       <r>  -0.1524  1.0000</r>
       <r>  -0.0932  1.0000</r>
       <r>  -0.0932  1.0000</r>
       <r>  -0.0932  1.0000</r>
       <r>  -0.0931  1.0000</r>
       <r>  -0.0574  1.0000</r>
       <r>   0.2592  1.0000</r>
       <r>   0.2592  1.0000</r>
       <r>   0.2651  1.0000</r>
       <r>   0.2735  1.0000</r>
       <r>   0.2735  1.0000</r>
       <r>   0.2735  1.0000</r>
       <r>   0.2735  1.0000</r>
       <r>   0.2909  1.0000</r>
       <r>   0.2909  1.0000</r>
       <r>   0.2909  1.0000</r>
       <r>   0.2909  1.0000</r>
       <r>   0.4635  1.0000</r>
       <r>   0.4635  1.0000</r>
       <r>   0.4855  1.0000</r>
       <r>   0.4855  1.0000</r>
       <r>   0.4855  1.0000</r>
       <r>   0.4855  1.0000</r>
       <r>   0.4856  1.0000</r>
       <r>   0.4856  1.0000</r>
       <r>   0.4966  1.0000</r>
       <r>   0.4969  1.0000</r>
       <r>   0.4978  1.0000</r>
       <r>   0.4982  1.0000</r>
       <r>   2.3387  1.0000</r>
       <r>   2.3387  1.0000</r>
       <r>   2.3387  1.0000</r>
       <r>   2.3387  1.0000</r>
       <r>   2.7168  1.0000</r>
       <r>   2.7168  1.0000</r>
       <r>   2.7169  1.0000</r>
       <r>   2.7169  1.0000</r>
       <r>   2.9480  1.0000</r>
       <r>   2.9480  1.0000</r>
       <r>   2.9480  1.0000</r>
       <r>   2.9480  1.0000</r>
       <r>   3.1218  1.0000</r>
       <r>   3.1218  1.0000</r>
       <r>   3.1218  1.0000</r>
       <r>   3.1218  1.0000</r>
       <r>   4.8004  0.0000</r>
       <r>   4.9787  0.0000</r>
       <r>   4.9787  0.0000</r>
       <r>   6.8163  0.0000</r>
       <r>   6.8163  0.0000</r>
       <r>   6.8163  0.0000</r>
       <r>   6.8163  0.0000</r>
       <r>   8.6514  0.0000</r>
       <r>   8.6514  0.0000</r>
       <r>   8.8319  0.0000</r>
       <r>   8.8319  0.0000</r>
       <r>   8.8319  0.0000</r>
       <r>   8.8319  0.0000</r>
       <r>   9.1851  0.0000</r>
       <r>   9.1851  0.0000</r>
       <r>   9.1851  0.0000</r>
       <r>   9.1851  0.0000</r>
       <r>   9.6694  0.0000</r>
       <r>   9.6694  0.0000</r>
       <r>   9.8412  0.0000</r>
       <r>   9.8412  0.0000</r>
       <r>   9.9965  0.0000</r>
       <r>  10.1916  0.0000</r>
       <r>  10.1916  0.0000</r>
       <r>  10.3934  0.0000</r>
       <r>  10.3934  0.0000</r>
       <r>  10.3934  0.0000</r>
       <r>  10.3934  0.0000</r>
       <r>  11.3705  0.0000</r>
       <r>  11.3706  0.0000</r>
       <r>  11.5037  0.0000</r>
       <r>  11.5038  0.0000</r>
       <r>  11.5038  0.0000</r>
      </set>
      <set comment="kpoint 3">
       <r>  -4.2166  1.0000</r>
       <r>  -2.9805  1.0000</r>
       <r>  -2.9720  1.0000</r>
       <r>  -2.9719  1.0000</r>
       <r>  -2.9323  1.0000</r>
       <r>  -2.9323  1.0000</r>
       <r>  -2.9323  1.0000</r>
       <r>  -2.9323  1.0000</r>
       <r>  -2.8590  1.0000</r>
       <r>  -2.8474  1.0000</r>
       <r>  -2.8474  1.0000</r>
       <r>  -2.8185  1.0000</r>
       <r>  -2.5242  1.0000</r>
       <r>  -2.5052  1.0000</r>
       <r>  -2.5052  1.0000</r>
       <r>  -2.5052  1.0000</r>
       <r>  -2.5052  1.0000</r>
       <r>  -2.3862  1.0000</r>
       <r>  -2.3530  1.0000</r>
       <r>  -2.3530  1.0000</r>
       <r>  -2.2584  1.0000</r>
       <r>  -2.2584  1.0000</r>
       <r>  -2.2584  1.0000</r>
       <r>  -2.2584  1.0000</r>
       <r>  -2.1857  1.0000</r>
       <r>  -2.1856  1.0000</r>
       <r>  -2.1856  1.0000</r>
       <r>  -2.1855  1.0000</r>
       <r>  -2.1650  1.0000</r>
       <r>  -2.1650  1.0000</r>
       <r>  -2.1650  1.0000</r>
       <r>  -2.1650  1.0000</r>
       <r>  -2.0545  1.0000</r>
       <r>  -2.0545  1.0000</r>
       <r>  -2.0173  1.0000</r>
       <r>  -1.9980  1.0000</r>
       <r>  -1.9980  1.0000</r>
       <r>  -1.9980  1.0000</r>
       <r>  -1.9980  1.0000</r>
       <r>  -1.9370  1.0000</r>
       <r>  -1.9370  1.0000</r>
       <r>  -1.9370  1.0000</r>
       <r>  -1.9370  1.0000</r>
       <r>  -1.8421  1.0000</r>
       <r>  -1.8421  1.0000</r>
       <r>  -1.8421  1.0000</r>
       <r>  -1.8420  1.0000</r>
       <r>  -1.7137  1.0000</r>
       <r>  -1.7137  1.0000</r>
       <r>  -1.7137  1.0000</r>
       <r>  -1.7136  1.0000</r>
       <r>  -1.7065  1.0000</r>
       <r>  -1.7060  1.0000</r>
       <r>  -1.7060  1.0000</r>
       <r>  -1.7060  1.0000</r>
       <r>  -1.6986  1.0000</r>
       <r>  -1.6986  1.0000</r>
       <r>  -1.6986  1.0000</r>
       <r>  -1.6981  1.0000</r>
       <r>  -1.6725  1.0000</r>
       <r>  -1.6725  1.0000</r>
       <r>  -1.6725  1.0000</r>
       <r>  -1.6724  1.0000</r>
       <r>  -1.4821  1.0000</r>
       <r>  -1.4817  1.0000</r>
       <r>  -1.4817  1.0000</r>
       <r>  -1.4816  1.0000</r>
       <r>  -1.4808  1.0000</r>
       <r>  -1.4807  1.0000</r>
       <r>  -1.4807  1.0000</r>
       <r>  -1.4803  1.0000</r>
       <r>  -1.4764  1.0000</r>
       <r>  -1.4432  1.0000</r>
       <r>  -1.4432  1.0000</r>
       <r>  -1.4432  1.0000</r>
       <r>  -1.4431  1.0000</r>
       <r>  -1.4237  1.0000</r>
       <r>  -1.4237  1.0000</r>
       <r>  -1.4197  1.0000</r>
       <r>  -1.4197  1.0000</r>
       <r>  -1.4197  1.0000</r>
       <r>  -1.4197  1.0000</r>
       <r>  -1.2977  1.0000</r>
       <r>  -1.2977  1.0000</r>
       <r>  -1.1989  1.0000</r>
       <r>  -1.1989  1.0000</r>
       <r>  -1.1989  1.0000</r>
       <r>  -1.1989  1.0000</r>
       <r>  -0.9192  1.0000</r>
       <r>  -0.9192  1.0000</r>
       <r>  -0.9192  1.0000</r>
       <r>  -0.9192  1.0000</r>
       <r>  -0.8682  1.0000</r>
       <r>  -0.8682  1.0000</r>
       <r>  -0.8682  1.0000</r>
       <r>  -0.8682  1.0000</r>
       <r>  -0.8480  1.0000</r>
       <r>  -0.8480  1.0000</r>
       <r>  -0.7565  1.0000</r>
       <r>  -0.7564  1.0000</r>
       <r>  -0.7564  1.0000</r>
       <r>  -0.7564  1.0000</r>
       <r>  -0.7487  1.0000</r>
       <r>  -0.7128  1.0000</r>
       <r>  -0.7128  1.0000</r>
       <r>  -0.7128  1.0000</r>
       <r>  -0.7127  1.0000</r>
       <r>  -0.6132  1.0000</r>
       <r>  -0.6132  1.0000</r>
       <r>  -0.6132  1.0000</r>
       <r>  -0.6132  1.0000</r>
       <r>  -0.5464  1.0000</r>
       <r>  -0.5464  1.0000</r>
       <r>  -0.5463  1.0000</r>
       <r>  -0.5463  1.0000</r>
       <r>  -0.4878  1.0000</r>
       <r>  -0.4487  1.0000</r>
       <r>  -0.4457  1.0000</r>
       <r>  -0.4456  1.0000</r>
       <r>  -0.4456  1.0000</r>
       <r>  -0.4456  1.0000</r>
       <r>  -0.3789  1.0000</r>
       <r>  -0.3788  1.0000</r>
       <r>  -0.3575  1.0000</r>
       <r>  -0.3575  1.0000</r>
       <r>  -0.3390  1.0000</r>
       <r>  -0.3390  1.0000</r>
       <r>  -0.3390  1.0000</r>
       <r>  -0.3389  1.0000</r>
       <r>  -0.2905  1.0000</r>
       <r>  -0.2905  1.0000</r>
       <r>  -0.2905  1.0000</r>
       <r>  -0.2905  1.0000</r>
       <r>  -0.2603  1.0000</r>
       <r>  -0.2603  1.0000</r>
       <r>  -0.2603  1.0000</r>
       <r>  -0.2603  1.0000</r>
       <r>  -0.1987  1.0000</r>
       <r>  -0.0172  1.0000</r>
       <r>  -0.0172  1.0000</r>
       <r>  -0.0172  1.0000</r>
       <r>  -0.0172  1.0000</r>
       <r>  -0.0102  1.0000</r>
       <r>   0.1990  1.0000</r>
       <r>   0.1991  1.0000</r>
       <r>   0.1991  1.0000</r>
       <r>   0.1991  1.0000</r>
       <r>   0.2228  1.0000</r>
       <r>   0.2320  1.0000</r>
       <r>   0.2321  1.0000</r>
       <r>   0.2553  1.0000</r>
       <r>   0.2668  1.0000</r>
       <r>   0.2668  1.0000</r>
       <r>   0.2668  1.0000</r>
       <r>   0.2668  1.0000</r>
       <r>   0.3678  1.0000</r>
       <r>   0.3678  1.0000</r>
       <r>   0.4492  1.0000</r>
       <r>   0.4492  1.0000</r>
       <r>   0.4492  1.0000</r>
       <r>   0.4492  1.0000</r>
       <r>   0.4523  1.0000</r>
       <r>   0.4523  1.0000</r>
       <r>   0.4966  1.0000</r>
       <r>   0.4969  1.0000</r>
       <r>   0.4978  1.0000</r>
       <r>   0.4981  1.0000</r>
       <r>   1.9920  1.0000</r>
       <r>   1.9920  1.0000</r>
       <r>   1.9920  1.0000</r>
       <r>   1.9920  1.0000</r>
       <r>   2.7241  1.0000</r>
       <r>   2.7242  1.0000</r>
       <r>   2.7242  1.0000</r>
       <r>   2.7242  1.0000</r>
       <r>   2.9270  1.0000</r>
       <r>   2.9270  1.0000</r>
       <r>   2.9270  1.0000</r>
       <r>   2.9271  1.0000</r>
       <r>   3.5628  0.0000</r>
       <r>   3.5628  0.0000</r>
       <r>   3.5628  0.0000</r>
       <r>   3.5628  0.0000</r>
       <r>   4.4522  0.0000</r>
       <r>   5.1187  0.0000</r>
       <r>   5.1187  0.0000</r>
       <r>   6.9877  0.0000</r>
       <r>   6.9877  0.0000</r>
       <r>   6.9877  0.0000</r>
       <r>   6.9877  0.0000</r>
       <r>   8.1560  0.0000</r>
       <r>   8.1560  0.0000</r>
       <r>   8.2251  0.0000</r>
       <r>   8.2251  0.0000</r>
       <r>   8.2251  0.0000</r>
       <r>   8.2251  0.0000</r>
       <r>   9.2688  0.0000</r>
       <r>   9.2688  0.0000</r>
       <r>   9.2688  0.0000</r>
       <r>   9.2688  0.0000</r>
       <r>   9.8497  0.0000</r>
       <r>   9.8497  0.0000</r>
       <r>  10.1507  0.0000</r>
       <r>  10.1507  0.0000</r>
       <r>  10.1856  0.0000</r>
       <r>  10.1856  0.0000</r>
       <r>  10.4287  0.0000</r>
       <r>  10.6016  0.0000</r>
       <r>  10.6016  0.0000</r>
       <r>  10.6016  0.0000</r>
       <r>  10.6016  0.0000</r>
       <r>  11.0343  0.0000</r>
       <r>  11.0343  0.0000</r>
       <r>  11.0343  0.0000</r>
       <r>  11.0343  0.0000</r>
       <r>  11.5030  0.0000</r>
      </set>
      <set comment="kpoint 4">
       <r>  -4.1282  1.0000</r>
       <r>  -3.0235  1.0000</r>
       <r>  -2.9452  1.0000</r>
       <r>  -2.9261  1.0000</r>
       <r>  -2.9261  1.0000</r>
       <r>  -2.8889  1.0000</r>
       <r>  -2.8889  1.0000</r>
       <r>  -2.8889  1.0000</r>
       <r>  -2.8889  1.0000</r>
       <r>  -2.8318  1.0000</r>
       <r>  -2.8055  1.0000</r>
       <r>  -2.8055  1.0000</r>
       <r>  -2.5684  1.0000</r>
       <r>  -2.4715  1.0000</r>
       <r>  -2.4484  1.0000</r>
       <r>  -2.4483  1.0000</r>
       <r>  -2.4482  1.0000</r>
       <r>  -2.4482  1.0000</r>
       <r>  -2.4261  1.0000</r>
       <r>  -2.4260  1.0000</r>
       <r>  -2.3014  1.0000</r>
       <r>  -2.3014  1.0000</r>
       <r>  -2.3014  1.0000</r>
       <r>  -2.3014  1.0000</r>
       <r>  -2.2247  1.0000</r>
       <r>  -2.2247  1.0000</r>
       <r>  -2.2247  1.0000</r>
       <r>  -2.2247  1.0000</r>
       <r>  -2.2092  1.0000</r>
       <r>  -2.2092  1.0000</r>
       <r>  -2.1625  1.0000</r>
       <r>  -2.1625  1.0000</r>
       <r>  -2.1625  1.0000</r>
       <r>  -2.1625  1.0000</r>
       <r>  -2.0100  1.0000</r>
       <r>  -2.0100  1.0000</r>
       <r>  -2.0100  1.0000</r>
       <r>  -2.0100  1.0000</r>
       <r>  -1.9460  1.0000</r>
       <r>  -1.9460  1.0000</r>
       <r>  -1.9460  1.0000</r>
       <r>  -1.9460  1.0000</r>
       <r>  -1.9258  1.0000</r>
       <r>  -1.8923  1.0000</r>
       <r>  -1.8923  1.0000</r>
       <r>  -1.8923  1.0000</r>
       <r>  -1.8923  1.0000</r>
       <r>  -1.7256  1.0000</r>
       <r>  -1.7256  1.0000</r>
       <r>  -1.7256  1.0000</r>
       <r>  -1.7255  1.0000</r>
       <r>  -1.6960  1.0000</r>
       <r>  -1.6951  1.0000</r>
       <r>  -1.6951  1.0000</r>
       <r>  -1.6951  1.0000</r>
       <r>  -1.6919  1.0000</r>
       <r>  -1.6919  1.0000</r>
       <r>  -1.6919  1.0000</r>
       <r>  -1.6910  1.0000</r>
       <r>  -1.6386  1.0000</r>
       <r>  -1.6386  1.0000</r>
       <r>  -1.6386  1.0000</r>
       <r>  -1.6386  1.0000</r>
       <r>  -1.5644  1.0000</r>
       <r>  -1.5644  1.0000</r>
       <r>  -1.5644  1.0000</r>
       <r>  -1.5643  1.0000</r>
       <r>  -1.5099  1.0000</r>
       <r>  -1.4949  1.0000</r>
       <r>  -1.4949  1.0000</r>
       <r>  -1.4949  1.0000</r>
       <r>  -1.4949  1.0000</r>
       <r>  -1.4674  1.0000</r>
       <r>  -1.4674  1.0000</r>
       <r>  -1.4674  1.0000</r>
       <r>  -1.4674  1.0000</r>
       <r>  -1.4112  1.0000</r>
       <r>  -1.4112  1.0000</r>
       <r>  -1.4112  1.0000</r>
       <r>  -1.4112  1.0000</r>
       <r>  -1.3919  1.0000</r>
       <r>  -1.3919  1.0000</r>
       <r>  -1.0800  1.0000</r>
       <r>  -1.0800  1.0000</r>
       <r>  -1.0311  1.0000</r>
       <r>  -1.0311  1.0000</r>
       <r>  -1.0311  1.0000</r>
       <r>  -1.0311  1.0000</r>
       <r>  -1.0146  1.0000</r>
       <r>  -1.0146  1.0000</r>
       <r>  -1.0146  1.0000</r>
       <r>  -1.0145  1.0000</r>
       <r>  -1.0036  1.0000</r>
       <r>  -1.0036  1.0000</r>
       <r>  -1.0035  1.0000</r>
       <r>  -1.0035  1.0000</r>
       <r>  -0.9558  1.0000</r>
       <r>  -0.9558  1.0000</r>
       <r>  -0.7804  1.0000</r>
       <r>  -0.6766  1.0000</r>
       <r>  -0.6766  1.0000</r>
       <r>  -0.6766  1.0000</r>
       <r>  -0.6766  1.0000</r>
       <r>  -0.6440  1.0000</r>
       <r>  -0.6440  1.0000</r>
       <r>  -0.6440  1.0000</r>
       <r>  -0.6440  1.0000</r>
       <r>  -0.6150  1.0000</r>
       <r>  -0.6149  1.0000</r>
       <r>  -0.6149  1.0000</r>
       <r>  -0.6149  1.0000</r>
       <r>  -0.5769  1.0000</r>
       <r>  -0.5769  1.0000</r>
       <r>  -0.5769  1.0000</r>
       <r>  -0.5769  1.0000</r>
       <r>  -0.5207  1.0000</r>
       <r>  -0.4484  1.0000</r>
       <r>  -0.4484  1.0000</r>
       <r>  -0.4484  1.0000</r>
       <r>  -0.4484  1.0000</r>
       <r>  -0.4340  1.0000</r>
       <r>  -0.3060  1.0000</r>
       <r>  -0.3060  1.0000</r>
       <r>  -0.2573  1.0000</r>
       <r>  -0.2573  1.0000</r>
       <r>  -0.2573  1.0000</r>
       <r>  -0.2572  1.0000</r>
       <r>  -0.2475  1.0000</r>
       <r>  -0.2472  1.0000</r>
       <r>  -0.2472  1.0000</r>
       <r>  -0.2472  1.0000</r>
       <r>  -0.2427  1.0000</r>
       <r>  -0.2291  1.0000</r>
       <r>  -0.2291  1.0000</r>
       <r>  -0.1950  1.0000</r>
       <r>  -0.1950  1.0000</r>
       <r>  -0.1950  1.0000</r>
       <r>  -0.1950  1.0000</r>
       <r>   0.0356  1.0000</r>
       <r>   0.0818  1.0000</r>
       <r>   0.0818  1.0000</r>
       <r>   0.0818  1.0000</r>
       <r>   0.0818  1.0000</r>
       <r>   0.1511  1.0000</r>
       <r>   0.1511  1.0000</r>
       <r>   0.1511  1.0000</r>
       <r>   0.1511  1.0000</r>
       <r>   0.1874  1.0000</r>
       <r>   0.1874  1.0000</r>
       <r>   0.2209  1.0000</r>
       <r>   0.2209  1.0000</r>
       <r>   0.2272  1.0000</r>
       <r>   0.2273  1.0000</r>
       <r>   0.2273  1.0000</r>
       <r>   0.2273  1.0000</r>
       <r>   0.2393  1.0000</r>
       <r>   0.3910  1.0000</r>
       <r>   0.3910  1.0000</r>
       <r>   0.3910  1.0000</r>
       <r>   0.3910  1.0000</r>
       <r>   0.3982  1.0000</r>
       <r>   0.3982  1.0000</r>
       <r>   0.4967  1.0000</r>
       <r>   0.4970  1.0000</r>
       <r>   0.4977  1.0000</r>
       <r>   0.4981  1.0000</r>
       <r>   0.6673  1.0000</r>
       <r>   1.6712  1.0000</r>
       <r>   1.6712  1.0000</r>
       <r>   1.6712  1.0000</r>
       <r>   1.6712  1.0000</r>
       <r>   2.7363  1.0000</r>
       <r>   2.7363  1.0000</r>
       <r>   2.7363  1.0000</r>
       <r>   2.7363  1.0000</r>
       <r>   2.8975  1.0000</r>
       <r>   2.8975  1.0000</r>
       <r>   2.8975  1.0000</r>
       <r>   2.8975  1.0000</r>
       <r>   3.9684  0.0000</r>
       <r>   4.0387  0.0000</r>
       <r>   4.0387  0.0000</r>
       <r>   4.0387  0.0000</r>
       <r>   4.0387  0.0000</r>
       <r>   5.3393  0.0000</r>
       <r>   5.3393  0.0000</r>
       <r>   7.2614  0.0000</r>
       <r>   7.2614  0.0000</r>
       <r>   7.2614  0.0000</r>
       <r>   7.2614  0.0000</r>
       <r>   7.5695  0.0000</r>
       <r>   7.5695  0.0000</r>
       <r>   7.5695  0.0000</r>
       <r>   7.5695  0.0000</r>
       <r>   7.6742  0.0000</r>
       <r>   7.6742  0.0000</r>
       <r>   9.4059  0.0000</r>
       <r>   9.4059  0.0000</r>
       <r>   9.4059  0.0000</r>
       <r>   9.4059  0.0000</r>
       <r>   9.8642  0.0000</r>
       <r>   9.8642  0.0000</r>
       <r>  10.0976  0.0000</r>
       <r>  10.0976  0.0000</r>
       <r>  10.3584  0.0000</r>
       <r>  10.3584  0.0000</r>
       <r>  10.3584  0.0000</r>
       <r>  10.3584  0.0000</r>
       <r>  10.7018  0.0000</r>
       <r>  10.7018  0.0000</r>
       <r>  10.7342  0.0000</r>
       <r>  10.7342  0.0000</r>
       <r>  10.7342  0.0000</r>
       <r>  10.7342  0.0000</r>
       <r>  11.0555  0.0000</r>
       <r>  11.1387  0.0000</r>
      </set>
      <set comment="kpoint 5">
       <r>  -4.0063  1.0000</r>
       <r>  -3.2457  1.0000</r>
       <r>  -2.8974  1.0000</r>
       <r>  -2.8641  1.0000</r>
       <r>  -2.8641  1.0000</r>
       <r>  -2.8286  1.0000</r>
       <r>  -2.8286  1.0000</r>
       <r>  -2.8286  1.0000</r>
       <r>  -2.8286  1.0000</r>
       <r>  -2.7942  1.0000</r>
       <r>  -2.7470  1.0000</r>
       <r>  -2.7470  1.0000</r>
       <r>  -2.6310  1.0000</r>
       <r>  -2.5513  1.0000</r>
       <r>  -2.5141  1.0000</r>
       <r>  -2.5141  1.0000</r>
       <r>  -2.4323  1.0000</r>
       <r>  -2.4323  1.0000</r>
       <r>  -2.4322  1.0000</r>
       <r>  -2.4322  1.0000</r>
       <r>  -2.3718  1.0000</r>
       <r>  -2.3717  1.0000</r>
       <r>  -2.3717  1.0000</r>
       <r>  -2.3717  1.0000</r>
       <r>  -2.3487  1.0000</r>
       <r>  -2.3487  1.0000</r>
       <r>  -2.1812  1.0000</r>
       <r>  -2.1812  1.0000</r>
       <r>  -2.1811  1.0000</r>
       <r>  -2.1811  1.0000</r>
       <r>  -2.1311  1.0000</r>
       <r>  -2.1311  1.0000</r>
       <r>  -2.1311  1.0000</r>
       <r>  -2.1311  1.0000</r>
       <r>  -2.0249  1.0000</r>
       <r>  -2.0248  1.0000</r>
       <r>  -2.0248  1.0000</r>
       <r>  -2.0248  1.0000</r>
       <r>  -1.9933  1.0000</r>
       <r>  -1.9933  1.0000</r>
       <r>  -1.9933  1.0000</r>
       <r>  -1.9933  1.0000</r>
       <r>  -1.9449  1.0000</r>
       <r>  -1.9449  1.0000</r>
       <r>  -1.9449  1.0000</r>
       <r>  -1.9449  1.0000</r>
       <r>  -1.8379  1.0000</r>
       <r>  -1.7367  1.0000</r>
       <r>  -1.7367  1.0000</r>
       <r>  -1.7367  1.0000</r>
       <r>  -1.7367  1.0000</r>
       <r>  -1.6914  1.0000</r>
       <r>  -1.6908  1.0000</r>
       <r>  -1.6908  1.0000</r>
       <r>  -1.6908  1.0000</r>
       <r>  -1.6844  1.0000</r>
       <r>  -1.6844  1.0000</r>
       <r>  -1.6844  1.0000</r>
       <r>  -1.6839  1.0000</r>
       <r>  -1.6405  1.0000</r>
       <r>  -1.6405  1.0000</r>
       <r>  -1.6405  1.0000</r>
       <r>  -1.6405  1.0000</r>
       <r>  -1.6108  1.0000</r>
       <r>  -1.6108  1.0000</r>
       <r>  -1.6108  1.0000</r>
       <r>  -1.6107  1.0000</r>
       <r>  -1.5557  1.0000</r>
       <r>  -1.5134  1.0000</r>
       <r>  -1.5134  1.0000</r>
       <r>  -1.5134  1.0000</r>
       <r>  -1.5134  1.0000</r>
       <r>  -1.4780  1.0000</r>
       <r>  -1.4780  1.0000</r>
       <r>  -1.4780  1.0000</r>
       <r>  -1.4780  1.0000</r>
       <r>  -1.3672  1.0000</r>
       <r>  -1.3672  1.0000</r>
       <r>  -1.3672  1.0000</r>
       <r>  -1.3672  1.0000</r>
       <r>  -1.3478  1.0000</r>
       <r>  -1.3478  1.0000</r>
       <r>  -1.1489  1.0000</r>
       <r>  -1.1489  1.0000</r>
       <r>  -1.1489  1.0000</r>
       <r>  -1.1488  1.0000</r>
       <r>  -1.0895  1.0000</r>
       <r>  -1.0894  1.0000</r>
       <r>  -1.0894  1.0000</r>
       <r>  -1.0894  1.0000</r>
       <r>  -1.0550  1.0000</r>
       <r>  -1.0550  1.0000</r>
       <r>  -0.8548  1.0000</r>
       <r>  -0.8548  1.0000</r>
       <r>  -0.8404  1.0000</r>
       <r>  -0.8404  1.0000</r>
       <r>  -0.8404  1.0000</r>
       <r>  -0.8404  1.0000</r>
       <r>  -0.7653  1.0000</r>
       <r>  -0.6165  1.0000</r>
       <r>  -0.6165  1.0000</r>
       <r>  -0.6165  1.0000</r>
       <r>  -0.6165  1.0000</r>
       <r>  -0.5970  1.0000</r>
       <r>  -0.5970  1.0000</r>
       <r>  -0.5970  1.0000</r>
       <r>  -0.5970  1.0000</r>
       <r>  -0.5888  1.0000</r>
       <r>  -0.5885  1.0000</r>
       <r>  -0.5885  1.0000</r>
       <r>  -0.5885  1.0000</r>
       <r>  -0.5825  1.0000</r>
       <r>  -0.5825  1.0000</r>
       <r>  -0.5824  1.0000</r>
       <r>  -0.5822  1.0000</r>
       <r>  -0.5643  1.0000</r>
       <r>  -0.4559  1.0000</r>
       <r>  -0.4559  1.0000</r>
       <r>  -0.4559  1.0000</r>
       <r>  -0.4559  1.0000</r>
       <r>  -0.4138  1.0000</r>
       <r>  -0.2943  1.0000</r>
       <r>  -0.2943  1.0000</r>
       <r>  -0.2943  1.0000</r>
       <r>  -0.2943  1.0000</r>
       <r>  -0.2849  1.0000</r>
       <r>  -0.2185  1.0000</r>
       <r>  -0.2185  1.0000</r>
       <r>  -0.1516  1.0000</r>
       <r>  -0.1516  1.0000</r>
       <r>  -0.1516  1.0000</r>
       <r>  -0.1515  1.0000</r>
       <r>  -0.1027  1.0000</r>
       <r>  -0.1027  1.0000</r>
       <r>  -0.0918  1.0000</r>
       <r>  -0.0918  1.0000</r>
       <r>  -0.0918  1.0000</r>
       <r>  -0.0918  1.0000</r>
       <r>  -0.0700  1.0000</r>
       <r>  -0.0700  1.0000</r>
       <r>  -0.0700  1.0000</r>
       <r>  -0.0700  1.0000</r>
       <r>   0.0364  1.0000</r>
       <r>   0.0364  1.0000</r>
       <r>   0.0793  1.0000</r>
       <r>   0.1269  1.0000</r>
       <r>   0.1269  1.0000</r>
       <r>   0.1734  1.0000</r>
       <r>   0.1734  1.0000</r>
       <r>   0.1734  1.0000</r>
       <r>   0.1734  1.0000</r>
       <r>   0.2172  1.0000</r>
       <r>   0.3143  1.0000</r>
       <r>   0.3143  1.0000</r>
       <r>   0.3143  1.0000</r>
       <r>   0.3143  1.0000</r>
       <r>   0.3251  1.0000</r>
       <r>   0.3251  1.0000</r>
       <r>   0.3600  1.0000</r>
       <r>   0.3600  1.0000</r>
       <r>   0.3600  1.0000</r>
       <r>   0.3600  1.0000</r>
       <r>   0.4967  1.0000</r>
       <r>   0.4971  1.0000</r>
       <r>   0.4976  1.0000</r>
       <r>   0.4980  1.0000</r>
       <r>   1.1631  1.0000</r>
       <r>   1.3731  1.0000</r>
       <r>   1.3731  1.0000</r>
       <r>   1.3731  1.0000</r>
       <r>   1.3731  1.0000</r>
       <r>   2.7533  1.0000</r>
       <r>   2.7533  1.0000</r>
       <r>   2.7533  1.0000</r>
       <r>   2.7533  1.0000</r>
       <r>   2.8643  1.0000</r>
       <r>   2.8643  1.0000</r>
       <r>   2.8643  1.0000</r>
       <r>   2.8643  1.0000</r>
       <r>   3.4166  0.0000</r>
       <r>   4.5496  0.0000</r>
       <r>   4.5496  0.0000</r>
       <r>   4.5496  0.0000</r>
       <r>   4.5496  0.0000</r>
       <r>   5.6265  0.0000</r>
       <r>   5.6265  0.0000</r>
       <r>   6.9161  0.0000</r>
       <r>   6.9161  0.0000</r>
       <r>   6.9161  0.0000</r>
       <r>   6.9161  0.0000</r>
       <r>   7.2095  0.0000</r>
       <r>   7.2095  0.0000</r>
       <r>   7.6236  0.0000</r>
       <r>   7.6236  0.0000</r>
       <r>   7.6236  0.0000</r>
       <r>   7.6236  0.0000</r>
       <r>   9.5934  0.0000</r>
       <r>   9.5934  0.0000</r>
       <r>   9.5934  0.0000</r>
       <r>   9.5934  0.0000</r>
       <r>   9.7173  0.0000</r>
       <r>   9.7173  0.0000</r>
       <r>   9.7173  0.0000</r>
       <r>   9.7173  0.0000</r>
       <r>   9.8852  0.0000</r>
       <r>   9.8852  0.0000</r>
       <r>  10.0429  0.0000</r>
       <r>  10.0429  0.0000</r>
       <r>  10.7628  0.0000</r>
       <r>  10.7628  0.0000</r>
       <r>  10.7628  0.0000</r>
       <r>  10.7628  0.0000</r>
       <r>  10.8499  0.0000</r>
       <r>  10.8499  0.0000</r>
       <r>  10.8499  0.0000</r>
       <r>  10.8499  0.0000</r>
      </set>
      <set comment="kpoint 6">
       <r>  -3.8528  1.0000</r>
       <r>  -3.4659  1.0000</r>
       <r>  -2.8389  1.0000</r>
       <r>  -2.7882  1.0000</r>
       <r>  -2.7882  1.0000</r>
       <r>  -2.7519  1.0000</r>
       <r>  -2.7519  1.0000</r>
       <r>  -2.7519  1.0000</r>
       <r>  -2.7519  1.0000</r>
       <r>  -2.7467  1.0000</r>
       <r>  -2.7014  1.0000</r>
       <r>  -2.6719  1.0000</r>
       <r>  -2.6719  1.0000</r>
       <r>  -2.6244  1.0000</r>
       <r>  -2.6082  1.0000</r>
       <r>  -2.6082  1.0000</r>
       <r>  -2.5525  1.0000</r>
       <r>  -2.5524  1.0000</r>
       <r>  -2.5524  1.0000</r>
       <r>  -2.5524  1.0000</r>
       <r>  -2.4725  1.0000</r>
       <r>  -2.4725  1.0000</r>
       <r>  -2.2796  1.0000</r>
       <r>  -2.2796  1.0000</r>
       <r>  -2.2796  1.0000</r>
       <r>  -2.2796  1.0000</r>
       <r>  -2.1325  1.0000</r>
       <r>  -2.1324  1.0000</r>
       <r>  -2.1324  1.0000</r>
       <r>  -2.1324  1.0000</r>
       <r>  -2.0922  1.0000</r>
       <r>  -2.0922  1.0000</r>
       <r>  -2.0922  1.0000</r>
       <r>  -2.0922  1.0000</r>
       <r>  -2.0769  1.0000</r>
       <r>  -2.0769  1.0000</r>
       <r>  -2.0769  1.0000</r>
       <r>  -2.0769  1.0000</r>
       <r>  -2.0487  1.0000</r>
       <r>  -2.0487  1.0000</r>
       <r>  -2.0486  1.0000</r>
       <r>  -2.0486  1.0000</r>
       <r>  -1.9973  1.0000</r>
       <r>  -1.9972  1.0000</r>
       <r>  -1.9972  1.0000</r>
       <r>  -1.9972  1.0000</r>
       <r>  -1.7554  1.0000</r>
       <r>  -1.7412  1.0000</r>
       <r>  -1.7412  1.0000</r>
       <r>  -1.7412  1.0000</r>
       <r>  -1.7412  1.0000</r>
       <r>  -1.6983  1.0000</r>
       <r>  -1.6983  1.0000</r>
       <r>  -1.6983  1.0000</r>
       <r>  -1.6983  1.0000</r>
       <r>  -1.6873  1.0000</r>
       <r>  -1.6865  1.0000</r>
       <r>  -1.6865  1.0000</r>
       <r>  -1.6865  1.0000</r>
       <r>  -1.6820  1.0000</r>
       <r>  -1.6820  1.0000</r>
       <r>  -1.6820  1.0000</r>
       <r>  -1.6812  1.0000</r>
       <r>  -1.6127  1.0000</r>
       <r>  -1.5847  1.0000</r>
       <r>  -1.5847  1.0000</r>
       <r>  -1.5847  1.0000</r>
       <r>  -1.5847  1.0000</r>
       <r>  -1.5353  1.0000</r>
       <r>  -1.5353  1.0000</r>
       <r>  -1.5353  1.0000</r>
       <r>  -1.5353  1.0000</r>
       <r>  -1.4410  1.0000</r>
       <r>  -1.4410  1.0000</r>
       <r>  -1.4410  1.0000</r>
       <r>  -1.4410  1.0000</r>
       <r>  -1.3119  1.0000</r>
       <r>  -1.3118  1.0000</r>
       <r>  -1.3118  1.0000</r>
       <r>  -1.3118  1.0000</r>
       <r>  -1.2916  1.0000</r>
       <r>  -1.2916  1.0000</r>
       <r>  -1.2677  1.0000</r>
       <r>  -1.2676  1.0000</r>
       <r>  -1.2676  1.0000</r>
       <r>  -1.2676  1.0000</r>
       <r>  -1.1713  1.0000</r>
       <r>  -1.1713  1.0000</r>
       <r>  -1.1713  1.0000</r>
       <r>  -1.1713  1.0000</r>
       <r>  -1.1445  1.0000</r>
       <r>  -1.1445  1.0000</r>
       <r>  -0.7241  1.0000</r>
       <r>  -0.6404  1.0000</r>
       <r>  -0.6404  1.0000</r>
       <r>  -0.6404  1.0000</r>
       <r>  -0.6404  1.0000</r>
       <r>  -0.6255  1.0000</r>
       <r>  -0.6255  1.0000</r>
       <r>  -0.6170  1.0000</r>
       <r>  -0.6169  1.0000</r>
       <r>  -0.6169  1.0000</r>
       <r>  -0.6169  1.0000</r>
       <r>  -0.6159  1.0000</r>
       <r>  -0.6090  1.0000</r>
       <r>  -0.6090  1.0000</r>
       <r>  -0.6089  1.0000</r>
       <r>  -0.6089  1.0000</r>
       <r>  -0.5327  1.0000</r>
       <r>  -0.5327  1.0000</r>
       <r>  -0.5327  1.0000</r>
       <r>  -0.5327  1.0000</r>
       <r>  -0.5015  1.0000</r>
       <r>  -0.5015  1.0000</r>
       <r>  -0.5015  1.0000</r>
       <r>  -0.5014  1.0000</r>
       <r>  -0.4708  1.0000</r>
       <r>  -0.4708  1.0000</r>
       <r>  -0.4708  1.0000</r>
       <r>  -0.4708  1.0000</r>
       <r>  -0.3884  1.0000</r>
       <r>  -0.3509  1.0000</r>
       <r>  -0.3509  1.0000</r>
       <r>  -0.3509  1.0000</r>
       <r>  -0.3509  1.0000</r>
       <r>  -0.3234  1.0000</r>
       <r>  -0.2469  1.0000</r>
       <r>  -0.2469  1.0000</r>
       <r>  -0.2469  1.0000</r>
       <r>  -0.2469  1.0000</r>
       <r>  -0.1728  1.0000</r>
       <r>  -0.1728  1.0000</r>
       <r>  -0.1251  1.0000</r>
       <r>  -0.1251  1.0000</r>
       <r>  -0.0584  1.0000</r>
       <r>  -0.0584  1.0000</r>
       <r>  -0.0584  1.0000</r>
       <r>  -0.0584  1.0000</r>
       <r>   0.0153  1.0000</r>
       <r>   0.0153  1.0000</r>
       <r>   0.0153  1.0000</r>
       <r>   0.0153  1.0000</r>
       <r>   0.0188  1.0000</r>
       <r>   0.0188  1.0000</r>
       <r>   0.0524  1.0000</r>
       <r>   0.0525  1.0000</r>
       <r>   0.1065  1.0000</r>
       <r>   0.1066  1.0000</r>
       <r>   0.1066  1.0000</r>
       <r>   0.1066  1.0000</r>
       <r>   0.1201  1.0000</r>
       <r>   0.1896  1.0000</r>
       <r>   0.2230  1.0000</r>
       <r>   0.2230  1.0000</r>
       <r>   0.2231  1.0000</r>
       <r>   0.2231  1.0000</r>
       <r>   0.2357  1.0000</r>
       <r>   0.2357  1.0000</r>
       <r>   0.4967  1.0000</r>
       <r>   0.4972  1.0000</r>
       <r>   0.4975  1.0000</r>
       <r>   0.4980  1.0000</r>
       <r>   0.5889  1.0000</r>
       <r>   0.5889  1.0000</r>
       <r>   0.5889  1.0000</r>
       <r>   0.5889  1.0000</r>
       <r>   1.0948  1.0000</r>
       <r>   1.0948  1.0000</r>
       <r>   1.0948  1.0000</r>
       <r>   1.0948  1.0000</r>
       <r>   1.6979  1.0000</r>
[...]
       <r>  -0.7477  1.0000</r>
       <r>  -0.7477  1.0000</r>
       <r>  -0.7474  1.0000</r>
       <r>  -0.7474  1.0000</r>
       <r>  -0.7474  1.0000</r>
       <r>  -0.7474  1.0000</r>
       <r>  -0.7472  1.0000</r>
       <r>  -0.7472  1.0000</r>
       <r>  -0.5091  1.0000</r>
       <r>  -0.5089  1.0000</r>
       <r>  -0.5089  1.0000</r>
       <r>  -0.5089  1.0000</r>
       <r>  -0.4656  1.0000</r>
       <r>  -0.4656  1.0000</r>
       <r>  -0.4656  1.0000</r>
       <r>  -0.4655  1.0000</r>
       <r>  -0.4509  1.0000</r>
       <r>  -0.4509  1.0000</r>
       <r>  -0.4505  1.0000</r>
       <r>  -0.4505  1.0000</r>
       <r>  -0.4505  1.0000</r>
       <r>  -0.4503  1.0000</r>
       <r>  -0.4500  1.0000</r>
       <r>  -0.4500  1.0000</r>
       <r>  -0.2781  1.0000</r>
       <r>  -0.2781  1.0000</r>
       <r>  -0.2781  1.0000</r>
       <r>  -0.2781  1.0000</r>
       <r>  -0.2146  1.0000</r>
       <r>  -0.2146  1.0000</r>
       <r>  -0.2146  1.0000</r>
       <r>  -0.2146  1.0000</r>
       <r>  -0.1588  1.0000</r>
       <r>  -0.1588  1.0000</r>
       <r>  -0.1588  1.0000</r>
       <r>  -0.1588  1.0000</r>
       <r>   0.3114  1.0000</r>
       <r>   0.3114  1.0000</r>
       <r>   0.3116  1.0000</r>
       <r>   0.3116  1.0000</r>
       <r>   0.3116  1.0000</r>
       <r>   0.3116  1.0000</r>
       <r>   0.3118  1.0000</r>
       <r>   0.3118  1.0000</r>
       <r>   0.3232  1.0000</r>
       <r>   0.3232  1.0000</r>
       <r>   0.3232  1.0000</r>
       <r>   0.3232  1.0000</r>
       <r>   0.3371  1.0000</r>
       <r>   0.3371  1.0000</r>
       <r>   0.3372  1.0000</r>
       <r>   0.3372  1.0000</r>
       <r>   0.3408  1.0000</r>
       <r>   0.3408  1.0000</r>
       <r>   0.3409  1.0000</r>
       <r>   0.3409  1.0000</r>
       <r>   0.3409  1.0000</r>
       <r>   0.3410  1.0000</r>
       <r>   0.3411  1.0000</r>
       <r>   0.3411  1.0000</r>
       <r>   3.0737  1.0000</r>
       <r>   3.0737  1.0000</r>
       <r>   3.0737  1.0000</r>
       <r>   3.0737  1.0000</r>
       <r>   3.8610  0.0000</r>
       <r>   3.8610  0.0000</r>
       <r>   3.8613  0.0000</r>
       <r>   3.8613  0.0000</r>
       <r>   3.8613  0.0000</r>
       <r>   3.8613  0.0000</r>
       <r>   3.8616  0.0000</r>
       <r>   3.8616  0.0000</r>
       <r>   4.7608  0.0000</r>
       <r>   4.7608  0.0000</r>
       <r>   4.7616  0.0000</r>
       <r>   4.7616  0.0000</r>
       <r>   4.7616  0.0000</r>
       <r>   4.7616  0.0000</r>
       <r>   4.7625  0.0000</r>
       <r>   4.7625  0.0000</r>
       <r>   5.5454  0.0000</r>
       <r>   5.5454  0.0000</r>
       <r>   5.5454  0.0000</r>
       <r>   5.5455  0.0000</r>
       <r>   8.3121  0.0000</r>
       <r>   8.3121  0.0000</r>
       <r>   8.3127  0.0000</r>
       <r>   8.3127  0.0000</r>
       <r>   8.3127  0.0000</r>
       <r>   8.3127  0.0000</r>
       <r>   8.3133  0.0000</r>
       <r>   8.3133  0.0000</r>
       <r>   8.8698  0.0000</r>
       <r>   8.8698  0.0000</r>
       <r>   8.8698  0.0000</r>
       <r>   8.8698  0.0000</r>
       <r>   9.9011  0.0000</r>
       <r>   9.9011  0.0000</r>
       <r>   9.9011  0.0000</r>
       <r>   9.9011  0.0000</r>
       <r>  10.4612  0.0000</r>
       <r>  10.4612  0.0000</r>
       <r>  10.4616  0.0000</r>
       <r>  10.4616  0.0000</r>
       <r>  10.4616  0.0000</r>
       <r>  10.4616  0.0000</r>
       <r>  10.4620  0.0000</r>
       <r>  10.4620  0.0000</r>
      </set>
      <set comment="kpoint 195">
       <r>  -3.0017  1.0000</r>
       <r>  -3.0017  1.0000</r>
       <r>  -3.0017  1.0000</r>
       <r>  -3.0017  1.0000</r>
       <r>  -2.8908  1.0000</r>
       <r>  -2.8908  1.0000</r>
       <r>  -2.8908  1.0000</r>
       <r>  -2.8908  1.0000</r>
       <r>  -2.5343  1.0000</r>
       <r>  -2.5341  1.0000</r>
       <r>  -2.5341  1.0000</r>
       <r>  -2.5340  1.0000</r>
       <r>  -2.5338  1.0000</r>
       <r>  -2.5338  1.0000</r>
       <r>  -2.5337  1.0000</r>
       <r>  -2.5337  1.0000</r>
       <r>  -2.5315  1.0000</r>
       <r>  -2.5313  1.0000</r>
       <r>  -2.5313  1.0000</r>
       <r>  -2.5312  1.0000</r>
       <r>  -2.5092  1.0000</r>
       <r>  -2.5092  1.0000</r>
       <r>  -2.5092  1.0000</r>
       <r>  -2.5092  1.0000</r>
       <r>  -2.4912  1.0000</r>
       <r>  -2.4912  1.0000</r>
       <r>  -2.4908  1.0000</r>
       <r>  -2.4908  1.0000</r>
       <r>  -2.4908  1.0000</r>
       <r>  -2.4907  1.0000</r>
       <r>  -2.4904  1.0000</r>
       <r>  -2.4904  1.0000</r>
       <r>  -2.0586  1.0000</r>
       <r>  -2.0586  1.0000</r>
       <r>  -2.0582  1.0000</r>
       <r>  -2.0582  1.0000</r>
       <r>  -2.0582  1.0000</r>
       <r>  -2.0582  1.0000</r>
       <r>  -2.0577  1.0000</r>
       <r>  -2.0577  1.0000</r>
       <r>  -2.0403  1.0000</r>
       <r>  -2.0402  1.0000</r>
       <r>  -2.0402  1.0000</r>
       <r>  -2.0402  1.0000</r>
       <r>  -1.9005  1.0000</r>
       <r>  -1.9005  1.0000</r>
       <r>  -1.9001  1.0000</r>
       <r>  -1.9001  1.0000</r>
       <r>  -1.9000  1.0000</r>
       <r>  -1.9000  1.0000</r>
       <r>  -1.8996  1.0000</r>
       <r>  -1.8996  1.0000</r>
       <r>  -1.8944  1.0000</r>
       <r>  -1.8944  1.0000</r>
       <r>  -1.8944  1.0000</r>
       <r>  -1.8944  1.0000</r>
       <r>  -1.3381  1.0000</r>
       <r>  -1.3381  1.0000</r>
       <r>  -1.3381  1.0000</r>
       <r>  -1.3381  1.0000</r>
       <r>  -1.2742  1.0000</r>
       <r>  -1.2742  1.0000</r>
       <r>  -1.2742  1.0000</r>
       <r>  -1.2742  1.0000</r>
       <r>  -1.2576  1.0000</r>
       <r>  -1.2576  1.0000</r>
       <r>  -1.2576  1.0000</r>
       <r>  -1.2575  1.0000</r>
       <r>  -1.2452  1.0000</r>
       <r>  -1.2452  1.0000</r>
       <r>  -1.2451  1.0000</r>
       <r>  -1.2451  1.0000</r>
       <r>  -1.2287  1.0000</r>
       <r>  -1.2287  1.0000</r>
       <r>  -1.2287  1.0000</r>
       <r>  -1.2287  1.0000</r>
       <r>  -1.0602  1.0000</r>
       <r>  -1.0601  1.0000</r>
       <r>  -1.0601  1.0000</r>
       <r>  -1.0601  1.0000</r>
       <r>  -1.0309  1.0000</r>
       <r>  -1.0309  1.0000</r>
       <r>  -1.0296  1.0000</r>
       <r>  -1.0294  1.0000</r>
       <r>  -1.0294  1.0000</r>
       <r>  -1.0294  1.0000</r>
       <r>  -1.0293  1.0000</r>
       <r>  -1.0293  1.0000</r>
       <r>  -1.0291  1.0000</r>
       <r>  -1.0289  1.0000</r>
       <r>  -1.0279  1.0000</r>
       <r>  -1.0279  1.0000</r>
       <r>  -0.9269  1.0000</r>
       <r>  -0.9269  1.0000</r>
       <r>  -0.9261  1.0000</r>
       <r>  -0.9260  1.0000</r>
       <r>  -0.9260  1.0000</r>
       <r>  -0.9259  1.0000</r>
       <r>  -0.9251  1.0000</r>
       <r>  -0.9251  1.0000</r>
       <r>  -0.9171  1.0000</r>
       <r>  -0.9170  1.0000</r>
       <r>  -0.9169  1.0000</r>
       <r>  -0.9169  1.0000</r>
       <r>  -0.7365  1.0000</r>
       <r>  -0.7365  1.0000</r>
       <r>  -0.7365  1.0000</r>
       <r>  -0.7364  1.0000</r>
       <r>  -0.7053  1.0000</r>
       <r>  -0.7053  1.0000</r>
       <r>  -0.7049  1.0000</r>
       <r>  -0.7049  1.0000</r>
       <r>  -0.7049  1.0000</r>
       <r>  -0.7049  1.0000</r>
       <r>  -0.7045  1.0000</r>
       <r>  -0.7045  1.0000</r>
       <r>  -0.5613  1.0000</r>
       <r>  -0.5613  1.0000</r>
       <r>  -0.5609  1.0000</r>
       <r>  -0.5608  1.0000</r>
       <r>  -0.5608  1.0000</r>
       <r>  -0.5608  1.0000</r>
       <r>  -0.5603  1.0000</r>
       <r>  -0.5603  1.0000</r>
       <r>  -0.5545  1.0000</r>
       <r>  -0.5545  1.0000</r>
       <r>  -0.5545  1.0000</r>
       <r>  -0.5544  1.0000</r>
       <r>  -0.4259  1.0000</r>
       <r>  -0.4259  1.0000</r>
       <r>  -0.4259  1.0000</r>
       <r>  -0.4259  1.0000</r>
       <r>  -0.3205  1.0000</r>
       <r>  -0.3203  1.0000</r>
       <r>  -0.3203  1.0000</r>
       <r>  -0.3203  1.0000</r>
       <r>  -0.3143  1.0000</r>
       <r>  -0.3143  1.0000</r>
       <r>  -0.3143  1.0000</r>
       <r>  -0.3141  1.0000</r>
       <r>  -0.2484  1.0000</r>
       <r>  -0.2484  1.0000</r>
       <r>  -0.2484  1.0000</r>
       <r>  -0.2484  1.0000</r>
       <r>   0.3371  1.0000</r>
       <r>   0.3371  1.0000</r>
       <r>   0.3372  1.0000</r>
       <r>   0.3372  1.0000</r>
       <r>   0.3372  1.0000</r>
       <r>   0.3372  1.0000</r>
       <r>   0.3373  1.0000</r>
       <r>   0.3373  1.0000</r>
       <r>   0.3435  1.0000</r>
       <r>   0.3435  1.0000</r>
       <r>   0.3436  1.0000</r>
       <r>   0.3436  1.0000</r>
       <r>   0.3516  1.0000</r>
       <r>   0.3516  1.0000</r>
       <r>   0.3516  1.0000</r>
       <r>   0.3517  1.0000</r>
       <r>   0.3559  1.0000</r>
       <r>   0.3559  1.0000</r>
       <r>   0.3560  1.0000</r>
       <r>   0.3560  1.0000</r>
       <r>   0.3560  1.0000</r>
       <r>   0.3560  1.0000</r>
       <r>   0.3561  1.0000</r>
       <r>   0.3561  1.0000</r>
       <r>   3.6576  0.0000</r>
       <r>   3.6576  0.0000</r>
       <r>   3.6576  0.0000</r>
       <r>   3.6576  0.0000</r>
       <r>   4.0501  0.0000</r>
       <r>   4.0501  0.0000</r>
       <r>   4.0505  0.0000</r>
       <r>   4.0505  0.0000</r>
       <r>   4.0505  0.0000</r>
       <r>   4.0505  0.0000</r>
       <r>   4.0509  0.0000</r>
       <r>   4.0509  0.0000</r>
       <r>   4.5066  0.0000</r>
       <r>   4.5066  0.0000</r>
       <r>   4.5073  0.0000</r>
       <r>   4.5073  0.0000</r>
       <r>   4.5073  0.0000</r>
       <r>   4.5073  0.0000</r>
       <r>   4.5080  0.0000</r>
       <r>   4.5080  0.0000</r>
       <r>   4.8997  0.0000</r>
       <r>   4.8997  0.0000</r>
       <r>   4.8997  0.0000</r>
       <r>   4.8998  0.0000</r>
       <r>   8.7938  0.0000</r>
       <r>   8.7938  0.0000</r>
       <r>   8.7943  0.0000</r>
       <r>   8.7943  0.0000</r>
       <r>   8.7943  0.0000</r>
       <r>   8.7943  0.0000</r>
       <r>   8.7948  0.0000</r>
       <r>   8.7948  0.0000</r>
       <r>   9.0738  0.0000</r>
       <r>   9.0738  0.0000</r>
       <r>   9.0738  0.0000</r>
       <r>   9.0738  0.0000</r>
       <r>   9.5926  0.0000</r>
       <r>   9.5926  0.0000</r>
       <r>   9.5926  0.0000</r>
       <r>   9.5926  0.0000</r>
       <r>   9.8723  0.0000</r>
       <r>   9.8723  0.0000</r>
       <r>   9.8727  0.0000</r>
       <r>   9.8727  0.0000</r>
       <r>   9.8727  0.0000</r>
       <r>   9.8727  0.0000</r>
       <r>   9.8731  0.0000</r>
       <r>   9.8731  0.0000</r>
      </set>
      <set comment="kpoint 196">
       <r>  -2.9504  1.0000</r>
       <r>  -2.9488  1.0000</r>
       <r>  -2.9487  1.0000</r>
       <r>  -2.9487  1.0000</r>
       <r>  -2.9478  1.0000</r>
       <r>  -2.9478  1.0000</r>
       <r>  -2.9477  1.0000</r>
       <r>  -2.9461  1.0000</r>
       <r>  -2.5200  1.0000</r>
       <r>  -2.5195  1.0000</r>
       <r>  -2.5195  1.0000</r>
       <r>  -2.5194  1.0000</r>
       <r>  -2.5182  1.0000</r>
       <r>  -2.5178  1.0000</r>
       <r>  -2.5176  1.0000</r>
       <r>  -2.5176  1.0000</r>
       <r>  -2.5176  1.0000</r>
       <r>  -2.5175  1.0000</r>
       <r>  -2.5175  1.0000</r>
       <r>  -2.5175  1.0000</r>
       <r>  -2.5173  1.0000</r>
       <r>  -2.5173  1.0000</r>
       <r>  -2.5173  1.0000</r>
       <r>  -2.5172  1.0000</r>
       <r>  -2.5172  1.0000</r>
       <r>  -2.5172  1.0000</r>
       <r>  -2.5171  1.0000</r>
       <r>  -2.5166  1.0000</r>
       <r>  -2.5155  1.0000</r>
       <r>  -2.5154  1.0000</r>
       <r>  -2.5154  1.0000</r>
       <r>  -2.5149  1.0000</r>
       <r>  -1.9779  1.0000</r>
       <r>  -1.9745  1.0000</r>
       <r>  -1.9745  1.0000</r>
       <r>  -1.9743  1.0000</r>
       <r>  -1.9743  1.0000</r>
       <r>  -1.9737  1.0000</r>
       <r>  -1.9735  1.0000</r>
       <r>  -1.9735  1.0000</r>
       <r>  -1.9733  1.0000</r>
       <r>  -1.9732  1.0000</r>
       <r>  -1.9732  1.0000</r>
       <r>  -1.9732  1.0000</r>
       <r>  -1.9732  1.0000</r>
       <r>  -1.9732  1.0000</r>
       <r>  -1.9732  1.0000</r>
       <r>  -1.9731  1.0000</r>
       <r>  -1.9730  1.0000</r>
       <r>  -1.9730  1.0000</r>
       <r>  -1.9727  1.0000</r>
       <r>  -1.9721  1.0000</r>
       <r>  -1.9721  1.0000</r>
       <r>  -1.9719  1.0000</r>
       <r>  -1.9719  1.0000</r>
       <r>  -1.9685  1.0000</r>
       <r>  -1.2572  1.0000</r>
       <r>  -1.2572  1.0000</r>
       <r>  -1.2569  1.0000</r>
       <r>  -1.2566  1.0000</r>
       <r>  -1.2562  1.0000</r>
       <r>  -1.2561  1.0000</r>
       <r>  -1.2560  1.0000</r>
       <r>  -1.2560  1.0000</r>
       <r>  -1.2557  1.0000</r>
       <r>  -1.2557  1.0000</r>
       <r>  -1.2557  1.0000</r>
       <r>  -1.2556  1.0000</r>
       <r>  -1.2551  1.0000</r>
       <r>  -1.2550  1.0000</r>
       <r>  -1.2547  1.0000</r>
       <r>  -1.2547  1.0000</r>
       <r>  -1.1884  1.0000</r>
       <r>  -1.1883  1.0000</r>
       <r>  -1.1870  1.0000</r>
       <r>  -1.1870  1.0000</r>
       <r>  -1.1869  1.0000</r>
       <r>  -1.1869  1.0000</r>
       <r>  -1.1856  1.0000</r>
       <r>  -1.1854  1.0000</r>
       <r>  -0.9769  1.0000</r>
       <r>  -0.9769  1.0000</r>
       <r>  -0.9757  1.0000</r>
       <r>  -0.9754  1.0000</r>
       <r>  -0.9742  1.0000</r>
       <r>  -0.9739  1.0000</r>
       <r>  -0.9739  1.0000</r>
       <r>  -0.9739  1.0000</r>
       <r>  -0.9739  1.0000</r>
       <r>  -0.9739  1.0000</r>
       <r>  -0.9738  1.0000</r>
       <r>  -0.9738  1.0000</r>
       <r>  -0.9737  1.0000</r>
       <r>  -0.9737  1.0000</r>
       <r>  -0.9737  1.0000</r>
       <r>  -0.9736  1.0000</r>
       <r>  -0.9736  1.0000</r>
       <r>  -0.9736  1.0000</r>
       <r>  -0.9736  1.0000</r>
       <r>  -0.9734  1.0000</r>
       <r>  -0.9722  1.0000</r>
       <r>  -0.9718  1.0000</r>
       <r>  -0.9706  1.0000</r>
       <r>  -0.9706  1.0000</r>
       <r>  -0.6494  1.0000</r>
       <r>  -0.6483  1.0000</r>
       <r>  -0.6483  1.0000</r>
       <r>  -0.6465  1.0000</r>
       <r>  -0.6463  1.0000</r>
       <r>  -0.6462  1.0000</r>
       <r>  -0.6462  1.0000</r>
       <r>  -0.6460  1.0000</r>
       <r>  -0.6459  1.0000</r>
       <r>  -0.6459  1.0000</r>
       <r>  -0.6459  1.0000</r>
       <r>  -0.6459  1.0000</r>
       <r>  -0.6458  1.0000</r>
       <r>  -0.6458  1.0000</r>
       <r>  -0.6458  1.0000</r>
       <r>  -0.6458  1.0000</r>
       <r>  -0.6456  1.0000</r>
       <r>  -0.6454  1.0000</r>
       <r>  -0.6454  1.0000</r>
       <r>  -0.6453  1.0000</r>
       <r>  -0.6452  1.0000</r>
       <r>  -0.6434  1.0000</r>
       <r>  -0.6434  1.0000</r>
       <r>  -0.6423  1.0000</r>
       <r>  -0.3406  1.0000</r>
       <r>  -0.3394  1.0000</r>
       <r>  -0.3394  1.0000</r>
       <r>  -0.3394  1.0000</r>
       <r>  -0.3385  1.0000</r>
       <r>  -0.3385  1.0000</r>
       <r>  -0.3383  1.0000</r>
       <r>  -0.3382  1.0000</r>
       <r>  -0.3382  1.0000</r>
       <r>  -0.3381  1.0000</r>
       <r>  -0.3379  1.0000</r>
       <r>  -0.3379  1.0000</r>
       <r>  -0.3370  1.0000</r>
       <r>  -0.3370  1.0000</r>
       <r>  -0.3370  1.0000</r>
       <r>  -0.3357  1.0000</r>
       <r>   0.3528  1.0000</r>
       <r>   0.3528  1.0000</r>
       <r>   0.3530  1.0000</r>
       <r>   0.3532  1.0000</r>
       <r>   0.3532  1.0000</r>
       <r>   0.3532  1.0000</r>
       <r>   0.3532  1.0000</r>
       <r>   0.3533  1.0000</r>
       <r>   0.3533  1.0000</r>
       <r>   0.3534  1.0000</r>
       <r>   0.3534  1.0000</r>
       <r>   0.3535  1.0000</r>
       <r>   0.3536  1.0000</r>
       <r>   0.3536  1.0000</r>
       <r>   0.3536  1.0000</r>
       <r>   0.3537  1.0000</r>
       <r>   0.3537  1.0000</r>
       <r>   0.3538  1.0000</r>
       <r>   0.3538  1.0000</r>
       <r>   0.3538  1.0000</r>
       <r>   0.3539  1.0000</r>
       <r>   0.3540  1.0000</r>
       <r>   0.3542  1.0000</r>
       <r>   0.3542  1.0000</r>
       <r>   4.2628  0.0000</r>
       <r>   4.2648  0.0000</r>
       <r>   4.2648  0.0000</r>
       <r>   4.2671  0.0000</r>
       <r>   4.2675  0.0000</r>
       <r>   4.2676  0.0000</r>
       <r>   4.2676  0.0000</r>
       <r>   4.2677  0.0000</r>
       <r>   4.2677  0.0000</r>
       <r>   4.2678  0.0000</r>
       <r>   4.2678  0.0000</r>
       <r>   4.2678  0.0000</r>
       <r>   4.2680  0.0000</r>
       <r>   4.2680  0.0000</r>
       <r>   4.2680  0.0000</r>
       <r>   4.2680  0.0000</r>
       <r>   4.2681  0.0000</r>
       <r>   4.2682  0.0000</r>
       <r>   4.2682  0.0000</r>
       <r>   4.2683  0.0000</r>
       <r>   4.2687  0.0000</r>
       <r>   4.2710  0.0000</r>
       <r>   4.2710  0.0000</r>
       <r>   4.2730  0.0000</r>
       <r>   9.3106  0.0000</r>
       <r>   9.3106  0.0000</r>
       <r>   9.3122  0.0000</r>
       <r>   9.3145  0.0000</r>
       <r>   9.3148  0.0000</r>
       <r>   9.3152  0.0000</r>
       <r>   9.3152  0.0000</r>
       <r>   9.3156  0.0000</r>
       <r>   9.3157  0.0000</r>
       <r>   9.3157  0.0000</r>
       <r>   9.3157  0.0000</r>
       <r>   9.3157  0.0000</r>
       <r>   9.3159  0.0000</r>
       <r>   9.3159  0.0000</r>
       <r>   9.3159  0.0000</r>
       <r>   9.3159  0.0000</r>
       <r>   9.3160  0.0000</r>
       <r>   9.3164  0.0000</r>
       <r>   9.3164  0.0000</r>
       <r>   9.3168  0.0000</r>
       <r>   9.3171  0.0000</r>
       <r>   9.3194  0.0000</r>
       <r>   9.3210  0.0000</r>
       <r>   9.3210  0.0000</r>
      </set>
     </set>
    </set>
   </array>
  </eigenvalues>
 </calculation>
 <structure name="finalpos" >
  <crystal>
   <varray name="basis" >
    <v>       8.24318507      0.00000000      0.00000000</v>
    <v>       0.00000000      8.24318507      0.00000000</v>
    <v>       0.00000000      0.00000000      8.24318507</v>
   </varray>
   <i name="volume">    560.12525015</i>
   <varray name="rec_basis" >
    <v>       0.12131233      0.00000000      0.00000000</v>
    <v>       0.00000000      0.12131233      0.00000000</v>
    <v>       0.00000000      0.00000000      0.12131233</v>
   </varray>
  </crystal>
  <varray name="positions" >
   <v>       0.00121312      0.00000000      0.00000000</v>
   <v>       0.50000000      0.00000000      0.00000000</v>
   <v>       0.00000000      0.50000000      0.00000000</v>
   <v>       0.50000000      0.50000000      0.00000000</v>
   <v>       0.00000000      0.00000000      0.50000000</v>
   <v>       0.50000000      0.00000000      0.50000000</v>
   <v>       0.00000000      0.50000000      0.50000000</v>
   <v>       0.50000000      0.50000000      0.50000000</v>
   <v>       0.25000000      0.25000000      0.00000000</v>
   <v>       0.75000000      0.25000000      0.00000000</v>
   <v>       0.25000000      0.75000000      0.00000000</v>
   <v>       0.75000000      0.75000000      0.00000000</v>
   <v>       0.25000000      0.25000000      0.50000000</v>
   <v>       0.75000000      0.25000000      0.50000000</v>
   <v>       0.25000000      0.75000000      0.50000000</v>
   <v>       0.75000000      0.75000000      0.50000000</v>
   <v>       0.25000000      0.00000000      0.25000000</v>
   <v>       0.75000000      0.00000000      0.25000000</v>
   <v>       0.25000000      0.50000000      0.25000000</v>
   <v>       0.75000000      0.50000000      0.25000000</v>
   <v>       0.25000000      0.00000000      0.75000000</v>
   <v>       0.75000000      0.00000000      0.75000000</v>
   <v>       0.25000000      0.50000000      0.75000000</v>
   <v>       0.75000000      0.50000000      0.75000000</v>
   <v>       0.00000000      0.25000000      0.25000000</v>
   <v>       0.50000000      0.25000000      0.25000000</v>
   <v>       0.00000000      0.75000000      0.25000000</v>
   <v>       0.50000000      0.75000000      0.25000000</v>
   <v>       0.00000000      0.25000000      0.75000000</v>
   <v>       0.50000000      0.25000000      0.75000000</v>
   <v>       0.00000000      0.75000000      0.75000000</v>
   <v>       0.50000000      0.75000000      0.75000000</v>
  </varray>
 </structure>
</modeling>
