  32  32   0   0
  0.1709689E+02  0.8178790E-09  0.8178790E-09  0.8178790E-09  0.5000000E-15
  1.000000000000000E-004
  CAR 
 unknown system                          
     15.62122432     -5.04725659  301      5.72532891      1.00000000
     -5.047  0.0000E+00  0.0000E+00
     -4.978  0.0000E+00  0.0000E+00
     -4.909  0.0000E+00  0.0000E+00
     -4.841  0.0000E+00  0.0000E+00
     -4.772  0.0000E+00  0.0000E+00
     -4.703  0.0000E+00  0.0000E+00
     -4.634  0.0000E+00  0.0000E+00
     -4.565  0.0000E+00  0.0000E+00
     -4.496  0.0000E+00  0.0000E+00
     -4.427  0.0000E+00  0.0000E+00
     -4.358  0.0000E+00  0.0000E+00
     -4.289  0.0000E+00  0.0000E+00
     -4.221  0.0000E+00  0.0000E+00
     -4.152  0.4736E-11  0.3263E-12
     -4.083  0.9513E-01  0.6554E-02
     -4.014  0.5165E+00  0.4214E-01
     -3.945  0.8650E+00  0.1020E+00
     -3.876  0.1377E+01  0.1969E+00
     -3.807  0.1358E+01  0.2904E+00
     -3.738  0.1499E+01  0.3938E+00
     -3.669  0.1885E+01  0.5237E+00
     -3.600  0.1182E+01  0.6052E+00
     -3.532  0.2505E+01  0.7791E+00
     -3.463  0.1604E+01  0.8896E+00
     -3.394  0.2583E+01  0.1068E+01
     -3.325  0.1889E+01  0.1199E+01
     -3.256  0.3118E+01  0.1413E+01
     -3.187  0.2400E+01  0.1579E+01
     -3.118  0.2892E+01  0.1778E+01
     -3.049  0.3646E+01  0.2030E+01
     -2.980  0.2520E+01  0.2204E+01
     -2.912  0.3324E+01  0.2434E+01
     -2.843  0.3922E+01  0.2704E+01
     -2.774  0.3010E+01  0.2913E+01
     -2.705  0.5011E+01  0.3259E+01
     -2.636  0.2808E+01  0.3454E+01
     -2.567  0.3509E+01  0.3696E+01
     -2.498  0.5299E+01  0.4061E+01
     -2.429  0.4854E+01  0.4396E+01
     -2.360  0.4153E+01  0.4685E+01
     -2.291  0.4198E+01  0.4974E+01
     -2.223  0.5665E+01  0.5365E+01
     -2.154  0.6089E+01  0.5784E+01
     -2.085  0.5501E+01  0.6165E+01
     -2.016  0.6664E+01  0.6628E+01
     -1.947  0.5906E+01  0.7039E+01
     -1.878  0.6227E+01  0.7468E+01
     -1.809  0.1028E+02  0.8177E+01
     -1.740  0.6652E+01  0.8636E+01
     -1.671  0.9475E+01  0.9291E+01
     -1.603  0.1469E+02  0.1030E+02
     -1.534  0.1785E+02  0.1154E+02
     -1.465  0.2361E+02  0.1317E+02
     -1.396  0.1931E+02  0.1450E+02
     -1.327  0.2384E+02  0.1615E+02
     -1.258  0.2761E+02  0.1806E+02
     -1.189  0.3284E+02  0.2032E+02
     -1.120  0.3401E+02  0.2267E+02
     -1.051  0.4146E+02  0.2554E+02
     -0.982  0.4898E+02  0.2892E+02
     -0.914  0.5049E+02  0.3240E+02
     -0.845  0.5952E+02  0.3651E+02
     -0.776  0.6135E+02  0.4075E+02
     -0.707  0.6312E+02  0.4511E+02
     -0.638  0.5681E+02  0.4903E+02
     -0.569  0.6308E+02  0.5338E+02
     -0.500  0.4465E+02  0.5647E+02
     -0.431  0.6472E+02  0.6093E+02
     -0.362  0.4410E+02  0.6398E+02
     -0.294  0.5673E+02  0.6789E+02
     -0.225  0.5042E+02  0.7137E+02
     -0.156  0.5077E+02  0.7488E+02
     -0.087  0.3981E+02  0.7763E+02
     -0.018  0.3875E+02  0.8030E+02
      0.051  0.3216E+02  0.8252E+02
      0.120  0.4836E+02  0.8586E+02
      0.189  0.5009E+02  0.8932E+02
      0.258  0.5760E+02  0.9329E+02
      0.327  0.5706E+02  0.9723E+02
      0.395  0.6020E+02  0.1014E+03
      0.464  0.6142E+02  0.1056E+03
      0.533  0.6551E+02  0.1102E+03
      0.602  0.6261E+02  0.1145E+03
      0.671  0.6028E+02  0.1187E+03
      0.740  0.6440E+02  0.1231E+03
      0.809  0.6402E+02  0.1275E+03
      0.878  0.6670E+02  0.1321E+03
      0.947  0.6483E+02  0.1366E+03
      1.015  0.7366E+02  0.1417E+03
      1.084  0.8264E+02  0.1474E+03
      1.153  0.8398E+02  0.1532E+03
      1.222  0.8768E+02  0.1592E+03
      1.291  0.1135E+03  0.1671E+03
      1.360  0.1172E+03  0.1752E+03
      1.429  0.8470E+02  0.1810E+03
      1.498  0.6587E+02  0.1856E+03
      1.567  0.5728E+02  0.1895E+03
      1.636  0.5471E+02  0.1933E+03
      1.704  0.5796E+02  0.1973E+03
      1.773  0.5447E+02  0.2011E+03
      1.842  0.4902E+02  0.2045E+03
      1.911  0.5088E+02  0.2080E+03
      1.980  0.5064E+02  0.2115E+03
      2.049  0.5748E+02  0.2155E+03
      2.118  0.5968E+02  0.2196E+03
      2.187  0.6214E+02  0.2239E+03
      2.256  0.6639E+02  0.2285E+03
      2.325  0.6377E+02  0.2329E+03
      2.393  0.7718E+02  0.2382E+03
      2.462  0.6935E+02  0.2430E+03
      2.531  0.5918E+02  0.2471E+03
      2.600  0.6389E+02  0.2515E+03
      2.669  0.5496E+02  0.2553E+03
      2.738  0.6144E+02  0.2595E+03
      2.807  0.4890E+02  0.2629E+03
      2.876  0.5030E+02  0.2664E+03
      2.945  0.5665E+02  0.2703E+03
      3.013  0.4913E+02  0.2737E+03
      3.082  0.5334E+02  0.2774E+03
      3.151  0.5093E+02  0.2809E+03
      3.220  0.5684E+02  0.2848E+03
      3.289  0.5198E+02  0.2884E+03
      3.358  0.5504E+02  0.2922E+03
      3.427  0.7025E+02  0.2971E+03
      3.496  0.6529E+02  0.3016E+03
      3.565  0.8921E+02  0.3077E+03
      3.634  0.9470E+02  0.3143E+03
      3.702  0.1018E+03  0.3213E+03
      3.771  0.7138E+02  0.3263E+03
      3.840  0.5990E+02  0.3304E+03
      3.909  0.2948E+02  0.3324E+03
      3.978  0.4143E+02  0.3353E+03
      4.047  0.3043E+02  0.3374E+03
      4.116  0.4443E+01  0.3377E+03
      4.185  0.3654E+01  0.3380E+03
      4.254  0.8124E+01  0.3385E+03
      4.322  0.1754E+02  0.3397E+03
      4.391  0.5336E+01  0.3401E+03
      4.460  0.6129E+01  0.3405E+03
      4.529  0.9717E+01  0.3412E+03
      4.598  0.1179E+02  0.3420E+03
      4.667  0.8083E+01  0.3426E+03
      4.736  0.6965E+01  0.3430E+03
      4.805  0.9208E+01  0.3437E+03
      4.874  0.1090E+02  0.3444E+03
      4.943  0.8738E+01  0.3450E+03
      5.011  0.7921E+01  0.3456E+03
      5.080  0.8109E+01  0.3461E+03
      5.149  0.1075E+02  0.3469E+03
      5.218  0.9561E+01  0.3475E+03
      5.287  0.8372E+01  0.3481E+03
      5.356  0.6154E+01  0.3485E+03
      5.425  0.1065E+02  0.3493E+03
      5.494  0.1115E+02  0.3501E+03
      5.563  0.7654E+01  0.3506E+03
      5.631  0.7747E+01  0.3511E+03
      5.700  0.6309E+01  0.3515E+03
      5.769  0.1362E+02  0.3525E+03
      5.838  0.1042E+02  0.3532E+03
      5.907  0.6251E+01  0.3536E+03
      5.976  0.6219E+01  0.3541E+03
      6.045  0.9378E+01  0.3547E+03
      6.114  0.1145E+02  0.3555E+03
      6.183  0.9636E+01  0.3562E+03
      6.252  0.7905E+01  0.3567E+03
      6.320  0.8618E+01  0.3573E+03
      6.389  0.7804E+01  0.3578E+03
      6.458  0.8144E+01  0.3584E+03
      6.527  0.8806E+01  0.3590E+03
      6.596  0.1159E+02  0.3598E+03
      6.665  0.8623E+01  0.3604E+03
      6.734  0.7223E+01  0.3609E+03
      6.803  0.7748E+01  0.3615E+03
      6.872  0.1009E+02  0.3621E+03
      6.940  0.1069E+02  0.3629E+03
      7.009  0.7918E+01  0.3634E+03
      7.078  0.6728E+01  0.3639E+03
      7.147  0.7109E+01  0.3644E+03
      7.216  0.1210E+02  0.3652E+03
      7.285  0.6604E+01  0.3657E+03
      7.354  0.9528E+01  0.3663E+03
      7.423  0.8435E+01  0.3669E+03
      7.492  0.6094E+01  0.3674E+03
      7.561  0.1135E+02  0.3681E+03
      7.629  0.6647E+01  0.3686E+03
      7.698  0.6246E+01  0.3690E+03
      7.767  0.9429E+01  0.3697E+03
      7.836  0.9481E+01  0.3703E+03
      7.905  0.7390E+01  0.3708E+03
      7.974  0.8281E+01  0.3714E+03
      8.043  0.7371E+01  0.3719E+03
      8.112  0.6729E+01  0.3724E+03
      8.181  0.8232E+01  0.3730E+03
      8.249  0.5725E+01  0.3733E+03
      8.318  0.8383E+01  0.3739E+03
      8.387  0.9148E+01  0.3746E+03
      8.456  0.8121E+01  0.3751E+03
      8.525  0.4218E+01  0.3754E+03
      8.594  0.6282E+01  0.3758E+03
      8.663  0.8534E+01  0.3764E+03
      8.732  0.1023E+02  0.3771E+03
      8.801  0.1175E+02  0.3780E+03
      8.870  0.1754E+02  0.3792E+03
      8.938  0.1508E+02  0.3802E+03
      9.007  0.1086E+02  0.3810E+03
      9.076  0.1523E+02  0.3820E+03
      9.145  0.1063E+02  0.3827E+03
      9.214  0.1096E+02  0.3835E+03
      9.283  0.9293E+01  0.3841E+03
      9.352  0.1413E+02  0.3851E+03
      9.421  0.8403E+01  0.3857E+03
      9.490  0.7874E+01  0.3862E+03
      9.558  0.1068E+02  0.3870E+03
      9.627  0.1104E+02  0.3877E+03
      9.696  0.7125E+01  0.3882E+03
      9.765  0.1087E+02  0.3890E+03
      9.834  0.6878E+01  0.3895E+03
      9.903  0.8529E+01  0.3901E+03
      9.972  0.8551E+01  0.3906E+03
     10.041  0.7779E+01  0.3912E+03
     10.110  0.7358E+01  0.3917E+03
     10.179  0.6685E+01  0.3922E+03
     10.247  0.1298E+02  0.3930E+03
     10.316  0.9423E+01  0.3937E+03
     10.385  0.9830E+01  0.3944E+03
     10.454  0.4817E+01  0.3947E+03
     10.523  0.1100E+02  0.3955E+03
     10.592  0.1269E+02  0.3963E+03
     10.661  0.1219E+02  0.3972E+03
     10.730  0.6366E+01  0.3976E+03
     10.799  0.1001E+02  0.3983E+03
     10.867  0.1192E+02  0.3991E+03
     10.936  0.1272E+02  0.4000E+03
     11.005  0.8336E+01  0.4006E+03
     11.074  0.1175E+02  0.4014E+03
     11.143  0.1230E+02  0.4023E+03
     11.212  0.1109E+02  0.4030E+03
     11.281  0.1510E+02  0.4041E+03
     11.350  0.9316E+01  0.4047E+03
     11.419  0.1217E+02  0.4056E+03
     11.488  0.8408E+01  0.4061E+03
     11.556  0.1059E+02  0.4069E+03
     11.625  0.1333E+02  0.4078E+03
     11.694  0.1424E+02  0.4088E+03
     11.763  0.1160E+02  0.4096E+03
     11.832  0.6318E+01  0.4100E+03
     11.901  0.7026E+01  0.4105E+03
     11.970  0.1121E+02  0.4113E+03
     12.039  0.1336E+02  0.4122E+03
     12.108  0.8132E+01  0.4128E+03
     12.176  0.7764E+01  0.4133E+03
     12.245  0.1032E+02  0.4140E+03
     12.314  0.8905E+01  0.4146E+03
     12.383  0.9352E+01  0.4153E+03
     12.452  0.6379E+01  0.4157E+03
     12.521  0.9454E+01  0.4164E+03
     12.590  0.6442E+01  0.4168E+03
     12.659  0.9821E+01  0.4175E+03
     12.728  0.1098E+02  0.4182E+03
     12.797  0.1103E+02  0.4190E+03
     12.865  0.9335E+01  0.4196E+03
     12.934  0.1020E+02  0.4204E+03
     13.003  0.8470E+01  0.4209E+03
     13.072  0.1182E+02  0.4218E+03
     13.141  0.1128E+02  0.4225E+03
     13.210  0.7409E+01  0.4230E+03
     13.279  0.9671E+01  0.4237E+03
     13.348  0.1910E+02  0.4250E+03
     13.417  0.1053E+02  0.4258E+03
     13.485  0.1294E+02  0.4267E+03
     13.554  0.4575E+01  0.4270E+03
     13.623  0.4692E+01  0.4273E+03
     13.692  0.1527E+02  0.4283E+03
     13.761  0.7306E+01  0.4289E+03
     13.830  0.6797E+01  0.4293E+03
     13.899  0.6584E+01  0.4298E+03
     13.968  0.1146E+02  0.4306E+03
     14.037  0.4400E+01  0.4309E+03
     14.106  0.3484E+01  0.4311E+03
     14.174  0.2941E+01  0.4313E+03
     14.243  0.3875E+01  0.4316E+03
     14.312  0.2714E+01  0.4318E+03
     14.381  0.1040E+01  0.4318E+03
     14.450  0.2394E-10  0.4318E+03
     14.519  0.2687E+00  0.4319E+03
     14.588  0.8063E+00  0.4319E+03
     14.657  0.1009E+01  0.4320E+03
     14.726  0.2010E+00  0.4320E+03
     14.794  0.0000E+00  0.4320E+03
     14.863  0.0000E+00  0.4320E+03
     14.932  0.0000E+00  0.4320E+03
     15.001  0.0000E+00  0.4320E+03
     15.070  0.0000E+00  0.4320E+03
     15.139  0.0000E+00  0.4320E+03
     15.208  0.0000E+00  0.4320E+03
     15.277  0.0000E+00  0.4320E+03
     15.346  0.0000E+00  0.4320E+03
     15.415  0.0000E+00  0.4320E+03
     15.483  0.0000E+00  0.4320E+03
     15.552  0.0000E+00  0.4320E+03
     15.621  0.0000E+00  0.4320E+03
