   32   32    1    1
  0.1709689E+02  0.8178790E-09  0.8178790E-09  0.8178790E-09  0.5000000E-15
  1.000000000000000E-004
  CAR 
 unknown system                          
  352  196  216
 
  0.0000000E+00  0.0000000E+00  0.0000000E+00  0.5787037E-03
   1       -4.1078
   2       -1.7004
   3       -1.6969
   4       -1.6969
   5       -1.6969
   6       -1.6969
   7       -1.6934
   8       -1.6087
   9       -1.6087
  10       -1.6087
  11       -1.6087
  12       -1.3711
  13       -1.3711
  14       -1.3711
  15       -1.0654
  16       -1.0654
  17       -1.0654
  18       -0.3814
  19       -0.3800
  20       -0.3800
  21       -0.3780
  22       -0.3778
  23       -0.3777
  24       -0.3777
  25       -0.3777
  26       -0.3775
  27       -0.3755
  28       -0.3755
  29       -0.3741
  30       -0.2774
  31       -0.2749
  32       -0.2749
  33       -0.2749
  34       -0.2749
  35       -0.2724
  36       -0.1320
  37       -0.1295
  38       -0.1295
  39       -0.1295
  40       -0.1295
  41       -0.1270
  42        0.4549
  43        0.4581
  44        0.4581
  45        0.4595
  46        0.4595
  47        0.4595
  48        0.4595
  49        0.4595
  50        0.4596
  51        0.4608
  52        0.4608
  53        0.4638
  54        0.5257
  55        0.5257
  56        0.5283
  57        0.5283
  58        0.5284
  59        0.5284
  60        0.5284
  61        0.5285
  62        0.5285
  63        0.5287
  64        0.5312
  65        0.5312
  66        0.7991
  67        0.8034
  68        0.8034
  69        0.8034
  70        0.8038
  71        0.8038
  72        0.8038
  73        0.8038
  74        0.8040
  75        0.8041
  76        0.8041
  77        0.8083
  78        0.9491
  79        0.9492
  80        0.9492
  81        0.9492
  82        0.9492
  83        0.9492
  84        0.9492
  85        0.9493
  86        0.9852
  87        0.9852
  88        0.9853
  89        1.6908
  90        1.6932
  91        1.6933
  92        1.6933
  93        1.6933
  94        1.6958
  95        1.9005
  96        1.9014
  97        1.9027
  98        1.9027
  99        1.9035
 100        1.9035
 101        1.9035
 102        1.9035
 103        1.9042
 104        1.9042
 105        1.9057
 106        1.9064
 107        2.2125
 108        2.2125
 109        2.2156
 110        2.2156
 111        2.2158
 112        2.2158
 113        2.2159
 114        2.2159
 115        2.2161
 116        2.2161
 117        2.2190
 118        2.2190
 119        2.3568
 120        2.3589
 121        2.3589
 122        2.3589
 123        2.3589
 124        2.3610
 125        2.4857
 126        2.4857
 127        2.4887
 128        2.4888
 129        2.4892
 130        2.4893
 131        2.4893
 132        2.4893
 133        2.4894
 134        2.4898
 135        2.4930
 136        2.4930
 137        2.4962
 138        2.4968
 139        3.0459
 140        3.0475
 141        3.0475
 142        3.0475
 143        3.0475
 144        3.0490
 145        3.6468
 146        3.6468
 147        3.6469
 148        3.6901
 149        3.6901
 150        3.6901
 151        3.6901
 152        3.6901
 153        3.6901
 154        3.6901
 155        3.6901
 156        4.0097
 157        4.0100
 158        4.0101
 159        4.0101
 160        4.0101
 161        4.0101
 162        4.0119
 163        4.0120
 164        4.0120
 165        4.0120
 166        4.0121
 167        4.0124
 168        4.7575
 169        4.7575
 170        4.7575
 171        4.7575
 172        5.3994
 173        5.3999
 174        5.3999
 175        5.4007
 176        5.4012
 177        5.4013
 178        5.4013
 179        5.4013
 180        5.4018
 181        5.4026
 182        5.4026
 183        5.4031
 184        6.7515
 185        6.7515
 186        6.7516
 187        8.7846
 188        8.7846
 189        8.7846
 190        8.7846
 191       10.5267
 192       10.5270
 193       10.5270
 194       10.5271
 195       10.5271
 196       10.5274
 197       11.5067
 198       11.5068
 199       11.5068
 200       12.0237
 201       12.0237
 202       12.0270
 203       12.0270
 204       12.0276
 205       12.0276
 206       12.0276
 207       12.0277
 208       12.0281
 209       12.0281
 210       12.0314
 211       12.0314
 212       14.3295
 213       14.3301
 214       14.3306
 215       14.3313
 216       14.3321
 
  0.8333333E-01  0.0000000E+00  0.0000000E+00  0.1157407E-02
   1       -4.0875
   2       -1.9781
   3       -1.6821
   4       -1.6821
   5       -1.6821
   6       -1.6821
   7       -1.5972
   8       -1.5972
   9       -1.5972
  10       -1.5972
  11       -1.4597
  12       -1.3638
  13       -1.3574
  14       -1.3574
  15       -1.0579
  16       -1.0541
  17       -1.0541
  18       -0.4856
  19       -0.4856
  20       -0.4856
  21       -0.4856
  22       -0.4377
  23       -0.4377
  24       -0.4376
  25       -0.4376
  26       -0.3033
  27       -0.3031
  28       -0.2846
  29       -0.2846
  30       -0.2845
  31       -0.2845
  32       -0.2649
  33       -0.2649
  34       -0.2649
  35       -0.2648
  36       -0.2602
  37       -0.1231
  38       -0.1231
  39       -0.1231
  40       -0.1231
  41        0.0043
  42        0.2782
  43        0.2782
  44        0.4094
  45        0.4096
  46        0.4096
  47        0.4096
  48        0.4980
  49        0.4986
  50        0.4986
  51        0.4987
  52        0.5105
  53        0.5106
  54        0.5106
  55        0.5109
  56        0.5168
  57        0.5169
  58        0.5169
  59        0.5169
  60        0.5296
  61        0.5296
  62        0.5296
  63        0.5301
  64        0.7351
  65        0.7352
  66        0.7352
  67        0.7352
  68        0.7981
  69        0.7981
  70        0.8341
  71        0.8354
  72        0.8354
  73        0.8354
  74        0.8404
  75        0.8404
  76        0.8404
  77        0.8418
  78        0.9442
  79        0.9442
  80        0.9442
  81        0.9443
  82        0.9585
  83        0.9585
  84        0.9585
  85        0.9586
  86        0.9747
  87        0.9944
  88        0.9944
  89        1.6393
  90        1.6393
  91        1.6394
  92        1.6394
  93        1.6803
  94        1.7888
  95        1.8585
  96        1.8586
  97        1.8586
  98        1.8586
  99        1.9029
 100        1.9030
 101        1.9030
 102        1.9030
 103        1.9555
 104        1.9555
 105        1.9556
 106        1.9556
 107        2.0330
 108        2.0330
 109        2.2152
 110        2.2152
 111        2.2153
 112        2.2153
 113        2.2604
 114        2.2604
 115        2.2604
 116        2.2604
 117        2.3636
 118        2.3636
 119        2.3636
 120        2.3637
 121        2.3911
 122        2.3912
 123        2.3998
 124        2.3998
 125        2.4003
 126        2.4003
 127        2.4079
 128        2.4079
 129        2.4849
 130        2.5006
 131        2.5383
 132        2.5383
 133        2.5383
 134        2.5384
 135        2.5997
 136        2.5997
 137        2.5998
 138        2.5998
 139        2.9730
 140        3.0611
 141        3.0611
 142        3.0611
 143        3.0611
 144        3.1228
 145        3.5963
 146        3.5963
 147        3.5963
 148        3.5963
 149        3.6307
 150        3.6307
 151        3.6415
 152        3.6764
 153        3.6764
 154        3.6764
 155        3.6765
 156        3.9306
 157        3.9306
 158        3.9902
 159        3.9902
 160        3.9904
 161        3.9904
 162        3.9904
 163        3.9904
 164        4.0097
 165        4.0101
 166        4.0120
 167        4.0123
 168        4.8134
 169        4.8134
 170        4.8134
 171        4.8135
 172        5.1052
 173        5.1052
 174        5.1052
 175        5.1053
 176        5.3995
 177        5.3995
 178        5.3995
 179        5.3995
 180        5.7165
 181        5.7165
 182        5.7165
 183        5.7165
 184        6.5924
 185        6.8449
 186        6.8449
 187        8.8477
 188        8.8477
 189        8.8477
 190        8.8477
 191       10.3485
 192       10.3485
 193       10.3485
 194       10.3485
 195       10.5409
 196       10.5409
 197       11.4872
 198       11.4872
 199       11.5018
 200       11.5018
 201       11.7004
 202       12.0662
 203       12.0662
 204       12.0662
 205       12.0662
 206       12.1171
 207       12.1171
 208       12.1172
 209       12.1172
 210       12.5420
 211       12.5420
 212       14.0038
 213       14.0050
 214       14.0068
 215       14.0093
 216       14.0132
 
  0.1666667E+00  0.0000000E+00  0.0000000E+00  0.1157407E-02
   1       -4.0266
   2       -2.2806
   3       -1.6383
   4       -1.6383
   5       -1.6383
   6       -1.6383
   7       -1.5628
   8       -1.5628
   9       -1.5628
  10       -1.5628
  11       -1.3427
  12       -1.3168
  13       -1.3168
  14       -1.2857
  15       -1.0357
  16       -1.0203
  17       -1.0203
  18       -0.6107
  19       -0.6107
  20       -0.6107
  21       -0.6107
  22       -0.5772
  23       -0.5771
  24       -0.5771
  25       -0.5771
  26       -0.3859
  27       -0.3819
  28       -0.3819
  29       -0.2355
  30       -0.2354
  31       -0.2354
  32       -0.2354
  33       -0.2020
  34       -0.2020
  35       -0.2020
  36       -0.2019
  37       -0.1043
  38       -0.1043
  39       -0.1043
  40       -0.1042
  41        0.0481
  42        0.0481
  43        0.1387
  44        0.3505
  45        0.3506
  46        0.3506
  47        0.3506
  48        0.4837
  49        0.4837
  50        0.4837
  51        0.4837
  52        0.5256
  53        0.5267
  54        0.5267
  55        0.5268
  56        0.5328
  57        0.5329
  58        0.5329
  59        0.5340
  60        0.6019
  61        0.6020
  62        0.6020
  63        0.6021
  64        0.6392
  65        0.6393
  66        0.6393
  67        0.6394
  68        0.8563
  69        0.8563
  70        0.8564
  71        0.8564
  72        0.9296
  73        0.9296
  74        0.9296
  75        0.9297
  76        0.9433
  77        0.9514
  78        0.9514
  79        0.9515
  80        0.9515
  81        0.9864
  82        0.9865
  83        0.9865
  84        0.9865
  85        1.0218
  86        1.0218
  87        1.0864
  88        1.0864
  89        1.5196
  90        1.5196
  91        1.5196
  92        1.5196
  93        1.7254
  94        1.7542
  95        1.7542
  96        1.7542
  97        1.7543
  98        1.8610
  99        1.8610
 100        1.9513
 101        1.9515
 102        1.9516
 103        1.9516
 104        1.9880
 105        2.0435
 106        2.0435
 107        2.0435
 108        2.0436
 109        2.2138
 110        2.2138
 111        2.2138
 112        2.2138
 113        2.3319
 114        2.3319
 115        2.3321
 116        2.3321
 117        2.3445
 118        2.3446
 119        2.3447
 120        2.3447
 121        2.3761
 122        2.3762
 123        2.3762
 124        2.3762
 125        2.4513
 126        2.4816
 127        2.4816
 128        2.5143
 129        2.6050
 130        2.6050
 131        2.6546
 132        2.6546
 133        2.6546
 134        2.6547
 135        2.7305
 136        2.7305
 137        2.7305
 138        2.7305
 139        2.9006
 140        3.1094
 141        3.1094
 142        3.1094
 143        3.1095
 144        3.1976
 145        3.3647
 146        3.3647
 147        3.3647
 148        3.3647
 149        3.5827
 150        3.5827
 151        3.6255
 152        3.6358
 153        3.6358
 154        3.6358
 155        3.6359
 156        3.7192
 157        3.7192
 158        3.9274
 159        3.9274
 160        3.9274
 161        3.9274
 162        3.9317
 163        3.9317
 164        4.0098
 165        4.0102
 166        4.0119
 167        4.0123
 168        4.8230
 169        4.8230
 170        4.8230
 171        4.8230
 172        4.9346
 173        4.9346
 174        4.9346
 175        4.9346
 176        5.3939
 177        5.3939
 178        5.3939
 179        5.3939
 180        6.0574
 181        6.0574
 182        6.0574
 183        6.0574
 184        6.1774
 185        7.0981
 186        7.0981
 187        9.0340
 188        9.0340
 189        9.0340
 190        9.0340
 191        9.9268
 192        9.9268
 193        9.9268
 194        9.9268
 195       10.5822
 196       10.5822
 197       10.9692
 198       10.9692
 199       11.4303
 200       11.4303
 201       12.1804
 202       12.1804
 203       12.1804
 204       12.1804
 205       12.2191
 206       12.2921
 207       12.2921
 208       12.2922
 209       12.2923
 210       13.0403
 211       13.0403
 212       13.3899
 213       13.3899
 214       13.3899
 215       13.3899
 216       13.7159
 
  0.2500000E+00  0.0000000E+00  0.0000000E+00  0.1157407E-02
   1       -3.9259
   2       -2.5857
   3       -1.5666
   4       -1.5665
   5       -1.5665
   6       -1.5665
   7       -1.5057
   8       -1.5057
   9       -1.5056
  10       -1.5056
  11       -1.3092
  12       -1.2503
  13       -1.2502
  14       -1.1822
  15       -0.9989
  16       -0.9641
  17       -0.9641
  18       -0.7522
  19       -0.7522
  20       -0.7520
  21       -0.7520
  22       -0.7429
  23       -0.7429
  24       -0.7427
  25       -0.7427
  26       -0.5049
  27       -0.4976
  28       -0.4976
  29       -0.1882
  30       -0.1882
  31       -0.1882
  32       -0.1882
  33       -0.1613
  34       -0.1613
  35       -0.1271
  36       -0.1271
  37       -0.1271
  38       -0.1270
  39       -0.0734
  40       -0.0733
  41       -0.0733
  42       -0.0733
  43        0.2716
  44        0.2849
  45        0.2849
  46        0.2849
  47        0.2849
  48        0.4341
  49        0.4341
  50        0.4341
  51        0.4342
  52        0.5288
  53        0.5288
  54        0.5288
  55        0.5288
  56        0.5367
  57        0.5378
  58        0.5378
  59        0.5378
  60        0.5448
  61        0.5449
  62        0.5449
  63        0.5459
  64        0.6682
  65        0.6682
  66        0.6682
  67        0.6682
  68        0.8714
  69        0.8715
  70        0.8715
  71        0.8715
  72        0.8921
  73        0.9063
  74        0.9063
  75        0.9063
  76        0.9064
  77        1.0326
  78        1.0326
  79        1.0326
  80        1.0327
  81        1.0673
  82        1.0673
  83        1.1628
  84        1.1628
  85        1.1628
  86        1.1628
  87        1.3826
  88        1.3826
  89        1.3828
  90        1.3828
  91        1.3923
  92        1.3923
  93        1.6293
  94        1.6293
  95        1.6293
  96        1.6293
  97        1.7015
  98        1.7015
  99        1.8072
 100        2.0331
 101        2.0331
 102        2.0331
 103        2.0331
 104        2.1448
 105        2.1448
 106        2.1448
 107        2.1448
 108        2.2119
 109        2.2119
 110        2.2119
 111        2.2120
 112        2.2827
 113        2.2827
 114        2.2827
 115        2.2827
 116        2.2981
 117        2.3901
 118        2.3903
 119        2.3903
 120        2.3903
 121        2.3967
 122        2.4046
 123        2.4046
 124        2.4046
 125        2.4047
 126        2.5366
 127        2.6155
 128        2.6155
 129        2.7986
 130        2.7987
 131        2.7987
 132        2.7987
 133        2.8058
 134        2.8058
 135        2.8315
 136        2.8787
 137        2.8787
 138        2.8788
 139        2.8788
 140        3.0653
 141        3.0653
 142        3.0653
 143        3.0653
 144        3.2085
 145        3.2085
 146        3.2085
 147        3.2085
 148        3.2706
 149        3.4271
 150        3.4271
 151        3.5039
 152        3.5039
 153        3.5696
 154        3.5696
 155        3.5696
 156        3.5696
 157        3.5993
 158        3.8275
 159        3.8275
 160        3.8275
 161        3.8275
 162        3.8375
 163        3.8375
 164        4.0099
 165        4.0103
 166        4.0117
 167        4.0122
 168        4.5509
 169        4.5509
 170        4.5509
 171        4.5509
 172        5.0601
 173        5.0601
 174        5.0601
 175        5.0601
 176        5.3834
 177        5.3835
 178        5.3835
 179        5.3835
 180        5.6201
 181        6.4306
 182        6.4306
 183        6.4307
 184        6.4307
 185        7.4594
 186        7.4594
 187        9.3340
 188        9.3340
 189        9.3340
 190        9.3341
 191        9.4048
 192        9.4048
 193        9.4049
 194        9.4049
 195       10.4339
 196       10.4339
 197       10.6495
 198       10.6495
 199       11.3417
 200       11.3417
 201       12.3653
 202       12.3653
 203       12.3653
 204       12.3653
 205       12.4603
 206       12.4603
 207       12.4603
 208       12.4603
 209       12.7081
 210       12.7081
 211       12.7081
 212       12.7081
 213       12.9510
 214       13.4645
 215       13.4648
 216       13.4665
 
  0.3333333E+00  0.0000000E+00  0.0000000E+00  0.1157407E-02
   1       -3.7862
   2       -2.8792
   3       -1.4691
   4       -1.4690
   5       -1.4690
   6       -1.4690
   7       -1.4263
   8       -1.4263
   9       -1.4263
  10       -1.4263
  11       -1.2666
  12       -1.1597
  13       -1.1597
  14       -1.1407
  15       -0.9480
  16       -0.9094
  17       -0.9094
  18       -0.9092
  19       -0.9091
  20       -0.9043
  21       -0.9042
  22       -0.9041
  23       -0.9041
  24       -0.8854
  25       -0.8854
  26       -0.6344
  27       -0.6344
  28       -0.6154
  29       -0.3496
  30       -0.3496
  31       -0.1271
  32       -0.1270
  33       -0.1269
  34       -0.1269
  35       -0.0610
  36       -0.0610
  37       -0.0610
  38       -0.0610
  39       -0.0313
  40       -0.0313
  41       -0.0313
  42       -0.0313
  43        0.2158
  44        0.2158
  45        0.2158
  46        0.2158
  47        0.3760
  48        0.3760
  49        0.3760
  50        0.3760
  51        0.4003
  52        0.4193
  53        0.4193
  54        0.4193
  55        0.4194
  56        0.5431
  57        0.5438
  58        0.5438
  59        0.5439
  60        0.5541
  61        0.5542
  62        0.5542
  63        0.5550
  64        0.7162
  65        0.7162
  66        0.7162
  67        0.7162
  68        0.8223
  69        0.8757
  70        0.8757
  71        0.8757
  72        0.8757
  73        0.9016
  74        0.9016
  75        0.9016
  76        0.9017
  77        1.0964
  78        1.0964
  79        1.0964
  80        1.0965
  81        1.1308
  82        1.1308
  83        1.2502
  84        1.2502
  85        1.2502
  86        1.2502
  87        1.4344
  88        1.4344
  89        1.4344
  90        1.4344
  91        1.5025
  92        1.5025
  93        1.5025
  94        1.5025
  95        1.5557
  96        1.5557
  97        1.7136
  98        1.7136
  99        1.9095
 100        2.1296
 101        2.1296
 102        2.1296
 103        2.1296
 104        2.2107
 105        2.2107
 106        2.2108
 107        2.2108
 108        2.2398
 109        2.2398
 110        2.2398
 111        2.2398
 112        2.2492
 113        2.2492
 114        2.2492
 115        2.2492
 116        2.3228
 117        2.3987
 118        2.3987
 119        2.3988
 120        2.3988
 121        2.4149
 122        2.4149
 123        2.4149
 124        2.4150
 125        2.5675
 126        2.7115
 127        2.7366
 128        2.7366
 129        2.7366
 130        2.7366
 131        2.7662
 132        2.7751
 133        2.7752
 134        2.9505
 135        2.9505
 136        2.9505
 137        2.9506
 138        3.0061
 139        3.0061
 140        3.0403
 141        3.0403
 142        3.0403
 143        3.0404
 144        3.0945
 145        3.0945
 146        3.3405
 147        3.3633
 148        3.3633
 149        3.3633
 150        3.3633
 151        3.3963
 152        3.3964
 153        3.4798
 154        3.4799
 155        3.4799
 156        3.4799
 157        3.5634
 158        3.6978
 159        3.6978
 160        3.6978
 161        3.6978
 162        3.7119
 163        3.7119
 164        4.0100
 165        4.0105
 166        4.0115
 167        4.0121
 168        4.2870
 169        4.2870
 170        4.2870
 171        4.2871
 172        5.0037
 173        5.1648
 174        5.1649
 175        5.1649
 176        5.1649
 177        5.3664
 178        5.3664
 179        5.3664
 180        5.3665
 181        6.8414
 182        6.8414
 183        6.8414
 184        6.8414
 185        7.8879
 186        7.8879
 187        8.8533
 188        8.8533
 189        8.8533
 190        8.8533
 191        9.7342
 192        9.7342
 193        9.7342
 194        9.7342
 195        9.9003
 196        9.9003
 197       10.7402
 198       10.7402
 199       11.2294
 200       11.2294
 201       12.0305
 202       12.0305
 203       12.0306
 204       12.0306
 205       12.6084
 206       12.6084
 207       12.6085
 208       12.6085
 209       12.6138
 210       12.6138
 211       12.6138
 212       12.6138
 213       13.2469
 214       13.2469
 215       13.2469
 216       13.2469
 
  0.4166667E+00  0.0000000E+00  0.0000000E+00  0.1157407E-02
   1       -3.6089
   2       -3.1516
   3       -1.3490
   4       -1.3489
   5       -1.3489
   6       -1.3489
   7       -1.3256
   8       -1.3256
   9       -1.3256
  10       -1.3256
  11       -1.2197
  12       -1.1444
  13       -1.0649
  14       -1.0649
  15       -1.0647
  16       -1.0647
  17       -1.0601
  18       -1.0600
  19       -1.0597
  20       -1.0597
  21       -1.0477
  22       -1.0476
  23       -0.8834
  24       -0.7845
  25       -0.7845
  26       -0.7784
  27       -0.7784
  28       -0.7161
  29       -0.5164
  30       -0.5164
  31       -0.0610
  32       -0.0608
  33       -0.0608
  34       -0.0608
  35       -0.0143
  36       -0.0143
  37       -0.0143
  38       -0.0142
  39        0.0206
  40        0.0206
  41        0.0206
  42        0.0207
  43        0.1467
  44        0.1467
  45        0.1467
  46        0.1467
  47        0.3216
  48        0.3217
  49        0.3217
  50        0.3218
  51        0.3313
  52        0.3314
  53        0.3314
  54        0.3315
  55        0.5223
  56        0.5489
  57        0.5499
  58        0.5499
  59        0.5499
  60        0.5568
  61        0.5569
  62        0.5569
  63        0.5580
  64        0.7359
  65        0.7591
  66        0.7591
  67        0.7591
  68        0.7591
  69        0.8398
  70        0.8398
  71        0.8398
  72        0.8398
  73        0.9544
  74        0.9544
  75        0.9544
  76        0.9545
  77        1.1312
  78        1.1312
  79        1.1312
  80        1.1313
  81        1.1769
  82        1.1769
  83        1.1769
  84        1.1769
  85        1.2119
  86        1.2119
  87        1.3822
  88        1.3822
  89        1.3822
  90        1.3822
  91        1.4250
  92        1.4250
  93        1.7389
  94        1.7389
  95        1.7389
  96        1.7389
  97        2.0201
  98        2.0488
  99        2.0488
 100        2.2117
 101        2.2117
 102        2.2117
 103        2.2117
 104        2.2264
 105        2.2266
 106        2.2266
 107        2.2268
 108        2.2283
 109        2.2283
 110        2.2285
 111        2.2285
 112        2.2331
 113        2.3158
 114        2.3158
 115        2.3158
 116        2.3159
 117        2.3799
 118        2.3800
 119        2.3801
 120        2.3801
 121        2.3932
 122        2.3932
 123        2.3934
 124        2.3935
 125        2.3987
 126        2.3988
 127        2.3988
 128        2.3988
 129        2.6066
 130        2.7067
 131        2.7457
 132        2.7457
 133        2.9443
 134        2.9443
 135        3.1002
 136        3.1002
 137        3.1002
 138        3.1003
 139        3.2020
 140        3.2020
 141        3.2099
 142        3.2099
 143        3.2099
 144        3.2099
 145        3.2099
 146        3.2635
 147        3.2635
 148        3.3693
 149        3.3693
 150        3.3693
 151        3.3693
 152        3.4060
 153        3.5185
 154        3.5461
 155        3.5461
 156        3.5462
 157        3.5462
 158        3.5600
 159        3.5600
 160        3.5617
 161        3.5617
 162        3.5622
 163        3.5622
 164        4.0101
 165        4.0108
 166        4.0113
 167        4.0120
 168        4.0319
 169        4.0319
 170        4.0319
 171        4.0319
 172        4.3777
 173        5.2440
 174        5.2441
 175        5.2441
 176        5.2441
 177        5.3401
 178        5.3401
 179        5.3401
 180        5.3402
 181        7.2924
 182        7.2924
 183        7.2924
 184        7.2924
 185        8.3062
 186        8.3062
 187        8.3063
 188        8.3063
 189        8.3587
 190        8.3587
 191        9.3728
 192        9.3728
 193       10.2187
 194       10.2187
 195       10.2187
 196       10.2187
 197       10.8503
 198       10.8504
 199       11.1035
 200       11.1035
 201       11.3803
 202       11.3804
 203       11.3804
 204       11.3804
 205       12.7490
 206       12.7490
 207       12.7491
 208       12.7491
 209       12.9177
 210       12.9178
 211       12.9178
 212       12.9178
 213       13.0592
 214       13.0592
 215       13.0592
 216       13.0592
 
  0.5000000E+00  0.0000000E+00  0.0000000E+00  0.5787037E-03
   1       -3.3982
   2       -3.3946
   3       -1.2147
   4       -1.2117
   5       -1.2115
   6       -1.2115
   7       -1.2100
   8       -1.2100
   9       -1.2094
  10       -1.2075
  11       -1.2062
  12       -1.2062
  13       -1.2056
  14       -1.2054
  15       -1.2034
  16       -1.2027
  17       -1.2025
  18       -1.2025
  19       -1.1764
  20       -1.1743
  21       -0.9210
  22       -0.9199
  23       -0.9178
  24       -0.9167
  25       -0.8072
  26       -0.8043
  27       -0.6630
  28       -0.6630
  29       -0.6599
  30       -0.6599
  31       -0.0154
  32       -0.0125
  33       -0.0125
  34       -0.0124
  35       -0.0124
  36       -0.0123
  37       -0.0123
  38       -0.0095
  39        0.0786
  40        0.0792
  41        0.0792
  42        0.0804
  43        0.0811
  44        0.0823
  45        0.0823
  46        0.0828
  47        0.2946
  48        0.2951
  49        0.2951
  50        0.2959
  51        0.2962
  52        0.2969
  53        0.2969
  54        0.2975
  55        0.5517
  56        0.5541
  57        0.5541
  58        0.5545
  59        0.5551
  60        0.5555
  61        0.5555
  62        0.5578
  63        0.6347
  64        0.6357
  65        0.7995
  66        0.8000
  67        0.8000
  68        0.8000
  69        0.8007
  70        0.8007
  71        0.8008
  72        0.8013
  73        1.0302
  74        1.0302
  75        1.0303
  76        1.0312
  77        1.0319
  78        1.0327
  79        1.0329
  80        1.0329
  81        1.2701
  82        1.2708
  83        1.2708
  84        1.2724
  85        1.2731
  86        1.2746
  87        1.2746
  88        1.2753
  89        1.3088
  90        1.3088
  91        1.3116
  92        1.3116
  93        2.0619
  94        2.0624
  95        2.0629
  96        2.0629
  97        2.0636
  98        2.0636
  99        2.0640
 100        2.0645
 101        2.1292
 102        2.1310
 103        2.2160
 104        2.2160
 105        2.2164
 106        2.2167
 107        2.2169
 108        2.2171
 109        2.2175
 110        2.2175
 111        2.3117
 112        2.3130
 113        2.3130
 114        2.3132
 115        2.3141
 116        2.3143
 117        2.3143
 118        2.3156
 119        2.3656
 120        2.3660
 121        2.3668
 122        2.3668
 123        2.3672
 124        2.3672
 125        2.3681
 126        2.3686
 127        2.3935
 128        2.3935
 129        2.3956
 130        2.3956
 131        2.6519
 132        2.6544
 133        3.1100
 134        3.1101
 135        3.1107
 136        3.1108
 137        3.2399
 138        3.2405
 139        3.2405
 140        3.2409
 141        3.2419
 142        3.2423
 143        3.2423
 144        3.2431
 145        3.3788
 146        3.3788
 147        3.3805
 148        3.3806
 149        3.3812
 150        3.3813
 151        3.3826
 152        3.3826
 153        3.3881
 154        3.3881
 155        3.3892
 156        3.3892
 157        3.4655
 158        3.4659
 159        3.7717
 160        3.7726
 161        3.7867
 162        3.7875
 163        3.7875
 164        3.7881
 165        3.7883
 166        3.7888
 167        3.7888
 168        3.7896
 169        4.0101
 170        4.0110
 171        4.0110
 172        4.0119
 173        5.2991
 174        5.2996
 175        5.3002
 176        5.3002
 177        5.3015
 178        5.3015
 179        5.3022
 180        5.3027
 181        7.7799
 182        7.7799
 183        7.7820
 184        7.7821
 185        7.7828
 186        7.7829
 187        7.7850
 188        7.7850
 189        8.8552
 190        8.8552
 191        8.8583
 192        8.8583
 193       10.7691
 194       10.7691
 195       10.7712
 196       10.7714
 197       10.7727
 198       10.7728
 199       10.7750
 200       10.7750
 201       10.9737
 202       10.9740
 203       10.9740
 204       10.9743
 205       12.8945
 206       12.8952
 207       12.8952
 208       12.8955
 209       12.8962
 210       12.8964
 211       12.8964
 212       12.8971
 213       13.2673
 214       13.2686
 215       13.2692
 216       13.2696
 
  0.0000000E+00  0.8333333E-01  0.0000000E+00  0.2314815E-02
   1       -4.0875
   2       -1.9780
   3       -1.6848
   4       -1.6821
   5       -1.6821
   6       -1.6795
   7       -1.5973
   8       -1.5972
   9       -1.5972
  10       -1.5971
  11       -1.4597
  12       -1.3638
  13       -1.3574
  14       -1.3574
  15       -1.0579
  16       -1.0541
  17       -1.0541
  18       -0.4878
  19       -0.4856
  20       -0.4856
  21       -0.4834
  22       -0.4388
  23       -0.4378
  24       -0.4375
  25       -0.4365
  26       -0.3032
  27       -0.3030
  28       -0.2865
  29       -0.2846
  30       -0.2846