       N       E                     dE             d eps       ncg     rms          rms(c)
DAV:   1     0.485242161196E+04    0.48524E+04   -0.20974E+05 84680   0.221E+03
DAV:   2     0.168945496466E+03   -0.46835E+04   -0.44838E+04 84688   0.573E+02
DAV:   3    -0.102832266193E+03   -0.27178E+03   -0.25093E+03 92096   0.153E+02
DAV:   4    -0.111594145778E+03   -0.87619E+01   -0.86318E+01 90760   0.255E+01
DAV:   5    -0.111734602020E+03   -0.14046E+00   -0.14007E+00 91336   0.276E+00    0.165E+01
DAV:   6    -0.104384305662E+03    0.73503E+01   -0.18022E+01 89616   0.151E+01    0.462E+00
DAV:   7    -0.103788574054E+03    0.59573E+00   -0.15233E+00 95016   0.377E+00    0.166E+00
DAV:   8    -0.103682698529E+03    0.10588E+00   -0.72892E-02 87864   0.961E-01    0.160E-01
DAV:   9    -0.103682789397E+03   -0.90868E-04   -0.62398E-03 95248   0.252E-01    0.904E-02
DAV:  10    -0.103682800051E+03   -0.10654E-04   -0.61701E-04 88144   0.748E-02    0.105E-02
DAV:  11    -0.103682810869E+03   -0.10818E-04   -0.13621E-05 91824   0.142E-02    0.229E-03
DAV:  12    -0.103682816608E+03   -0.57387E-05   -0.61601E-07 90328   0.271E-03    0.156E-03
DAV:  13    -0.103682814784E+03    0.18241E-05   -0.63335E-08 88248   0.102E-03    0.591E-04
DAV:  14    -0.103682813905E+03    0.87863E-06   -0.23322E-08 56384   0.499E-04    0.859E-05
DAV:  15    -0.103682813870E+03    0.35492E-07   -0.22662E-09 46856   0.191E-04    0.479E-05
DAV:  16    -0.103682813897E+03   -0.27034E-07   -0.22546E-10 46408   0.891E-05    0.181E-05
DAV:  17    -0.103682813895E+03    0.12406E-08    0.28597E-10 46520   0.299E-05
   1 F= -.10368281E+03 E0= -.10368224E+03  d E =-.115298E-02
