 vasp.4.6.28 25Jul05 complex 
 executed on             LinuxIFC date 2017.01.13  01:33:04
 running on    8 nodes
 distr:  one band on    1 nodes,    8 groups


--------------------------------------------------------------------------------------------------------


 INCAR:
 POTCAR:   PAW_PBE Au 06Sep2000                   
 POTCAR:   PAW_PBE Au 06Sep2000                   
   VRHFIN =Au: s1d10                                                            
   LEXCH  = PE                                                                  
   EATOM  =   926.0567 eV,   68.0632 Ry                                         
                                                                                
   TITEL  = PAW_PBE Au 06Sep2000                                                
   LULTRA =        F    use ultrasoft PP ?                                      
   IUNSCR =        1    unscreen: 0-lin 1-nonlin 2-no                           
   RPACOR =    2.330    partial core radius                                     
   POMASS =  196.966; ZVAL   =   11.000    mass and valenz                      
   RCORE  =    2.500    outmost cutoff radius                                   
   RWIGS  =    2.840; RWIGS  =    1.503    wigner-seitz radius (au A)           
   ENMAX  =  229.948; ENMIN  =  172.461 eV                                      
   RCLOC  =    1.964    cutoff for local pot                                    
   LCOR   =        T    correct aug charges                                     
   LPAW   =        T    paw PP                                                  
   EAUG   =  356.670                                                            
   DEXC   =    -.025                                                            
   RMAX   =    3.041    core radius for proj-oper                               
   RAUG   =    1.300    factor for augmentation sphere                          
   RDEP   =    2.598    radius for radial grids                                 
   QCUT   =   -4.111; QGAM   =    8.222    optimization parameters              
                                                                                
   Description                                                                  
     l     E      TYP  RCUT    TYP  RCUT                                        
     2   .000     23  2.500                                                     
     2   .000     23  2.500                                                     
     0   .000     23  2.500                                                     
     0   .000     23  2.500                                                     
     1  -.200     23  2.500                                                     
     1   .000     23  2.500                                                     
     3   .000      7   .000                                                     
  local pseudopotential read in
  partial core-charges read in
  atomic valenz-charges read in
  non local Contribution for L=           2  read in
    real space projection operators read in
  non local Contribution for L=           2  read in
    real space projection operators read in
  non local Contribution for L=           0  read in
    real space projection operators read in
  non local Contribution for L=           0  read in
    real space projection operators read in
  non local Contribution for L=           1  read in
    real space projection operators read in
  non local Contribution for L=           1  read in
    real space projection operators read in
    PAW grid and wavefunctions read in
 
   number of l-projection  operators is LMAX  =           6
   number of lm-projection operators is LMMAX =          18
 

 ----------------------------------------------------------------------------- 
|                                                                             |
|  ADVICE TO THIS USER RUNNING 'VASP/VAMP'   (HEAR YOUR MASTER'S VOICE ...):  |
|                                                                             |
|      You have a (more or less) 'large supercell' and for larger cells       |
|      it might be more efficient to use real space projection operators      |
|      So try LREAL= Auto  in the INCAR   file.                               |
|      Mind: If you want to do an extremely accurate calculations keep the    |
|      reciprocal projection scheme          (i.e. LREAL=.FALSE.)             |
|                                                                             |
 ----------------------------------------------------------------------------- 

 PAW_PBE Au 06Sep2000                   :
 energy of atom  1       EATOM= -926.0567
 kinetic energy error for atom=    0.0008 (will be added to EATOM!!)
 
 EXHCAR: internal setup
 exchange correlation table for  LEXCH =        8
   RHO(1)=    0.500       N(1)  =     2000
   RHO(2)=  100.500       N(2)  =     4000
 
 POSCAR: Au                                      
  positions in direct lattice
  No initial velocities read in
 


--------------------------------------------------------------------------------------------------------


 ion  position               nearest neighbor table
   1  0.001  0.000  0.000-   9 2.88  11 2.88  17 2.88  21 2.88  25 2.89  27 2.89  29 2.89  31 2.89
                            10 2.90  18 2.90  12 2.90  22 2.90
   2  0.500  0.000  0.000-   9 2.89  10 2.89  11 2.89  12 2.89  17 2.89  18 2.89  21 2.89  22 2.89
                            26 2.89  28 2.89  30 2.89  32 2.89
   3  0.000  0.500  0.000-   9 2.89  10 2.89  11 2.89  12 2.89  19 2.89  20 2.89  23 2.89  24 2.89
                            25 2.89  27 2.89  29 2.89  31 2.89
   4  0.500  0.500  0.000-   9 2.89  10 2.89  11 2.89  12 2.89  19 2.89  20 2.89  23 2.89  24 2.89
                            26 2.89  28 2.89  30 2.89  32 2.89
   5  0.000  0.000  0.500-  13 2.89  14 2.89  15 2.89  16 2.89  17 2.89  18 2.89  21 2.89  22 2.89
                            25 2.89  27 2.89  29 2.89  31 2.89
   6  0.500  0.000  0.500-  13 2.89  14 2.89  15 2.89  16 2.89  17 2.89  18 2.89  21 2.89  22 2.89
                            26 2.89  28 2.89  30 2.89  32 2.89
   7  0.000  0.500  0.500-  13 2.89  14 2.89  15 2.89  16 2.89  19 2.89  20 2.89  23 2.89  24 2.89
                            25 2.89  27 2.89  29 2.89  31 2.89
   8  0.500  0.500  0.500-  13 2.89  14 2.89  15 2.89  16 2.89  19 2.89  20 2.89  23 2.89  24 2.89
                            26 2.89  28 2.89  30 2.89  32 2.89
   9  0.250  0.250  0.000-   1 2.88   2 2.89   3 2.89   4 2.89  17 2.89  19 2.89  21 2.89  23 2.89
                            25 2.89  26 2.89  29 2.89  30 2.89
  10  0.750  0.250  0.000-   2 2.89   3 2.89   4 2.89  18 2.89  20 2.89  22 2.89  24 2.89  25 2.89
                            26 2.89  29 2.89  30 2.89   1 2.90
  11  0.250  0.750  0.000-   1 2.88   2 2.89   3 2.89   4 2.89  17 2.89  19 2.89  21 2.89  23 2.89
                            27 2.89  28 2.89  31 2.89  32 2.89
  12  0.750  0.750  0.000-   2 2.89   3 2.89   4 2.89  18 2.89  20 2.89  22 2.89  24 2.89  27 2.89
                            28 2.89  31 2.89  32 2.89   1 2.90
  13  0.250  0.250  0.500-   5 2.89   6 2.89   7 2.89   8 2.89  17 2.89  19 2.89  21 2.89  23 2.89
                            25 2.89  26 2.89  29 2.89  30 2.89
  14  0.750  0.250  0.500-   5 2.89   6 2.89   7 2.89   8 2.89  18 2.89  20 2.89  22 2.89  24 2.89
                            25 2.89  26 2.89  29 2.89  30 2.89
  15  0.250  0.750  0.500-   5 2.89   6 2.89   7 2.89   8 2.89  17 2.89  19 2.89  21 2.89  23 2.89
                            27 2.89  28 2.89  31 2.89  32 2.89
  16  0.750  0.750  0.500-   5 2.89   6 2.89   7 2.89   8 2.89  18 2.89  20 2.89  22 2.89  24 2.89
                            27 2.89  28 2.89  31 2.89  32 2.89
  17  0.250  0.000  0.250-   1 2.88   2 2.89   5 2.89   6 2.89   9 2.89  11 2.89  13 2.89  15 2.89
                            25 2.89  26 2.89  27 2.89  28 2.89
  18  0.750  0.000  0.250-   2 2.89   5 2.89   6 2.89  10 2.89  12 2.89  14 2.89  16 2.89  25 2.89
                            26 2.89  27 2.89  28 2.89   1 2.90
  19  0.250  0.500  0.250-   3 2.89   4 2.89   7 2.89   8 2.89   9 2.89  11 2.89  13 2.89  15 2.89
                            25 2.89  26 2.89  27 2.89  28 2.89
  20  0.750  0.500  0.250-   3 2.89   4 2.89   7 2.89   8 2.89  10 2.89  12 2.89  14 2.89  16 2.89
                            25 2.89  26 2.89  27 2.89  28 2.89
  21  0.250  0.000  0.750-   1 2.88   2 2.89   5 2.89   6 2.89   9 2.89  11 2.89  13 2.89  15 2.89
                            29 2.89  30 2.89  31 2.89  32 2.89
  22  0.750  0.000  0.750-   2 2.89   5 2.89   6 2.89  10 2.89  12 2.89  14 2.89  16 2.89  29 2.89
                            30 2.89  31 2.89  32 2.89   1 2.90
  23  0.250  0.500  0.750-   3 2.89   4 2.89   7 2.89   8 2.89   9 2.89  11 2.89  13 2.89  15 2.89
                            29 2.89  30 2.89  31 2.89  32 2.89
  24  0.750  0.500  0.750-   3 2.89   4 2.89   7 2.89   8 2.89  10 2.89  12 2.89  14 2.89  16 2.89
                            29 2.89  30 2.89  31 2.89  32 2.89
  25  0.000  0.250  0.250-   3 2.89   5 2.89   7 2.89   9 2.89  10 2.89  13 2.89  14 2.89  17 2.89
                            18 2.89  19 2.89  20 2.89   1 2.89
  26  0.500  0.250  0.250-   2 2.89   4 2.89   6 2.89   8 2.89   9 2.89  10 2.89  13 2.89  14 2.89
                            17 2.89  18 2.89  19 2.89  20 2.89
  27  0.000  0.750  0.250-   3 2.89   5 2.89   7 2.89  11 2.89  12 2.89  15 2.89  16 2.89  17 2.89
                            18 2.89  19 2.89  20 2.89   1 2.89
  28  0.500  0.750  0.250-   2 2.89   4 2.89   6 2.89   8 2.89  11 2.89  12 2.89  15 2.89  16 2.89
                            17 2.89  18 2.89  19 2.89  20 2.89
  29  0.000  0.250  0.750-   3 2.89   5 2.89   7 2.89   9 2.89  10 2.89  13 2.89  14 2.89  21 2.89
                            22 2.89  23 2.89  24 2.89   1 2.89
  30  0.500  0.250  0.750-   2 2.89   4 2.89   6 2.89   8 2.89   9 2.89  10 2.89  13 2.89  14 2.89
                            21 2.89  22 2.89  23 2.89  24 2.89
  31  0.000  0.750  0.750-   3 2.89   5 2.89   7 2.89  11 2.89  12 2.89  15 2.89  16 2.89  21 2.89
                            22 2.89  23 2.89  24 2.89   1 2.89
  32  0.500  0.750  0.750-   2 2.89   4 2.89   6 2.89   8 2.89  11 2.89  12 2.89  15 2.89  16 2.89
                            21 2.89  22 2.89  23 2.89  24 2.89
 
  LATTYP: Found a simple cubic cell.
 ALAT       =     8.1787897285
  
  Lattice vectors:
  
 A1 = (   8.1787897285,   0.0000000000,   0.0000000000)
 A2 = (   0.0000000000,   8.1787897285,   0.0000000000)
 A3 = (   0.0000000000,   0.0000000000,   8.1787897285)
 Subroutine PRICEL returns:
 Original cell was already a primitive cell.
 

Analysis of symmetry for initial positions (statically):

 Routine SETGRP: Setting up the symmetry group for a 
 simple cubic supercell.


 Subroutine GETGRP returns: Found  8 space group operations
 (whereof  8 operations were pure point group operations)
 out of a pool of 48 trial point group operations.


The static configuration has the point symmetry C_4v.

Analysis of symmetry for dynamics (positions and initial velocities):

 Subroutine DYNSYM returns: Found  8 space group operations
 (whereof  8 operations were pure point group operations)
 out of a pool of  8 trial space group operations
 (whereof  8 operations were pure point group operations)
 and found also     1 'primitive' translations


The dynamic configuration has the point symmetry C_4v.
 
 
 KPOINTS: Automatic mesh                          

Automatic generation of k-mesh.
 
 Subroutine IBZKPT returns following result:
 ===========================================
 
 Found    196 irreducible k-points:
 
 Following reciprocal coordinates:
            Coordinates               Weight
  0.000000  0.000000  0.000000      1.000000
  0.083333  0.000000  0.000000      2.000000
  0.166667  0.000000  0.000000      2.000000
  0.250000  0.000000  0.000000      2.000000
  0.333333  0.000000  0.000000      2.000000
  0.416667  0.000000  0.000000      2.000000
  0.500000  0.000000  0.000000      1.000000
  0.000000  0.083333  0.000000      4.000000
  0.083333  0.083333  0.000000      8.000000
  0.166667  0.083333  0.000000      8.000000
  0.250000  0.083333  0.000000      8.000000
  0.333333  0.083333  0.000000      8.000000
  0.416667  0.083333  0.000000      8.000000
  0.500000  0.083333  0.000000      4.000000
  0.000000  0.166667  0.000000      4.000000
  0.083333  0.166667  0.000000      8.000000
  0.166667  0.166667  0.000000      8.000000
  0.250000  0.166667  0.000000      8.000000
  0.333333  0.166667  0.000000      8.000000
  0.416667  0.166667  0.000000      8.000000
  0.500000  0.166667  0.000000      4.000000
  0.000000  0.250000  0.000000      4.000000
  0.083333  0.250000  0.000000      8.000000
  0.166667  0.250000  0.000000      8.000000
  0.250000  0.250000  0.000000      8.000000
  0.333333  0.250000  0.000000      8.000000
  0.416667  0.250000  0.000000      8.000000
  0.500000  0.250000  0.000000      4.000000
  0.000000  0.333333  0.000000      4.000000
  0.083333  0.333333  0.000000      8.000000
  0.166667  0.333333  0.000000      8.000000
  0.250000  0.333333  0.000000      8.000000
  0.333333  0.333333  0.000000      8.000000
  0.416667  0.333333  0.000000      8.000000
  0.500000  0.333333  0.000000      4.000000
  0.000000  0.416667  0.000000      4.000000
  0.083333  0.416667  0.000000      8.000000
  0.166667  0.416667  0.000000      8.000000
  0.250000  0.416667  0.000000      8.000000
  0.333333  0.416667  0.000000      8.000000
  0.416667  0.416667  0.000000      8.000000
  0.500000  0.416667  0.000000      4.000000
  0.000000  0.500000  0.000000      2.000000
  0.083333  0.500000  0.000000      4.000000
  0.166667  0.500000  0.000000      4.000000
  0.250000  0.500000  0.000000      4.000000
  0.333333  0.500000  0.000000      4.000000
  0.416667  0.500000  0.000000      4.000000
  0.500000  0.500000  0.000000      2.000000
  0.000000  0.083333  0.083333      4.000000
  0.083333  0.083333  0.083333      8.000000
  0.166667  0.083333  0.083333      8.000000
  0.250000  0.083333  0.083333      8.000000
  0.333333  0.083333  0.083333      8.000000
  0.416667  0.083333  0.083333      8.000000
  0.500000  0.083333  0.083333      4.000000
  0.000000  0.166667  0.083333      8.000000
  0.083333  0.166667  0.083333     16.000000
  0.166667  0.166667  0.083333     16.000000
  0.250000  0.166667  0.083333     16.000000
  0.333333  0.166667  0.083333     16.000000
  0.416667  0.166667  0.083333     16.000000
  0.500000  0.166667  0.083333      8.000000
  0.000000  0.250000  0.083333      8.000000
  0.083333  0.250000  0.083333     16.000000
  0.166667  0.250000  0.083333     16.000000
  0.250000  0.250000  0.083333     16.000000
  0.333333  0.250000  0.083333     16.000000
  0.416667  0.250000  0.083333     16.000000
  0.500000  0.250000  0.083333      8.000000
  0.000000  0.333333  0.083333      8.000000
  0.083333  0.333333  0.083333     16.000000
  0.166667  0.333333  0.083333     16.000000
  0.250000  0.333333  0.083333     16.000000
  0.333333  0.333333  0.083333     16.000000
  0.416667  0.333333  0.083333     16.000000
  0.500000  0.333333  0.083333      8.000000
  0.000000  0.416667  0.083333      8.000000
  0.083333  0.416667  0.083333     16.000000
  0.166667  0.416667  0.083333     16.000000
  0.250000  0.416667  0.083333     16.000000
  0.333333  0.416667  0.083333     16.000000
  0.416667  0.416667  0.083333     16.000000
  0.500000  0.416667  0.083333      8.000000
  0.000000  0.500000  0.083333      4.000000
  0.083333  0.500000  0.083333      8.000000
  0.166667  0.500000  0.083333      8.000000
  0.250000  0.500000  0.083333      8.000000
  0.333333  0.500000  0.083333      8.000000
  0.416667  0.500000  0.083333      8.000000
  0.500000  0.500000  0.083333      4.000000
  0.000000  0.166667  0.166667      4.000000
  0.083333  0.166667  0.166667      8.000000
  0.166667  0.166667  0.166667      8.000000
  0.250000  0.166667  0.166667      8.000000
  0.333333  0.166667  0.166667      8.000000
  0.416667  0.166667  0.166667      8.000000
  0.500000  0.166667  0.166667      4.000000
  0.000000  0.250000  0.166667      8.000000
  0.083333  0.250000  0.166667     16.000000
  0.166667  0.250000  0.166667     16.000000
  0.250000  0.250000  0.166667     16.000000
  0.333333  0.250000  0.166667     16.000000
  0.416667  0.250000  0.166667     16.000000
  0.500000  0.250000  0.166667      8.000000
  0.000000  0.333333  0.166667      8.000000
  0.083333  0.333333  0.166667     16.000000
  0.166667  0.333333  0.166667     16.000000
  0.250000  0.333333  0.166667     16.000000
  0.333333  0.333333  0.166667     16.000000
  0.416667  0.333333  0.166667     16.000000
  0.500000  0.333333  0.166667      8.000000
  0.000000  0.416667  0.166667      8.000000
  0.083333  0.416667  0.166667     16.000000
  0.166667  0.416667  0.166667     16.000000
  0.250000  0.416667  0.166667     16.000000
  0.333333  0.416667  0.166667     16.000000
  0.416667  0.416667  0.166667     16.000000
  0.500000  0.416667  0.166667      8.000000
  0.000000  0.500000  0.166667      4.000000
  0.083333  0.500000  0.166667      8.000000
  0.166667  0.500000  0.166667      8.000000
  0.250000  0.500000  0.166667      8.000000
  0.333333  0.500000  0.166667      8.000000
  0.416667  0.500000  0.166667      8.000000
  0.500000  0.500000  0.166667      4.000000
  0.000000  0.250000  0.250000      4.000000
  0.083333  0.250000  0.250000      8.000000
  0.166667  0.250000  0.250000      8.000000
  0.250000  0.250000  0.250000      8.000000
  0.333333  0.250000  0.250000      8.000000
  0.416667  0.250000  0.250000      8.000000
  0.500000  0.250000  0.250000      4.000000
  0.000000  0.333333  0.250000      8.000000
  0.083333  0.333333  0.250000     16.000000
  0.166667  0.333333  0.250000     16.000000
  0.250000  0.333333  0.250000     16.000000
  0.333333  0.333333  0.250000     16.000000
  0.416667  0.333333  0.250000     16.000000
  0.500000  0.333333  0.250000      8.000000
  0.000000  0.416667  0.250000      8.000000
  0.083333  0.416667  0.250000     16.000000
  0.166667  0.416667  0.250000     16.000000
  0.250000  0.416667  0.250000     16.000000
  0.333333  0.416667  0.250000     16.000000
  0.416667  0.416667  0.250000     16.000000
  0.500000  0.416667  0.250000      8.000000
  0.000000  0.500000  0.250000      4.000000
  0.083333  0.500000  0.250000      8.000000
  0.166667  0.500000  0.250000      8.000000
  0.250000  0.500000  0.250000      8.000000
  0.333333  0.500000  0.250000      8.000000
  0.416667  0.500000  0.250000      8.000000
  0.500000  0.500000  0.250000      4.000000
  0.000000  0.333333  0.333333      4.000000
  0.083333  0.333333  0.333333      8.000000
  0.166667  0.333333  0.333333      8.000000
  0.250000  0.333333  0.333333      8.000000
  0.333333  0.333333  0.333333      8.000000
  0.416667  0.333333  0.333333      8.000000
  0.500000  0.333333  0.333333      4.000000
  0.000000  0.416667  0.333333      8.000000
  0.083333  0.416667  0.333333     16.000000
  0.166667  0.416667  0.333333     16.000000
  0.250000  0.416667  0.333333     16.000000
  0.333333  0.416667  0.333333     16.000000
  0.416667  0.416667  0.333333     16.000000
  0.500000  0.416667  0.333333      8.000000
  0.000000  0.500000  0.333333      4.000000
  0.083333  0.500000  0.333333      8.000000
  0.166667  0.500000  0.333333      8.000000
  0.250000  0.500000  0.333333      8.000000
  0.333333  0.500000  0.333333      8.000000
  0.416667  0.500000  0.333333      8.000000
  0.500000  0.500000  0.333333      4.000000
  0.000000  0.416667  0.416667      4.000000
  0.083333  0.416667  0.416667      8.000000
  0.166667  0.416667  0.416667      8.000000
  0.250000  0.416667  0.416667      8.000000
  0.333333  0.416667  0.416667      8.000000
  0.416667  0.416667  0.416667      8.000000
  0.500000  0.416667  0.416667      4.000000
  0.000000  0.500000  0.416667      4.000000
  0.083333  0.500000  0.416667      8.000000
  0.166667  0.500000  0.416667      8.000000
  0.250000  0.500000  0.416667      8.000000
  0.333333  0.500000  0.416667      8.000000
  0.416667  0.500000  0.416667      8.000000
  0.500000  0.500000  0.416667      4.000000
  0.000000  0.500000  0.500000      1.000000
  0.083333  0.500000  0.500000      2.000000
  0.166667  0.500000  0.500000      2.000000
  0.250000  0.500000  0.500000      2.000000
  0.333333  0.500000  0.500000      2.000000
  0.416667  0.500000  0.500000      2.000000
  0.500000  0.500000  0.500000      1.000000
 
 Following cartesian coordinates:
            Coordinates               Weight
  0.000000  0.000000  0.000000      1.000000
  0.010189  0.000000  0.000000      2.000000
  0.020378  0.000000  0.000000      2.000000
  0.030567  0.000000  0.000000      2.000000
  0.040756  0.000000  0.000000      2.000000
  0.050945  0.000000  0.000000      2.000000
  0.061134  0.000000  0.000000      1.000000
  0.000000  0.010189  0.000000      4.000000
  0.010189  0.010189  0.000000      8.000000
  0.020378  0.010189  0.000000      8.000000
  0.030567  0.010189  0.000000      8.000000
  0.040756  0.010189  0.000000      8.000000
  0.050945  0.010189  0.000000      8.000000
  0.061134  0.010189  0.000000      4.000000
  0.000000  0.020378  0.000000      4.000000
  0.010189  0.020378  0.000000      8.000000
  0.020378  0.020378  0.000000      8.000000
  0.030567  0.020378  0.000000      8.000000
  0.040756  0.020378  0.000000      8.000000
  0.050945  0.020378  0.000000      8.000000
  0.061134  0.020378  0.000000      4.000000
  0.000000  0.030567  0.000000      4.000000
  0.010189  0.030567  0.000000      8.000000
  0.020378  0.030567  0.000000      8.000000
  0.030567  0.030567  0.000000      8.000000
  0.040756  0.030567  0.000000      8.000000
  0.050945  0.030567  0.000000      8.000000
  0.061134  0.030567  0.000000      4.000000
  0.000000  0.040756  0.000000      4.000000
  0.010189  0.040756  0.000000      8.000000
  0.020378  0.040756  0.000000      8.000000
  0.030567  0.040756  0.000000      8.000000
  0.040756  0.040756  0.000000      8.000000
  0.050945  0.040756  0.000000      8.000000
  0.061134  0.040756  0.000000      4.000000
  0.000000  0.050945  0.000000      4.000000
  0.010189  0.050945  0.000000      8.000000
  0.020378  0.050945  0.000000      8.000000
  0.030567  0.050945  0.000000      8.000000
  0.040756  0.050945  0.000000      8.000000
  0.050945  0.050945  0.000000      8.000000
  0.061134  0.050945  0.000000      4.000000
  0.000000  0.061134  0.000000      2.000000
  0.010189  0.061134  0.000000      4.000000
  0.020378  0.061134  0.000000      4.000000
  0.030567  0.061134  0.000000      4.000000
  0.040756  0.061134  0.000000      4.000000
  0.050945  0.061134  0.000000      4.000000
  0.061134  0.061134  0.000000      2.000000
  0.000000  0.010189  0.010189      4.000000
  0.010189  0.010189  0.010189      8.000000
  0.020378  0.010189  0.010189      8.000000
  0.030567  0.010189  0.010189      8.000000
  0.040756  0.010189  0.010189      8.000000
  0.050945  0.010189  0.010189      8.000000
  0.061134  0.010189  0.010189      4.000000
  0.000000  0.020378  0.010189      8.000000
  0.010189  0.020378  0.010189     16.000000
  0.020378  0.020378  0.010189     16.000000
  0.030567  0.020378  0.010189     16.000000
  0.040756  0.020378  0.010189     16.000000
  0.050945  0.020378  0.010189     16.000000
  0.061134  0.020378  0.010189      8.000000
  0.000000  0.030567  0.010189      8.000000
  0.010189  0.030567  0.010189     16.000000
  0.020378  0.030567  0.010189     16.000000
  0.030567  0.030567  0.010189     16.000000
  0.040756  0.030567  0.010189     16.000000
  0.050945  0.030567  0.010189     16.000000
  0.061134  0.030567  0.010189      8.000000
  0.000000  0.040756  0.010189      8.000000
  0.010189  0.040756  0.010189     16.000000
  0.020378  0.040756  0.010189     16.000000
  0.030567  0.040756  0.010189     16.000000
  0.040756  0.040756  0.010189     16.000000
  0.050945  0.040756  0.010189     16.000000
  0.061134  0.040756  0.010189      8.000000
  0.000000  0.050945  0.010189      8.000000
  0.010189  0.050945  0.010189     16.000000
  0.020378  0.050945  0.010189     16.000000
  0.030567  0.050945  0.010189     16.000000
  0.040756  0.050945  0.010189     16.000000
  0.050945  0.050945  0.010189     16.000000
  0.061134  0.050945  0.010189      8.000000
  0.000000  0.061134  0.010189      4.000000
  0.010189  0.061134  0.010189      8.000000
  0.020378  0.061134  0.010189      8.000000
  0.030567  0.061134  0.010189      8.000000
  0.040756  0.061134  0.010189      8.000000
  0.050945  0.061134  0.010189      8.000000
  0.061134  0.061134  0.010189      4.000000
  0.000000  0.020378  0.020378      4.000000
  0.010189  0.020378  0.020378      8.000000
  0.020378  0.020378  0.020378      8.000000
  0.030567  0.020378  0.020378      8.000000
  0.040756  0.020378  0.020378      8.000000
  0.050945  0.020378  0.020378      8.000000
  0.061134  0.020378  0.020378      4.000000
  0.000000  0.030567  0.020378      8.000000
  0.010189  0.030567  0.020378     16.000000
  0.020378  0.030567  0.020378     16.000000
  0.030567  0.030567  0.020378     16.000000
  0.040756  0.030567  0.020378     16.000000
  0.050945  0.030567  0.020378     16.000000
  0.061134  0.030567  0.020378      8.000000
  0.000000  0.040756  0.020378      8.000000
  0.010189  0.040756  0.020378     16.000000
  0.020378  0.040756  0.020378     16.000000
  0.030567  0.040756  0.020378     16.000000
  0.040756  0.040756  0.020378     16.000000
  0.050945  0.040756  0.020378     16.000000
  0.061134  0.040756  0.020378      8.000000
  0.000000  0.050945  0.020378      8.000000
  0.010189  0.050945  0.020378     16.000000
  0.020378  0.050945  0.020378     16.000000
  0.030567  0.050945  0.020378     16.000000
  0.040756  0.050945  0.020378     16.000000
  0.050945  0.050945  0.020378     16.000000
  0.061134  0.050945  0.020378      8.000000
  0.000000  0.061134  0.020378      4.000000
  0.010189  0.061134  0.020378      8.000000
  0.020378  0.061134  0.020378      8.000000
  0.030567  0.061134  0.020378      8.000000
  0.040756  0.061134  0.020378      8.000000
  0.050945  0.061134  0.020378      8.000000
  0.061134  0.061134  0.020378      4.000000
  0.000000  0.030567  0.030567      4.000000
  0.010189  0.030567  0.030567      8.000000
  0.020378  0.030567  0.030567      8.000000
  0.030567  0.030567  0.030567      8.000000
  0.040756  0.030567  0.030567      8.000000
  0.050945  0.030567  0.030567      8.000000
  0.061134  0.030567  0.030567      4.000000
  0.000000  0.040756  0.030567      8.000000
  0.010189  0.040756  0.030567     16.000000
  0.020378  0.040756  0.030567     16.000000
  0.030567  0.040756  0.030567     16.000000
  0.040756  0.040756  0.030567     16.000000
  0.050945  0.040756  0.030567     16.000000
  0.061134  0.040756  0.030567      8.000000
  0.000000  0.050945  0.030567      8.000000
  0.010189  0.050945  0.030567     16.000000
  0.020378  0.050945  0.030567     16.000000
  0.030567  0.050945  0.030567     16.000000
  0.040756  0.050945  0.030567     16.000000
  0.050945  0.050945  0.030567     16.000000
  0.061134  0.050945  0.030567      8.000000
  0.000000  0.061134  0.030567      4.000000
  0.010189  0.061134  0.030567      8.000000
  0.020378  0.061134  0.030567      8.000000
  0.030567  0.061134  0.030567      8.000000
  0.040756  0.061134  0.030567      8.000000
  0.050945  0.061134  0.030567      8.000000
  0.061134  0.061134  0.030567      4.000000
  0.000000  0.040756  0.040756      4.000000
  0.010189  0.040756  0.040756      8.000000
  0.020378  0.040756  0.040756      8.000000
  0.030567  0.040756  0.040756      8.000000
  0.040756  0.040756  0.040756      8.000000
  0.050945  0.040756  0.040756      8.000000
  0.061134  0.040756  0.040756      4.000000
  0.000000  0.050945  0.040756      8.000000
  0.010189  0.050945  0.040756     16.000000
  0.020378  0.050945  0.040756     16.000000
  0.030567  0.050945  0.040756     16.000000
  0.040756  0.050945  0.040756     16.000000
  0.050945  0.050945  0.040756     16.000000
  0.061134  0.050945  0.040756      8.000000
  0.000000  0.061134  0.040756      4.000000
  0.010189  0.061134  0.040756      8.000000
  0.020378  0.061134  0.040756      8.000000
  0.030567  0.061134  0.040756      8.000000
  0.040756  0.061134  0.040756      8.000000
  0.050945  0.061134  0.040756      8.000000
  0.061134  0.061134  0.040756      4.000000
  0.000000  0.050945  0.050945      4.000000
  0.010189  0.050945  0.050945      8.000000
  0.020378  0.050945  0.050945      8.000000
  0.030567  0.050945  0.050945      8.000000
  0.040756  0.050945  0.050945      8.000000
  0.050945  0.050945  0.050945      8.000000
  0.061134  0.050945  0.050945      4.000000
  0.000000  0.061134  0.050945      4.000000
  0.010189  0.061134  0.050945      8.000000
  0.020378  0.061134  0.050945      8.000000
  0.030567  0.061134  0.050945      8.000000
  0.040756  0.061134  0.050945      8.000000
  0.050945  0.061134  0.050945      8.000000
  0.061134  0.061134  0.050945      4.000000
  0.000000  0.061134  0.061134      1.000000
  0.010189  0.061134  0.061134      2.000000
  0.020378  0.061134  0.061134      2.000000
  0.030567  0.061134  0.061134      2.000000
  0.040756  0.061134  0.061134      2.000000
  0.050945  0.061134  0.061134      2.000000
  0.061134  0.061134  0.061134      1.000000
 


--------------------------------------------------------------------------------------------------------




 Dimension of arrays:
   k-Points           NKPTS =    196   number of bands    NBANDS=    216
   number of dos      NEDOS =    301   number of ions     NIONS =     32
   non local maximal  LDIM  =      6   non local SUM 2l+1 LMDIM =     18
   total plane-waves  NPLWV = 512000
   max r-space proj   IRMAX =      1   max aug-charges    IRDMAX= 457984
   dimension x,y,z NGX =    80 NGY =   80 NGZ =   80
   dimension x,y,z NGXF=   160 NGYF=  160 NGZF=  160
   support grid    NGXF=   320 NGYF=  320 NGZF=  320
   ions per type =              32
 NGX,Y,Z   is equivalent  to a cutoff of  16.26, 16.26, 16.26 a.u.
 NGXF,Y,Z  is equivalent  to a cutoff of  32.52, 32.52, 32.52 a.u.


 I would recommend the setting:
   dimension x,y,z NGX =    73 NGY =   73 NGZ =   73
 SYSTEM =  unknown system                          
 POSCAR =  Au                                      

 Startparameter for this run:
   NWRITE =      2    write-flag & timer
   PREC   = accura    medium, high low
   ISTART =      0    job   : 0-new  1-cont  2-samecut
   ICHARG =      2    charge: 1-file 2-atom 10-const
   ISPIN  =      1    spin polarized calculation?
   LNONCOLLINEAR =      F non collinear calculations
   LSORBIT =      F    spin-orbit coupling
   INIWAV =      1    electr: 0-lowe 1-rand  2-diag
   LASPH  =      F    aspherical Exc in radial PAW
   METAGGA=      F    non-selfconsistent MetaGGA calc.

 Electronic Relaxation 1
   ENCUT  =  750.0 eV  55.12 Ry    7.42 a.u.  18.26 18.26 18.26*2*pi/ulx,y,z
   ENINI  =  750.0     initial cutoff
   ENAUG  =  356.7 eV  augmentation charge cutoff
   NELM   =     60;   NELMIN=  2; NELMDL=  0     # of ELM steps 
   EDIFF  = 0.1E-07   stopping-criterion for ELM
   LREAL  =      F    real-space projection
   LCOMPAT=      F    compatible to vasp.4.4
   LREAL_COMPAT= F    compatible to vasp.4.5.1-3
   GGA_COMPAT  = T    GGA compatible to vasp.4.4-vasp.4.6
   LMAXPAW     = -100 max onsite density
   LMAXMIX     =    2 max onsite mixed and CHGCAR
   VOSKOWN=      0    Vosko Wilk Nusair interpolation
   ROPT   =    0.00000
 Ionic relaxation
   EDIFFG = 0.1E-06   stopping-criterion for IOM
   NSW    =      0    number of steps for IOM
   NBLOCK =      1;   KBLOCK =      1    inner block; outer block 
   IBRION =     -1    ionic relax: 0-MD 1-quasi-New 2-CG
   NFREE  =      0    steps in history (QN), initial steepest desc. (CG)
   ISIF   =      2    stress and relaxation
   IWAVPR =     10    prediction:  0-non 1-charg 2-wave 3-comb
   ISYM   =      2    0-nonsym 1-usesym 2-fastsym
   LCORR  =      T    Harris-Foulkes like correction to forces

   POTIM  =   0.50    time-step for ionic-motion
   TEIN   =    0.0    initial temperature
   TEBEG  =    0.0;   TEEND  =   0.0 temperature during run
   SMASS  =  -3.00    Nose mass-parameter (am)
   estimated Nose-frequenzy (Omega)   =  0.10E-29 period in steps =****** mass=  -0.153E-26a.u.
   NPACO  =    256;   APACO  = 16.0  distance and # of slots for P.C.
   PSTRESS=    0.0 pullay stress

  Mass of Ions in am
   POMASS = 196.97
  Ionic Valenz
   ZVAL   =  11.00
  Atomic Wigner-Seitz radii
   RWIGS  =  -1.00
   NELECT =     352.0000    total number of electrons
   NUPDOWN=      -1.0000    fix difference up-down

 DOS related values:
   EMIN   =  10.00;   EMAX   =-10.00  energy-range for DOS
   ISMEAR =     0;   SIGMA  =   0.01  broadening in eV -4-tet -1-fermi 0-gaus

 Electronic relaxation 2 (details)
   IALGO  =     38    algorithm
   LDIAG  =      T    sub-space diagonalisation
   IMIX   =      4    mixing-type and parameters
     AMIX     =   0.40;   BMIX     =  1.00
     AMIX_MAG =   1.60;   BMIX_MAG =  1.00
     AMIN     =   0.10
     WC   =   100.;   INIMIX=   1;  MIXPRE=   1

 Intra band minimization:
   WEIMIN = 0.0000     energy-eigenvalue tresh-hold
   EBREAK =  0.12E-10  absolut break condition
   DEPER  =   0.30     relativ break condition  

   TIME   =   0.10     timestep for ELM

  volume/ion in A,a.u.               =      17.10       115.38
  Fermi-wavevector in a.u.,eV,Ry     =   1.413297 27.176379  1.997408

 Second variation
   LSECVAR=     F    do a second variation
 
 Write flags
   LWAVE  =      F    write WAVECAR
   LCHARG =      F    write CHGCAR
   LVTOT  =      F    write LOCPOT, local potential
   LELF   =      F    write electronic localiz. function (ELF)
   LORBIT =      0    0 simple, 1 ext, 2 COOP (PROOUT)


 Dipole corrections
   IDIPOL =      0    1-x, 2-y, 3-z
   LDIPOL =      F    correct potential



--------------------------------------------------------------------------------------------------------


 Static calculation
 charge density will be updated during run
 non-spin polarized calculation
 Variant of blocked Davidson
 Davidson routine will perform the subspace rotation
 performe sub-space diagonalisation
    after iterative eigenvector-optimisation
 modified Broyden-mixing scheme, WC =      100.0
 initial mixing is a Kerker type mixing with AMIX =  0.4000 and BMIX =      1.0000
 Hartree-type preconditioning will be used
 using additional bands           40
 reciprocal scheme for non local part
 use partial core corrections
 calculate Harris-corrections to forces 
   (improved forces if not selfconsistent)
 use gradient corrections 
 use of overlap-Matrix (Vanderbilt PP)
 Gauss-broadening in eV      SIGMA  =   0.01


--------------------------------------------------------------------------------------------------------


  energy-cutoff  :      750.00
  volume of cell :      547.10
      direct lattice vectors                 reciprocal lattice vectors
     8.178789729  0.000000000  0.000000000     0.122267479  0.000000000  0.000000000
     0.000000000  8.178789729  0.000000000     0.000000000  0.122267479  0.000000000
     0.000000000  0.000000000  8.178789729     0.000000000  0.000000000  0.122267479

  length of vectors
     8.178789729  8.178789729  8.178789729     0.122267479  0.122267479  0.122267479


 
 k-points in units of 2pi/SCALE and weight: Automatic mesh                          
   0.00000000  0.00000000  0.00000000       0.001
   0.01018896  0.00000000  0.00000000       0.001
   0.02037791  0.00000000  0.00000000       0.001
   0.03056687  0.00000000  0.00000000       0.001
   0.04075583  0.00000000  0.00000000       0.001
   0.05094478  0.00000000  0.00000000       0.001
   0.06113374  0.00000000  0.00000000       0.001
   0.00000000  0.01018896  0.00000000       0.002
   0.01018896  0.01018896  0.00000000       0.005
   0.02037791  0.01018896  0.00000000       0.005
   0.03056687  0.01018896  0.00000000       0.005
   0.04075583  0.01018896  0.00000000       0.005
   0.05094478  0.01018896  0.00000000       0.005
   0.06113374  0.01018896  0.00000000       0.002
   0.00000000  0.02037791  0.00000000       0.002
   0.01018896  0.02037791  0.00000000       0.005
   0.02037791  0.02037791  0.00000000       0.005
   0.03056687  0.02037791  0.00000000       0.005
   0.04075583  0.02037791  0.00000000       0.005
   0.05094478  0.02037791  0.00000000       0.005
   0.06113374  0.02037791  0.00000000       0.002
   0.00000000  0.03056687  0.00000000       0.002
   0.01018896  0.03056687  0.00000000       0.005
   0.02037791  0.03056687  0.00000000       0.005
   0.03056687  0.03056687  0.00000000       0.005
   0.04075583  0.03056687  0.00000000       0.005
   0.05094478  0.03056687  0.00000000       0.005
   0.06113374  0.03056687  0.00000000       0.002
   0.00000000  0.04075583  0.00000000       0.002
   0.01018896  0.04075583  0.00000000       0.005
   0.02037791  0.04075583  0.00000000       0.005
   0.03056687  0.04075583  0.00000000       0.005
   0.04075583  0.04075583  0.00000000       0.005
   0.05094478  0.04075583  0.00000000       0.005
   0.06113374  0.04075583  0.00000000       0.002
   0.00000000  0.05094478  0.00000000       0.002
   0.01018896  0.05094478  0.00000000       0.005
   0.02037791  0.05094478  0.00000000       0.005
   0.03056687  0.05094478  0.00000000       0.005
   0.04075583  0.05094478  0.00000000       0.005
   0.05094478  0.05094478  0.00000000       0.005
   0.06113374  0.05094478  0.00000000       0.002
   0.00000000  0.06113374  0.00000000       0.001
   0.01018896  0.06113374  0.00000000       0.002
   0.02037791  0.06113374  0.00000000       0.002
   0.03056687  0.06113374  0.00000000       0.002
   0.04075583  0.06113374  0.00000000       0.002
   0.05094478  0.06113374  0.00000000       0.002
   0.06113374  0.06113374  0.00000000       0.001
   0.00000000  0.01018896  0.01018896       0.002
   0.01018896  0.01018896  0.01018896       0.005
   0.02037791  0.01018896  0.01018896       0.005
   0.03056687  0.01018896  0.01018896       0.005
   0.04075583  0.01018896  0.01018896       0.005
   0.05094478  0.01018896  0.01018896       0.005
   0.06113374  0.01018896  0.01018896       0.002
   0.00000000  0.02037791  0.01018896       0.005
   0.01018896  0.02037791  0.01018896       0.009
   0.02037791  0.02037791  0.01018896       0.009
   0.03056687  0.02037791  0.01018896       0.009
   0.04075583  0.02037791  0.01018896       0.009
   0.05094478  0.02037791  0.01018896       0.009
   0.06113374  0.02037791  0.01018896       0.005
   0.00000000  0.03056687  0.01018896       0.005
   0.01018896  0.03056687  0.01018896       0.009
   0.02037791  0.03056687  0.01018896       0.009
   0.03056687  0.03056687  0.01018896       0.009
   0.04075583  0.03056687  0.01018896       0.009
   0.05094478  0.03056687  0.01018896       0.009
   0.06113374  0.03056687  0.01018896       0.005
   0.00000000  0.04075583  0.01018896       0.005
   0.01018896  0.04075583  0.01018896       0.009
   0.02037791  0.04075583  0.01018896       0.009
   0.03056687  0.04075583  0.01018896       0.009
   0.04075583  0.04075583  0.01018896       0.009
   0.05094478  0.04075583  0.01018896       0.009
   0.06113374  0.04075583  0.01018896       0.005
   0.00000000  0.05094478  0.01018896       0.005
   0.01018896  0.05094478  0.01018896       0.009
   0.02037791  0.05094478  0.01018896       0.009
   0.03056687  0.05094478  0.01018896       0.009
   0.04075583  0.05094478  0.01018896       0.009
   0.05094478  0.05094478  0.01018896       0.009
   0.06113374  0.05094478  0.01018896       0.005
   0.00000000  0.06113374  0.01018896       0.002
   0.01018896  0.06113374  0.01018896       0.005
   0.02037791  0.06113374  0.01018896       0.005
   0.03056687  0.06113374  0.01018896       0.005
   0.04075583  0.06113374  0.01018896       0.005
   0.05094478  0.06113374  0.01018896       0.005
   0.06113374  0.06113374  0.01018896       0.002
   0.00000000  0.02037791  0.02037791       0.002
   0.01018896  0.02037791  0.02037791       0.005
   0.02037791  0.02037791  0.02037791       0.005
   0.03056687  0.02037791  0.02037791       0.005
   0.04075583  0.02037791  0.02037791       0.005
   0.05094478  0.02037791  0.02037791       0.005
   0.06113374  0.02037791  0.02037791       0.002
   0.00000000  0.03056687  0.02037791       0.005
   0.01018896  0.03056687  0.02037791       0.009
   0.02037791  0.03056687  0.02037791       0.009
   0.03056687  0.03056687  0.02037791       0.009
   0.04075583  0.03056687  0.02037791       0.009
   0.05094478  0.03056687  0.02037791       0.009
   0.06113374  0.03056687  0.02037791       0.005
   0.00000000  0.04075583  0.02037791       0.005
   0.01018896  0.04075583  0.02037791       0.009
   0.02037791  0.04075583  0.02037791       0.009
   0.03056687  0.04075583  0.02037791       0.009
   0.04075583  0.04075583  0.02037791       0.009
   0.05094478  0.04075583  0.02037791       0.009
   0.06113374  0.04075583  0.02037791       0.005
   0.00000000  0.05094478  0.02037791       0.005
   0.01018896  0.05094478  0.02037791       0.009
   0.02037791  0.05094478  0.02037791       0.009
   0.03056687  0.05094478  0.02037791       0.009
   0.04075583  0.05094478  0.02037791       0.009
   0.05094478  0.05094478  0.02037791       0.009
   0.06113374  0.05094478  0.02037791       0.005
   0.00000000  0.06113374  0.02037791       0.002
   0.01018896  0.06113374  0.02037791       0.005
   0.02037791  0.06113374  0.02037791       0.005
   0.03056687  0.06113374  0.02037791       0.005
   0.04075583  0.06113374  0.02037791       0.005
   0.05094478  0.06113374  0.02037791       0.005
   0.06113374  0.06113374  0.02037791       0.002
   0.00000000  0.03056687  0.03056687       0.002
   0.01018896  0.03056687  0.03056687       0.005
   0.02037791  0.03056687  0.03056687       0.005
   0.03056687  0.03056687  0.03056687       0.005
   0.04075583  0.03056687  0.03056687       0.005
   0.05094478  0.03056687  0.03056687       0.005
   0.06113374  0.03056687  0.03056687       0.002
   0.00000000  0.04075583  0.03056687       0.005
   0.01018896  0.04075583  0.03056687       0.009
   0.02037791  0.04075583  0.03056687       0.009
   0.03056687  0.04075583  0.03056687       0.009
   0.04075583  0.04075583  0.03056687       0.009
   0.05094478  0.04075583  0.03056687       0.009
   0.06113374  0.04075583  0.03056687       0.005
   0.00000000  0.05094478  0.03056687       0.005
   0.01018896  0.05094478  0.03056687       0.009
   0.02037791  0.05094478  0.03056687       0.009
   0.03056687  0.05094478  0.03056687       0.009
   0.04075583  0.05094478  0.03056687       0.009
   0.05094478  0.05094478  0.03056687       0.009
   0.06113374  0.05094478  0.03056687       0.005
   0.00000000  0.06113374  0.03056687       0.002
   0.01018896  0.06113374  0.03056687       0.005
   0.02037791  0.06113374  0.03056687       0.005
   0.03056687  0.06113374  0.03056687       0.005
   0.04075583  0.06113374  0.03056687       0.005
   0.05094478  0.06113374  0.03056687       0.005
   0.06113374  0.06113374  0.03056687       0.002
   0.00000000  0.04075583  0.04075583       0.002
   0.01018896  0.04075583  0.04075583       0.005
   0.02037791  0.04075583  0.04075583       0.005
   0.03056687  0.04075583  0.04075583       0.005
   0.04075583  0.04075583  0.04075583       0.005
   0.05094478  0.04075583  0.04075583       0.005
   0.06113374  0.04075583  0.04075583       0.002
   0.00000000  0.05094478  0.04075583       0.005
   0.01018896  0.05094478  0.04075583       0.009
   0.02037791  0.05094478  0.04075583       0.009
   0.03056687  0.05094478  0.04075583       0.009
   0.04075583  0.05094478  0.04075583       0.009
   0.05094478  0.05094478  0.04075583       0.009
   0.06113374  0.05094478  0.04075583       0.005
   0.00000000  0.06113374  0.04075583       0.002
   0.01018896  0.06113374  0.04075583       0.005
   0.02037791  0.06113374  0.04075583       0.005
   0.03056687  0.06113374  0.04075583       0.005
   0.04075583  0.06113374  0.04075583       0.005
   0.05094478  0.06113374  0.04075583       0.005
   0.06113374  0.06113374  0.04075583       0.002
   0.00000000  0.05094478  0.05094478       0.002
   0.01018896  0.05094478  0.05094478       0.005
   0.02037791  0.05094478  0.05094478       0.005
   0.03056687  0.05094478  0.05094478       0.005
   0.04075583  0.05094478  0.05094478       0.005
   0.05094478  0.05094478  0.05094478       0.005
   0.06113374  0.05094478  0.05094478       0.002
   0.00000000  0.06113374  0.05094478       0.002
   0.01018896  0.06113374  0.05094478       0.005
   0.02037791  0.06113374  0.05094478       0.005
   0.03056687  0.06113374  0.05094478       0.005
   0.04075583  0.06113374  0.05094478       0.005
   0.05094478  0.06113374  0.05094478       0.005
   0.06113374  0.06113374  0.05094478       0.002
   0.00000000  0.06113374  0.06113374       0.001
   0.01018896  0.06113374  0.06113374       0.001
   0.02037791  0.06113374  0.06113374       0.001
   0.03056687  0.06113374  0.06113374       0.001
   0.04075583  0.06113374  0.06113374       0.001
   0.05094478  0.06113374  0.06113374       0.001
   0.06113374  0.06113374  0.06113374       0.001
 
 k-points in reciprocal lattice and weights: Automatic mesh                          
   0.00000000  0.00000000  0.00000000       0.001
   0.08333333  0.00000000  0.00000000       0.001
   0.16666667  0.00000000  0.00000000       0.001
   0.25000000  0.00000000  0.00000000       0.001
   0.33333333  0.00000000  0.00000000       0.001
   0.41666667  0.00000000  0.00000000       0.001
   0.50000000  0.00000000  0.00000000       0.001
   0.00000000  0.08333333  0.00000000       0.002
   0.08333333  0.08333333  0.00000000       0.005
   0.16666667  0.08333333  0.00000000       0.005
   0.25000000  0.08333333  0.00000000       0.005
   0.33333333  0.08333333  0.00000000       0.005
   0.41666667  0.08333333  0.00000000       0.005
   0.50000000  0.08333333  0.00000000       0.002
   0.00000000  0.16666667  0.00000000       0.002
   0.08333333  0.16666667  0.00000000       0.005
   0.16666667  0.16666667  0.00000000       0.005
   0.25000000  0.16666667  0.00000000       0.005
   0.33333333  0.16666667  0.00000000       0.005
   0.41666667  0.16666667  0.00000000       0.005
   0.50000000  0.16666667  0.00000000       0.002
   0.00000000  0.25000000  0.00000000       0.002
   0.08333333  0.25000000  0.00000000       0.005
   0.16666667  0.25000000  0.00000000       0.005
   0.25000000  0.25000000  0.00000000       0.005
   0.33333333  0.25000000  0.00000000       0.005
   0.41666667  0.25000000  0.00000000       0.005
   0.50000000  0.25000000  0.00000000       0.002
   0.00000000  0.33333333  0.00000000       0.002
   0.08333333  0.33333333  0.00000000       0.005
   0.16666667  0.33333333  0.00000000       0.005
   0.25000000  0.33333333  0.00000000       0.005
   0.33333333  0.33333333  0.00000000       0.005
   0.41666667  0.33333333  0.00000000       0.005
   0.50000000  0.33333333  0.00000000       0.002
   0.00000000  0.41666667  0.00000000       0.002
   0.08333333  0.41666667  0.00000000       0.005
   0.16666667  0.41666667  0.00000000       0.005
   0.25000000  0.41666667  0.00000000       0.005
   0.33333333  0.41666667  0.00000000       0.005
   0.41666667  0.41666667  0.00000000       0.005
   0.50000000  0.41666667  0.00000000       0.002
   0.00000000  0.50000000  0.00000000       0.001
   0.08333333  0.50000000  0.00000000       0.002
   0.16666667  0.50000000  0.00000000       0.002
   0.25000000  0.50000000  0.00000000       0.002
   0.33333333  0.50000000  0.00000000       0.002
   0.41666667  0.50000000  0.00000000       0.002
   0.50000000  0.50000000  0.00000000       0.001
   0.00000000  0.08333333  0.08333333       0.002
   0.08333333  0.08333333  0.08333333       0.005
   0.16666667  0.08333333  0.08333333       0.005
   0.25000000  0.08333333  0.08333333       0.005
   0.33333333  0.08333333  0.08333333       0.005
   0.41666667  0.08333333  0.08333333       0.005
   0.50000000  0.08333333  0.08333333       0.002
   0.00000000  0.16666667  0.08333333       0.005
   0.08333333  0.16666667  0.08333333       0.009
   0.16666667  0.16666667  0.08333333       0.009
   0.25000000  0.16666667  0.08333333       0.009
   0.33333333  0.16666667  0.08333333       0.009
   0.41666667  0.16666667  0.08333333       0.009
   0.50000000  0.16666667  0.08333333       0.005
   0.00000000  0.25000000  0.08333333       0.005
   0.08333333  0.25000000  0.08333333       0.009
   0.16666667  0.25000000  0.08333333       0.009
   0.25000000  0.25000000  0.08333333       0.009
   0.33333333  0.25000000  0.08333333       0.009
   0.41666667  0.25000000  0.08333333       0.009
   0.50000000  0.25000000  0.08333333       0.005
   0.00000000  0.33333333  0.08333333       0.005
   0.08333333  0.33333333  0.08333333       0.009
   0.16666667  0.33333333  0.08333333       0.009
   0.25000000  0.33333333  0.08333333       0.009
   0.33333333  0.33333333  0.08333333       0.009
   0.41666667  0.33333333  0.08333333       0.009
   0.50000000  0.33333333  0.08333333       0.005
   0.00000000  0.41666667  0.08333333       0.005
   0.08333333  0.41666667  0.08333333       0.009
   0.16666667  0.41666667  0.08333333       0.009
   0.25000000  0.41666667  0.08333333       0.009
   0.33333333  0.41666667  0.08333333       0.009
   0.41666667  0.41666667  0.08333333       0.009
   0.50000000  0.41666667  0.08333333       0.005
   0.00000000  0.50000000  0.08333333       0.002
   0.08333333  0.50000000  0.08333333       0.005
   0.16666667  0.50000000  0.08333333       0.005
   0.25000000  0.50000000  0.08333333       0.005
   0.33333333  0.50000000  0.08333333       0.005
   0.41666667  0.50000000  0.08333333       0.005
   0.50000000  0.50000000  0.08333333       0.002
   0.00000000  0.16666667  0.16666667       0.002
   0.08333333  0.16666667  0.16666667       0.005
   0.16666667  0.16666667  0.16666667       0.005
   0.25000000  0.16666667  0.16666667       0.005
   0.33333333  0.16666667  0.16666667       0.005
   0.41666667  0.16666667  0.16666667       0.005
   0.50000000  0.16666667  0.16666667       0.002
   0.00000000  0.25000000  0.16666667       0.005
   0.08333333  0.25000000  0.16666667       0.009
   0.16666667  0.25000000  0.16666667       0.009
   0.25000000  0.25000000  0.16666667       0.009
   0.33333333  0.25000000  0.16666667       0.009
   0.41666667  0.25000000  0.16666667       0.009
   0.50000000  0.25000000  0.16666667       0.005
   0.00000000  0.33333333  0.16666667       0.005
   0.08333333  0.33333333  0.16666667       0.009
   0.16666667  0.33333333  0.16666667       0.009
   0.25000000  0.33333333  0.16666667       0.009
   0.33333333  0.33333333  0.16666667       0.009
   0.41666667  0.33333333  0.16666667       0.009
   0.50000000  0.33333333  0.16666667       0.005
   0.00000000  0.41666667  0.16666667       0.005
   0.08333333  0.41666667  0.16666667       0.009
   0.16666667  0.41666667  0.16666667       0.009
   0.25000000  0.41666667  0.16666667       0.009
   0.33333333  0.41666667  0.16666667       0.009
   0.41666667  0.41666667  0.16666667       0.009
   0.50000000  0.41666667  0.16666667       0.005
   0.00000000  0.50000000  0.16666667       0.002
   0.08333333  0.50000000  0.16666667       0.005
   0.16666667  0.50000000  0.16666667       0.005
   0.25000000  0.50000000  0.16666667       0.005
   0.33333333  0.50000000  0.16666667       0.005
   0.41666667  0.50000000  0.16666667       0.005
   0.50000000  0.50000000  0.16666667       0.002
   0.00000000  0.25000000  0.25000000       0.002
   0.08333333  0.25000000  0.25000000       0.005
   0.16666667  0.25000000  0.25000000       0.005
   0.25000000  0.25000000  0.25000000       0.005
   0.33333333  0.25000000  0.25000000       0.005
   0.41666667  0.25000000  0.25000000       0.005
   0.50000000  0.25000000  0.25000000       0.002
   0.00000000  0.33333333  0.25000000       0.005
   0.08333333  0.33333333  0.25000000       0.009
   0.16666667  0.33333333  0.25000000       0.009
   0.25000000  0.33333333  0.25000000       0.009
   0.33333333  0.33333333  0.25000000       0.009
   0.41666667  0.33333333  0.25000000       0.009
   0.50000000  0.33333333  0.25000000       0.005
   0.00000000  0.41666667  0.25000000       0.005
   0.08333333  0.41666667  0.25000000       0.009
   0.16666667  0.41666667  0.25000000       0.009
   0.25000000  0.41666667  0.25000000       0.009
   0.33333333  0.41666667  0.25000000       0.009
   0.41666667  0.41666667  0.25000000       0.009
   0.50000000  0.41666667  0.25000000       0.005
   0.00000000  0.50000000  0.25000000       0.002
   0.08333333  0.50000000  0.25000000       0.005
   0.16666667  0.50000000  0.25000000       0.005
   0.25000000  0.50000000  0.25000000       0.005
   0.33333333  0.50000000  0.25000000       0.005
   0.41666667  0.50000000  0.25000000       0.005
   0.50000000  0.50000000  0.25000000       0.002
   0.00000000  0.33333333  0.33333333       0.002
   0.08333333  0.33333333  0.33333333       0.005
   0.16666667  0.33333333  0.33333333       0.005
   0.25000000  0.33333333  0.33333333       0.005
   0.33333333  0.33333333  0.33333333       0.005
   0.41666667  0.33333333  0.33333333       0.005
   0.50000000  0.33333333  0.33333333       0.002
   0.00000000  0.41666667  0.33333333       0.005
   0.08333333  0.41666667  0.33333333       0.009
   0.16666667  0.41666667  0.33333333       0.009
   0.25000000  0.41666667  0.33333333       0.009
   0.33333333  0.41666667  0.33333333       0.009
   0.41666667  0.41666667  0.33333333       0.009
   0.50000000  0.41666667  0.33333333       0.005
   0.00000000  0.50000000  0.33333333       0.002
   0.08333333  0.50000000  0.33333333       0.005
   0.16666667  0.50000000  0.33333333       0.005
   0.25000000  0.50000000  0.33333333       0.005
   0.33333333  0.50000000  0.33333333       0.005
   0.41666667  0.50000000  0.33333333       0.005
   0.50000000  0.50000000  0.33333333       0.002
   0.00000000  0.41666667  0.41666667       0.002
   0.08333333  0.41666667  0.41666667       0.005
   0.16666667  0.41666667  0.41666667       0.005
   0.25000000  0.41666667  0.41666667       0.005
   0.33333333  0.41666667  0.41666667       0.005
   0.41666667  0.41666667  0.41666667       0.005
   0.50000000  0.41666667  0.41666667       0.002
   0.00000000  0.50000000  0.41666667       0.002
   0.08333333  0.50000000  0.41666667       0.005
   0.16666667  0.50000000  0.41666667       0.005
   0.25000000  0.50000000  0.41666667       0.005
   0.33333333  0.50000000  0.41666667       0.005
   0.41666667  0.50000000  0.41666667       0.005
   0.50000000  0.50000000  0.41666667       0.002
   0.00000000  0.50000000  0.50000000       0.001
   0.08333333  0.50000000  0.50000000       0.001
   0.16666667  0.50000000  0.50000000       0.001
   0.25000000  0.50000000  0.50000000       0.001
   0.33333333  0.50000000  0.50000000       0.001
   0.41666667  0.50000000  0.50000000       0.001
   0.50000000  0.50000000  0.50000000       0.001
 
 position of ions in fractional coordinates (direct lattice) 
   0.00122267  0.00000000  0.00000000
   0.50000000  0.00000000  0.00000000
   0.00000000  0.50000000  0.00000000
   0.50000000  0.50000000  0.00000000
   0.00000000  0.00000000  0.50000000
   0.50000000  0.00000000  0.50000000
   0.00000000  0.50000000  0.50000000
   0.50000000  0.50000000  0.50000000
   0.25000000  0.25000000  0.00000000
   0.75000000  0.25000000  0.00000000
   0.25000000  0.75000000  0.00000000
   0.75000000  0.75000000  0.00000000
   0.25000000  0.25000000  0.50000000
   0.75000000  0.25000000  0.50000000
   0.25000000  0.75000000  0.50000000
   0.75000000  0.75000000  0.50000000
   0.25000000  0.00000000  0.25000000
   0.75000000  0.00000000  0.25000000
   0.25000000  0.50000000  0.25000000
   0.75000000  0.50000000  0.25000000
   0.25000000  0.00000000  0.75000000
   0.75000000  0.00000000  0.75000000
   0.25000000  0.50000000  0.75000000
   0.75000000  0.50000000  0.75000000
   0.00000000  0.25000000  0.25000000
   0.50000000  0.25000000  0.25000000
   0.00000000  0.75000000  0.25000000
   0.50000000  0.75000000  0.25000000
   0.00000000  0.25000000  0.75000000
   0.50000000  0.25000000  0.75000000
   0.00000000  0.75000000  0.75000000
   0.50000000  0.75000000  0.75000000
 
 position of ions in cartesian coordinates  (Angst):
   0.01000000  0.00000000  0.00000000
   4.08939486  0.00000000  0.00000000
   0.00000000  4.08939486  0.00000000
   4.08939486  4.08939486  0.00000000
   0.00000000  0.00000000  4.08939486
   4.08939486  0.00000000  4.08939486
   0.00000000  4.08939486  4.08939486
   4.08939486  4.08939486  4.08939486
   2.04469743  2.04469743  0.00000000
   6.13409230  2.04469743  0.00000000
   2.04469743  6.13409230  0.00000000
   6.13409230  6.13409230  0.00000000
   2.04469743  2.04469743  4.08939486
   6.13409230  2.04469743  4.08939486
   2.04469743  6.13409230  4.08939486
   6.13409230  6.13409230  4.08939486
   2.04469743  0.00000000  2.04469743
   6.13409230  0.00000000  2.04469743
   2.04469743  4.08939486  2.04469743
   6.13409230  4.08939486  2.04469743
   2.04469743  0.00000000  6.13409230
   6.13409230  0.00000000  6.13409230
   2.04469743  4.08939486  6.13409230
   6.13409230  4.08939486  6.13409230
   0.00000000  2.04469743  2.04469743
   4.08939486  2.04469743  2.04469743
   0.00000000  6.13409230  2.04469743
   4.08939486  6.13409230  2.04469743
   0.00000000  2.04469743  6.13409230
   4.08939486  2.04469743  6.13409230
   0.00000000  6.13409230  6.13409230
   4.08939486  6.13409230  6.13409230
 


--------------------------------------------------------------------------------------------------------


 k-point  1 :  0.00000.00000.0000  plane waves:  25533
 k-point  2 :  0.08330.00000.0000  plane waves:  25533
 k-point  3 :  0.16670.00000.0000  plane waves:  25501
 k-point  4 :  0.25000.00000.0000  plane waves:  25497
 k-point  5 :  0.33330.00000.0000  plane waves:  25560
 k-point  6 :  0.41670.00000.0000  plane waves:  25524
 k-point  7 :  0.50000.00000.0000  plane waves:  25532
 k-point  8 :  0.00000.08330.0000  plane waves:  25533
 k-point  9 :  0.08330.08330.0000  plane waves:  25531
 k-point 10 :  0.16670.08330.0000  plane waves:  25502
 k-point 11 :  0.25000.08330.0000  plane waves:  25512
 k-point 12 :  0.33330.08330.0000  plane waves:  25515
 k-point 13 :  0.41670.08330.0000  plane waves:  25511
 k-point 14 :  0.50000.08330.0000  plane waves:  25494
 k-point 15 :  0.00000.16670.0000  plane waves:  25501
 k-point 16 :  0.08330.16670.0000  plane waves:  25502
 k-point 17 :  0.16670.16670.0000  plane waves:  25516
 k-point 18 :  0.25000.16670.0000  plane waves:  25518
 k-point 19 :  0.33330.16670.0000  plane waves:  25527
 k-point 20 :  0.41670.16670.0000  plane waves:  25527
 k-point 21 :  0.50000.16670.0000  plane waves:  25500
 k-point 22 :  0.00000.25000.0000  plane waves:  25497
 k-point 23 :  0.08330.25000.0000  plane waves:  25512
 k-point 24 :  0.16670.25000.0000  plane waves:  25518
 k-point 25 :  0.25000.25000.0000  plane waves:  25490
 k-point 26 :  0.33330.25000.0000  plane waves:  25530
 k-point 27 :  0.41670.25000.0000  plane waves:  25506
 k-point 28 :  0.50000.25000.0000  plane waves:  25532
 k-point 29 :  0.00000.33330.0000  plane waves:  25560
 k-point 30 :  0.08330.33330.0000  plane waves:  25515
 k-point 31 :  0.16670.33330.0000  plane waves:  25527
 k-point 32 :  0.25000.33330.0000  plane waves:  25530
 k-point 33 :  0.33330.33330.0000  plane waves:  25488
 k-point 34 :  0.41670.33330.0000  plane waves:  25532
 k-point 35 :  0.50000.33330.0000  plane waves:  25544
 k-point 36 :  0.00000.41670.0000  plane waves:  25524
 k-point 37 :  0.08330.41670.0000  plane waves:  25511
 k-point 38 :  0.16670.41670.0000  plane waves:  25527
 k-point 39 :  0.25000.41670.0000  plane waves:  25506
 k-point 40 :  0.33330.41670.0000  plane waves:  25532
 k-point 41 :  0.41670.41670.0000  plane waves:  25550
 k-point 42 :  0.50000.41670.0000  plane waves:  25540
 k-point 43 :  0.00000.50000.0000  plane waves:  25532
 k-point 44 :  0.08330.50000.0000  plane waves:  25494
 k-point 45 :  0.16670.50000.0000  plane waves:  25500
 k-point 46 :  0.25000.50000.0000  plane waves:  25532
 k-point 47 :  0.33330.50000.0000  plane waves:  25544
 k-point 48 :  0.41670.50000.0000  plane waves:  25540
 k-point 49 :  0.50000.50000.0000  plane waves:  25628
 k-point 50 :  0.00000.08330.0833  plane waves:  25531
 k-point 51 :  0.08330.08330.0833  plane waves:  25515
 k-point 52 :  0.16670.08330.0833  plane waves:  25509
 k-point 53 :  0.25000.08330.0833  plane waves:  25515
 k-point 54 :  0.33330.08330.0833  plane waves:  25528
 k-point 55 :  0.41670.08330.0833  plane waves:  25521
 k-point 56 :  0.50000.08330.0833  plane waves:  25522
 k-point 57 :  0.00000.16670.0833  plane waves:  25502
 k-point 58 :  0.08330.16670.0833  plane waves:  25509
 k-point 59 :  0.16670.16670.0833  plane waves:  25512
 k-point 60 :  0.25000.16670.0833  plane waves:  25524
 k-point 61 :  0.33330.16670.0833  plane waves:  25529
 k-point 62 :  0.41670.16670.0833  plane waves:  25529
 k-point 63 :  0.50000.16670.0833  plane waves:  25522
 k-point 64 :  0.00000.25000.0833  plane waves:  25512
 k-point 65 :  0.08330.25000.0833  plane waves:  25515
 k-point 66 :  0.16670.25000.0833  plane waves:  25524
 k-point 67 :  0.25000.25000.0833  plane waves:  25520
 k-point 68 :  0.33330.25000.0833  plane waves:  25523
 k-point 69 :  0.41670.25000.0833  plane waves:  25519
 k-point 70 :  0.50000.25000.0833  plane waves:  25518
 k-point 71 :  0.00000.33330.0833  plane waves:  25515
 k-point 72 :  0.08330.33330.0833  plane waves:  25528
 k-point 73 :  0.16670.33330.0833  plane waves:  25529
 k-point 74 :  0.25000.33330.0833  plane waves:  25523
 k-point 75 :  0.33330.33330.0833  plane waves:  25507
 k-point 76 :  0.41670.33330.0833  plane waves:  25522
 k-point 77 :  0.50000.33330.0833  plane waves:  25516
 k-point 78 :  0.00000.41670.0833  plane waves:  25511
 k-point 79 :  0.08330.41670.0833  plane waves:  25521
 k-point 80 :  0.16670.41670.0833  plane waves:  25529
 k-point 81 :  0.25000.41670.0833  plane waves:  25519
 k-point 82 :  0.33330.41670.0833  plane waves:  25522
 k-point 83 :  0.41670.41670.0833  plane waves:  25535
 k-point 84 :  0.50000.41670.0833  plane waves:  25542
 k-point 85 :  0.00000.50000.0833  plane waves:  25494
 k-point 86 :  0.08330.50000.0833  plane waves:  25522
 k-point 87 :  0.16670.50000.0833  plane waves:  25522
 k-point 88 :  0.25000.50000.0833  plane waves:  25518
 k-point 89 :  0.33330.50000.0833  plane waves:  25516
 k-point 90 :  0.41670.50000.0833  plane waves:  25542
 k-point 91 :  0.50000.50000.0833  plane waves:  25552
 k-point 92 :  0.00000.16670.1667  plane waves:  25516
 k-point 93 :  0.08330.16670.1667  plane waves:  25512
 k-point 94 :  0.16670.16670.1667  plane waves:  25548
 k-point 95 :  0.25000.16670.1667  plane waves:  25513
 k-point 96 :  0.33330.16670.1667  plane waves:  25523
 k-point 97 :  0.41670.16670.1667  plane waves:  25521
 k-point 98 :  0.50000.16670.1667  plane waves:  25468
 k-point 99 :  0.00000.25000.1667  plane waves:  25518
 k-point ** :  0.08330.25000.1667  plane waves:  25524
 k-point ** :  0.16670.25000.1667  plane waves:  25513
 k-point ** :  0.25000.25000.1667  plane waves:  25514
 k-point ** :  0.33330.25000.1667  plane waves:  25509
 k-point ** :  0.41670.25000.1667  plane waves:  25511
 k-point ** :  0.50000.25000.1667  plane waves:  25524
 k-point ** :  0.00000.33330.1667  plane waves:  25527
 k-point ** :  0.08330.33330.1667  plane waves:  25529
 k-point ** :  0.16670.33330.1667  plane waves:  25523
 k-point ** :  0.25000.33330.1667  plane waves:  25509
 k-point ** :  0.33330.33330.1667  plane waves:  25502
 k-point ** :  0.41670.33330.1667  plane waves:  25528
 k-point ** :  0.50000.33330.1667  plane waves:  25504
 k-point ** :  0.00000.41670.1667  plane waves:  25527
 k-point ** :  0.08330.41670.1667  plane waves:  25529
 k-point ** :  0.16670.41670.1667  plane waves:  25521
 k-point ** :  0.25000.41670.1667  plane waves:  25511
 k-point ** :  0.33330.41670.1667  plane waves:  25528
 k-point ** :  0.41670.41670.1667  plane waves:  25536
 k-point ** :  0.50000.41670.1667  plane waves:  25530
 k-point ** :  0.00000.50000.1667  plane waves:  25500
 k-point ** :  0.08330.50000.1667  plane waves:  25522
 k-point ** :  0.16670.50000.1667  plane waves:  25468
 k-point ** :  0.25000.50000.1667  plane waves:  25524
 k-point ** :  0.33330.50000.1667  plane waves:  25504
 k-point ** :  0.41670.50000.1667  plane waves:  25530
 k-point ** :  0.50000.50000.1667  plane waves:  25516
 k-point ** :  0.00000.25000.2500  plane waves:  25490
 k-point ** :  0.08330.25000.2500  plane waves:  25520
 k-point ** :  0.16670.25000.2500  plane waves:  25514
 k-point ** :  0.25000.25000.2500  plane waves:  25482
 k-point ** :  0.33330.25000.2500  plane waves:  25498
 k-point ** :  0.41670.25000.2500  plane waves:  25512
 k-point ** :  0.50000.25000.2500  plane waves:  25530
 k-point ** :  0.00000.33330.2500  plane waves:  25530
 k-point ** :  0.08330.33330.2500  plane waves:  25523
 k-point ** :  0.16670.33330.2500  plane waves:  25509
 k-point ** :  0.25000.33330.2500  plane waves:  25498
 k-point ** :  0.33330.33330.2500  plane waves:  25518
 k-point ** :  0.41670.33330.2500  plane waves:  25514
 k-point ** :  0.50000.33330.2500  plane waves:  25490
 k-point ** :  0.00000.41670.2500  plane waves:  25506
 k-point ** :  0.08330.41670.2500  plane waves:  25519
 k-point ** :  0.16670.41670.2500  plane waves:  25511
 k-point ** :  0.25000.41670.2500  plane waves:  25512
 k-point ** :  0.33330.41670.2500  plane waves:  25514
 k-point ** :  0.41670.41670.2500  plane waves:  25494
 k-point ** :  0.50000.41670.2500  plane waves:  25498
 k-point ** :  0.00000.50000.2500  plane waves:  25532
 k-point ** :  0.08330.50000.2500  plane waves:  25518
 k-point ** :  0.16670.50000.2500  plane waves:  25524
 k-point ** :  0.25000.50000.2500  plane waves:  25530
 k-point ** :  0.33330.50000.2500  plane waves:  25490
 k-point ** :  0.41670.50000.2500  plane waves:  25498
 k-point ** :  0.50000.50000.2500  plane waves:  25460
 k-point ** :  0.00000.33330.3333  plane waves:  25488
 k-point ** :  0.08330.33330.3333  plane waves:  25507
 k-point ** :  0.16670.33330.3333  plane waves:  25502
 k-point ** :  0.25000.33330.3333  plane waves:  25518
 k-point ** :  0.33330.33330.3333  plane waves:  25497
 k-point ** :  0.41670.33330.3333  plane waves:  25489
 k-point ** :  0.50000.33330.3333  plane waves:  25506
 k-point ** :  0.00000.41670.3333  plane waves:  25532
 k-point ** :  0.08330.41670.3333  plane waves:  25522
 k-point ** :  0.16670.41670.3333  plane waves:  25528
 k-point ** :  0.25000.41670.3333  plane waves:  25514
 k-point ** :  0.33330.41670.3333  plane waves:  25489
 k-point ** :  0.41670.41670.3333  plane waves:  25516
 k-point ** :  0.50000.41670.3333  plane waves:  25506
 k-point ** :  0.00000.50000.3333  plane waves:  25544
 k-point ** :  0.08330.50000.3333  plane waves:  25516
 k-point ** :  0.16670.50000.3333  plane waves:  25504
 k-point ** :  0.25000.50000.3333  plane waves:  25490
 k-point ** :  0.33330.50000.3333  plane waves:  25506
 k-point ** :  0.41670.50000.3333  plane waves:  25506
 k-point ** :  0.50000.50000.3333  plane waves:  25492
 k-point ** :  0.00000.41670.4167  plane waves:  25550
 k-point ** :  0.08330.41670.4167  plane waves:  25535
 k-point ** :  0.16670.41670.4167  plane waves:  25536
 k-point ** :  0.25000.41670.4167  plane waves:  25494
 k-point ** :  0.33330.41670.4167  plane waves:  25516
 k-point ** :  0.41670.41670.4167  plane waves:  25494
 k-point ** :  0.50000.41670.4167  plane waves:  25508
 k-point ** :  0.00000.50000.4167  plane waves:  25540
 k-point ** :  0.08330.50000.4167  plane waves:  25542
 k-point ** :  0.16670.50000.4167  plane waves:  25530
 k-point ** :  0.25000.50000.4167  plane waves:  25498
 k-point ** :  0.33330.50000.4167  plane waves:  25506
 k-point ** :  0.41670.50000.4167  plane waves:  25508
 k-point ** :  0.50000.50000.4167  plane waves:  25528
 k-point ** :  0.00000.50000.5000  plane waves:  25628
 k-point ** :  0.08330.50000.5000  plane waves:  25552
 k-point ** :  0.16670.50000.5000  plane waves:  25516
 k-point ** :  0.25000.50000.5000  plane waves:  25460
 k-point ** :  0.33330.50000.5000  plane waves:  25492
 k-point ** :  0.41670.50000.5000  plane waves:  25528
 k-point ** :  0.50000.50000.5000  plane waves:  25576

 maximum and minimum number of plane-waves per node :  25628 25460

 maximum number of plane-waves:  25628
 maximal index in each direction: 
   IXMAX= 18   IYMAX= 18   IZMAX= 18
   IXMIN=-18   IYMIN=-18   IZMIN=-18

 NGX is ok and might be reduce to  74
 NGY is ok and might be reduce to  74
 NGZ is ok and might be reduce to  74

 parallel 3dFFT wavefunction:
    minimum data exchange during FFTs selected (reduces bandwidth)
 parallel 3dFFT charge:
    minimum data exchange during FFTs selected (reduces bandwidth)

 For storing wavefunctions ******* MBYTES are necessary
 For predicting wavefunctions  186.96 MBYTES are necessary
Broyden mixing: mesh for mixing (old mesh)
   NGX = 37   NGY = 37   NGZ = 37
  (NGX  =160   NGY  =160   NGZ  =160)
 gives a total of  50653 points
 initial charge density was supplied:
 charge density of overlapping atoms calculated
 number of electron  352.0000000 magnetization 
 keeping initial charge density in first step


--------------------------------------------------------------------------------------------------------


 Maximum index for augmentation-charges        55275 (set IRDMAX)


--------------------------------------------------------------------------------------------------------


 First call to EWALD:  gamma=   0.217
 Maximum number of real-space cells 3x 3x 3
 Maximum number of reciprocal cells 3x 3x 3

    FEWALD:  VPU time    0.01: CPU time    0.01


----------------------------------------- Iteration    1(   1)  ---------------------------------------


    POTLOK:  VPU time    0.65: CPU time    0.66
    SETDIJ:  VPU time    1.53: CPU time    1.53
    EDDAV :  VPU time 3372.97: CPU time 3374.74
    DOS   :  VPU time    0.00: CPU time   -0.00
    ------------------------------------------
      LOOP:  VPU time 3375.33: CPU time 3377.11

 eigenvalue-minimisations  : 84680
 total energy-change (2. order) : 0.4852422E+04  (-0.2097431E+05)
 number of electron  352.0000000 magnetization 
 augmentation part   352.0000000 magnetization 

 Free energy of the ion-electron system (eV)
  ---------------------------------------------------
  alpha Z        PSCENC =      3505.33039990
  Ewald energy   TEWEN  =    -31255.64159242
  -1/2 Hartree   DENC   =     -3978.00432150
  -V(xc)+E(xc)   XCENC  =       491.39384477
  PAW double counting   =     23920.39735419   -23172.13309131
  entropy T*S    EENTRO =        -0.00053160
  eigenvalues    EBANDS =      5707.28975805
  atomic energy  EATOM  =     29633.78979189
  ---------------------------------------------------
  free energy    TOTEN  =      4852.42161196 eV

  energy without entropy =     4852.42214357  energy(sigma->0) =     4852.42187776


--------------------------------------------------------------------------------------------------------




----------------------------------------- Iteration    1(   2)  ---------------------------------------


    EDDAV :  VPU time 3364.05: CPU time 3367.13
    DOS   :  VPU time    0.00: CPU time   -0.00
    ------------------------------------------
      LOOP:  VPU time 3364.23: CPU time 3367.32

 eigenvalue-minimisations  : 84688
 total energy-change (2. order) :-0.4683476E+04  (-0.4483843E+04)
 number of electron  352.0000000 magnetization 
 augmentation part   352.0000000 magnetization 

 Free energy of the ion-electron system (eV)
  ---------------------------------------------------
  alpha Z        PSCENC =      3505.33039990
  Ewald energy   TEWEN  =    -31255.64159242
  -1/2 Hartree   DENC   =     -3978.00432150
  -V(xc)+E(xc)   XCENC  =       491.39384477
  PAW double counting   =     23920.39735419   -23172.13309131
  entropy T*S    EENTRO =        -0.00054050
  eigenvalues    EBANDS =      1023.81365145
  atomic energy  EATOM  =     29633.78979189
  ---------------------------------------------------
  free energy    TOTEN  =       168.94549647 eV

  energy without entropy =      168.94603697  energy(sigma->0) =      168.94576672


--------------------------------------------------------------------------------------------------------




----------------------------------------- Iteration    1(   3)  ---------------------------------------


    EDDAV :  VPU time 3590.74: CPU time 3592.64
    DOS   :  VPU time    0.00: CPU time   -0.00
    ------------------------------------------
      LOOP:  VPU time 3590.93: CPU time 3592.84

 eigenvalue-minimisations  : 92096
 total energy-change (2. order) :-0.2717778E+03  (-0.2509281E+03)
 number of electron  352.0000000 magnetization 
 augmentation part   352.0000000 magnetization 

 Free energy of the ion-electron system (eV)
  ---------------------------------------------------
  alpha Z        PSCENC =      3505.33039990
  Ewald energy   TEWEN  =    -31255.64159242
  -1/2 Hartree   DENC   =     -3978.00432150
  -V(xc)+E(xc)   XCENC  =       491.39384477
  PAW double counting   =     23920.39735419   -23172.13309131
  entropy T*S    EENTRO =        -0.00050489
  eigenvalues    EBANDS =       752.03585318
  atomic energy  EATOM  =     29633.78979189
  ---------------------------------------------------
  free energy    TOTEN  =      -102.83226619 eV

  energy without entropy =     -102.83176130  energy(sigma->0) =     -102.83201375


--------------------------------------------------------------------------------------------------------




----------------------------------------- Iteration    1(   4)  ---------------------------------------


    EDDAV :  VPU time 3547.72: CPU time 3549.63
    DOS   :  VPU time    0.00: CPU time   -0.00
    ------------------------------------------
      LOOP:  VPU time 3547.90: CPU time 3550.31

 eigenvalue-minimisations  : 90760
 total energy-change (2. order) :-0.8761880E+01  (-0.8631772E+01)
 number of electron  352.0000000 magnetization 
 augmentation part   352.0000000 magnetization 

 Free energy of the ion-electron system (eV)
  ---------------------------------------------------
  alpha Z        PSCENC =      3505.33039990
  Ewald energy   TEWEN  =    -31255.64159242
  -1/2 Hartree   DENC   =     -3978.00432150
  -V(xc)+E(xc)   XCENC  =       491.39384477
  PAW double counting   =     23920.39735419   -23172.13309131
  entropy T*S    EENTRO =        -0.00033401
  eigenvalues    EBANDS =       743.27380271
  atomic energy  EATOM  =     29633.78979189
  ---------------------------------------------------
  free energy    TOTEN  =      -111.59414578 eV

  energy without entropy =     -111.59381177  energy(sigma->0) =     -111.59397877


--------------------------------------------------------------------------------------------------------




----------------------------------------- Iteration    1(   5)  ---------------------------------------


    EDDAV :  VPU time 3563.14: CPU time 3565.03
    DOS   :  VPU time    0.00: CPU time   -0.00
    CHARGE:  VPU time  119.36: CPU time  119.43
    MIXING:  VPU time    0.02: CPU time    0.02
    ------------------------------------------
      LOOP:  VPU time 3682.71: CPU time 3684.67

 eigenvalue-minimisations  : 91336
 total energy-change (2. order) :-0.1404562E+00  (-0.1400682E+00)
 number of electron  352.0000007 magnetization 
 augmentation part   123.9285156 magnetization 

 Broyden mixing:
  rms(total) = 0.16480E+01    rms(broyden)= 0.16480E+01
  rms(prec ) = 0.25266E+01
  weight for this iteration     100.00

 Free energy of the ion-electron system (eV)
  ---------------------------------------------------
  alpha Z        PSCENC =      3505.33039990
  Ewald energy   TEWEN  =    -31255.64159242
  -1/2 Hartree   DENC   =     -3978.00432150
  -V(xc)+E(xc)   XCENC  =       491.39384477
  PAW double counting   =     23920.39735419   -23172.13309131
  entropy T*S    EENTRO =        -0.00033758
  eigenvalues    EBANDS =       743.13335004
  atomic energy  EATOM  =     29633.78979189
  ---------------------------------------------------
  free energy    TOTEN  =      -111.73460202 eV

  energy without entropy =     -111.73426444  energy(sigma->0) =     -111.73443323


--------------------------------------------------------------------------------------------------------




----------------------------------------- Iteration    1(   6)  ---------------------------------------


    POTLOK:  VPU time    0.65: CPU time    0.65
    SETDIJ:  VPU time    1.52: CPU time    1.52
    EDDAV :  VPU time 3512.97: CPU time 3514.85
    DOS   :  VPU time    0.00: CPU time   -0.00
    CHARGE:  VPU time  119.12: CPU time  119.19
    MIXING:  VPU time    0.02: CPU time    0.02
    ------------------------------------------
      LOOP:  VPU time 3634.47: CPU time 3636.43

 eigenvalue-minimisations  : 89616
 total energy-change (2. order) : 0.7350296E+01  (-0.1802241E+01)
 number of electron  352.0000008 magnetization 
 augmentation part   127.9026795 magnetization 

 Broyden mixing:
  rms(total) = 0.46190E+00    rms(broyden)= 0.46190E+00
  rms(prec ) = 0.69632E+00
  weight for this iteration     100.00

 eigenvalues of (default mixing * dielectric matrix)
  average eigenvalue GAMMA=   1.2739
  1.2739

 Free energy of the ion-electron system (eV)
  ---------------------------------------------------
  alpha Z        PSCENC =      3505.33039990
  Ewald energy   TEWEN  =    -31255.64159242
  -1/2 Hartree   DENC   =     -3739.46272259
  -V(xc)+E(xc)   XCENC  =       480.91798329
  PAW double counting   =     23806.22337544   -23098.49288111
  entropy T*S    EENTRO =        -0.00105097
  eigenvalues    EBANDS =       562.95239092
  atomic energy  EATOM  =     29633.78979189
  ---------------------------------------------------
  free energy    TOTEN  =      -104.38430566 eV

  energy without entropy =     -104.38325469  energy(sigma->0) =     -104.38378018


--------------------------------------------------------------------------------------------------------




----------------------------------------- Iteration    1(   7)  ---------------------------------------


    POTLOK:  VPU time    0.65: CPU time    0.65
    SETDIJ:  VPU time    1.52: CPU time    1.52
    EDDAV :  VPU time 3686.72: CPU time 3688.65
    DOS   :  VPU time    0.00: CPU time   -0.00
    CHARGE:  VPU time  120.47: CPU time  120.54
    MIXING:  VPU time    0.02: CPU time    0.02
    ------------------------------------------
      LOOP:  VPU time 3809.57: CPU time 3811.57

 eigenvalue-minimisations  : 95016
 total energy-change (2. order) : 0.5957316E+00  (-0.1523281E+00)
 number of electron  352.0000008 magnetization 
 augmentation part   129.0344259 magnetization 

 Broyden mixing:
  rms(total) = 0.16634E+00    rms(broyden)= 0.16634E+00
  rms(prec ) = 0.19636E+00
  weight for this iteration     100.00

 eigenvalues of (default mixing * dielectric matrix)
  average eigenvalue GAMMA=   1.8378
  1.2474  2.4282

 Free energy of the ion-electron system (eV)
  ---------------------------------------------------
  alpha Z        PSCENC =      3505.33039990
  Ewald energy   TEWEN  =    -31255.64159242
  -1/2 Hartree   DENC   =     -3657.43547745
  -V(xc)+E(xc)   XCENC  =       477.24882420
  PAW double counting   =     23933.18462629   -23252.25926192
  entropy T*S    EENTRO =        -0.00117786
  eigenvalues    EBANDS =       511.99529331
  atomic energy  EATOM  =     29633.78979189
[...]
     72       1.2651      2.00000
     73       1.2655      2.00000
     74       1.2655      2.00000
     75       1.2656      2.00000
     76       1.2658      2.00000
     77       1.2665      2.00000
     78       1.2666      2.00000
     79       1.2671      2.00000
     80       1.2671      2.00000
     81       1.3450      2.00000
     82       1.3450      2.00000
     83       1.3463      2.00000
     84       1.3465      2.00000
     85       1.3485      2.00000
     86       1.3494      2.00000
     87       1.3495      2.00000
     88       1.3495      2.00000
     89       1.3495      2.00000
     90       1.3495      2.00000
     91       1.3496      2.00000
     92       1.3496      2.00000
     93       1.3497      2.00000
     94       1.3497      2.00000
     95       1.3498      2.00000
     96       1.3498      2.00000
     97       1.3499      2.00000
     98       1.3499      2.00000
     99       1.3500      2.00000
    100       1.3509      2.00000
    101       1.3529      2.00000
    102       1.3531      2.00000
    103       1.3546      2.00000
    104       1.3546      2.00000
    105       2.1605      2.00000
    106       2.1623      2.00000
    107       2.1623      2.00000
    108       2.1651      2.00000
    109       2.1653      2.00000
    110       2.1654      2.00000
    111       2.1654      2.00000
    112       2.1657      2.00000
    113       2.1659      2.00000
    114       2.1659      2.00000
    115       2.1659      2.00000
    116       2.1660      2.00000
    117       2.1661      2.00000
    118       2.1661      2.00000
    119       2.1661      2.00000
    120       2.1661      2.00000
    121       2.1663      2.00000
    122       2.1666      2.00000
    123       2.1666      2.00000
    124       2.1667      2.00000
    125       2.1670      2.00000
    126       2.1698      2.00000
    127       2.1698      2.00000
    128       2.1715      2.00000
    129       2.6603      2.00000
    130       2.6620      2.00000
    131       2.6622      2.00000
    132       2.6622      2.00000
    133       2.6635      2.00000
    134       2.6635      2.00000
    135       2.6638      2.00000
    136       2.6639      2.00000
    137       2.6641      2.00000
    138       2.6642      2.00000
    139       2.6645      2.00000
    140       2.6645      2.00000
    141       2.6659      2.00000
    142       2.6659      2.00000
    143       2.6660      2.00000
    144       2.6678      2.00000
    145       3.7776      2.00000
    146       3.7776      2.00000
    147       3.7780      2.00000
    148       3.7782      2.00000
    149       3.7783      2.00000
    150       3.7783      2.00000
    151       3.7783      2.00000
    152       3.7783      2.00000
    153       3.7785      2.00000
    154       3.7786      2.00000
    155       3.7786      2.00000
    156       3.7787      2.00000
    157       3.7788      2.00000
    158       3.7789      2.00000
    159       3.7789      2.00000
    160       3.7790      2.00000
    161       3.7791      2.00000
    162       3.7792      2.00000
    163       3.7792      2.00000
    164       3.7792      2.00000
    165       3.7793      2.00000
    166       3.7796      2.00000
    167       3.7799      2.00000
    168       3.7799      2.00000
    169       6.7221      0.00000
    170       6.7247      0.00000
    171       6.7247      0.00000
    172       6.7268      0.00000
    173       6.7276      0.00000
    174       6.7278      0.00000
    175       6.7278      0.00000
    176       6.7278      0.00000
    177       6.7279      0.00000
    178       6.7280      0.00000
    179       6.7280      0.00000
    180       6.7280      0.00000
    181       6.7283      0.00000
    182       6.7283      0.00000
    183       6.7284      0.00000
    184       6.7285      0.00000
    185       6.7285      0.00000
    186       6.7285      0.00000
    187       6.7286      0.00000
    188       6.7288      0.00000
    189       6.7295      0.00000
    190       6.7316      0.00000
    191       6.7316      0.00000
    192       6.7342      0.00000
    193      11.1745      0.00000
    194      11.1745      0.00000
    195      11.1781      0.00000
    196      11.1785      0.00000
    197      11.1790      0.00000
    198      11.1796      0.00000
    199      11.1796      0.00000
    200      11.1803      0.00000
    201      11.1803      0.00000
    202      11.1803      0.00000
    203      11.1804      0.00000
    204      11.1804      0.00000
    205      11.1805      0.00000
    206      11.1805      0.00000
    207      11.1805      0.00000
    208      11.1805      0.00000
    209      11.1805      0.00000
    210      11.1813      0.00000
    211      11.1813      0.00000
    212      11.1818      0.00000
    213      11.1824      0.00000
    214      11.1827      0.00000
    215      11.1864      0.00000
    216      11.1864      0.00000


--------------------------------------------------------------------------------------------------------


 soft charge-density along one line, spin component           1
         0         1         2         3         4         5         6         7         8         9
 total charge-density along one line
 
 pseudopotential strength for first ion, spin component:           1
 -9.810  -0.000  -0.000  -0.000  -0.000  -0.102   0.000   0.000
 -0.000  -9.810   0.000   0.000   0.000   0.000  -0.102  -0.000
 -0.000   0.000  -9.795   0.000  -0.000   0.000  -0.000  -0.104
 -0.000   0.000   0.000  -9.810  -0.000   0.000  -0.000  -0.000
 -0.000   0.000  -0.000  -0.000  -9.795   0.000  -0.000   0.000
 -0.102   0.000   0.000   0.000   0.000   0.284  -0.000  -0.000
  0.000  -0.102  -0.000  -0.000  -0.000  -0.000   0.284   0.000
  0.000  -0.000  -0.104  -0.000   0.000  -0.000   0.000   0.285
  0.000  -0.000  -0.000  -0.102   0.000  -0.000   0.000   0.000
  0.000  -0.000   0.000   0.000  -0.104  -0.000   0.000  -0.000
 -0.000   0.000   0.000   0.000  -0.000  -0.000   0.000  -0.000
  0.000  -0.000   0.000  -0.000  -0.000  -0.000   0.000  -0.000
 -0.000  -0.000   0.000  -0.000  -0.000   0.000   0.000  -0.000
 -0.000  -0.000   0.000  -0.000  -0.000   0.000   0.000   0.000
 -0.000  -0.000   0.000  -0.000  -0.000   0.000   0.000  -0.000
  0.000   0.000  -0.000   0.000   0.000  -0.000  -0.000   0.000
  0.000  -0.000  -0.000   0.000   0.000  -0.000  -0.000   0.000
  0.000   0.000  -0.000   0.000   0.000  -0.000  -0.000   0.000
 total augmentation occupancy for first ion, spin component:           1
  1.900  -0.000  -0.004  -0.001  -0.001  -0.028   0.000   0.001   0.001   0.001   0.006   0.001   0.000   0.000  -0.000  -0.000
 -0.000   1.908  -0.001  -0.002  -0.003   0.000  -0.036   0.002   0.002   0.001   0.006   0.001   0.000   0.000  -0.000  -0.000
 -0.004  -0.001   1.962   0.000  -0.004   0.001   0.002  -0.087   0.001   0.003   0.014   0.004   0.000  -0.000  -0.000  -0.000
 -0.001  -0.002   0.000   1.915   0.002   0.001   0.002   0.001  -0.044   0.001   0.005   0.000   0.000   0.000  -0.000  -0.000
 -0.001  -0.003  -0.004   0.002   1.948   0.001   0.001   0.003   0.001  -0.075   0.008   0.003   0.000   0.000   0.000  -0.000
 -0.028   0.000   0.001   0.001   0.001   0.214   0.000   0.002  -0.001  -0.001  -0.002   0.001   0.002  -0.000   0.000  -0.000
  0.000  -0.036   0.002   0.002   0.001   0.000   0.221  -0.003  -0.001   0.002  -0.002   0.002  -0.000  -0.000   0.000   0.000
  0.001   0.002  -0.087   0.001   0.003   0.002  -0.003   0.178  -0.003  -0.002  -0.010  -0.002   0.000   0.000  -0.000   0.000
  0.001   0.002   0.001  -0.044   0.001  -0.001  -0.001  -0.003   0.227  -0.003  -0.001   0.002  -0.000   0.002   0.000   0.000
  0.001   0.001   0.003   0.001  -0.075  -0.001   0.002  -0.002  -0.003   0.171  -0.006  -0.001  -0.000  -0.000   0.001   0.000
  0.006   0.006   0.014   0.005   0.008  -0.002  -0.002  -0.010  -0.001  -0.006   1.077  -0.391   0.000  -0.000   0.003   0.000
  0.001   0.001   0.004   0.000   0.003   0.001   0.002  -0.002   0.002  -0.001  -0.391   0.257   0.000   0.000  -0.001   0.000
  0.000   0.000   0.000   0.000   0.000   0.002  -0.000   0.000  -0.000  -0.000   0.000   0.000   0.164   0.001   0.001  -0.012
  0.000   0.000  -0.000   0.000   0.000  -0.000  -0.000   0.000   0.002  -0.000  -0.000   0.000   0.001   0.164  -0.000  -0.000
 -0.000  -0.000  -0.000  -0.000   0.000   0.000   0.000  -0.000   0.000   0.001   0.003  -0.001   0.001  -0.000   0.164  -0.000
 -0.000  -0.000  -0.000  -0.000  -0.000  -0.000   0.000   0.000   0.000   0.000   0.000   0.000  -0.012  -0.000  -0.000   0.001
 -0.000  -0.000   0.000  -0.000   0.000   0.000   0.000  -0.000  -0.000  -0.000   0.000   0.000  -0.000  -0.012  -0.000   0.000
  0.000  -0.000   0.000   0.000  -0.000  -0.000  -0.000   0.000  -0.000  -0.000  -0.000   0.000  -0.000  -0.000  -0.012   0.000


------------------------ aborting loop because EDIFF is reached ----------------------------------------




--------------------------------------------------------------------------------------------------------


    CHARGE:  VPU time  120.31: CPU time  120.37
    FORLOC:  VPU time    0.10: CPU time    0.10
    FORNL :  VPU time  462.35: CPU time  462.48
    STRESS:  VPU time 3784.58: CPU time 3786.20
    FORCOR:  VPU time    0.70: CPU time    0.70
    FORHAR:  VPU time    0.23: CPU time    0.23
    MIXING:  VPU time    0.02: CPU time    0.02


--------------------------------------------------------------------------------------------------------



  FREE ENERGIE OF THE ION-ELECTRON SYSTEM (eV)
  ---------------------------------------------------
  free  energy   TOTEN  =      -103.682814 eV

  energy  without entropy=     -103.681661  energy(sigma->0) =     -103.682237
 

  FORCE on cell =-STRESS in cart. coord.  units (eV/reduce length):
  Direction    X        Y        Z        XY       YZ       ZX
  --------------------------------------------------------------------------------------
  Alpha Z   3505.33   3505.33   3505.33
  Ewald   -10418.62 -10418.58 -10418.58      0.00     -0.00     -0.00
  Hartree   1210.60   1210.62   1210.62     -0.00     -0.00     -0.00
  E(xc)    -1592.38  -1592.38  -1592.38     -0.00     -0.00      0.00
  Local     2617.14   2617.07   2617.07      0.00     -0.00     -0.00
  n-local  -1566.05  -1572.33  -1559.77      4.28      3.65      3.03
  augment   1373.12   1373.12   1373.12     -0.00     -0.00     -0.00
  Kinetic   4904.79   4898.68   4910.90      0.79     -0.34     -1.48
  -------------------------------------------------------------------------------------
  Total       33.93     33.93     33.93     -0.00      0.00      0.00
  in kB       99.37     99.37     99.37     -0.00      0.00      0.00
  external pressure =       99.37 kB  Pullay stress =        0.00 kB


 VOLUME and BASIS-vectors are now :
 -----------------------------------------------------------------------------
  energy-cutoff  :      750.00
  volume of cell :      547.10
      direct lattice vectors                 reciprocal lattice vectors
     8.178789729  0.000000000  0.000000000     0.122267479  0.000000000  0.000000000
     0.000000000  8.178789729  0.000000000     0.000000000  0.122267479  0.000000000
     0.000000000  0.000000000  8.178789729     0.000000000  0.000000000  0.122267479

  length of vectors
     8.178789729  8.178789729  8.178789729     0.122267479  0.122267479  0.122267479


 FORCES acting on ions
    electron-ion (+dipol)            ewald-force                    non-local-force                 convergence-correction
 -----------------------------------------------------------------------------------------------
   0.410E+01 0.358E-13 0.115E-07   -.414E+01 0.151E-13 -.133E-13   -.371E-01 0.000E+00 -.847E-20   -.308E-04 0.698E-13 -.835E-13
   -.108E+01 0.655E-13 -.115E-07   0.109E+01 -.195E-13 -.622E-13   -.836E-02 0.000E+00 0.000E+00   -.388E-05 0.648E-13 -.128E-12
   0.342E+00 -.156E-14 0.908E-11   -.346E+00 -.355E-13 0.151E-13   0.215E-02 0.271E-19 0.000E+00   -.474E-05 -.164E-12 -.537E-13
   -.278E+00 0.139E-11 0.877E-11   0.271E+00 -.941E-13 0.666E-13   0.404E-02 0.000E+00 0.169E-20   0.756E-05 -.163E-12 -.734E-13
   0.342E+00 0.362E-13 0.156E-10   -.346E+00 -.702E-13 0.355E-14   0.215E-02 0.136E-19 0.000E+00   -.440E-05 0.678E-13 -.346E-14
   -.278E+00 0.163E-13 0.168E-10   0.271E+00 -.471E-13 0.533E-14   0.404E-02 -.339E-20 0.000E+00   0.747E-05 0.620E-13 0.435E-13
   0.145E+00 -.174E-14 -.101E-10   -.143E+00 -.506E-13 -.933E-13   -.160E-02 -.678E-20 -.678E-20   -.490E-05 -.163E-12 -.271E-13
   -.131E+00 -.434E-11 -.886E-11   0.133E+00 -.799E-13 -.941E-13   -.122E-02 -.136E-19 0.136E-19   0.646E-06 -.160E-12 -.166E-13
   -.518E+00 -.995E+00 -.935E-13   0.524E+00 0.101E+01 -.950E-13   0.466E-02 0.122E-02 -.678E-20   0.556E-05 0.294E-05 -.107E-12
   -.521E+00 0.987E+00 -.604E-11   0.528E+00 -.100E+01 -.808E-13   0.454E-02 -.113E-02 0.000E+00   0.637E-05 -.259E-05 -.678E-13
   -.518E+00 0.995E+00 -.130E-12   0.524E+00 -.101E+01 0.977E-14   0.466E-02 -.122E-02 0.000E+00   0.556E-05 -.294E-05 -.882E-13
   -.521E+00 -.987E+00 0.557E-11   0.528E+00 0.100E+01 0.977E-14   0.454E-02 0.113E-02 -.678E-20   0.637E-05 0.259E-05 -.584E-13
   -.155E-01 -.826E-01 0.201E-11   0.160E-01 0.828E-01 -.187E-13   -.538E-03 -.108E-03 0.000E+00   -.670E-07 0.212E-05 0.306E-13
   -.172E-01 0.825E-01 0.328E-11   0.176E-01 -.827E-01 -.293E-13   -.539E-03 0.103E-03 0.000E+00   0.470E-08 -.121E-05 -.646E-14
   -.155E-01 0.826E-01 0.206E-11   0.160E-01 -.828E-01 -.123E-12   -.538E-03 0.108E-03 -.339E-20   -.670E-07 -.212E-05 0.668E-14
   -.172E-01 -.825E-01 -.849E-11   0.176E-01 0.827E-01 -.123E-12   -.539E-03 -.103E-03 -.678E-20   0.470E-08 0.121E-05 -.185E-13
   -.518E+00 0.180E-13 -.995E+00   0.524E+00 0.915E-13 0.101E+01   0.466E-02 -.339E-20 0.122E-02   0.549E-05 0.547E-13 0.301E-05
   -.521E+00 0.257E-13 0.987E+00   0.528E+00 0.116E-12 -.100E+01   0.454E-02 0.169E-19 -.113E-02   0.629E-05 0.611E-13 -.266E-05
   -.155E-01 0.648E-12 -.826E-01   0.160E-01 0.577E-13 0.828E-01   -.538E-03 0.169E-20 -.108E-03   -.456E-07 -.152E-12 0.219E-05
   -.172E-01 0.733E-11 0.825E-01   0.176E-01 0.577E-13 -.827E-01   -.539E-03 0.339E-20 0.103E-03   0.265E-07 -.164E-12 -.128E-05
   -.518E+00 0.520E-13 0.995E+00   0.524E+00 0.675E-13 -.101E+01   0.466E-02 0.339E-20 -.122E-02   0.549E-05 0.766E-13 -.301E-05
   -.521E+00 0.413E-13 -.987E+00   0.528E+00 0.124E-12 0.100E+01   0.454E-02 -.339E-20 0.113E-02   0.629E-05 0.714E-13 0.266E-05
   -.155E-01 0.707E-12 0.826E-01   0.160E-01 0.103E-12 -.828E-01   -.538E-03 0.000E+00 0.108E-03   -.456E-07 -.174E-12 -.219E-05
   -.172E-01 -.448E-11 -.825E-01   0.176E-01 0.462E-13 0.827E-01   -.539E-03 0.296E-20 -.103E-03   0.265E-07 -.174E-12 0.128E-05
   0.645E+00 0.248E-02 0.248E-02   -.652E+00 -.251E-02 -.251E-02   0.328E-02 0.538E-05 0.538E-05   -.549E-05 0.297E-06 0.297E-06
   -.363E+00 -.732E-03 -.732E-03   0.367E+00 0.751E-03 0.751E-03   -.243E-02 -.175E-04 -.175E-04   0.192E-05 0.669E-06 0.669E-06
   0.645E+00 -.248E-02 0.248E-02   -.652E+00 0.251E-02 -.251E-02   0.328E-02 -.538E-05 0.538E-05   -.549E-05 -.297E-06 0.297E-06
   -.363E+00 0.732E-03 -.732E-03   0.367E+00 -.751E-03 0.751E-03   -.243E-02 0.175E-04 -.175E-04   0.192E-05 -.669E-06 0.669E-06
   0.645E+00 0.248E-02 -.248E-02   -.652E+00 -.251E-02 0.251E-02   0.328E-02 0.538E-05 -.538E-05   -.549E-05 0.297E-06 -.297E-06
   -.363E+00 -.732E-03 0.732E-03   0.367E+00 0.751E-03 -.751E-03   -.243E-02 -.175E-04 0.175E-04   0.192E-05 0.669E-06 -.669E-06
   0.645E+00 -.248E-02 -.248E-02   -.652E+00 0.251E-02 0.251E-02   0.328E-02 -.538E-05 -.538E-05   -.549E-05 -.297E-06 -.297E-06
   -.363E+00 0.732E-03 0.732E-03   0.367E+00 -.751E-03 -.751E-03   -.243E-02 0.175E-04 0.175E-04   0.192E-05 -.669E-06 -.669E-06
 -----------------------------------------------------------------------------------------------
   -.250E-05 0.440E-11 -.232E-10   0.207E-13 0.850E-13 -.121E-12   0.136E-05 0.440E-19 0.237E-19   -.928E-07 -.407E-12 -.980E-13
 
 
 POSITION                                       TOTAL-FORCE (eV/Angst)
 -----------------------------------------------------------------------------------
      0.01000      0.00000      0.00000        -0.075358      0.000000      0.000000
      4.08939      0.00000      0.00000         0.005852      0.000000     -0.000000
      0.00000      4.08939      0.00000        -0.001145      0.000000      0.000000
      4.08939      4.08939      0.00000        -0.002205      0.000000     -0.000000
      0.00000      0.00000      4.08939        -0.001145      0.000000     -0.000000
      4.08939      0.00000      4.08939        -0.002205      0.000000      0.000000
      0.00000      4.08939      4.08939         0.000817      0.000000      0.000000
      4.08939      4.08939      4.08939         0.000757      0.000000      0.000000
      2.04470      2.04470      0.00000         0.011098      0.014026      0.000000
      6.13409      2.04470      0.00000         0.010760     -0.013542     -0.000000
      2.04470      6.13409      0.00000         0.011098     -0.014026      0.000000
      6.13409      6.13409      0.00000         0.010760      0.013542      0.000000
      2.04470      2.04470      4.08939        -0.000118      0.000116      0.000000
      6.13409      2.04470      4.08939        -0.000119     -0.000115      0.000000
      2.04470      6.13409      4.08939        -0.000118     -0.000116      0.000000
      6.13409      6.13409      4.08939        -0.000119      0.000115      0.000000
      2.04470      0.00000      2.04470         0.011098      0.000000      0.014026
      6.13409      0.00000      2.04470         0.010760      0.000000     -0.013542
      2.04470      4.08939      2.04470        -0.000118      0.000000      0.000116
      6.13409      4.08939      2.04470        -0.000119      0.000000     -0.000115
      2.04470      0.00000      6.13409         0.011098      0.000000     -0.014026
      6.13409      0.00000      6.13409         0.010760      0.000000      0.013542
      2.04470      4.08939      6.13409        -0.000118      0.000000     -0.000116
      6.13409      4.08939      6.13409        -0.000119      0.000000      0.000115
      0.00000      2.04470      2.04470        -0.003923     -0.000017     -0.000017
      4.08939      2.04470      2.04470         0.000960      0.000002      0.000002
      0.00000      6.13409      2.04470        -0.003923      0.000017     -0.000017
      4.08939      6.13409      2.04470         0.000960     -0.000002      0.000002
      0.00000      2.04470      6.13409        -0.003923     -0.000017      0.000017
      4.08939      2.04470      6.13409         0.000960      0.000002     -0.000002
      0.00000      6.13409      6.13409        -0.003923      0.000017      0.000017
      4.08939      6.13409      6.13409         0.000960     -0.000002     -0.000002
 -----------------------------------------------------------------------------------
    total drift:                               -0.000001      0.000000     -0.000000


--------------------------------------------------------------------------------------------------------



 mean value of Nose-termostat <S>:     1.000 mean value of <T> :     0.000
 mean temperature <T/S>/<1/S>  :     0.000

     LOOP+:  VPU time60908.48: CPU time60941.99
  
  
 General timing and accounting informations for this job:
 ========================================================
  
                  Total CPU time used (sec):    61447.739
                            User time (sec):    60354.108
                          System time (sec):     1093.631
                         Elapsed time (sec):    61481.504
  
                   Maximum memory used (kb):     8000628.
                   Average memory used (kb):           0.
  
                          Minor page faults:      1072674
                          Major page faults:            0
                 Voluntary context switches:         1064
