 running on    4 nodes
 distr:  one band on    1 nodes,    4 groups
 vasp.4.6.28 25Jul05 complex 
 POSCAR found :  1 types and   32 ions

 ----------------------------------------------------------------------------- 
|                                                                             |
|  ADVICE TO THIS USER RUNNING 'VASP/VAMP'   (HEAR YOUR MASTER'S VOICE ...):  |
|                                                                             |
|      You have a (more or less) 'large supercell' and for larger cells       |
|      it might be more efficient to use real space projection operators      |
|      So try LREAL= Auto  in the INCAR   file.                               |
|      Mind: If you want to do an extremely accurate calculations keep the    |
|      reciprocal projection scheme          (i.e. LREAL=.FALSE.)             |
|                                                                             |
 ----------------------------------------------------------------------------- 

 LDA part: xc-table for Pade appr. of Perdew
 POSCAR, INCAR and KPOINTS ok, starting setup
 FFT: planning ...           1
 reading WAVECAR
 WARNING: random wavefunctions but no delay for mixing, default for NELMDL
 entering main loop
       N       E                     dE             d eps       ncg     rms          rms(c)
DAV:   1     0.447916404307E+04    0.44792E+04   -0.21626E+05 83160   0.235E+03
DAV:   2     0.146014027087E+03   -0.43332E+04   -0.41504E+04 83104   0.574E+02
DAV:   3    -0.908750730336E+02   -0.23689E+03   -0.22543E+03 86576   0.162E+02
DAV:   4    -0.957871059132E+02   -0.49120E+01   -0.48800E+01 89476   0.222E+01
DAV:   5    -0.958137486206E+02   -0.26643E-01   -0.26616E-01 88284   0.134E+00    0.173E+01
DAV:   6    -0.880917146974E+02    0.77220E+01   -0.25922E+01 87764   0.203E+01    0.332E+00
DAV:   7    -0.877698116583E+02    0.32190E+00   -0.60577E-01 87428   0.207E+00    0.152E+00
DAV:   8    -0.876426201225E+02    0.12719E+00   -0.40303E-02 87004   0.797E-01    0.124E-01
DAV:   9    -0.876434393615E+02   -0.81924E-03   -0.23326E-03 89192   0.155E-01    0.780E-02
DAV:  10    -0.876432906294E+02    0.14873E-03   -0.18686E-04 86776   0.465E-02    0.101E-02
DAV:  11    -0.876432821881E+02    0.84414E-05   -0.54131E-06 89300   0.106E-02    0.375E-03
DAV:  12    -0.876432794759E+02    0.27122E-05   -0.76044E-07 87488   0.325E-03    0.103E-03
DAV:  13    -0.876432767805E+02    0.26953E-05   -0.60597E-08 80840   0.816E-04    0.185E-04
DAV:  14    -0.876432762562E+02    0.52433E-06   -0.26963E-09 46992   0.270E-04    0.465E-05
DAV:  15    -0.876432761630E+02    0.93190E-07   -0.44971E-10 45912   0.115E-04    0.246E-05
DAV:  16    -0.876432761049E+02    0.58077E-07    0.11008E-11 45100   0.409E-05    0.131E-05
DAV:  17    -0.876432760815E+02    0.23450E-07    0.72326E-11 44812   0.224E-05    0.149E-05
DAV:  18    -0.876432760705E+02    0.10979E-07    0.85823E-11 44596   0.974E-06    0.175E-05
DAV:  19    -0.876432760689E+02    0.15643E-08    0.93930E-11 44272   0.424E-06
   1 F= -.87643276E+02 E0= -.87642868E+02  d E =-.816165E-03
