  32  32   0   0
  0.1596038E+02  0.7993392E-09  0.7993392E-09  0.7993392E-09  0.5000000E-15
  1.000000000000000E-004
  CAR 
 unknown system                          
     13.86632100     -4.98619444  301      4.17837796      1.00000000
     -4.986  0.0000E+00  0.0000E+00
     -4.923  0.0000E+00  0.0000E+00
     -4.861  0.0000E+00  0.0000E+00
     -4.798  0.0000E+00  0.0000E+00
     -4.735  0.0000E+00  0.0000E+00
     -4.672  0.0000E+00  0.0000E+00
     -4.609  0.0000E+00  0.0000E+00
     -4.546  0.0000E+00  0.0000E+00
     -4.483  0.0000E+00  0.0000E+00
     -4.421  0.0000E+00  0.0000E+00
     -4.358  0.0000E+00  0.0000E+00
     -4.295  0.0000E+00  0.0000E+00
     -4.232  0.0000E+00  0.0000E+00
     -4.169  0.1431E-09  0.8994E-11
     -4.106  0.9799E-01  0.6158E-02
     -4.044  0.5300E+00  0.3947E-01
     -3.981  0.9244E+00  0.9756E-01
     -3.918  0.1425E+01  0.1871E+00
     -3.855  0.1562E+01  0.2853E+00
     -3.792  0.1314E+01  0.3679E+00
     -3.729  0.2064E+01  0.4978E+00
     -3.667  0.1184E+01  0.5721E+00
     -3.604  0.2438E+01  0.7254E+00
     -3.541  0.2181E+01  0.8624E+00
     -3.478  0.2900E+01  0.1045E+01
     -3.415  0.2186E+01  0.1182E+01
     -3.352  0.3506E+01  0.1402E+01
     -3.289  0.2737E+01  0.1575E+01
     -3.227  0.2641E+01  0.1741E+01
     -3.164  0.4363E+01  0.2015E+01
     -3.101  0.2725E+01  0.2186E+01
     -3.038  0.4288E+01  0.2456E+01
     -2.975  0.4446E+01  0.2735E+01
     -2.912  0.3588E+01  0.2961E+01
     -2.850  0.5514E+01  0.3307E+01
     -2.787  0.4553E+01  0.3593E+01
     -2.724  0.9244E+01  0.4174E+01
     -2.661  0.2034E+02  0.5453E+01
     -2.598  0.3116E+02  0.7412E+01
     -2.535  0.4811E+02  0.1044E+02
     -2.473  0.5602E+02  0.1396E+02
     -2.410  0.6246E+02  0.1788E+02
     -2.347  0.6874E+02  0.2221E+02
     -2.284  0.8035E+02  0.2726E+02
     -2.221  0.9385E+02  0.3315E+02
     -2.158  0.1139E+03  0.4031E+02
     -2.095  0.1116E+03  0.4733E+02
     -2.033  0.9729E+02  0.5344E+02
     -1.970  0.8695E+02  0.5891E+02
     -1.907  0.8545E+02  0.6428E+02
     -1.844  0.7141E+02  0.6877E+02
     -1.781  0.8004E+02  0.7380E+02
     -1.718  0.5505E+02  0.7726E+02
     -1.656  0.5952E+02  0.8100E+02
     -1.593  0.5777E+02  0.8463E+02
     -1.530  0.6471E+02  0.8870E+02
     -1.467  0.7445E+02  0.9338E+02
     -1.404  0.6860E+02  0.9769E+02
     -1.341  0.7398E+02  0.1023E+03
     -1.279  0.8353E+02  0.1076E+03
     -1.216  0.6909E+02  0.1119E+03
     -1.153  0.7326E+02  0.1165E+03
     -1.090  0.6794E+02  0.1208E+03
     -1.027  0.8131E+02  0.1259E+03
     -0.964  0.7117E+02  0.1304E+03
     -0.901  0.7549E+02  0.1351E+03
     -0.839  0.8968E+02  0.1408E+03
     -0.776  0.1070E+03  0.1475E+03
     -0.713  0.1162E+03  0.1548E+03
     -0.650  0.1520E+03  0.1644E+03
     -0.587  0.1304E+03  0.1726E+03
     -0.524  0.9359E+02  0.1784E+03
     -0.462  0.8426E+02  0.1837E+03
     -0.399  0.6960E+02  0.1881E+03
     -0.336  0.6740E+02  0.1924E+03
     -0.273  0.8238E+02  0.1975E+03
     -0.210  0.7051E+02  0.2020E+03
     -0.147  0.6797E+02  0.2062E+03
     -0.085  0.7334E+02  0.2108E+03
     -0.022  0.8917E+02  0.2165E+03
      0.041  0.8568E+02  0.2218E+03
      0.104  0.9125E+02  0.2276E+03
      0.167  0.8355E+02  0.2328E+03
      0.230  0.9610E+02  0.2389E+03
      0.293  0.9265E+02  0.2447E+03
      0.355  0.8146E+02  0.2498E+03
      0.418  0.8051E+02  0.2549E+03
      0.481  0.7488E+02  0.2596E+03
      0.544  0.7566E+02  0.2643E+03
      0.607  0.6318E+02  0.2683E+03
      0.670  0.7956E+02  0.2733E+03
      0.732  0.6991E+02  0.2777E+03
      0.795  0.7601E+02  0.2825E+03
      0.858  0.7542E+02  0.2872E+03
      0.921  0.9276E+02  0.2931E+03
      0.984  0.8914E+02  0.2987E+03
      1.047  0.1295E+03  0.3068E+03
      1.109  0.1306E+03  0.3150E+03
      1.172  0.1130E+03  0.3221E+03
      1.235  0.6931E+02  0.3265E+03
      1.298  0.4825E+02  0.3295E+03
      1.361  0.3460E+02  0.3317E+03
      1.424  0.7228E+01  0.3321E+03
      1.487  0.4645E+01  0.3324E+03
      1.549  0.5905E+01  0.3328E+03
      1.612  0.7667E+01  0.3333E+03
      1.675  0.7837E+01  0.3338E+03
      1.738  0.5854E+01  0.3341E+03
      1.801  0.5058E+01  0.3345E+03
      1.864  0.7226E+01  0.3349E+03
      1.926  0.9862E+01  0.3355E+03
      1.989  0.5084E+01  0.3358E+03
      2.052  0.4824E+01  0.3361E+03
      2.115  0.5921E+01  0.3365E+03
      2.178  0.9891E+01  0.3371E+03
      2.241  0.7235E+01  0.3376E+03
      2.303  0.6414E+01  0.3380E+03
      2.366  0.3585E+01  0.3382E+03
      2.429  0.6214E+01  0.3386E+03
      2.492  0.8026E+01  0.3391E+03
      2.555  0.1144E+02  0.3398E+03
      2.618  0.4314E+01  0.3401E+03
      2.680  0.8416E+01  0.3406E+03
      2.743  0.3555E+01  0.3409E+03
      2.806  0.5528E+01  0.3412E+03
      2.869  0.1029E+02  0.3419E+03
      2.932  0.8889E+01  0.3424E+03
      2.995  0.5496E+01  0.3428E+03
      3.058  0.8453E+01  0.3433E+03
      3.120  0.3101E+01  0.3435E+03
      3.183  0.6721E+01  0.3439E+03
      3.246  0.1051E+02  0.3446E+03
      3.309  0.9787E+01  0.3452E+03
      3.372  0.7567E+01  0.3457E+03
      3.435  0.5571E+01  0.3460E+03
      3.497  0.7160E+01  0.3465E+03
      3.560  0.4506E+01  0.3467E+03
      3.623  0.7266E+01  0.3472E+03
      3.686  0.1245E+02  0.3480E+03
      3.749  0.1032E+02  0.3486E+03
      3.812  0.6078E+01  0.3490E+03
      3.874  0.8639E+01  0.3496E+03
      3.937  0.5917E+01  0.3499E+03
      4.000  0.5477E+01  0.3503E+03
      4.063  0.9340E+01  0.3509E+03
      4.126  0.1118E+02  0.3516E+03
      4.189  0.9563E+01  0.3522E+03
      4.252  0.7816E+01  0.3527E+03
      4.314  0.5542E+01  0.3530E+03
      4.377  0.7406E+01  0.3535E+03
      4.440  0.7605E+01  0.3540E+03
      4.503  0.7899E+01  0.3544E+03
      4.566  0.1140E+02  0.3552E+03
      4.629  0.7662E+01  0.3556E+03
      4.691  0.8757E+01  0.3562E+03
      4.754  0.6108E+01  0.3566E+03
      4.817  0.8851E+01  0.3571E+03
      4.880  0.4887E+01  0.3574E+03
      4.943  0.6533E+01  0.3579E+03
      5.006  0.1367E+02  0.3587E+03
      5.068  0.8735E+01  0.3593E+03
      5.131  0.7076E+01  0.3597E+03
      5.194  0.6551E+01  0.3601E+03
      5.257  0.8405E+01  0.3606E+03
      5.320  0.6685E+01  0.3611E+03
      5.383  0.6103E+01  0.3615E+03
      5.446  0.8518E+01  0.3620E+03
      5.508  0.1164E+02  0.3627E+03
      5.571  0.7331E+01  0.3632E+03
      5.634  0.9281E+01  0.3638E+03
      5.697  0.7585E+01  0.3642E+03
      5.760  0.5995E+01  0.3646E+03
      5.823  0.6660E+01  0.3650E+03
      5.885  0.8383E+01  0.3656E+03
      5.948  0.7007E+01  0.3660E+03
      6.011  0.1083E+02  0.3667E+03
      6.074  0.9517E+01  0.3673E+03
      6.137  0.6162E+01  0.3677E+03
      6.200  0.8579E+01  0.3682E+03
      6.262  0.9651E+01  0.3688E+03
      6.325  0.2177E+01  0.3690E+03
      6.388  0.6304E+01  0.3693E+03
      6.451  0.9621E+01  0.3700E+03
      6.514  0.9853E+01  0.3706E+03
      6.577  0.6200E+01  0.3710E+03
      6.640  0.8691E+01  0.3715E+03
      6.702  0.5175E+01  0.3718E+03
      6.765  0.5989E+01  0.3722E+03
      6.828  0.6840E+01  0.3726E+03
      6.891  0.6838E+01  0.3731E+03
      6.954  0.5465E+01  0.3734E+03
      7.017  0.7680E+01  0.3739E+03
      7.079  0.7060E+01  0.3743E+03
      7.142  0.6529E+01  0.3747E+03
      7.205  0.5354E+01  0.3751E+03
      7.268  0.7997E+01  0.3756E+03
      7.331  0.6587E+01  0.3760E+03
      7.394  0.3259E+01  0.3762E+03
      7.456  0.4312E+01  0.3765E+03
      7.519  0.7708E+01  0.3770E+03
      7.582  0.5445E+01  0.3773E+03
      7.645  0.4462E+01  0.3776E+03
      7.708  0.7870E+01  0.3781E+03
      7.771  0.4379E+01  0.3784E+03
      7.834  0.4595E+01  0.3786E+03
      7.896  0.5220E+01  0.3790E+03
      7.959  0.5212E+01  0.3793E+03
      8.022  0.2132E+01  0.3794E+03
      8.085  0.5227E+01  0.3798E+03
      8.148  0.8116E+01  0.3803E+03
      8.211  0.7500E+01  0.3807E+03
      8.273  0.8232E+01  0.3813E+03
      8.336  0.1059E+02  0.3819E+03
      8.399  0.1220E+02  0.3827E+03
      8.462  0.9744E+01  0.3833E+03
      8.525  0.1030E+02  0.3840E+03
      8.588  0.9445E+01  0.3845E+03
      8.650  0.1414E+02  0.3854E+03
      8.713  0.8480E+01  0.3860E+03
      8.776  0.1411E+02  0.3869E+03
      8.839  0.9918E+01  0.3875E+03
      8.902  0.6198E+01  0.3879E+03
      8.965  0.1284E+02  0.3887E+03
      9.028  0.8864E+01  0.3892E+03
      9.090  0.1115E+02  0.3899E+03
      9.153  0.9283E+01  0.3905E+03
      9.216  0.9258E+01  0.3911E+03
      9.279  0.1218E+02  0.3919E+03
      9.342  0.9647E+01  0.3925E+03
      9.405  0.7722E+01  0.3930E+03
      9.467  0.1383E+02  0.3938E+03
      9.530  0.6116E+01  0.3942E+03
      9.593  0.1016E+02  0.3948E+03
      9.656  0.8161E+01  0.3954E+03
      9.719  0.1053E+02  0.3960E+03
      9.782  0.7715E+01  0.3965E+03
      9.844  0.8429E+01  0.3970E+03
      9.907  0.1152E+02  0.3978E+03
      9.970  0.8765E+01  0.3983E+03
     10.033  0.7794E+01  0.3988E+03
     10.096  0.6655E+01  0.3992E+03
     10.159  0.1162E+02  0.4000E+03
     10.222  0.8782E+01  0.4005E+03
     10.284  0.5183E+01  0.4008E+03
     10.347  0.1105E+02  0.4015E+03
     10.410  0.9851E+01  0.4021E+03
     10.473  0.5901E+01  0.4025E+03
     10.536  0.8462E+01  0.4030E+03
     10.599  0.1033E+02  0.4037E+03
     10.661  0.6506E+01  0.4041E+03
     10.724  0.8425E+01  0.4046E+03
     10.787  0.7203E+01  0.4051E+03
     10.850  0.1029E+02  0.4057E+03
     10.913  0.5347E+01  0.4061E+03
     10.976  0.9514E+01  0.4067E+03
     11.038  0.9019E+01  0.4072E+03
     11.101  0.7417E+01  0.4077E+03
     11.164  0.8671E+01  0.4082E+03
     11.227  0.7599E+01  0.4087E+03
     11.290  0.8814E+01  0.4093E+03
     11.353  0.7364E+01  0.4097E+03
     11.415  0.6171E+01  0.4101E+03
     11.478  0.1372E+02  0.4110E+03
     11.541  0.9541E+01  0.4116E+03
     11.604  0.1323E+02  0.4124E+03
     11.667  0.1554E+02  0.4134E+03
     11.730  0.1262E+02  0.4142E+03
     11.793  0.1169E+02  0.4149E+03
     11.855  0.8093E+01  0.4154E+03
     11.918  0.8881E+01  0.4160E+03
     11.981  0.1641E+02  0.4170E+03
     12.044  0.1399E+02  0.4179E+03
     12.107  0.1873E+02  0.4191E+03
     12.170  0.1519E+02  0.4200E+03
     12.232  0.1171E+02  0.4208E+03
     12.295  0.8107E+01  0.4213E+03
     12.358  0.6856E+01  0.4217E+03
     12.421  0.6592E+01  0.4221E+03
     12.484  0.7322E+01  0.4226E+03
     12.547  0.5448E+01  0.4229E+03
     12.609  0.4014E+01  0.4232E+03
     12.672  0.5520E+01  0.4235E+03
     12.735  0.3601E+01  0.4238E+03
     12.798  0.1240E+01  0.4238E+03
     12.861  0.1024E+01  0.4239E+03
     12.924  0.7226E+00  0.4239E+03
     12.987  0.4495E+00  0.4240E+03
     13.049  0.4362E+00  0.4240E+03
     13.112  0.0000E+00  0.4240E+03
     13.175  0.0000E+00  0.4240E+03
     13.238  0.0000E+00  0.4240E+03
     13.301  0.0000E+00  0.4240E+03
     13.364  0.0000E+00  0.4240E+03
     13.426  0.0000E+00  0.4240E+03
     13.489  0.0000E+00  0.4240E+03
     13.552  0.0000E+00  0.4240E+03
     13.615  0.0000E+00  0.4240E+03
     13.678  0.0000E+00  0.4240E+03
     13.741  0.0000E+00  0.4240E+03
     13.803  0.0000E+00  0.4240E+03
     13.866  0.0000E+00  0.4240E+03
