   32   32    1    1
  0.1596038E+02  0.7993392E-09  0.7993392E-09  0.7993392E-09  0.5000000E-15
  1.000000000000000E-004
  CAR 
 unknown system                          
  352  196  212
 
  0.0000000E+00  0.0000000E+00  0.0000000E+00  0.5787037E-03
   1       -4.1293
   2       -2.7896
   3       -2.7895
   4       -2.7895
   5       -2.7177
   6       -2.7177
   7       -2.7177
   8       -2.7177
   9       -2.6269
  10       -2.6269
  11       -2.6269
  12       -2.2645
  13       -2.2624
  14       -2.2624
  15       -2.2624
  16       -2.2624
  17       -2.2604
  18       -1.9613
  19       -1.9593
  20       -1.9593
  21       -1.9593
  22       -1.9593
  23       -1.9572
  24       -1.8419
  25       -1.8398
  26       -1.8398
  27       -1.8398
  28       -1.8398
  29       -1.8378
  30       -1.5736
  31       -1.5736
  32       -1.5731
  33       -1.5722
  34       -1.5718
  35       -1.5718
  36       -1.5718
  37       -1.5718
  38       -1.5714
  39       -1.5705
  40       -1.5700
  41       -1.5700
  42       -1.3322
  43       -1.3295
  44       -1.3295
  45       -1.3284
  46       -1.3284
  47       -1.3284
  48       -1.3284
  49       -1.3284
  50       -1.3284
  51       -1.3274
  52       -1.3274
  53       -1.3248
  54       -1.2671
  55       -1.2671
  56       -1.2650
  57       -1.2650
  58       -1.2649
  59       -1.2649
  60       -1.2649
  61       -1.2648
  62       -1.2648
  63       -1.2647
  64       -1.2626
  65       -1.2626
  66       -0.9756
  67       -0.9756
  68       -0.9756
  69       -0.9755
  70       -0.9755
  71       -0.9755
  72       -0.9755
  73       -0.9755
  74       -0.9479
  75       -0.9479
  76       -0.9479
  77       -0.9091
  78       -0.9063
  79       -0.9060
  80       -0.9060
  81       -0.9058
  82       -0.9058
  83       -0.9058
  84       -0.9058
  85       -0.9056
  86       -0.9056
  87       -0.9053
  88       -0.9025
  89       -0.2190
  90       -0.2183
  91       -0.2172
  92       -0.2172
  93       -0.2166
  94       -0.2166
  95       -0.2166
  96       -0.2166
  97       -0.2160
  98       -0.2160
  99       -0.2149
 100       -0.2143
 101        0.0267
 102        0.0267
 103        0.0291
 104        0.0291
 105        0.0293
 106        0.0293
 107        0.0293
 108        0.0293
 109        0.0295
 110        0.0295
 111        0.0318
 112        0.0318
 113        0.1324
 114        0.1343
 115        0.1344
 116        0.1344
 117        0.1344
 118        0.1364
 119        0.2160
 120        0.2169
 121        0.2181
 122        0.2187
 123        0.2187
 124        0.2194
 125        0.2194
 126        0.2205
 127        0.2236
 128        0.2236
 129        0.2255
 130        0.2259
 131        0.2259
 132        0.2259
 133        0.2259
 134        0.2260
 135        0.2264
 136        0.2269
 137        0.2290
 138        0.2290
 139        0.6327
 140        0.6339
 141        0.6339
 142        0.6339
 143        0.6339
 144        0.6351
 145        1.0746
 146        1.0746
 147        1.0746
 148        1.1087
 149        1.1087
 150        1.1087
 151        1.1087
 152        1.1087
 153        1.1087
 154        1.1087
 155        1.1087
 156        1.3418
 157        1.3421
 158        1.3422
 159        1.3422
 160        1.3422
 161        1.3422
 162        1.3433
 163        1.3434
 164        1.3434
 165        1.3434
 166        1.3434
 167        1.3437
 168        3.5500
 169        3.5500
 170        3.5500
 171        3.5501
 172        3.6378
 173        3.6382
 174        3.6382
 175        3.6393
 176        3.6397
 177        3.6397
 178        3.6397
 179        3.6397
 180        3.6401
 181        3.6413
 182        3.6413
 183        3.6417
 184        5.7002
 185        5.7002
 186        5.7002
 187        8.1360
 188        8.1360
 189        8.1360
 190        8.1361
 191       10.3804
 192       10.3804
 193       10.3831
 194       10.3831
 195       10.3836
 196       10.3836
 197       10.3836
 198       10.3836
 199       10.3841
 200       10.3841
 201       10.3868
 202       10.3868
 203       11.4234
 204       11.4235
 205       11.4235
 206       11.7491
 207       11.7491
 208       11.7491
 209       11.7492
 210       11.7492
 211       11.7492
 212       12.7111
 
  0.8333333E-01  0.0000000E+00  0.0000000E+00  0.1157407E-02
   1       -4.1100
   2       -2.7811
   3       -2.7787
   4       -2.7787
   5       -2.7077
   6       -2.7077
   7       -2.7077
   8       -2.7077
   9       -2.6205
  10       -2.6172
  11       -2.6172
  12       -2.3750
  13       -2.2493
  14       -2.2492
  15       -2.2492
  16       -2.2492
  17       -2.2184
  18       -1.9794
  19       -1.9792
  20       -1.9508
  21       -1.9508
  22       -1.9508
  23       -1.9507
  24       -1.9479
  25       -1.8344
  26       -1.8344
  27       -1.8344
  28       -1.8343
  29       -1.7300
  30       -1.6530
  31       -1.6530
  32       -1.6529
  33       -1.6529
  34       -1.5889
  35       -1.5889
  36       -1.5889
  37       -1.5888
  38       -1.5551
  39       -1.5551
  40       -1.5551
  41       -1.5551
  42       -1.4768
  43       -1.4768
  44       -1.3725
  45       -1.3724
  46       -1.3724
  47       -1.3723
  48       -1.2943
  49       -1.2939
  50       -1.2939
  51       -1.2939
  52       -1.2817
  53       -1.2816
  54       -1.2816
  55       -1.2814
  56       -1.2688
  57       -1.2688
  58       -1.2688
  59       -1.2687
  60       -1.2639
  61       -1.2639
  62       -1.2639
  63       -1.2636
  64       -1.0377
  65       -1.0377
  66       -0.9793
  67       -0.9792
  68       -0.9792
  69       -0.9792
  70       -0.9680
  71       -0.9680
  72       -0.9680
  73       -0.9680
  74       -0.9561
  75       -0.9553
  76       -0.9553
  77       -0.9553
  78       -0.9552
  79       -0.9405
  80       -0.9405
  81       -0.9098
  82       -0.9097
  83       -0.9097
  84       -0.9097
  85       -0.8553
  86       -0.8553
  87       -0.8553
  88       -0.8551
  89       -0.2521
  90       -0.2520
  91       -0.2520
  92       -0.2520
  93       -0.2095
  94       -0.2094
  95       -0.2094
  96       -0.2094
  97       -0.1707
  98       -0.1707
  99       -0.1707
 100       -0.1707
 101       -0.1134
 102       -0.1134
 103       -0.1132
 104       -0.1131
 105       -0.1127
 106       -0.1127
 107       -0.0620
 108        0.0287
 109        0.0287
 110        0.0287
 111        0.0288
 112        0.1586
 113        0.1586
 114        0.1587
 115        0.1588
 116        0.1769
 117        0.1769
 118        0.2086
 119        0.2192
 120        0.2194
 121        0.2194
 122        0.2194
 123        0.2202
 124        0.2399
 125        0.2401
 126        0.2634
 127        0.2634
 128        0.2634
 129        0.2634
 130        0.2685
 131        0.2686
 132        0.2686
 133        0.2687
 134        0.3097
 135        0.3098
 136        0.3098
 137        0.3098
 138        0.4345
 139        0.5782
 140        0.6466
 141        0.6466
 142        0.6466
 143        0.6466
 144        0.6900
 145        1.0635
 146        1.0635
 147        1.0707
 148        1.0740
 149        1.0741
 150        1.0741
 151        1.0741
 152        1.0990
 153        1.0990
 154        1.0990
 155        1.0990
 156        1.3001
 157        1.3001
 158        1.3286
 159        1.3286
 160        1.3286
 161        1.3286
 162        1.3287
 163        1.3287
 164        1.3418
 165        1.3422
 166        1.3433
 167        1.3437
 168        3.2430
 169        3.2430
 170        3.2430
 171        3.2431
 172        3.5551
 173        3.5551
 174        3.5551
 175        3.5551
 176        3.6397
 177        3.6397
 178        3.6398
 179        3.6398
 180        4.0687
 181        4.0687
 182        4.0687
 183        4.0687
 184        5.5730
 185        5.7575
 186        5.7575
 187        8.1917
 188        8.1917
 189        8.1917
 190        8.1917
 191        9.8415
 192        9.8415
 193       10.0677
 194       10.0677
 195       10.0677
 196       10.0677
 197       10.4149
 198       10.4149
 199       10.4149
 200       10.4149
 201       10.9299
 202       10.9299
 203       11.4255
 204       11.4255
 205       11.5788
 206       11.7332
 207       11.7332
 208       11.9160
 209       11.9160
 210       11.9160
 211       11.9160
 212       12.7551
 
  0.1666667E+00  0.0000000E+00  0.0000000E+00  0.1157407E-02
   1       -4.0523
   2       -2.7560
   3       -2.7466
   4       -2.7465
   5       -2.6779
   6       -2.6779
   7       -2.6779
   8       -2.6779
   9       -2.6015
  10       -2.5881
  11       -2.5881
  12       -2.5516
  13       -2.2310
  14       -2.2102
  15       -2.2101
  16       -2.2101
  17       -2.2101
  18       -2.0524
  19       -2.0356
  20       -2.0356
  21       -1.9258
  22       -1.9258
  23       -1.9258
  24       -1.9258
  25       -1.8183
  26       -1.8183
  27       -1.8183
  28       -1.8182
  29       -1.8020
  30       -1.8019
  31       -1.8019
  32       -1.8019
  33       -1.6725
  34       -1.6725
  35       -1.6203
  36       -1.6035
  37       -1.6035
  38       -1.6035
  39       -1.6035
  40       -1.5479
  41       -1.5479
  42       -1.5479
  43       -1.5479
  44       -1.4242
  45       -1.4242
  46       -1.4242
  47       -1.4242
  48       -1.2797
  49       -1.2797
  50       -1.2797
  51       -1.2796
  52       -1.2696
  53       -1.2689
  54       -1.2689
  55       -1.2689
  56       -1.2612
  57       -1.2612
  58       -1.2612
  59       -1.2606
  60       -1.2236
  61       -1.2236
  62       -1.2236
  63       -1.2235
  64       -1.0387
  65       -1.0387
  66       -1.0387
  67       -1.0387
  68       -0.9901
  69       -0.9901
  70       -0.9901
  71       -0.9901
  72       -0.9804
  73       -0.9543
  74       -0.9542
  75       -0.9542
  76       -0.9542
  77       -0.9455
  78       -0.9455
  79       -0.9454
  80       -0.9454
  81       -0.9183
  82       -0.9183
  83       -0.7968
  84       -0.7968
  85       -0.7159
  86       -0.7159
  87       -0.7159
  88       -0.7159
  89       -0.3343
  90       -0.3342
  91       -0.3342
  92       -0.3342
  93       -0.2909
  94       -0.2909
  95       -0.2909
  96       -0.2909
  97       -0.2476
  98       -0.2476
  99       -0.1607
 100       -0.1498
 101       -0.1498
 102       -0.1498
 103       -0.1497
 104       -0.0960
 105       -0.0960
 106       -0.0960
 107       -0.0959
 108        0.0272
 109        0.0272
 110        0.0272
 111        0.0273
 112        0.1078
 113        0.1078
 114        0.1078
 115        0.1078
 116        0.1840
 117        0.2189
 118        0.2189
 119        0.2189
 120        0.2189
 121        0.2306
 122        0.2981
 123        0.2982
 124        0.3275
 125        0.3275
 126        0.3517
 127        0.3517
 128        0.3517
 129        0.3518
 130        0.3890
 131        0.3890
 132        0.3890
 133        0.3890
 134        0.4091
 135        0.4091
 136        0.4092
 137        0.4092
 138        0.5238
 139        0.7171
 140        0.7171
 141        0.7171
 142        0.7171
 143        0.7456
 144        0.8266
 145        0.9746
 146        0.9746
 147        0.9746
 148        0.9746
 149        1.0306
 150        1.0306
 151        1.0591
 152        1.0702
 153        1.0702
 154        1.0702
 155        1.0702
 156        1.1804
 157        1.1804
 158        1.2851
 159        1.2851
 160        1.2851
 161        1.2851
 162        1.2887
 163        1.2887
 164        1.3419
 165        1.3422
 166        1.3433
 167        1.3436
 168        2.8754
 169        2.8754
 170        2.8754
 171        2.8754
 172        3.5683
 173        3.5684
 174        3.5684
 175        3.5684
 176        3.6397
 177        3.6397
 178        3.6397
 179        3.6397
 180        4.5327
 181        4.5327
 182        4.5327
 183        4.5327
 184        5.2277
 185        5.9228
 186        5.9228
 187        8.3562
 188        8.3562
 189        8.3562
 190        8.3562
 191        9.3071
 192        9.3071
 193        9.4446
 194        9.4446
 195        9.4446
 196        9.4447
 197       10.5080
 198       10.5080
 199       10.5080
 200       10.5080
 201       11.4318
 202       11.4318
 203       11.4768
 204       11.4768
 205       11.6929
 206       11.6930
 207       12.0086
 208       12.1034
 209       12.1034
 210       12.1034
 211       12.1034
 212       12.4855
 
  0.2500000E+00  0.0000000E+00  0.0000000E+00  0.1157407E-02
   1       -3.9571
   2       -2.7714
   3       -2.7152
   4       -2.6941
   5       -2.6941
   6       -2.6286
   7       -2.6286
   8       -2.6286
   9       -2.6285
  10       -2.5700
  11       -2.5398
  12       -2.5398
  13       -2.2811
  14       -2.1518
  15       -2.1467
  16       -2.1466
  17       -2.1466
  18       -2.1466
  19       -2.1197
  20       -2.1196
  21       -1.9587
  22       -1.9587
  23       -1.9587
  24       -1.9587
  25       -1.8857
  26       -1.8857
  27       -1.8857
  28       -1.8857
  29       -1.8512
  30       -1.8512
  31       -1.7917
  32       -1.7916
  33       -1.7916
  34       -1.7916
  35       -1.6175
  36       -1.6175
  37       -1.6175
  38       -1.6175
  39       -1.5675
  40       -1.5675
  41       -1.5675
  42       -1.5675
  43       -1.5127
  44       -1.4817
  45       -1.4816
  46       -1.4816
  47       -1.4816
  48       -1.2949
  49       -1.2948
  50       -1.2948
  51       -1.2948
  52       -1.2582
  53       -1.2571
  54       -1.2571
  55       -1.2571
  56       -1.2529
  57       -1.2528
  58       -1.2528
  59       -1.2518
  60       -1.1830
  61       -1.1830
  62       -1.1830
  63       -1.1829
  64       -1.1322
  65       -1.1322
  66       -1.1322
  67       -1.1321
  68       -1.0203
  69       -1.0076
  70       -1.0075
  71       -1.0075
  72       -1.0075
  73       -0.9965
  74       -0.9964
  75       -0.9964
  76       -0.9963
  77       -0.9083
  78       -0.9083
  79       -0.9083
  80       -0.9082
  81       -0.8814
  82       -0.8814
  83       -0.5439
  84       -0.5439
  85       -0.5211
  86       -0.5211
  87       -0.5211
  88       -0.5211
  89       -0.4592
  90       -0.4591
  91       -0.4591
  92       -0.4591
  93       -0.4327
  94       -0.4327
  95       -0.4327
  96       -0.4327
  97       -0.3736
  98       -0.3736
  99       -0.1835
 100       -0.0598
 101       -0.0598
 102       -0.0597
 103       -0.0597
 104       -0.0159
 105       -0.0159
 106       -0.0159
 107       -0.0158
 108        0.0252
 109        0.0252
 110        0.0252
 111        0.0253
 112        0.0715
 113        0.0715
 114        0.0715
 115        0.0715
 116        0.1445
 117        0.2157
 118        0.2158
 119        0.2158
 120        0.2158
 121        0.2478
 122        0.3849
 123        0.3849
 124        0.4127
 125        0.4127
 126        0.4127
 127        0.4127
 128        0.4598
 129        0.4600
 130        0.4600
 131        0.4600
 132        0.4719
 133        0.4788
 134        0.4788
 135        0.5214
 136        0.5214
 137        0.5215
 138        0.5215
 139        0.7996
 140        0.8214
 141        0.8214
 142        0.8214
 143        0.8214
 144        0.8850
 145        0.8850
 146        0.8850
 147        0.8850
 148        0.9769
 149        0.9769
 150        0.9990
 151        0.9990
 152        1.0231
 153        1.0231
 154        1.0231
 155        1.0231
 156        1.0401
 157        1.2156
 158        1.2156
 159        1.2156
 160        1.2156
 161        1.2238
 162        1.2238
 163        1.2920
 164        1.3419
 165        1.3423
 166        1.3432
 167        1.3436
 168        2.5332
 169        2.5332
 170        2.5332
 171        2.5332
 172        3.5856
 173        3.5857
 174        3.5857
 175        3.5857
 176        3.6392
 177        3.6392
 178        3.6392
 179        3.6392
 180        4.7387
 181        5.0334
 182        5.0334
 183        5.0334
 184        5.0334
 185        6.1800
 186        6.1800
 187        8.6224
 188        8.6224
 189        8.6225
 190        8.6225
 191        8.7578
 192        8.7578
 193        8.7578
 194        8.7578
 195        8.7840
 196        8.7840
 197       10.6602
 198       10.6602
 199       10.6602
 200       10.6602
 201       11.4427
 202       11.4427
 203       11.6425
 204       11.6426
 205       11.7822
 206       11.7822
 207       11.7822
 208       11.7822
 209       12.0204
 210       12.0204
 211       12.2238
 212       12.2238
 
  0.3333333E+00  0.0000000E+00  0.0000000E+00  0.1157407E-02
   1       -3.8257
   2       -3.0093
   3       -2.6599
   4       -2.6230
   5       -2.6229
   6       -2.5600
   7       -2.5600
   8       -2.5600
   9       -2.5600
  10       -2.5265
  11       -2.4721
  12       -2.4721
  13       -2.3527
  14       -2.2446
  15       -2.2209
  16       -2.2209
  17       -2.1083
  18       -2.1083
  19       -2.1083
  20       -2.1083
  21       -2.0611
  22       -2.0611
  23       -2.0611
  24       -2.0611
  25       -2.0123
  26       -2.0123
  27       -1.8335
  28       -1.8334
  29       -1.8334
  30       -1.8334
  31       -1.7555
  32       -1.7555
  33       -1.7555
  34       -1.7555
  35       -1.6364
  36       -1.6363
  37       -1.6363
  38       -1.6363
  39       -1.6296
  40       -1.6296
  41       -1.6296
  42       -1.6295
  43       -1.5418
  44       -1.5418
  45       -1.5418
  46       -1.5418
  47       -1.4090
  48       -1.3100
  49       -1.3100
  50       -1.3100
  51       -1.3100
  52       -1.2528
  53       -1.2521
  54       -1.2521
  55       -1.2521
  56       -1.2444
  57       -1.2444
  58       -1.2444
  59       -1.2437
  60       -1.2173
  61       -1.2173
  62       -1.2173
  63       -1.2173
  64       -1.1495
  65       -1.1495
  66       -1.1495
  67       -1.1495
  68       -1.0747
  69       -1.0304
  70       -1.0304
  71       -1.0304
  72       -1.0304
  73       -0.9981
  74       -0.9981
  75       -0.9981
  76       -0.9980
  77       -0.8570
  78       -0.8570
  79       -0.8570
  80       -0.8569
  81       -0.8301
  82       -0.8301
  83       -0.6130
  84       -0.6130
  85       -0.6130
  86       -0.6130
  87       -0.5330
  88       -0.5330
  89       -0.5330
  90       -0.5330
  91       -0.4892
  92       -0.4892
  93       -0.2986
  94       -0.2986
  95       -0.2986
  96       -0.2986
  97       -0.2813
  98       -0.2813
  99       -0.1572
 100        0.0235
 101        0.0235
 102        0.0235
 103        0.0236
 104        0.0411
 105        0.0413
 106        0.0413
 107        0.0413
 108        0.0475
 109        0.0475
 110        0.0475
 111        0.0475
 112        0.0566
 113        0.0566
 114        0.0566
 115        0.0568
 116        0.0919
 117        0.2070
 118        0.2070
 119        0.2070
 120        0.2070
 121        0.2714
 122        0.3779
 123        0.3779
 124        0.3779
 125        0.3779
 126        0.4226
 127        0.4894
 128        0.4895
 129        0.5730
 130        0.5730
 131        0.5730
 132        0.5730
 133        0.6280
 134        0.6280
 135        0.6285
 136        0.6285
 137        0.6286
 138        0.6286
 139        0.6431
 140        0.6431
 141        0.6431
 142        0.6431
 143        0.7745
 144        0.7745
 145        0.8511
 146        0.9039
 147        0.9039
 148        0.9588
 149        0.9589
 150        0.9589
 151        0.9589
 152        1.0141
 153        1.1091
 154        1.1091
 155        1.1092
 156        1.1092
 157        1.1240
 158        1.1240
 159        1.1241
 160        1.1241
 161        1.1365
 162        1.1365
 163        1.3420
 164        1.3424
 165        1.3431
 166        1.3435
 167        1.8134
 168        2.2129
 169        2.2129
 170        2.2129
 171        2.2129
 172        3.6026
 173        3.6027
 174        3.6027
 175        3.6027
 176        3.6375
 177        3.6375
 178        3.6375
 179        3.6375
 180        4.1721
 181        5.5714
 182        5.5714
 183        5.5714
 184        5.5714
 185        6.5102
 186        6.5102
 187        8.0692
 188        8.0692
 189        8.0693
 190        8.0693
 191        8.2762
 192        8.2762
 193        8.9805
 194        8.9805
 195        8.9805
 196        8.9805
 197       10.8675
 198       10.8675
 199       10.8675
 200       10.8675
 201       11.1171
 202       11.1171
 203       11.1171
 204       11.1171
 205       11.4590
 206       11.4590
 207       11.5925
 208       11.5925
 209       12.1469
 210       12.1469
 211       12.1470
 212       12.1473
 
  0.4166667E+00  0.0000000E+00  0.0000000E+00  0.1157407E-02
   1       -3.6605
   2       -3.2451
   3       -2.5924
   4       -2.5359
   5       -2.5358
   6       -2.4727
   7       -2.4727
   8       -2.4727
   9       -2.4727
  10       -2.4714
  11       -2.4337
  12       -2.3854
  13       -2.3854
  14       -2.3295
  15       -2.3292
  16       -2.3291
  17       -2.2455
  18       -2.2455
  19       -2.2455
  20       -2.2455
  21       -2.1552
  22       -2.1552
  23       -1.9578
  24       -1.9578
  25       -1.9578
  26       -1.9578
  27       -1.7741
  28       -1.7740
  29       -1.7740
  30       -1.7740
  31       -1.7282
  32       -1.7282
  33       -1.7282
  34       -1.7282
  35       -1.7108
  36       -1.7108
  37       -1.7108
  38       -1.7108
  39       -1.6676
  40       -1.6676
  41       -1.6676
  42       -1.6675
  43       -1.6018
  44       -1.6018
  45       -1.6018
  46       -1.6018
  47       -1.3188
  48       -1.3187
  49       -1.3187
  50       -1.3187
  51       -1.3115
  52       -1.2796
  53       -1.2796
  54       -1.2796
  55       -1.2795
  56       -1.2481
  57       -1.2472
  58       -1.2472
  59       -1.2471
  60       -1.2418
  61       -1.2417
  62       -1.2417
  63       -1.2408
  64       -1.1425
  65       -1.1179
  66       -1.1179
  67       -1.1178
  68       -1.1178
  69       -1.0573
  70       -1.0573
  71       -1.0573
  72       -1.0573
  73       -0.9503
  74       -0.9503
  75       -0.9503
  76       -0.9503
  77       -0.7925
  78       -0.7925
  79       -0.7925
  80       -0.7924
  81       -0.7647
  82       -0.7647
  83       -0.7492
  84       -0.7491
  85       -0.7491
  86       -0.7491
  87       -0.6285
  88       -0.6285
  89       -0.6285
  90       -0.6285
  91       -0.5936
  92       -0.5936
  93       -0.1036
  94       -0.0632
  95       -0.0632
  96       -0.0632
  97       -0.0632
  98       -0.0126
  99       -0.0126
 100        0.0232
 101        0.0232
 102        0.0232
 103        0.0233
 104        0.0295
 105        0.0331
 106        0.0331
 107        0.0332
 108        0.0332
 109        0.1156
 110        0.1157
 111        0.1157
 112        0.1157
 113        0.1417
 114        0.1417
 115        0.1418
 116        0.1419
 117        0.1893
 118        0.1893
 119        0.1893
 120        0.1893
 121        0.3012
 122        0.3152
 123        0.3152
 124        0.3152
 125        0.3152
 126        0.3774
 127        0.4095
 128        0.4095
 129        0.4095
 130        0.4095
 131        0.5232
 132        0.5232
 133        0.6012
 134        0.6012
 135        0.6833
 136        0.6833
 137        0.6833
 138        0.6834
 139        0.7694
 140        0.7694
 141        0.7695
 142        0.7695
 143        0.7719
 144        0.7719
 145        0.8143
 146        0.8144
 147        0.8793
 148        0.8793
 149        0.8793
 150        0.8793
 151        0.8992
 152        0.9814
 153        1.0155
 154        1.0155
 155        1.0155
 156        1.0155
 157        1.0297
 158        1.0297
 159        1.3420
 160        1.3426
 161        1.3429
 162        1.3435
 163        1.3595
 164        1.3595
 165        1.3595
 166        1.3595
 167        1.9117
 168        1.9117
 169        1.9117
 170        1.9117
 171        2.3763
 172        3.5721
 173        3.6168
 174        3.6168
 175        3.6169
 176        3.6169
 177        3.6338
 178        3.6338
 179        3.6338
 180        3.6340
 181        6.1464
 182        6.1464
 183        6.1464
 184        6.1464
 185        6.8965
 186        6.8965
 187        7.3992
 188        7.3992
 189        7.3992
 190        7.3992
 191        7.7882
 192        7.7882
 193        9.4192
 194        9.4192
 195        9.4192
 196        9.4192
 197       10.4965
 198       10.4965
 199       10.4965
 200       10.4965
 201       11.1251
 202       11.1251
 203       11.1251
 204       11.1251
 205       11.4814
 206       11.4814
 207       11.5480
 208       11.5480
 209       11.7700
 210       11.7700
 211       11.7700
 212       11.7700
 
  0.5000000E+00  0.0000000E+00  0.0000000E+00  0.5787037E-03
   1       -3.4665
   2       -3.4638
   3       -2.5167
   4       -2.5144
   5       -2.4379
   6       -2.4370
   7       -2.4355
   8       -2.4347
   9       -2.4067
  10       -2.4043
  11       -2.3689
  12       -2.3689
  13       -2.3687
  14       -2.3685
  15       -2.3665
  16       -2.3663
  17       -2.3661
  18       -2.3661
  19       -2.2810
  20       -2.2810
  21       -2.2784
  22       -2.2784
  23       -1.8456
  24       -1.8448
  25       -1.8436
  26       -1.8436
  27       -1.8430
  28       -1.8430
  29       -1.8418
  30       -1.8410
  31       -1.7186
  32       -1.7154
  33       -1.7154
  34       -1.7154
  35       -1.7152
  36       -1.7152
  37       -1.7152
  38       -1.7121
  39       -1.6606
  40       -1.6602
  41       -1.6602
  42       -1.6592
  43       -1.6586
  44       -1.6577
  45       -1.6577
  46       -1.6572
  47       -1.3134
  48       -1.3126
  49       -1.3126
  50       -1.3120
  51       -1.3119
  52       -1.3113
  53       -1.3113
  54       -1.3105
  55       -1.2458
  56       -1.2438
  57       -1.2438
  58       -1.2435
  59       -1.2430
  60       -1.2427
  61       -1.2427
  62       -1.2409
  63       -1.2224
  64       -1.2215
  65       -1.0876
  66       -1.0872
  67       -1.0872
  68       -1.0872
  69       -1.0866
  70       -1.0866
  71       -1.0866
  72       -1.0862
  73       -0.8651
  74       -0.8649
  75       -0.8649
  76       -0.8638
  77       -0.8637
  78       -0.8627
  79       -0.8627
  80       -0.8625
  81       -0.7178
  82       -0.7173
  83       -0.7173
  84       -0.7160
  85       -0.7154
  86       -0.7143
  87       -0.7143
  88       -0.7136
  89       -0.6867
  90       -0.6867
  91       -0.6845
  92       -0.6845
  93       -0.0386
  94       -0.0372
  95        0.0252
  96        0.0252
  97        0.0255
  98        0.0257
  99        0.0259
 100        0.0260
 101        0.0263
 102        0.0263
 103        0.1585
 104        0.1588
 105        0.1594
 106        0.1594
 107        0.1598
 108        0.1598
 109        0.1605
 110        0.1606
 111        0.1745
 112        0.1753
 113        0.1753
 114        0.1756
 115        0.1758
 116        0.1762
 117        0.1762
 118        0.1770
 119        0.2333
 120        0.2342
 121        0.2342
 122        0.2345
 123        0.2349
 124        0.2351
 125        0.2351
 126        0.2363
 127        0.2571
 128        0.2571
 129        0.2587
 130        0.2587
 131        0.3358
 132        0.3377
 133        0.7115
 134        0.7116
 135        0.7119
 136        0.7120
 137        0.7854
 138        0.7859
 139        0.7859
 140        0.7862
 141        0.7870
 142        0.7872
 143        0.7872
 144        0.7879
 145        0.8939
 146        0.8939
 147        0.8951
 148        0.8952
 149        0.8957
 150        0.8957
 151        0.8969
 152        0.8969
 153        0.9067
 154        0.9067
 155        0.9075
 156        0.9075
 157        0.9427
 158        0.9430
 159        1.3421
 160        1.3428
 161        1.3428
 162        1.3435
 163        1.6265
 164        1.6270
 165        1.6274
 166        1.6274
 167        1.6276
 168        1.6276
 169        1.6280
 170        1.6285
 171        2.9667
 172        2.9680
 173        3.6254
 174        3.6262
 175        3.6268
 176        3.6268
 177        3.6276
 178        3.6276
 179        3.6281
 180        3.6289
 181        6.7540
 182        6.7545
 183        6.7545
 184        6.7561
 185        6.7571
 186        6.7587
 187        6.7587
 188        6.7592
 189        7.3245
 190        7.3245
 191        7.3272
 192        7.3272
 193        9.9255
 194        9.9256
 195        9.9256
 196        9.9272
 197        9.9283
 198        9.9299
 199        9.9299
 200        9.9300
 201       11.4261
 202       11.4261
 203       11.4271
 204       11.4274
 205       11.4280
 206       11.4284
 207       11.4293
 208       11.4293
 209       11.5104
 210       11.5108
 211       11.5110
 212       11.5114
 
  0.0000000E+00  0.8333333E-01  0.0000000E+00  0.2314815E-02
   1       -4.1100
   2       -2.7811
   3       -2.7787
   4       -2.7787
   5       -2.7078
   6       -2.7077
   7       -2.7077
   8       -2.7076
   9       -2.6205
  10       -2.6172
  11       -2.6172
  12       -2.3750
  13       -2.2507
  14       -2.2492
  15       -2.2492
  16       -2.2478
  17       -2.2185
  18       -1.9793
  19       -1.9792
  20       -1.9522
  21       -1.9508
  22       -1.9508
  23       -1.9493
  24       -1.9478
  25       -1.8361
  26       -1.8344
  27       -1.8344
  28       -1.8327
  29       -1.7300
  30       -1.6530
  31       -1.6529
  32       -1.6529
  33       -1.6529
  34       -1.5901
  35       -1.5889
  36       -1.5889
  37       -1.5876
  38       -1.5565
  39       -1.5551
  40       -1.5551
  41       -1.5537
  42       -1.4768
  43       -1.4768
  44       -1.3739
  45       -1.3723
  46       -1.3723
  47       -1.3708
  48       -1.2957
  49       -1.2939
  50       -1.2939
  51       -1.2924
  52       -1.2825
  53       -1.2824
  54       -1.2809
  55       -1.2807
  56       -1.2701
  57       -1.2688
  58       -1.2685