 vasp.4.6.28 25Jul05 complex 
 executed on             LinuxIFC date 2017.01.10  08:49:02
 running on    4 nodes
 distr:  one band on    1 nodes,    4 groups


--------------------------------------------------------------------------------------------------------


 INCAR:
 POTCAR:   PAW_PBE Ag 06Sep2000                   
 POTCAR:   PAW_PBE Ag 06Sep2000                   
   VRHFIN =Ag : s1 d10                                                          
   LEXCH  = PE                                                                  
   EATOM  =  1037.4134 eV,   76.2477 Ry                                         
                                                                                
   TITEL  = PAW_PBE Ag 06Sep2000                                                
   LULTRA =        F    use ultrasoft PP ?                                      
   IUNSCR =        1    unscreen: 0-lin 1-nonlin 2-no                           
   RPACOR =    2.000    partial core radius                                     
   POMASS =  107.868; ZVAL   =   11.000    mass and valenz                      
   RCORE  =    2.400    outmost cutoff radius                                   
   RWIGS  =    2.840; RWIGS  =    1.503    wigner-seitz radius (au A)           
   ENMAX  =  249.846; ENMIN  =  187.385 eV                                      
   RCLOC  =    1.962    cutoff for local pot                                    
   LCOR   =        T    correct aug charges                                     
   LPAW   =        T    paw PP                                                  
   EAUG   =  412.496                                                            
   DEXC   =    -.047                                                            
   RMAX   =    2.917    core radius for proj-oper                               
   RAUG   =    1.300    factor for augmentation sphere                          
   RDEP   =    2.416    radius for radial grids                                 
   QCUT   =   -4.285; QGAM   =    8.570    optimization parameters              
                                                                                
   Description                                                                  
     l     E      TYP  RCUT    TYP  RCUT                                        
     2   .000     23  2.400                                                     
     2   .000     23  2.400                                                     
     0   .000     23  2.400                                                     
     0   .000     23  2.400                                                     
     1  -.200     23  2.400                                                     
     1  1.500     23  2.400                                                     
     3   .000      7   .000                                                     
  local pseudopotential read in
  partial core-charges read in
  atomic valenz-charges read in
  non local Contribution for L=           2  read in
    real space projection operators read in
  non local Contribution for L=           2  read in
    real space projection operators read in
  non local Contribution for L=           0  read in
    real space projection operators read in
  non local Contribution for L=           0  read in
    real space projection operators read in
  non local Contribution for L=           1  read in
    real space projection operators read in
  non local Contribution for L=           1  read in
    real space projection operators read in
    PAW grid and wavefunctions read in
 
   number of l-projection  operators is LMAX  =           6
   number of lm-projection operators is LMMAX =          18
 

 ----------------------------------------------------------------------------- 
|                                                                             |
|  ADVICE TO THIS USER RUNNING 'VASP/VAMP'   (HEAR YOUR MASTER'S VOICE ...):  |
|                                                                             |
|      You have a (more or less) 'large supercell' and for larger cells       |
|      it might be more efficient to use real space projection operators      |
|      So try LREAL= Auto  in the INCAR   file.                               |
|      Mind: If you want to do an extremely accurate calculations keep the    |
|      reciprocal projection scheme          (i.e. LREAL=.FALSE.)             |
|                                                                             |
 ----------------------------------------------------------------------------- 

 PAW_PBE Ag 06Sep2000                   :
 energy of atom  1       EATOM=-1037.4134
 kinetic energy error for atom=    0.0010 (will be added to EATOM!!)
 
 EXHCAR: internal setup
 exchange correlation table for  LEXCH =        8
   RHO(1)=    0.500       N(1)  =     2000
   RHO(2)=  100.500       N(2)  =     4000
 
 POSCAR: Ag                                      
  positions in direct lattice
  No initial velocities read in
 


--------------------------------------------------------------------------------------------------------


 ion  position               nearest neighbor table
   1  0.001  0.000  0.000-   9 2.82  11 2.82  17 2.82  21 2.82  25 2.83  27 2.83  29 2.83  31 2.83
                            10 2.83  18 2.83  12 2.83  22 2.83
   2  0.500  0.000  0.000-   9 2.83  10 2.83  11 2.83  12 2.83  17 2.83  18 2.83  21 2.83  22 2.83
                            26 2.83  28 2.83  30 2.83  32 2.83
   3  0.000  0.500  0.000-   9 2.83  10 2.83  11 2.83  12 2.83  19 2.83  20 2.83  23 2.83  24 2.83
                            25 2.83  27 2.83  29 2.83  31 2.83
   4  0.500  0.500  0.000-   9 2.83  10 2.83  11 2.83  12 2.83  19 2.83  20 2.83  23 2.83  24 2.83
                            26 2.83  28 2.83  30 2.83  32 2.83
   5  0.000  0.000  0.500-  13 2.83  14 2.83  15 2.83  16 2.83  17 2.83  18 2.83  21 2.83  22 2.83
                            25 2.83  27 2.83  29 2.83  31 2.83
   6  0.500  0.000  0.500-  13 2.83  14 2.83  15 2.83  16 2.83  17 2.83  18 2.83  21 2.83  22 2.83
                            26 2.83  28 2.83  30 2.83  32 2.83
   7  0.000  0.500  0.500-  13 2.83  14 2.83  15 2.83  16 2.83  19 2.83  20 2.83  23 2.83  24 2.83
                            25 2.83  27 2.83  29 2.83  31 2.83
   8  0.500  0.500  0.500-  13 2.83  14 2.83  15 2.83  16 2.83  19 2.83  20 2.83  23 2.83  24 2.83
                            26 2.83  28 2.83  30 2.83  32 2.83
   9  0.250  0.250  0.000-   1 2.82   2 2.83   3 2.83   4 2.83  17 2.83  19 2.83  21 2.83  23 2.83
                            25 2.83  26 2.83  29 2.83  30 2.83
  10  0.750  0.250  0.000-   2 2.83   3 2.83   4 2.83  18 2.83  20 2.83  22 2.83  24 2.83  25 2.83
                            26 2.83  29 2.83  30 2.83   1 2.83
  11  0.250  0.750  0.000-   1 2.82   2 2.83   3 2.83   4 2.83  17 2.83  19 2.83  21 2.83  23 2.83
                            27 2.83  28 2.83  31 2.83  32 2.83
  12  0.750  0.750  0.000-   2 2.83   3 2.83   4 2.83  18 2.83  20 2.83  22 2.83  24 2.83  27 2.83
                            28 2.83  31 2.83  32 2.83   1 2.83
  13  0.250  0.250  0.500-   5 2.83   6 2.83   7 2.83   8 2.83  17 2.83  19 2.83  21 2.83  23 2.83
                            25 2.83  26 2.83  29 2.83  30 2.83
  14  0.750  0.250  0.500-   5 2.83   6 2.83   7 2.83   8 2.83  18 2.83  20 2.83  22 2.83  24 2.83
                            25 2.83  26 2.83  29 2.83  30 2.83
  15  0.250  0.750  0.500-   5 2.83   6 2.83   7 2.83   8 2.83  17 2.83  19 2.83  21 2.83  23 2.83
                            27 2.83  28 2.83  31 2.83  32 2.83
  16  0.750  0.750  0.500-   5 2.83   6 2.83   7 2.83   8 2.83  18 2.83  20 2.83  22 2.83  24 2.83
                            27 2.83  28 2.83  31 2.83  32 2.83
  17  0.250  0.000  0.250-   1 2.82   2 2.83   5 2.83   6 2.83   9 2.83  11 2.83  13 2.83  15 2.83
                            25 2.83  26 2.83  27 2.83  28 2.83
  18  0.750  0.000  0.250-   2 2.83   5 2.83   6 2.83  10 2.83  12 2.83  14 2.83  16 2.83  25 2.83
                            26 2.83  27 2.83  28 2.83   1 2.83
  19  0.250  0.500  0.250-   3 2.83   4 2.83   7 2.83   8 2.83   9 2.83  11 2.83  13 2.83  15 2.83
                            25 2.83  26 2.83  27 2.83  28 2.83
  20  0.750  0.500  0.250-   3 2.83   4 2.83   7 2.83   8 2.83  10 2.83  12 2.83  14 2.83  16 2.83
                            25 2.83  26 2.83  27 2.83  28 2.83
  21  0.250  0.000  0.750-   1 2.82   2 2.83   5 2.83   6 2.83   9 2.83  11 2.83  13 2.83  15 2.83
                            29 2.83  30 2.83  31 2.83  32 2.83
  22  0.750  0.000  0.750-   2 2.83   5 2.83   6 2.83  10 2.83  12 2.83  14 2.83  16 2.83  29 2.83
                            30 2.83  31 2.83  32 2.83   1 2.83
  23  0.250  0.500  0.750-   3 2.83   4 2.83   7 2.83   8 2.83   9 2.83  11 2.83  13 2.83  15 2.83
                            29 2.83  30 2.83  31 2.83  32 2.83
  24  0.750  0.500  0.750-   3 2.83   4 2.83   7 2.83   8 2.83  10 2.83  12 2.83  14 2.83  16 2.83
                            29 2.83  30 2.83  31 2.83  32 2.83
  25  0.000  0.250  0.250-   3 2.83   5 2.83   7 2.83   9 2.83  10 2.83  13 2.83  14 2.83  17 2.83
                            18 2.83  19 2.83  20 2.83   1 2.83
  26  0.500  0.250  0.250-   2 2.83   4 2.83   6 2.83   8 2.83   9 2.83  10 2.83  13 2.83  14 2.83
                            17 2.83  18 2.83  19 2.83  20 2.83
  27  0.000  0.750  0.250-   3 2.83   5 2.83   7 2.83  11 2.83  12 2.83  15 2.83  16 2.83  17 2.83
                            18 2.83  19 2.83  20 2.83   1 2.83
  28  0.500  0.750  0.250-   2 2.83   4 2.83   6 2.83   8 2.83  11 2.83  12 2.83  15 2.83  16 2.83
                            17 2.83  18 2.83  19 2.83  20 2.83
  29  0.000  0.250  0.750-   3 2.83   5 2.83   7 2.83   9 2.83  10 2.83  13 2.83  14 2.83  21 2.83
                            22 2.83  23 2.83  24 2.83   1 2.83
  30  0.500  0.250  0.750-   2 2.83   4 2.83   6 2.83   8 2.83   9 2.83  10 2.83  13 2.83  14 2.83
                            21 2.83  22 2.83  23 2.83  24 2.83
  31  0.000  0.750  0.750-   3 2.83   5 2.83   7 2.83  11 2.83  12 2.83  15 2.83  16 2.83  21 2.83
                            22 2.83  23 2.83  24 2.83   1 2.83
  32  0.500  0.750  0.750-   2 2.83   4 2.83   6 2.83   8 2.83  11 2.83  12 2.83  15 2.83  16 2.83
                            21 2.83  22 2.83  23 2.83  24 2.83
 
  LATTYP: Found a simple cubic cell.
 ALAT       =     7.9933915807
  
  Lattice vectors:
  
 A1 = (   7.9933915807,   0.0000000000,   0.0000000000)
 A2 = (   0.0000000000,   7.9933915807,   0.0000000000)
 A3 = (   0.0000000000,   0.0000000000,   7.9933915807)
 Subroutine PRICEL returns:
 Original cell was already a primitive cell.
 

Analysis of symmetry for initial positions (statically):

 Routine SETGRP: Setting up the symmetry group for a 
 simple cubic supercell.


 Subroutine GETGRP returns: Found  8 space group operations
 (whereof  8 operations were pure point group operations)
 out of a pool of 48 trial point group operations.


The static configuration has the point symmetry C_4v.

Analysis of symmetry for dynamics (positions and initial velocities):

 Subroutine DYNSYM returns: Found  8 space group operations
 (whereof  8 operations were pure point group operations)
 out of a pool of  8 trial space group operations
 (whereof  8 operations were pure point group operations)
 and found also     1 'primitive' translations


The dynamic configuration has the point symmetry C_4v.
 
 
 KPOINTS: Automatic mesh                          

Automatic generation of k-mesh.
 
 Subroutine IBZKPT returns following result:
 ===========================================
 
 Found    196 irreducible k-points:
 
 Following reciprocal coordinates:
            Coordinates               Weight
  0.000000  0.000000  0.000000      1.000000
  0.083333  0.000000  0.000000      2.000000
  0.166667  0.000000  0.000000      2.000000
  0.250000  0.000000  0.000000      2.000000
  0.333333  0.000000  0.000000      2.000000
  0.416667  0.000000  0.000000      2.000000
  0.500000  0.000000  0.000000      1.000000
  0.000000  0.083333  0.000000      4.000000
  0.083333  0.083333  0.000000      8.000000
  0.166667  0.083333  0.000000      8.000000
  0.250000  0.083333  0.000000      8.000000
  0.333333  0.083333  0.000000      8.000000
  0.416667  0.083333  0.000000      8.000000
  0.500000  0.083333  0.000000      4.000000
  0.000000  0.166667  0.000000      4.000000
  0.083333  0.166667  0.000000      8.000000
  0.166667  0.166667  0.000000      8.000000
  0.250000  0.166667  0.000000      8.000000
  0.333333  0.166667  0.000000      8.000000
  0.416667  0.166667  0.000000      8.000000
  0.500000  0.166667  0.000000      4.000000
  0.000000  0.250000  0.000000      4.000000
  0.083333  0.250000  0.000000      8.000000
  0.166667  0.250000  0.000000      8.000000
  0.250000  0.250000  0.000000      8.000000
  0.333333  0.250000  0.000000      8.000000
  0.416667  0.250000  0.000000      8.000000
  0.500000  0.250000  0.000000      4.000000
  0.000000  0.333333  0.000000      4.000000
  0.083333  0.333333  0.000000      8.000000
  0.166667  0.333333  0.000000      8.000000
  0.250000  0.333333  0.000000      8.000000
  0.333333  0.333333  0.000000      8.000000
  0.416667  0.333333  0.000000      8.000000
  0.500000  0.333333  0.000000      4.000000
  0.000000  0.416667  0.000000      4.000000
  0.083333  0.416667  0.000000      8.000000
  0.166667  0.416667  0.000000      8.000000
  0.250000  0.416667  0.000000      8.000000
  0.333333  0.416667  0.000000      8.000000
  0.416667  0.416667  0.000000      8.000000
  0.500000  0.416667  0.000000      4.000000
  0.000000  0.500000  0.000000      2.000000
  0.083333  0.500000  0.000000      4.000000
  0.166667  0.500000  0.000000      4.000000
  0.250000  0.500000  0.000000      4.000000
  0.333333  0.500000  0.000000      4.000000
  0.416667  0.500000  0.000000      4.000000
  0.500000  0.500000  0.000000      2.000000
  0.000000  0.083333  0.083333      4.000000
  0.083333  0.083333  0.083333      8.000000
  0.166667  0.083333  0.083333      8.000000
  0.250000  0.083333  0.083333      8.000000
  0.333333  0.083333  0.083333      8.000000
  0.416667  0.083333  0.083333      8.000000
  0.500000  0.083333  0.083333      4.000000
  0.000000  0.166667  0.083333      8.000000
  0.083333  0.166667  0.083333     16.000000
  0.166667  0.166667  0.083333     16.000000
  0.250000  0.166667  0.083333     16.000000
  0.333333  0.166667  0.083333     16.000000
  0.416667  0.166667  0.083333     16.000000
  0.500000  0.166667  0.083333      8.000000
  0.000000  0.250000  0.083333      8.000000
  0.083333  0.250000  0.083333     16.000000
  0.166667  0.250000  0.083333     16.000000
  0.250000  0.250000  0.083333     16.000000
  0.333333  0.250000  0.083333     16.000000
  0.416667  0.250000  0.083333     16.000000
  0.500000  0.250000  0.083333      8.000000
  0.000000  0.333333  0.083333      8.000000
  0.083333  0.333333  0.083333     16.000000
  0.166667  0.333333  0.083333     16.000000
  0.250000  0.333333  0.083333     16.000000
  0.333333  0.333333  0.083333     16.000000
  0.416667  0.333333  0.083333     16.000000
  0.500000  0.333333  0.083333      8.000000
  0.000000  0.416667  0.083333      8.000000
  0.083333  0.416667  0.083333     16.000000
  0.166667  0.416667  0.083333     16.000000
  0.250000  0.416667  0.083333     16.000000
  0.333333  0.416667  0.083333     16.000000
  0.416667  0.416667  0.083333     16.000000
  0.500000  0.416667  0.083333      8.000000
  0.000000  0.500000  0.083333      4.000000
  0.083333  0.500000  0.083333      8.000000
  0.166667  0.500000  0.083333      8.000000
  0.250000  0.500000  0.083333      8.000000
  0.333333  0.500000  0.083333      8.000000
  0.416667  0.500000  0.083333      8.000000
  0.500000  0.500000  0.083333      4.000000
  0.000000  0.166667  0.166667      4.000000
  0.083333  0.166667  0.166667      8.000000
  0.166667  0.166667  0.166667      8.000000
  0.250000  0.166667  0.166667      8.000000
  0.333333  0.166667  0.166667      8.000000
  0.416667  0.166667  0.166667      8.000000
  0.500000  0.166667  0.166667      4.000000
  0.000000  0.250000  0.166667      8.000000
  0.083333  0.250000  0.166667     16.000000
  0.166667  0.250000  0.166667     16.000000
  0.250000  0.250000  0.166667     16.000000
  0.333333  0.250000  0.166667     16.000000
  0.416667  0.250000  0.166667     16.000000
  0.500000  0.250000  0.166667      8.000000
  0.000000  0.333333  0.166667      8.000000
  0.083333  0.333333  0.166667     16.000000
  0.166667  0.333333  0.166667     16.000000
  0.250000  0.333333  0.166667     16.000000
  0.333333  0.333333  0.166667     16.000000
  0.416667  0.333333  0.166667     16.000000
  0.500000  0.333333  0.166667      8.000000
  0.000000  0.416667  0.166667      8.000000
  0.083333  0.416667  0.166667     16.000000
  0.166667  0.416667  0.166667     16.000000
  0.250000  0.416667  0.166667     16.000000
  0.333333  0.416667  0.166667     16.000000
  0.416667  0.416667  0.166667     16.000000
  0.500000  0.416667  0.166667      8.000000
  0.000000  0.500000  0.166667      4.000000
  0.083333  0.500000  0.166667      8.000000
  0.166667  0.500000  0.166667      8.000000
  0.250000  0.500000  0.166667      8.000000
  0.333333  0.500000  0.166667      8.000000
  0.416667  0.500000  0.166667      8.000000
  0.500000  0.500000  0.166667      4.000000
  0.000000  0.250000  0.250000      4.000000
  0.083333  0.250000  0.250000      8.000000
  0.166667  0.250000  0.250000      8.000000
  0.250000  0.250000  0.250000      8.000000
  0.333333  0.250000  0.250000      8.000000
  0.416667  0.250000  0.250000      8.000000
  0.500000  0.250000  0.250000      4.000000
  0.000000  0.333333  0.250000      8.000000
  0.083333  0.333333  0.250000     16.000000
  0.166667  0.333333  0.250000     16.000000
  0.250000  0.333333  0.250000     16.000000
  0.333333  0.333333  0.250000     16.000000
  0.416667  0.333333  0.250000     16.000000
  0.500000  0.333333  0.250000      8.000000
  0.000000  0.416667  0.250000      8.000000
  0.083333  0.416667  0.250000     16.000000
  0.166667  0.416667  0.250000     16.000000
  0.250000  0.416667  0.250000     16.000000
  0.333333  0.416667  0.250000     16.000000
  0.416667  0.416667  0.250000     16.000000
  0.500000  0.416667  0.250000      8.000000
  0.000000  0.500000  0.250000      4.000000
  0.083333  0.500000  0.250000      8.000000
  0.166667  0.500000  0.250000      8.000000
  0.250000  0.500000  0.250000      8.000000
  0.333333  0.500000  0.250000      8.000000
  0.416667  0.500000  0.250000      8.000000
  0.500000  0.500000  0.250000      4.000000
  0.000000  0.333333  0.333333      4.000000
  0.083333  0.333333  0.333333      8.000000
  0.166667  0.333333  0.333333      8.000000
  0.250000  0.333333  0.333333      8.000000
  0.333333  0.333333  0.333333      8.000000
  0.416667  0.333333  0.333333      8.000000
  0.500000  0.333333  0.333333      4.000000
  0.000000  0.416667  0.333333      8.000000
  0.083333  0.416667  0.333333     16.000000
  0.166667  0.416667  0.333333     16.000000
  0.250000  0.416667  0.333333     16.000000
  0.333333  0.416667  0.333333     16.000000
  0.416667  0.416667  0.333333     16.000000
  0.500000  0.416667  0.333333      8.000000
  0.000000  0.500000  0.333333      4.000000
  0.083333  0.500000  0.333333      8.000000
  0.166667  0.500000  0.333333      8.000000
  0.250000  0.500000  0.333333      8.000000
  0.333333  0.500000  0.333333      8.000000
  0.416667  0.500000  0.333333      8.000000
  0.500000  0.500000  0.333333      4.000000
  0.000000  0.416667  0.416667      4.000000
  0.083333  0.416667  0.416667      8.000000
  0.166667  0.416667  0.416667      8.000000
  0.250000  0.416667  0.416667      8.000000
  0.333333  0.416667  0.416667      8.000000
  0.416667  0.416667  0.416667      8.000000
  0.500000  0.416667  0.416667      4.000000
  0.000000  0.500000  0.416667      4.000000
  0.083333  0.500000  0.416667      8.000000
  0.166667  0.500000  0.416667      8.000000
  0.250000  0.500000  0.416667      8.000000
  0.333333  0.500000  0.416667      8.000000
  0.416667  0.500000  0.416667      8.000000
  0.500000  0.500000  0.416667      4.000000
  0.000000  0.500000  0.500000      1.000000
  0.083333  0.500000  0.500000      2.000000
  0.166667  0.500000  0.500000      2.000000
  0.250000  0.500000  0.500000      2.000000
  0.333333  0.500000  0.500000      2.000000
  0.416667  0.500000  0.500000      2.000000
  0.500000  0.500000  0.500000      1.000000
 
 Following cartesian coordinates:
            Coordinates               Weight
  0.000000  0.000000  0.000000      1.000000
  0.010425  0.000000  0.000000      2.000000
  0.020851  0.000000  0.000000      2.000000
  0.031276  0.000000  0.000000      2.000000
  0.041701  0.000000  0.000000      2.000000
  0.052126  0.000000  0.000000      2.000000
  0.062552  0.000000  0.000000      1.000000
  0.000000  0.010425  0.000000      4.000000
  0.010425  0.010425  0.000000      8.000000
  0.020851  0.010425  0.000000      8.000000
  0.031276  0.010425  0.000000      8.000000
  0.041701  0.010425  0.000000      8.000000
  0.052126  0.010425  0.000000      8.000000
  0.062552  0.010425  0.000000      4.000000
  0.000000  0.020851  0.000000      4.000000
  0.010425  0.020851  0.000000      8.000000
  0.020851  0.020851  0.000000      8.000000
  0.031276  0.020851  0.000000      8.000000
  0.041701  0.020851  0.000000      8.000000
  0.052126  0.020851  0.000000      8.000000
  0.062552  0.020851  0.000000      4.000000
  0.000000  0.031276  0.000000      4.000000
  0.010425  0.031276  0.000000      8.000000
  0.020851  0.031276  0.000000      8.000000
  0.031276  0.031276  0.000000      8.000000
  0.041701  0.031276  0.000000      8.000000
  0.052126  0.031276  0.000000      8.000000
  0.062552  0.031276  0.000000      4.000000
  0.000000  0.041701  0.000000      4.000000
  0.010425  0.041701  0.000000      8.000000
  0.020851  0.041701  0.000000      8.000000
  0.031276  0.041701  0.000000      8.000000
  0.041701  0.041701  0.000000      8.000000
  0.052126  0.041701  0.000000      8.000000
  0.062552  0.041701  0.000000      4.000000
  0.000000  0.052126  0.000000      4.000000
  0.010425  0.052126  0.000000      8.000000
  0.020851  0.052126  0.000000      8.000000
  0.031276  0.052126  0.000000      8.000000
  0.041701  0.052126  0.000000      8.000000
  0.052126  0.052126  0.000000      8.000000
  0.062552  0.052126  0.000000      4.000000
  0.000000  0.062552  0.000000      2.000000
  0.010425  0.062552  0.000000      4.000000
  0.020851  0.062552  0.000000      4.000000
  0.031276  0.062552  0.000000      4.000000
  0.041701  0.062552  0.000000      4.000000
  0.052126  0.062552  0.000000      4.000000
  0.062552  0.062552  0.000000      2.000000
  0.000000  0.010425  0.010425      4.000000
  0.010425  0.010425  0.010425      8.000000
  0.020851  0.010425  0.010425      8.000000
  0.031276  0.010425  0.010425      8.000000
  0.041701  0.010425  0.010425      8.000000
  0.052126  0.010425  0.010425      8.000000
  0.062552  0.010425  0.010425      4.000000
  0.000000  0.020851  0.010425      8.000000
  0.010425  0.020851  0.010425     16.000000
  0.020851  0.020851  0.010425     16.000000
  0.031276  0.020851  0.010425     16.000000
  0.041701  0.020851  0.010425     16.000000
  0.052126  0.020851  0.010425     16.000000
  0.062552  0.020851  0.010425      8.000000
  0.000000  0.031276  0.010425      8.000000
  0.010425  0.031276  0.010425     16.000000
  0.020851  0.031276  0.010425     16.000000
  0.031276  0.031276  0.010425     16.000000
  0.041701  0.031276  0.010425     16.000000
  0.052126  0.031276  0.010425     16.000000
  0.062552  0.031276  0.010425      8.000000
  0.000000  0.041701  0.010425      8.000000
  0.010425  0.041701  0.010425     16.000000
  0.020851  0.041701  0.010425     16.000000
  0.031276  0.041701  0.010425     16.000000
  0.041701  0.041701  0.010425     16.000000
  0.052126  0.041701  0.010425     16.000000
  0.062552  0.041701  0.010425      8.000000
  0.000000  0.052126  0.010425      8.000000
  0.010425  0.052126  0.010425     16.000000
  0.020851  0.052126  0.010425     16.000000
  0.031276  0.052126  0.010425     16.000000
  0.041701  0.052126  0.010425     16.000000
  0.052126  0.052126  0.010425     16.000000
  0.062552  0.052126  0.010425      8.000000
  0.000000  0.062552  0.010425      4.000000
  0.010425  0.062552  0.010425      8.000000
  0.020851  0.062552  0.010425      8.000000
  0.031276  0.062552  0.010425      8.000000
  0.041701  0.062552  0.010425      8.000000
  0.052126  0.062552  0.010425      8.000000
  0.062552  0.062552  0.010425      4.000000
  0.000000  0.020851  0.020851      4.000000
  0.010425  0.020851  0.020851      8.000000
  0.020851  0.020851  0.020851      8.000000
  0.031276  0.020851  0.020851      8.000000
  0.041701  0.020851  0.020851      8.000000
  0.052126  0.020851  0.020851      8.000000
  0.062552  0.020851  0.020851      4.000000
  0.000000  0.031276  0.020851      8.000000
  0.010425  0.031276  0.020851     16.000000
  0.020851  0.031276  0.020851     16.000000
  0.031276  0.031276  0.020851     16.000000
  0.041701  0.031276  0.020851     16.000000
  0.052126  0.031276  0.020851     16.000000
  0.062552  0.031276  0.020851      8.000000
  0.000000  0.041701  0.020851      8.000000
  0.010425  0.041701  0.020851     16.000000
  0.020851  0.041701  0.020851     16.000000
  0.031276  0.041701  0.020851     16.000000
  0.041701  0.041701  0.020851     16.000000
  0.052126  0.041701  0.020851     16.000000
  0.062552  0.041701  0.020851      8.000000
  0.000000  0.052126  0.020851      8.000000
  0.010425  0.052126  0.020851     16.000000
  0.020851  0.052126  0.020851     16.000000
  0.031276  0.052126  0.020851     16.000000
  0.041701  0.052126  0.020851     16.000000
  0.052126  0.052126  0.020851     16.000000
  0.062552  0.052126  0.020851      8.000000
  0.000000  0.062552  0.020851      4.000000
  0.010425  0.062552  0.020851      8.000000
  0.020851  0.062552  0.020851      8.000000
  0.031276  0.062552  0.020851      8.000000
  0.041701  0.062552  0.020851      8.000000
  0.052126  0.062552  0.020851      8.000000
  0.062552  0.062552  0.020851      4.000000
  0.000000  0.031276  0.031276      4.000000
  0.010425  0.031276  0.031276      8.000000
  0.020851  0.031276  0.031276      8.000000
  0.031276  0.031276  0.031276      8.000000
  0.041701  0.031276  0.031276      8.000000
  0.052126  0.031276  0.031276      8.000000
  0.062552  0.031276  0.031276      4.000000
  0.000000  0.041701  0.031276      8.000000
  0.010425  0.041701  0.031276     16.000000
  0.020851  0.041701  0.031276     16.000000
  0.031276  0.041701  0.031276     16.000000
  0.041701  0.041701  0.031276     16.000000
  0.052126  0.041701  0.031276     16.000000
  0.062552  0.041701  0.031276      8.000000
  0.000000  0.052126  0.031276      8.000000
  0.010425  0.052126  0.031276     16.000000
  0.020851  0.052126  0.031276     16.000000
  0.031276  0.052126  0.031276     16.000000
  0.041701  0.052126  0.031276     16.000000
  0.052126  0.052126  0.031276     16.000000
  0.062552  0.052126  0.031276      8.000000
  0.000000  0.062552  0.031276      4.000000
  0.010425  0.062552  0.031276      8.000000
  0.020851  0.062552  0.031276      8.000000
  0.031276  0.062552  0.031276      8.000000
  0.041701  0.062552  0.031276      8.000000
  0.052126  0.062552  0.031276      8.000000
  0.062552  0.062552  0.031276      4.000000
  0.000000  0.041701  0.041701      4.000000
  0.010425  0.041701  0.041701      8.000000
  0.020851  0.041701  0.041701      8.000000
  0.031276  0.041701  0.041701      8.000000
  0.041701  0.041701  0.041701      8.000000
  0.052126  0.041701  0.041701      8.000000
  0.062552  0.041701  0.041701      4.000000
  0.000000  0.052126  0.041701      8.000000
  0.010425  0.052126  0.041701     16.000000
  0.020851  0.052126  0.041701     16.000000
  0.031276  0.052126  0.041701     16.000000
  0.041701  0.052126  0.041701     16.000000
  0.052126  0.052126  0.041701     16.000000
  0.062552  0.052126  0.041701      8.000000
  0.000000  0.062552  0.041701      4.000000
  0.010425  0.062552  0.041701      8.000000
  0.020851  0.062552  0.041701      8.000000
  0.031276  0.062552  0.041701      8.000000
  0.041701  0.062552  0.041701      8.000000
  0.052126  0.062552  0.041701      8.000000
  0.062552  0.062552  0.041701      4.000000
  0.000000  0.052126  0.052126      4.000000
  0.010425  0.052126  0.052126      8.000000
  0.020851  0.052126  0.052126      8.000000
  0.031276  0.052126  0.052126      8.000000
  0.041701  0.052126  0.052126      8.000000
  0.052126  0.052126  0.052126      8.000000
  0.062552  0.052126  0.052126      4.000000
  0.000000  0.062552  0.052126      4.000000
  0.010425  0.062552  0.052126      8.000000
  0.020851  0.062552  0.052126      8.000000
  0.031276  0.062552  0.052126      8.000000
  0.041701  0.062552  0.052126      8.000000
  0.052126  0.062552  0.052126      8.000000
  0.062552  0.062552  0.052126      4.000000
  0.000000  0.062552  0.062552      1.000000
  0.010425  0.062552  0.062552      2.000000
  0.020851  0.062552  0.062552      2.000000
  0.031276  0.062552  0.062552      2.000000
  0.041701  0.062552  0.062552      2.000000
  0.052126  0.062552  0.062552      2.000000
  0.062552  0.062552  0.062552      1.000000
 


--------------------------------------------------------------------------------------------------------




 Dimension of arrays:
   k-Points           NKPTS =    196   number of bands    NBANDS=    212
   number of dos      NEDOS =    301   number of ions     NIONS =     32
   non local maximal  LDIM  =      6   non local SUM 2l+1 LMDIM =     18
   total plane-waves  NPLWV = 373248
   max r-space proj   IRMAX =      1   max aug-charges    IRDMAX= 287630
   dimension x,y,z NGX =    72 NGY =   72 NGZ =   72
   dimension x,y,z NGXF=   144 NGYF=  144 NGZF=  144
   support grid    NGXF=   288 NGYF=  288 NGZF=  288
   ions per type =              32
 NGX,Y,Z   is equivalent  to a cutoff of  14.97, 14.97, 14.97 a.u.
 NGXF,Y,Z  is equivalent  to a cutoff of  29.95, 29.95, 29.95 a.u.


 I would recommend the setting:
   dimension x,y,z NGX =    71 NGY =   71 NGZ =   71
 SYSTEM =  unknown system                          
 POSCAR =  Ag                                      

 Startparameter for this run:
   NWRITE =      2    write-flag & timer
   PREC   = accura    medium, high low
   ISTART =      0    job   : 0-new  1-cont  2-samecut
   ICHARG =      2    charge: 1-file 2-atom 10-const
   ISPIN  =      1    spin polarized calculation?
   LNONCOLLINEAR =      F non collinear calculations
   LSORBIT =      F    spin-orbit coupling
   INIWAV =      1    electr: 0-lowe 1-rand  2-diag
   LASPH  =      F    aspherical Exc in radial PAW
   METAGGA=      F    non-selfconsistent MetaGGA calc.

 Electronic Relaxation 1
   ENCUT  =  750.0 eV  55.12 Ry    7.42 a.u.  17.85 17.85 17.85*2*pi/ulx,y,z
   ENINI  =  750.0     initial cutoff
   ENAUG  =  412.5 eV  augmentation charge cutoff
   NELM   =     60;   NELMIN=  2; NELMDL=  0     # of ELM steps 
   EDIFF  = 0.1E-07   stopping-criterion for ELM
   LREAL  =      F    real-space projection
   LCOMPAT=      F    compatible to vasp.4.4
   LREAL_COMPAT= F    compatible to vasp.4.5.1-3
   GGA_COMPAT  = T    GGA compatible to vasp.4.4-vasp.4.6
   LMAXPAW     = -100 max onsite density
   LMAXMIX     =    2 max onsite mixed and CHGCAR
   VOSKOWN=      0    Vosko Wilk Nusair interpolation
   ROPT   =    0.00000
 Ionic relaxation
   EDIFFG = 0.1E-06   stopping-criterion for IOM
   NSW    =      0    number of steps for IOM
   NBLOCK =      1;   KBLOCK =      1    inner block; outer block 
   IBRION =     -1    ionic relax: 0-MD 1-quasi-New 2-CG
   NFREE  =      0    steps in history (QN), initial steepest desc. (CG)
   ISIF   =      2    stress and relaxation
   IWAVPR =     10    prediction:  0-non 1-charg 2-wave 3-comb
   ISYM   =      2    0-nonsym 1-usesym 2-fastsym
   LCORR  =      T    Harris-Foulkes like correction to forces

   POTIM  =   0.50    time-step for ionic-motion
   TEIN   =    0.0    initial temperature
   TEBEG  =    0.0;   TEEND  =   0.0 temperature during run
   SMASS  =  -3.00    Nose mass-parameter (am)
   estimated Nose-frequenzy (Omega)   =  0.10E-29 period in steps =****** mass=  -0.146E-26a.u.
   NPACO  =    256;   APACO  = 16.0  distance and # of slots for P.C.
   PSTRESS=    0.0 pullay stress

  Mass of Ions in am
   POMASS = 107.87
  Ionic Valenz
   ZVAL   =  11.00
  Atomic Wigner-Seitz radii
   RWIGS  =  -1.00
   NELECT =     352.0000    total number of electrons
   NUPDOWN=      -1.0000    fix difference up-down

 DOS related values:
   EMIN   =  10.00;   EMAX   =-10.00  energy-range for DOS
   ISMEAR =     0;   SIGMA  =   0.01  broadening in eV -4-tet -1-fermi 0-gaus

 Electronic relaxation 2 (details)
   IALGO  =     38    algorithm
   LDIAG  =      T    sub-space diagonalisation
   IMIX   =      4    mixing-type and parameters
     AMIX     =   0.40;   BMIX     =  1.00
     AMIX_MAG =   1.60;   BMIX_MAG =  1.00
     AMIN     =   0.10
     WC   =   100.;   INIMIX=   1;  MIXPRE=   1

 Intra band minimization:
   WEIMIN = 0.0000     energy-eigenvalue tresh-hold
   EBREAK =  0.12E-10  absolut break condition
   DEPER  =   0.30     relativ break condition  

   TIME   =   0.10     timestep for ELM

  volume/ion in A,a.u.               =      15.96       107.71
  Fermi-wavevector in a.u.,eV,Ry     =   1.446077 28.451653  2.091138

 Second variation
   LSECVAR=     F    do a second variation
 
 Write flags
   LWAVE  =      F    write WAVECAR
   LCHARG =      F    write CHGCAR
   LVTOT  =      F    write LOCPOT, local potential
   LELF   =      F    write electronic localiz. function (ELF)
   LORBIT =      0    0 simple, 1 ext, 2 COOP (PROOUT)


 Dipole corrections
   IDIPOL =      0    1-x, 2-y, 3-z
   LDIPOL =      F    correct potential



--------------------------------------------------------------------------------------------------------


 Static calculation
 charge density will be updated during run
 non-spin polarized calculation
 Variant of blocked Davidson
 Davidson routine will perform the subspace rotation
 performe sub-space diagonalisation
    after iterative eigenvector-optimisation
 modified Broyden-mixing scheme, WC =      100.0
 initial mixing is a Kerker type mixing with AMIX =  0.4000 and BMIX =      1.0000
 Hartree-type preconditioning will be used
 using additional bands           36
 reciprocal scheme for non local part
 use partial core corrections
 calculate Harris-corrections to forces 
   (improved forces if not selfconsistent)
 use gradient corrections 
 use of overlap-Matrix (Vanderbilt PP)
 Gauss-broadening in eV      SIGMA  =   0.01


--------------------------------------------------------------------------------------------------------


  energy-cutoff  :      750.00
  volume of cell :      510.73
      direct lattice vectors                 reciprocal lattice vectors
     7.993391581  0.000000000  0.000000000     0.125103342  0.000000000  0.000000000
     0.000000000  7.993391581  0.000000000     0.000000000  0.125103342  0.000000000
     0.000000000  0.000000000  7.993391581     0.000000000  0.000000000  0.125103342

  length of vectors
     7.993391581  7.993391581  7.993391581     0.125103342  0.125103342  0.125103342


 
 k-points in units of 2pi/SCALE and weight: Automatic mesh                          
   0.00000000  0.00000000  0.00000000       0.001
   0.01042528  0.00000000  0.00000000       0.001
   0.02085056  0.00000000  0.00000000       0.001
   0.03127584  0.00000000  0.00000000       0.001
   0.04170111  0.00000000  0.00000000       0.001
   0.05212639  0.00000000  0.00000000       0.001
   0.06255167  0.00000000  0.00000000       0.001
   0.00000000  0.01042528  0.00000000       0.002
   0.01042528  0.01042528  0.00000000       0.005
   0.02085056  0.01042528  0.00000000       0.005
   0.03127584  0.01042528  0.00000000       0.005
   0.04170111  0.01042528  0.00000000       0.005
   0.05212639  0.01042528  0.00000000       0.005
   0.06255167  0.01042528  0.00000000       0.002
   0.00000000  0.02085056  0.00000000       0.002
   0.01042528  0.02085056  0.00000000       0.005
   0.02085056  0.02085056  0.00000000       0.005
   0.03127584  0.02085056  0.00000000       0.005
   0.04170111  0.02085056  0.00000000       0.005
   0.05212639  0.02085056  0.00000000       0.005
   0.06255167  0.02085056  0.00000000       0.002
   0.00000000  0.03127584  0.00000000       0.002
   0.01042528  0.03127584  0.00000000       0.005
   0.02085056  0.03127584  0.00000000       0.005
   0.03127584  0.03127584  0.00000000       0.005
   0.04170111  0.03127584  0.00000000       0.005
   0.05212639  0.03127584  0.00000000       0.005
   0.06255167  0.03127584  0.00000000       0.002
   0.00000000  0.04170111  0.00000000       0.002
   0.01042528  0.04170111  0.00000000       0.005
   0.02085056  0.04170111  0.00000000       0.005
   0.03127584  0.04170111  0.00000000       0.005
   0.04170111  0.04170111  0.00000000       0.005
   0.05212639  0.04170111  0.00000000       0.005
   0.06255167  0.04170111  0.00000000       0.002
   0.00000000  0.05212639  0.00000000       0.002
   0.01042528  0.05212639  0.00000000       0.005
   0.02085056  0.05212639  0.00000000       0.005
   0.03127584  0.05212639  0.00000000       0.005
   0.04170111  0.05212639  0.00000000       0.005
   0.05212639  0.05212639  0.00000000       0.005
   0.06255167  0.05212639  0.00000000       0.002
   0.00000000  0.06255167  0.00000000       0.001
   0.01042528  0.06255167  0.00000000       0.002
   0.02085056  0.06255167  0.00000000       0.002
   0.03127584  0.06255167  0.00000000       0.002
   0.04170111  0.06255167  0.00000000       0.002
   0.05212639  0.06255167  0.00000000       0.002
   0.06255167  0.06255167  0.00000000       0.001
   0.00000000  0.01042528  0.01042528       0.002
   0.01042528  0.01042528  0.01042528       0.005
   0.02085056  0.01042528  0.01042528       0.005
   0.03127584  0.01042528  0.01042528       0.005
   0.04170111  0.01042528  0.01042528       0.005
   0.05212639  0.01042528  0.01042528       0.005
   0.06255167  0.01042528  0.01042528       0.002
   0.00000000  0.02085056  0.01042528       0.005
   0.01042528  0.02085056  0.01042528       0.009
   0.02085056  0.02085056  0.01042528       0.009
   0.03127584  0.02085056  0.01042528       0.009
   0.04170111  0.02085056  0.01042528       0.009
   0.05212639  0.02085056  0.01042528       0.009
   0.06255167  0.02085056  0.01042528       0.005
   0.00000000  0.03127584  0.01042528       0.005
   0.01042528  0.03127584  0.01042528       0.009
   0.02085056  0.03127584  0.01042528       0.009
   0.03127584  0.03127584  0.01042528       0.009
   0.04170111  0.03127584  0.01042528       0.009
   0.05212639  0.03127584  0.01042528       0.009
   0.06255167  0.03127584  0.01042528       0.005
   0.00000000  0.04170111  0.01042528       0.005
   0.01042528  0.04170111  0.01042528       0.009
   0.02085056  0.04170111  0.01042528       0.009
   0.03127584  0.04170111  0.01042528       0.009
   0.04170111  0.04170111  0.01042528       0.009
   0.05212639  0.04170111  0.01042528       0.009
   0.06255167  0.04170111  0.01042528       0.005
   0.00000000  0.05212639  0.01042528       0.005
   0.01042528  0.05212639  0.01042528       0.009
   0.02085056  0.05212639  0.01042528       0.009
   0.03127584  0.05212639  0.01042528       0.009
   0.04170111  0.05212639  0.01042528       0.009
   0.05212639  0.05212639  0.01042528       0.009
   0.06255167  0.05212639  0.01042528       0.005
   0.00000000  0.06255167  0.01042528       0.002
   0.01042528  0.06255167  0.01042528       0.005
   0.02085056  0.06255167  0.01042528       0.005
   0.03127584  0.06255167  0.01042528       0.005
   0.04170111  0.06255167  0.01042528       0.005
   0.05212639  0.06255167  0.01042528       0.005
   0.06255167  0.06255167  0.01042528       0.002
   0.00000000  0.02085056  0.02085056       0.002
   0.01042528  0.02085056  0.02085056       0.005
   0.02085056  0.02085056  0.02085056       0.005
   0.03127584  0.02085056  0.02085056       0.005
   0.04170111  0.02085056  0.02085056       0.005
   0.05212639  0.02085056  0.02085056       0.005
   0.06255167  0.02085056  0.02085056       0.002
   0.00000000  0.03127584  0.02085056       0.005
   0.01042528  0.03127584  0.02085056       0.009
   0.02085056  0.03127584  0.02085056       0.009
   0.03127584  0.03127584  0.02085056       0.009
   0.04170111  0.03127584  0.02085056       0.009
   0.05212639  0.03127584  0.02085056       0.009
   0.06255167  0.03127584  0.02085056       0.005
   0.00000000  0.04170111  0.02085056       0.005
   0.01042528  0.04170111  0.02085056       0.009
   0.02085056  0.04170111  0.02085056       0.009
   0.03127584  0.04170111  0.02085056       0.009
   0.04170111  0.04170111  0.02085056       0.009
   0.05212639  0.04170111  0.02085056       0.009
   0.06255167  0.04170111  0.02085056       0.005
   0.00000000  0.05212639  0.02085056       0.005
   0.01042528  0.05212639  0.02085056       0.009
   0.02085056  0.05212639  0.02085056       0.009
   0.03127584  0.05212639  0.02085056       0.009
   0.04170111  0.05212639  0.02085056       0.009
   0.05212639  0.05212639  0.02085056       0.009
   0.06255167  0.05212639  0.02085056       0.005
   0.00000000  0.06255167  0.02085056       0.002
   0.01042528  0.06255167  0.02085056       0.005
   0.02085056  0.06255167  0.02085056       0.005
   0.03127584  0.06255167  0.02085056       0.005
   0.04170111  0.06255167  0.02085056       0.005
   0.05212639  0.06255167  0.02085056       0.005
   0.06255167  0.06255167  0.02085056       0.002
   0.00000000  0.03127584  0.03127584       0.002
   0.01042528  0.03127584  0.03127584       0.005
   0.02085056  0.03127584  0.03127584       0.005
   0.03127584  0.03127584  0.03127584       0.005
   0.04170111  0.03127584  0.03127584       0.005
   0.05212639  0.03127584  0.03127584       0.005
   0.06255167  0.03127584  0.03127584       0.002
   0.00000000  0.04170111  0.03127584       0.005
   0.01042528  0.04170111  0.03127584       0.009
   0.02085056  0.04170111  0.03127584       0.009
   0.03127584  0.04170111  0.03127584       0.009
   0.04170111  0.04170111  0.03127584       0.009
   0.05212639  0.04170111  0.03127584       0.009
   0.06255167  0.04170111  0.03127584       0.005
   0.00000000  0.05212639  0.03127584       0.005
   0.01042528  0.05212639  0.03127584       0.009
   0.02085056  0.05212639  0.03127584       0.009
   0.03127584  0.05212639  0.03127584       0.009
   0.04170111  0.05212639  0.03127584       0.009
   0.05212639  0.05212639  0.03127584       0.009
   0.06255167  0.05212639  0.03127584       0.005
   0.00000000  0.06255167  0.03127584       0.002
   0.01042528  0.06255167  0.03127584       0.005
   0.02085056  0.06255167  0.03127584       0.005
   0.03127584  0.06255167  0.03127584       0.005
   0.04170111  0.06255167  0.03127584       0.005
   0.05212639  0.06255167  0.03127584       0.005
   0.06255167  0.06255167  0.03127584       0.002
   0.00000000  0.04170111  0.04170111       0.002
   0.01042528  0.04170111  0.04170111       0.005
   0.02085056  0.04170111  0.04170111       0.005
   0.03127584  0.04170111  0.04170111       0.005
   0.04170111  0.04170111  0.04170111       0.005
   0.05212639  0.04170111  0.04170111       0.005
   0.06255167  0.04170111  0.04170111       0.002
   0.00000000  0.05212639  0.04170111       0.005
   0.01042528  0.05212639  0.04170111       0.009
   0.02085056  0.05212639  0.04170111       0.009
   0.03127584  0.05212639  0.04170111       0.009
   0.04170111  0.05212639  0.04170111       0.009
   0.05212639  0.05212639  0.04170111       0.009
   0.06255167  0.05212639  0.04170111       0.005
   0.00000000  0.06255167  0.04170111       0.002
   0.01042528  0.06255167  0.04170111       0.005
   0.02085056  0.06255167  0.04170111       0.005
   0.03127584  0.06255167  0.04170111       0.005
   0.04170111  0.06255167  0.04170111       0.005
   0.05212639  0.06255167  0.04170111       0.005
   0.06255167  0.06255167  0.04170111       0.002
   0.00000000  0.05212639  0.05212639       0.002
   0.01042528  0.05212639  0.05212639       0.005
   0.02085056  0.05212639  0.05212639       0.005
   0.03127584  0.05212639  0.05212639       0.005
   0.04170111  0.05212639  0.05212639       0.005
   0.05212639  0.05212639  0.05212639       0.005
   0.06255167  0.05212639  0.05212639       0.002
   0.00000000  0.06255167  0.05212639       0.002
   0.01042528  0.06255167  0.05212639       0.005
   0.02085056  0.06255167  0.05212639       0.005
   0.03127584  0.06255167  0.05212639       0.005
   0.04170111  0.06255167  0.05212639       0.005
   0.05212639  0.06255167  0.05212639       0.005
   0.06255167  0.06255167  0.05212639       0.002
   0.00000000  0.06255167  0.06255167       0.001
   0.01042528  0.06255167  0.06255167       0.001
   0.02085056  0.06255167  0.06255167       0.001
   0.03127584  0.06255167  0.06255167       0.001
   0.04170111  0.06255167  0.06255167       0.001
   0.05212639  0.06255167  0.06255167       0.001
   0.06255167  0.06255167  0.06255167       0.001
 
 k-points in reciprocal lattice and weights: Automatic mesh                          
   0.00000000  0.00000000  0.00000000       0.001
   0.08333333  0.00000000  0.00000000       0.001
   0.16666667  0.00000000  0.00000000       0.001
   0.25000000  0.00000000  0.00000000       0.001
   0.33333333  0.00000000  0.00000000       0.001
   0.41666667  0.00000000  0.00000000       0.001
   0.50000000  0.00000000  0.00000000       0.001
   0.00000000  0.08333333  0.00000000       0.002
   0.08333333  0.08333333  0.00000000       0.005
   0.16666667  0.08333333  0.00000000       0.005
   0.25000000  0.08333333  0.00000000       0.005
   0.33333333  0.08333333  0.00000000       0.005
   0.41666667  0.08333333  0.00000000       0.005
   0.50000000  0.08333333  0.00000000       0.002
   0.00000000  0.16666667  0.00000000       0.002
   0.08333333  0.16666667  0.00000000       0.005
   0.16666667  0.16666667  0.00000000       0.005
   0.25000000  0.16666667  0.00000000       0.005
   0.33333333  0.16666667  0.00000000       0.005
   0.41666667  0.16666667  0.00000000       0.005
   0.50000000  0.16666667  0.00000000       0.002
   0.00000000  0.25000000  0.00000000       0.002
   0.08333333  0.25000000  0.00000000       0.005
   0.16666667  0.25000000  0.00000000       0.005
   0.25000000  0.25000000  0.00000000       0.005
   0.33333333  0.25000000  0.00000000       0.005
   0.41666667  0.25000000  0.00000000       0.005
   0.50000000  0.25000000  0.00000000       0.002
   0.00000000  0.33333333  0.00000000       0.002
   0.08333333  0.33333333  0.00000000       0.005
   0.16666667  0.33333333  0.00000000       0.005
   0.25000000  0.33333333  0.00000000       0.005
   0.33333333  0.33333333  0.00000000       0.005
   0.41666667  0.33333333  0.00000000       0.005
   0.50000000  0.33333333  0.00000000       0.002
   0.00000000  0.41666667  0.00000000       0.002
   0.08333333  0.41666667  0.00000000       0.005
   0.16666667  0.41666667  0.00000000       0.005
   0.25000000  0.41666667  0.00000000       0.005
   0.33333333  0.41666667  0.00000000       0.005
   0.41666667  0.41666667  0.00000000       0.005
   0.50000000  0.41666667  0.00000000       0.002
   0.00000000  0.50000000  0.00000000       0.001
   0.08333333  0.50000000  0.00000000       0.002
   0.16666667  0.50000000  0.00000000       0.002
   0.25000000  0.50000000  0.00000000       0.002
   0.33333333  0.50000000  0.00000000       0.002
   0.41666667  0.50000000  0.00000000       0.002
   0.50000000  0.50000000  0.00000000       0.001
   0.00000000  0.08333333  0.08333333       0.002
   0.08333333  0.08333333  0.08333333       0.005
   0.16666667  0.08333333  0.08333333       0.005
   0.25000000  0.08333333  0.08333333       0.005
   0.33333333  0.08333333  0.08333333       0.005
   0.41666667  0.08333333  0.08333333       0.005
   0.50000000  0.08333333  0.08333333       0.002
   0.00000000  0.16666667  0.08333333       0.005
   0.08333333  0.16666667  0.08333333       0.009
   0.16666667  0.16666667  0.08333333       0.009
   0.25000000  0.16666667  0.08333333       0.009
   0.33333333  0.16666667  0.08333333       0.009
   0.41666667  0.16666667  0.08333333       0.009
   0.50000000  0.16666667  0.08333333       0.005
   0.00000000  0.25000000  0.08333333       0.005
   0.08333333  0.25000000  0.08333333       0.009
   0.16666667  0.25000000  0.08333333       0.009
   0.25000000  0.25000000  0.08333333       0.009
   0.33333333  0.25000000  0.08333333       0.009
   0.41666667  0.25000000  0.08333333       0.009
   0.50000000  0.25000000  0.08333333       0.005
   0.00000000  0.33333333  0.08333333       0.005
   0.08333333  0.33333333  0.08333333       0.009
   0.16666667  0.33333333  0.08333333       0.009
   0.25000000  0.33333333  0.08333333       0.009
   0.33333333  0.33333333  0.08333333       0.009
   0.41666667  0.33333333  0.08333333       0.009
   0.50000000  0.33333333  0.08333333       0.005
   0.00000000  0.41666667  0.08333333       0.005
   0.08333333  0.41666667  0.08333333       0.009
   0.16666667  0.41666667  0.08333333       0.009
   0.25000000  0.41666667  0.08333333       0.009
   0.33333333  0.41666667  0.08333333       0.009
   0.41666667  0.41666667  0.08333333       0.009
   0.50000000  0.41666667  0.08333333       0.005
   0.00000000  0.50000000  0.08333333       0.002
   0.08333333  0.50000000  0.08333333       0.005
   0.16666667  0.50000000  0.08333333       0.005
   0.25000000  0.50000000  0.08333333       0.005
   0.33333333  0.50000000  0.08333333       0.005
   0.41666667  0.50000000  0.08333333       0.005
   0.50000000  0.50000000  0.08333333       0.002
   0.00000000  0.16666667  0.16666667       0.002
   0.08333333  0.16666667  0.16666667       0.005
   0.16666667  0.16666667  0.16666667       0.005
   0.25000000  0.16666667  0.16666667       0.005
   0.33333333  0.16666667  0.16666667       0.005
   0.41666667  0.16666667  0.16666667       0.005
   0.50000000  0.16666667  0.16666667       0.002
   0.00000000  0.25000000  0.16666667       0.005
   0.08333333  0.25000000  0.16666667       0.009
   0.16666667  0.25000000  0.16666667       0.009
   0.25000000  0.25000000  0.16666667       0.009
   0.33333333  0.25000000  0.16666667       0.009
   0.41666667  0.25000000  0.16666667       0.009
   0.50000000  0.25000000  0.16666667       0.005
   0.00000000  0.33333333  0.16666667       0.005
   0.08333333  0.33333333  0.16666667       0.009
   0.16666667  0.33333333  0.16666667       0.009
   0.25000000  0.33333333  0.16666667       0.009
   0.33333333  0.33333333  0.16666667       0.009
   0.41666667  0.33333333  0.16666667       0.009
   0.50000000  0.33333333  0.16666667       0.005
   0.00000000  0.41666667  0.16666667       0.005
   0.08333333  0.41666667  0.16666667       0.009
   0.16666667  0.41666667  0.16666667       0.009
   0.25000000  0.41666667  0.16666667       0.009
   0.33333333  0.41666667  0.16666667       0.009
   0.41666667  0.41666667  0.16666667       0.009
   0.50000000  0.41666667  0.16666667       0.005
   0.00000000  0.50000000  0.16666667       0.002
   0.08333333  0.50000000  0.16666667       0.005
   0.16666667  0.50000000  0.16666667       0.005
   0.25000000  0.50000000  0.16666667       0.005
   0.33333333  0.50000000  0.16666667       0.005
   0.41666667  0.50000000  0.16666667       0.005
   0.50000000  0.50000000  0.16666667       0.002
   0.00000000  0.25000000  0.25000000       0.002
   0.08333333  0.25000000  0.25000000       0.005
   0.16666667  0.25000000  0.25000000       0.005
   0.25000000  0.25000000  0.25000000       0.005
   0.33333333  0.25000000  0.25000000       0.005
   0.41666667  0.25000000  0.25000000       0.005
   0.50000000  0.25000000  0.25000000       0.002
   0.00000000  0.33333333  0.25000000       0.005
   0.08333333  0.33333333  0.25000000       0.009
   0.16666667  0.33333333  0.25000000       0.009
   0.25000000  0.33333333  0.25000000       0.009
   0.33333333  0.33333333  0.25000000       0.009
   0.41666667  0.33333333  0.25000000       0.009
   0.50000000  0.33333333  0.25000000       0.005
   0.00000000  0.41666667  0.25000000       0.005
   0.08333333  0.41666667  0.25000000       0.009
   0.16666667  0.41666667  0.25000000       0.009
   0.25000000  0.41666667  0.25000000       0.009
   0.33333333  0.41666667  0.25000000       0.009
   0.41666667  0.41666667  0.25000000       0.009
   0.50000000  0.41666667  0.25000000       0.005
   0.00000000  0.50000000  0.25000000       0.002
   0.08333333  0.50000000  0.25000000       0.005
   0.16666667  0.50000000  0.25000000       0.005
   0.25000000  0.50000000  0.25000000       0.005
   0.33333333  0.50000000  0.25000000       0.005
   0.41666667  0.50000000  0.25000000       0.005
   0.50000000  0.50000000  0.25000000       0.002
   0.00000000  0.33333333  0.33333333       0.002
   0.08333333  0.33333333  0.33333333       0.005
   0.16666667  0.33333333  0.33333333       0.005
   0.25000000  0.33333333  0.33333333       0.005
   0.33333333  0.33333333  0.33333333       0.005
   0.41666667  0.33333333  0.33333333       0.005
   0.50000000  0.33333333  0.33333333       0.002
   0.00000000  0.41666667  0.33333333       0.005
   0.08333333  0.41666667  0.33333333       0.009
   0.16666667  0.41666667  0.33333333       0.009
   0.25000000  0.41666667  0.33333333       0.009
   0.33333333  0.41666667  0.33333333       0.009
   0.41666667  0.41666667  0.33333333       0.009
   0.50000000  0.41666667  0.33333333       0.005
   0.00000000  0.50000000  0.33333333       0.002
   0.08333333  0.50000000  0.33333333       0.005
   0.16666667  0.50000000  0.33333333       0.005
   0.25000000  0.50000000  0.33333333       0.005
   0.33333333  0.50000000  0.33333333       0.005
   0.41666667  0.50000000  0.33333333       0.005
   0.50000000  0.50000000  0.33333333       0.002
   0.00000000  0.41666667  0.41666667       0.002
   0.08333333  0.41666667  0.41666667       0.005
   0.16666667  0.41666667  0.41666667       0.005
   0.25000000  0.41666667  0.41666667       0.005
   0.33333333  0.41666667  0.41666667       0.005
   0.41666667  0.41666667  0.41666667       0.005
   0.50000000  0.41666667  0.41666667       0.002
   0.00000000  0.50000000  0.41666667       0.002
   0.08333333  0.50000000  0.41666667       0.005
   0.16666667  0.50000000  0.41666667       0.005
   0.25000000  0.50000000  0.41666667       0.005
   0.33333333  0.50000000  0.41666667       0.005
   0.41666667  0.50000000  0.41666667       0.005
   0.50000000  0.50000000  0.41666667       0.002
   0.00000000  0.50000000  0.50000000       0.001
   0.08333333  0.50000000  0.50000000       0.001
   0.16666667  0.50000000  0.50000000       0.001
   0.25000000  0.50000000  0.50000000       0.001
   0.33333333  0.50000000  0.50000000       0.001
   0.41666667  0.50000000  0.50000000       0.001
   0.50000000  0.50000000  0.50000000       0.001
 
 position of ions in fractional coordinates (direct lattice) 
   0.00125103  0.00000000  0.00000000
   0.50000000  0.00000000  0.00000000
   0.00000000  0.50000000  0.00000000
   0.50000000  0.50000000  0.00000000
   0.00000000  0.00000000  0.50000000
   0.50000000  0.00000000  0.50000000
   0.00000000  0.50000000  0.50000000
   0.50000000  0.50000000  0.50000000
   0.25000000  0.25000000  0.00000000
   0.75000000  0.25000000  0.00000000
   0.25000000  0.75000000  0.00000000
   0.75000000  0.75000000  0.00000000
   0.25000000  0.25000000  0.50000000
   0.75000000  0.25000000  0.50000000
   0.25000000  0.75000000  0.50000000
   0.75000000  0.75000000  0.50000000
   0.25000000  0.00000000  0.25000000
   0.75000000  0.00000000  0.25000000
   0.25000000  0.50000000  0.25000000
   0.75000000  0.50000000  0.25000000
   0.25000000  0.00000000  0.75000000
   0.75000000  0.00000000  0.75000000
   0.25000000  0.50000000  0.75000000
   0.75000000  0.50000000  0.75000000
   0.00000000  0.25000000  0.25000000
   0.50000000  0.25000000  0.25000000
   0.00000000  0.75000000  0.25000000
   0.50000000  0.75000000  0.25000000
   0.00000000  0.25000000  0.75000000
   0.50000000  0.25000000  0.75000000
   0.00000000  0.75000000  0.75000000
   0.50000000  0.75000000  0.75000000
 
 position of ions in cartesian coordinates  (Angst):
   0.01000000  0.00000000  0.00000000
   3.99669579  0.00000000  0.00000000
   0.00000000  3.99669579  0.00000000
   3.99669579  3.99669579  0.00000000
   0.00000000  0.00000000  3.99669579
   3.99669579  0.00000000  3.99669579
   0.00000000  3.99669579  3.99669579
   3.99669579  3.99669579  3.99669579
   1.99834790  1.99834790  0.00000000
   5.99504369  1.99834790  0.00000000
   1.99834790  5.99504369  0.00000000
   5.99504369  5.99504369  0.00000000
   1.99834790  1.99834790  3.99669579
   5.99504369  1.99834790  3.99669579
   1.99834790  5.99504369  3.99669579
   5.99504369  5.99504369  3.99669579
   1.99834790  0.00000000  1.99834790
   5.99504369  0.00000000  1.99834790
   1.99834790  3.99669579  1.99834790
   5.99504369  3.99669579  1.99834790
   1.99834790  0.00000000  5.99504369
   5.99504369  0.00000000  5.99504369
   1.99834790  3.99669579  5.99504369
   5.99504369  3.99669579  5.99504369
   0.00000000  1.99834790  1.99834790
   3.99669579  1.99834790  1.99834790
   0.00000000  5.99504369  1.99834790
   3.99669579  5.99504369  1.99834790
   0.00000000  1.99834790  5.99504369
   3.99669579  1.99834790  5.99504369
   0.00000000  5.99504369  5.99504369
   3.99669579  5.99504369  5.99504369
 


--------------------------------------------------------------------------------------------------------


 k-point  1 :  0.00000.00000.0000  plane waves:  23847
 k-point  2 :  0.08330.00000.0000  plane waves:  23783
 k-point  3 :  0.16670.00000.0000  plane waves:  23792
 k-point  4 :  0.25000.00000.0000  plane waves:  23808
 k-point  5 :  0.33330.00000.0000  plane waves:  23804
 k-point  6 :  0.41670.00000.0000  plane waves:  23828
 k-point  7 :  0.50000.00000.0000  plane waves:  23844
 k-point  8 :  0.00000.08330.0000  plane waves:  23783
 k-point  9 :  0.08330.08330.0000  plane waves:  23793
 k-point 10 :  0.16670.08330.0000  plane waves:  23796
 k-point 11 :  0.25000.08330.0000  plane waves:  23826
 k-point 12 :  0.33330.08330.0000  plane waves:  23807
 k-point 13 :  0.41670.08330.0000  plane waves:  23828
 k-point 14 :  0.50000.08330.0000  plane waves:  23834
 k-point 15 :  0.00000.16670.0000  plane waves:  23792
 k-point 16 :  0.08330.16670.0000  plane waves:  23796
 k-point 17 :  0.16670.16670.0000  plane waves:  23811
 k-point 18 :  0.25000.16670.0000  plane waves:  23817
 k-point 19 :  0.33330.16670.0000  plane waves:  23835
 k-point 20 :  0.41670.16670.0000  plane waves:  23821
 k-point 21 :  0.50000.16670.0000  plane waves:  23796
 k-point 22 :  0.00000.25000.0000  plane waves:  23808
 k-point 23 :  0.08330.25000.0000  plane waves:  23826
 k-point 24 :  0.16670.25000.0000  plane waves:  23817
 k-point 25 :  0.25000.25000.0000  plane waves:  23811
 k-point 26 :  0.33330.25000.0000  plane waves:  23835
 k-point 27 :  0.41670.25000.0000  plane waves:  23828
 k-point 28 :  0.50000.25000.0000  plane waves:  23806
 k-point 29 :  0.00000.33330.0000  plane waves:  23804
 k-point 30 :  0.08330.33330.0000  plane waves:  23807
 k-point 31 :  0.16670.33330.0000  plane waves:  23835
 k-point 32 :  0.25000.33330.0000  plane waves:  23835
 k-point 33 :  0.33330.33330.0000  plane waves:  23833
 k-point 34 :  0.41670.33330.0000  plane waves:  23807
 k-point 35 :  0.50000.33330.0000  plane waves:  23824
 k-point 36 :  0.00000.41670.0000  plane waves:  23828
 k-point 37 :  0.08330.41670.0000  plane waves:  23828
 k-point 38 :  0.16670.41670.0000  plane waves:  23821
 k-point 39 :  0.25000.41670.0000  plane waves:  23828
 k-point 40 :  0.33330.41670.0000  plane waves:  23807
 k-point 41 :  0.41670.41670.0000  plane waves:  23814
 k-point 42 :  0.50000.41670.0000  plane waves:  23814
 k-point 43 :  0.00000.50000.0000  plane waves:  23844
 k-point 44 :  0.08330.50000.0000  plane waves:  23834
 k-point 45 :  0.16670.50000.0000  plane waves:  23796
 k-point 46 :  0.25000.50000.0000  plane waves:  23806
 k-point 47 :  0.33330.50000.0000  plane waves:  23824
 k-point 48 :  0.41670.50000.0000  plane waves:  23814
 k-point 49 :  0.50000.50000.0000  plane waves:  23900
 k-point 50 :  0.00000.08330.0833  plane waves:  23793
 k-point 51 :  0.08330.08330.0833  plane waves:  23799
 k-point 52 :  0.16670.08330.0833  plane waves:  23784
 k-point 53 :  0.25000.08330.0833  plane waves:  23808
 k-point 54 :  0.33330.08330.0833  plane waves:  23827
 k-point 55 :  0.41670.08330.0833  plane waves:  23816
 k-point 56 :  0.50000.08330.0833  plane waves:  23808
 k-point 57 :  0.00000.16670.0833  plane waves:  23796
 k-point 58 :  0.08330.16670.0833  plane waves:  23784
 k-point 59 :  0.16670.16670.0833  plane waves:  23800
 k-point 60 :  0.25000.16670.0833  plane waves:  23795
 k-point 61 :  0.33330.16670.0833  plane waves:  23817
 k-point 62 :  0.41670.16670.0833  plane waves:  23819
 k-point 63 :  0.50000.16670.0833  plane waves:  23802
 k-point 64 :  0.00000.25000.0833  plane waves:  23826
 k-point 65 :  0.08330.25000.0833  plane waves:  23808
 k-point 66 :  0.16670.25000.0833  plane waves:  23795
 k-point 67 :  0.25000.25000.0833  plane waves:  23819
 k-point 68 :  0.33330.25000.0833  plane waves:  23823
 k-point 69 :  0.41670.25000.0833  plane waves:  23823
 k-point 70 :  0.50000.25000.0833  plane waves:  23832
 k-point 71 :  0.00000.33330.0833  plane waves:  23807
 k-point 72 :  0.08330.33330.0833  plane waves:  23827
 k-point 73 :  0.16670.33330.0833  plane waves:  23817
 k-point 74 :  0.25000.33330.0833  plane waves:  23823
 k-point 75 :  0.33330.33330.0833  plane waves:  23827
 k-point 76 :  0.41670.33330.0833  plane waves:  23822
 k-point 77 :  0.50000.33330.0833  plane waves:  23840
 k-point 78 :  0.00000.41670.0833  plane waves:  23828
 k-point 79 :  0.08330.41670.0833  plane waves:  23816
 k-point 80 :  0.16670.41670.0833  plane waves:  23819
 k-point 81 :  0.25000.41670.0833  plane waves:  23823
 k-point 82 :  0.33330.41670.0833  plane waves:  23822
 k-point 83 :  0.41670.41670.0833  plane waves:  23818
 k-point 84 :  0.50000.41670.0833  plane waves:  23810
 k-point 85 :  0.00000.50000.0833  plane waves:  23834
 k-point 86 :  0.08330.50000.0833  plane waves:  23808
 k-point 87 :  0.16670.50000.0833  plane waves:  23802
 k-point 88 :  0.25000.50000.0833  plane waves:  23832
 k-point 89 :  0.33330.50000.0833  plane waves:  23840
 k-point 90 :  0.41670.50000.0833  plane waves:  23810
 k-point 91 :  0.50000.50000.0833  plane waves:  23832
 k-point 92 :  0.00000.16670.1667  plane waves:  23811
 k-point 93 :  0.08330.16670.1667  plane waves:  23800
 k-point 94 :  0.16670.16670.1667  plane waves:  23787
 k-point 95 :  0.25000.16670.1667  plane waves:  23804
 k-point 96 :  0.33330.16670.1667  plane waves:  23835
 k-point 97 :  0.41670.16670.1667  plane waves:  23817
 k-point 98 :  0.50000.16670.1667  plane waves:  23826
 k-point 99 :  0.00000.25000.1667  plane waves:  23817
 k-point ** :  0.08330.25000.1667  plane waves:  23795
 k-point ** :  0.16670.25000.1667  plane waves:  23804
 k-point ** :  0.25000.25000.1667  plane waves:  23833
 k-point ** :  0.33330.25000.1667  plane waves:  23840
 k-point ** :  0.41670.25000.1667  plane waves:  23809
 k-point ** :  0.50000.25000.1667  plane waves:  23814
 k-point ** :  0.00000.33330.1667  plane waves:  23835
 k-point ** :  0.08330.33330.1667  plane waves:  23817
 k-point ** :  0.16670.33330.1667  plane waves:  23835
 k-point ** :  0.25000.33330.1667  plane waves:  23840
 k-point ** :  0.33330.33330.1667  plane waves:  23850
 k-point ** :  0.41670.33330.1667  plane waves:  23817
 k-point ** :  0.50000.33330.1667  plane waves:  23822
 k-point ** :  0.00000.41670.1667  plane waves:  23821
 k-point ** :  0.08330.41670.1667  plane waves:  23819
 k-point ** :  0.16670.41670.1667  plane waves:  23817
 k-point ** :  0.25000.41670.1667  plane waves:  23809
 k-point ** :  0.33330.41670.1667  plane waves:  23817
 k-point ** :  0.41670.41670.1667  plane waves:  23830
 k-point ** :  0.50000.41670.1667  plane waves:  23810
 k-point ** :  0.00000.50000.1667  plane waves:  23796
 k-point ** :  0.08330.50000.1667  plane waves:  23802
 k-point ** :  0.16670.50000.1667  plane waves:  23826
 k-point ** :  0.25000.50000.1667  plane waves:  23814
 k-point ** :  0.33330.50000.1667  plane waves:  23822
 k-point ** :  0.41670.50000.1667  plane waves:  23810
 k-point ** :  0.50000.50000.1667  plane waves:  23836
 k-point ** :  0.00000.25000.2500  plane waves:  23811
 k-point ** :  0.08330.25000.2500  plane waves:  23819
 k-point ** :  0.16670.25000.2500  plane waves:  23833
 k-point ** :  0.25000.25000.2500  plane waves:  23790
 k-point ** :  0.33330.25000.2500  plane waves:  23836
 k-point ** :  0.41670.25000.2500  plane waves:  23804
 k-point ** :  0.50000.25000.2500  plane waves:  23818
 k-point ** :  0.00000.33330.2500  plane waves:  23835
 k-point ** :  0.08330.33330.2500  plane waves:  23823
 k-point ** :  0.16670.33330.2500  plane waves:  23840
 k-point ** :  0.25000.33330.2500  plane waves:  23836
 k-point ** :  0.33330.33330.2500  plane waves:  23802
 k-point ** :  0.41670.33330.2500  plane waves:  23817
 k-point ** :  0.50000.33330.2500  plane waves:  23830
 k-point ** :  0.00000.41670.2500  plane waves:  23828
 k-point ** :  0.08330.41670.2500  plane waves:  23823
 k-point ** :  0.16670.41670.2500  plane waves:  23809
 k-point ** :  0.25000.41670.2500  plane waves:  23804
 k-point ** :  0.33330.41670.2500  plane waves:  23817
 k-point ** :  0.41670.41670.2500  plane waves:  23834
 k-point ** :  0.50000.41670.2500  plane waves:  23838
 k-point ** :  0.00000.50000.2500  plane waves:  23806
 k-point ** :  0.08330.50000.2500  plane waves:  23832
 k-point ** :  0.16670.50000.2500  plane waves:  23814
 k-point ** :  0.25000.50000.2500  plane waves:  23818
 k-point ** :  0.33330.50000.2500  plane waves:  23830
 k-point ** :  0.41670.50000.2500  plane waves:  23838
 k-point ** :  0.50000.50000.2500  plane waves:  23844
 k-point ** :  0.00000.33330.3333  plane waves:  23833
 k-point ** :  0.08330.33330.3333  plane waves:  23827
 k-point ** :  0.16670.33330.3333  plane waves:  23850
 k-point ** :  0.25000.33330.3333  plane waves:  23802
 k-point ** :  0.33330.33330.3333  plane waves:  23834
 k-point ** :  0.41670.33330.3333  plane waves:  23826
 k-point ** :  0.50000.33330.3333  plane waves:  23832
 k-point ** :  0.00000.41670.3333  plane waves:  23807
 k-point ** :  0.08330.41670.3333  plane waves:  23822
 k-point ** :  0.16670.41670.3333  plane waves:  23817
 k-point ** :  0.25000.41670.3333  plane waves:  23817
 k-point ** :  0.33330.41670.3333  plane waves:  23826
 k-point ** :  0.41670.41670.3333  plane waves:  23834
 k-point ** :  0.50000.41670.3333  plane waves:  23860
 k-point ** :  0.00000.50000.3333  plane waves:  23824
 k-point ** :  0.08330.50000.3333  plane waves:  23840
 k-point ** :  0.16670.50000.3333  plane waves:  23822
 k-point ** :  0.25000.50000.3333  plane waves:  23830
 k-point ** :  0.33330.50000.3333  plane waves:  23832
 k-point ** :  0.41670.50000.3333  plane waves:  23860
 k-point ** :  0.50000.50000.3333  plane waves:  23832
 k-point ** :  0.00000.41670.4167  plane waves:  23814
 k-point ** :  0.08330.41670.4167  plane waves:  23818
 k-point ** :  0.16670.41670.4167  plane waves:  23830
 k-point ** :  0.25000.41670.4167  plane waves:  23834
 k-point ** :  0.33330.41670.4167  plane waves:  23834
 k-point ** :  0.41670.41670.4167  plane waves:  23867
 k-point ** :  0.50000.41670.4167  plane waves:  23860
 k-point ** :  0.00000.50000.4167  plane waves:  23814
 k-point ** :  0.08330.50000.4167  plane waves:  23810
 k-point ** :  0.16670.50000.4167  plane waves:  23810
 k-point ** :  0.25000.50000.4167  plane waves:  23838
 k-point ** :  0.33330.50000.4167  plane waves:  23860
 k-point ** :  0.41670.50000.4167  plane waves:  23860
 k-point ** :  0.50000.50000.4167  plane waves:  23864
 k-point ** :  0.00000.50000.5000  plane waves:  23900
 k-point ** :  0.08330.50000.5000  plane waves:  23832
 k-point ** :  0.16670.50000.5000  plane waves:  23836
 k-point ** :  0.25000.50000.5000  plane waves:  23844
 k-point ** :  0.33330.50000.5000  plane waves:  23832
 k-point ** :  0.41670.50000.5000  plane waves:  23864
 k-point ** :  0.50000.50000.5000  plane waves:  23744

 maximum and minimum number of plane-waves per node :  23900 23744

 maximum number of plane-waves:  23900
 maximal index in each direction: 
   IXMAX= 17   IYMAX= 17   IZMAX= 17
   IXMIN=-18   IYMIN=-18   IZMIN=-18

 NGX is ok and might be reduce to  72
 NGY is ok and might be reduce to  72
 NGZ is ok and might be reduce to  72

 parallel 3dFFT wavefunction:
    minimum data exchange during FFTs selected (reduces bandwidth)
 parallel 3dFFT charge:
    minimum data exchange during FFTs selected (reduces bandwidth)

 For storing wavefunctions ******* MBYTES are necessary
 For predicting wavefunctions  173.68 MBYTES are necessary
Broyden mixing: mesh for mixing (old mesh)
   NGX = 35   NGY = 35   NGZ = 35
  (NGX  =144   NGY  =144   NGZ  =144)
 gives a total of  42875 points
 initial charge density was supplied:
 charge density of overlapping atoms calculated
 number of electron  352.0000000 magnetization 
 keeping initial charge density in first step


--------------------------------------------------------------------------------------------------------


 Maximum index for augmentation-charges        69805 (set IRDMAX)


--------------------------------------------------------------------------------------------------------


 First call to EWALD:  gamma=   0.222
 Maximum number of real-space cells 3x 3x 3
 Maximum number of reciprocal cells 3x 3x 3

    FEWALD:  VPU time    0.01: CPU time    0.20


----------------------------------------- Iteration    1(   1)  ---------------------------------------


    POTLOK:  VPU time    0.78: CPU time    2.29
    SETDIJ:  VPU time    2.14: CPU time    4.51
    EDDAV :  VPU time 4703.10: CPU time 7895.05
    DOS   :  VPU time   -0.00: CPU time   -0.32
    ------------------------------------------
      LOOP:  VPU time 4711.87: CPU time 7912.56

 eigenvalue-minimisations  : 83160
 total energy-change (2. order) : 0.4479164E+04  (-0.2162642E+05)
 number of electron  352.0000000 magnetization 
 augmentation part   352.0000000 magnetization 

 Free energy of the ion-electron system (eV)
  ---------------------------------------------------
  alpha Z        PSCENC =      3560.37003037
  Ewald energy   TEWEN  =    -31980.58169654
  -1/2 Hartree   DENC   =     -6156.80308807
  -V(xc)+E(xc)   XCENC  =      -336.14580616
  PAW double counting   =     27861.41421209   -26376.63839568
  entropy T*S    EENTRO =        -0.00037320
  eigenvalues    EBANDS =      4710.35225852
  atomic energy  EATOM  =     33197.19690173
  ---------------------------------------------------
  free energy    TOTEN  =      4479.16404307 eV

  energy without entropy =     4479.16441627  energy(sigma->0) =     4479.16422967


--------------------------------------------------------------------------------------------------------




----------------------------------------- Iteration    1(   2)  ---------------------------------------


    EDDAV :  VPU time 2339.58: CPU time 3742.84
    DOS   :  VPU time    0.00: CPU time   -0.00
    ------------------------------------------
      LOOP:  VPU time 2341.37: CPU time 3746.68

 eigenvalue-minimisations  : 83104
 total energy-change (2. order) :-0.4333150E+04  (-0.4150382E+04)
 number of electron  352.0000000 magnetization 
 augmentation part   352.0000000 magnetization 

 Free energy of the ion-electron system (eV)
  ---------------------------------------------------
  alpha Z        PSCENC =      3560.37003037
  Ewald energy   TEWEN  =    -31980.58169654
  -1/2 Hartree   DENC   =     -6156.80308807
  -V(xc)+E(xc)   XCENC  =      -336.14580616
  PAW double counting   =     27861.41421209   -26376.63839568
  entropy T*S    EENTRO =        -0.00023996
  eigenvalues    EBANDS =       377.20210930
  atomic energy  EATOM  =     33197.19690173
  ---------------------------------------------------
  free energy    TOTEN  =       146.01402709 eV

  energy without entropy =      146.01426704  energy(sigma->0) =      146.01414707


--------------------------------------------------------------------------------------------------------




----------------------------------------- Iteration    1(   3)  ---------------------------------------


    EDDAV :  VPU time 2099.15: CPU time 2708.00
    DOS   :  VPU time    0.00: CPU time   -0.00
    ------------------------------------------
      LOOP:  VPU time 2099.39: CPU time 2708.24

 eigenvalue-minimisations  : 86576
 total energy-change (2. order) :-0.2368891E+03  (-0.2254345E+03)
 number of electron  352.0000000 magnetization 
 augmentation part   352.0000000 magnetization 

 Free energy of the ion-electron system (eV)
  ---------------------------------------------------
  alpha Z        PSCENC =      3560.37003037
  Ewald energy   TEWEN  =    -31980.58169654
  -1/2 Hartree   DENC   =     -6156.80308807
  -V(xc)+E(xc)   XCENC  =      -336.14580616
  PAW double counting   =     27861.41421209   -26376.63839568
  entropy T*S    EENTRO =        -0.00058789
  eigenvalues    EBANDS =       140.31335711
  atomic energy  EATOM  =     33197.19690173
  ---------------------------------------------------
  free energy    TOTEN  =       -90.87507303 eV

  energy without entropy =      -90.87448515  energy(sigma->0) =      -90.87477909


--------------------------------------------------------------------------------------------------------




----------------------------------------- Iteration    1(   4)  ---------------------------------------


    EDDAV :  VPU time 2422.22: CPU time 2693.03
    DOS   :  VPU time   -0.00: CPU time   -0.00
    ------------------------------------------
      LOOP:  VPU time 2423.86: CPU time 2739.23

 eigenvalue-minimisations  : 89476
 total energy-change (2. order) :-0.4912033E+01  (-0.4880015E+01)
 number of electron  352.0000000 magnetization 
 augmentation part   352.0000000 magnetization 

 Free energy of the ion-electron system (eV)
  ---------------------------------------------------
  alpha Z        PSCENC =      3560.37003037
  Ewald energy   TEWEN  =    -31980.58169654
  -1/2 Hartree   DENC   =     -6156.80308807
  -V(xc)+E(xc)   XCENC  =      -336.14580616
  PAW double counting   =     27861.41421209   -26376.63839568
  entropy T*S    EENTRO =        -0.00039542
  eigenvalues    EBANDS =       135.40113176
  atomic energy  EATOM  =     33197.19690173
  ---------------------------------------------------
  free energy    TOTEN  =       -95.78710591 eV

  energy without entropy =      -95.78671049  energy(sigma->0) =      -95.78690820


--------------------------------------------------------------------------------------------------------




----------------------------------------- Iteration    1(   5)  ---------------------------------------


    EDDAV :  VPU time 9786.90: CPU time18693.10
    DOS   :  VPU time   -0.00: CPU time   -0.02
    CHARGE:  VPU time  109.85: CPU time  155.58
    MIXING:  VPU time    1.44: CPU time    1.56
    ------------------------------------------
      LOOP:  VPU time 9900.51: CPU time18852.68

 eigenvalue-minimisations  : 88284
 total energy-change (2. order) :-0.2664271E-01  (-0.2661563E-01)
 number of electron  352.0000009 magnetization 
 augmentation part   162.3763113 magnetization 

 Broyden mixing:
  rms(total) = 0.17280E+01    rms(broyden)= 0.17280E+01
  rms(prec ) = 0.26247E+01
  weight for this iteration     100.00

 Free energy of the ion-electron system (eV)
  ---------------------------------------------------
  alpha Z        PSCENC =      3560.37003037
  Ewald energy   TEWEN  =    -31980.58169654
  -1/2 Hartree   DENC   =     -6156.80308807
  -V(xc)+E(xc)   XCENC  =      -336.14580616
  PAW double counting   =     27861.41421209   -26376.63839568
  entropy T*S    EENTRO =        -0.00039938
  eigenvalues    EBANDS =       135.37449301
  atomic energy  EATOM  =     33197.19690173
  ---------------------------------------------------
  free energy    TOTEN  =       -95.81374862 eV

  energy without entropy =      -95.81334924  energy(sigma->0) =      -95.81354893


--------------------------------------------------------------------------------------------------------




----------------------------------------- Iteration    1(   6)  ---------------------------------------


    POTLOK:  VPU time    1.30: CPU time    9.75
    SETDIJ:  VPU time    1.37: CPU time    1.42
    EDDAV :  VPU time 2109.42: CPU time 2145.04
    DOS   :  VPU time   -0.00: CPU time   -0.00
    CHARGE:  VPU time  104.41: CPU time  105.33
    MIXING:  VPU time    0.01: CPU time    0.03
    ------------------------------------------
      LOOP:  VPU time 2216.75: CPU time 2261.82

 eigenvalue-minimisations  : 87764
 total energy-change (2. order) : 0.7722034E+01  (-0.2592223E+01)
 number of electron  352.0000009 magnetization 
 augmentation part   167.6781366 magnetization 

 Broyden mixing:
  rms(total) = 0.33172E+00    rms(broyden)= 0.33172E+00
  rms(prec ) = 0.48876E+00
  weight for this iteration     100.00

 eigenvalues of (default mixing * dielectric matrix)
  average eigenvalue GAMMA=   1.1246
  1.1246

 Free energy of the ion-electron system (eV)
  ---------------------------------------------------
  alpha Z        PSCENC =      3560.37003037
  Ewald energy   TEWEN  =    -31980.58169654
  -1/2 Hartree   DENC   =     -5854.00595001
  -V(xc)+E(xc)   XCENC  =      -346.94612933
  PAW double counting   =     27612.38855276   -26160.92396473
  entropy T*S    EENTRO =        -0.00083858
  eigenvalues    EBANDS =      -115.58862037
  atomic energy  EATOM  =     33197.19690173
  ---------------------------------------------------
  free energy    TOTEN  =       -88.09171470 eV

  energy without entropy =      -88.09087612  energy(sigma->0) =      -88.09129541


--------------------------------------------------------------------------------------------------------




----------------------------------------- Iteration    1(   7)  ---------------------------------------


    POTLOK:  VPU time    0.77: CPU time    0.77
    SETDIJ:  VPU time    1.92: CPU time    1.92
    EDDAV :  VPU time 2654.50: CPU time 2657.03
    DOS   :  VPU time   -0.00: CPU time   -0.00
    CHARGE:  VPU time  100.46: CPU time  101.23
    MIXING:  VPU time    0.09: CPU time    0.09
    ------------------------------------------
      LOOP:  VPU time 2757.99: CPU time 2761.42

 eigenvalue-minimisations  : 87428
 total energy-change (2. order) : 0.3219030E+00  (-0.6057749E-01)
 number of electron  352.0000009 magnetization 
 augmentation part   168.1926503 magnetization 

 Broyden mixing:
  rms(total) = 0.15218E+00    rms(broyden)= 0.15218E+00
  rms(prec ) = 0.20357E+00
  weight for this iteration     100.00

 eigenvalues of (default mixing * dielectric matrix)
  average eigenvalue GAMMA=   1.7399
  1.0750  2.4047

 Free energy of the ion-electron system (eV)
  ---------------------------------------------------
  alpha Z        PSCENC =      3560.37003037
  Ewald energy   TEWEN  =    -31980.58169654
  -1/2 Hartree   DENC   =     -5796.78691409
  -V(xc)+E(xc)   XCENC  =      -349.03935471
  PAW double counting   =     27774.24825608   -26349.49923747
  entropy T*S    EENTRO =        -0.00078745
  eigenvalues    EBANDS =      -143.67700958
  atomic energy  EATOM  =     33197.19690173
[...]
     68      -0.7236      2.00000
     69      -0.7229      2.00000
     70      -0.7228      2.00000
     71      -0.7224      2.00000
     72      -0.7224      2.00000
     73      -0.7116      2.00000
     74      -0.7113      2.00000
     75      -0.7100      2.00000
     76      -0.7100      2.00000
     77      -0.7099      2.00000
     78      -0.7099      2.00000
     79      -0.7086      2.00000
     80      -0.7080      2.00000
     81      -0.4292      2.00000
     82      -0.4292      2.00000
     83      -0.4279      2.00000
     84      -0.4273      2.00000
     85      -0.4260      2.00000
     86      -0.4257      2.00000
     87      -0.4257      2.00000
     88      -0.4257      2.00000
     89      -0.4256      2.00000
     90      -0.4256      2.00000
     91      -0.4255      2.00000
     92      -0.4255      2.00000
     93      -0.4254      2.00000
     94      -0.4254      2.00000
     95      -0.4253      2.00000
     96      -0.4253      2.00000
     97      -0.4253      2.00000
     98      -0.4253      2.00000
     99      -0.4253      2.00000
    100      -0.4249      2.00000
    101      -0.4237      2.00000
    102      -0.4230      2.00000
    103      -0.4218      2.00000
    104      -0.4218      2.00000
    105      -0.0167      2.00000
    106      -0.0153      2.00000
    107      -0.0153      2.00000
    108      -0.0131      2.00000
    109      -0.0130      2.00000
    110      -0.0129      2.00000
    111      -0.0129      2.00000
    112      -0.0126      2.00000
    113      -0.0125      2.00000
    114      -0.0125      2.00000
    115      -0.0125      2.00000
    116      -0.0124      2.00000
    117      -0.0123      2.00000
    118      -0.0123      2.00000
    119      -0.0123      2.00000
    120      -0.0123      2.00000
    121      -0.0122      2.00000
    122      -0.0119      2.00000
    123      -0.0119      2.00000
    124      -0.0118      2.00000
    125      -0.0116      2.00000
    126      -0.0094      2.00000
    127      -0.0094      2.00000
    128      -0.0081      2.00000
    129       0.3519      2.00000
    130       0.3534      2.00000
    131       0.3534      2.00000
    132       0.3534      2.00000
    133       0.3545      2.00000
    134       0.3545      2.00000
    135       0.3547      2.00000
    136       0.3548      2.00000
    137       0.3549      2.00000
    138       0.3550      2.00000
    139       0.3552      2.00000
    140       0.3552      2.00000
    141       0.3563      2.00000
    142       0.3563      2.00000
    143       0.3563      2.00000
    144       0.3578      2.00000
    145       1.1725      2.00000
    146       1.1725      2.00000
    147       1.1728      2.00000
    148       1.1730      2.00000
    149       1.1730      2.00000
    150       1.1730      2.00000
    151       1.1730      2.00000
    152       1.1731      2.00000
    153       1.1731      2.00000
    154       1.1732      2.00000
    155       1.1732      2.00000
    156       1.1733      2.00000
    157       1.1735      2.00000
    158       1.1735      2.00000
    159       1.1735      2.00000
    160       1.1736      2.00000
    161       1.1737      2.00000
    162       1.1737      2.00000
    163       1.1737      2.00000
    164       1.1738      2.00000
    165       1.1738      2.00000
    166       1.1740      2.00000
    167       1.1742      2.00000
    168       1.1742      2.00000
    169       5.2233      0.00000
    170       5.2252      0.00000
    171       5.2252      0.00000
    172       5.2277      0.00000
    173       5.2283      0.00000
    174       5.2283      0.00000
    175       5.2283      0.00000
    176       5.2284      0.00000
    177       5.2285      0.00000
    178       5.2286      0.00000
    179       5.2286      0.00000
    180       5.2286      0.00000
    181       5.2288      0.00000
    182       5.2288      0.00000
    183       5.2288      0.00000
    184       5.2289      0.00000
    185       5.2290      0.00000
    186       5.2291      0.00000
    187       5.2291      0.00000
    188       5.2291      0.00000
    189       5.2296      0.00000
    190       5.2322      0.00000
    191       5.2322      0.00000
    192       5.2341      0.00000
    193      10.6362      0.00000
    194      10.6365      0.00000
    195      10.6372      0.00000
    196      10.6405      0.00000
    197      10.6406      0.00000
    198      10.6412      0.00000
    199      10.6413      0.00000
    200      10.6416      0.00000
    201      10.6416      0.00000
    202      10.6417      0.00000
    203      10.6418      0.00000
    204      10.6418      0.00000
    205      10.6419      0.00000
    206      10.6420      0.00000
    207      10.6423      0.00000
    208      10.6425      0.00000
    209      10.6430      0.00000
    210      10.6436      0.00000
    211      10.6452      0.00000
    212      10.6457      0.00000


--------------------------------------------------------------------------------------------------------


 soft charge-density along one line, spin component           1
         0         1         2         3         4         5         6         7         8         9
 total charge-density along one line
 
 pseudopotential strength for first ion, spin component:           1
-11.736  -0.000   0.000  -0.000  -0.000   0.048   0.000  -0.000
 -0.000 -11.736   0.000  -0.000   0.000   0.000   0.048  -0.000
  0.000   0.000 -11.725   0.000  -0.000  -0.000  -0.000   0.046
 -0.000  -0.000   0.000 -11.736  -0.000   0.000   0.000  -0.000
 -0.000   0.000  -0.000  -0.000 -11.725   0.000  -0.000   0.000
  0.048   0.000  -0.000   0.000   0.000   0.473  -0.000   0.000
  0.000   0.048  -0.000   0.000  -0.000  -0.000   0.473   0.000
 -0.000  -0.000   0.046  -0.000   0.000   0.000   0.000   0.473
  0.000   0.000  -0.000   0.048   0.000  -0.000  -0.000   0.000
  0.000  -0.000   0.000   0.000   0.046  -0.000   0.000  -0.000
  0.000   0.000   0.000   0.000  -0.000  -0.000  -0.000  -0.000
 -0.000  -0.000  -0.000  -0.000   0.000   0.000   0.000   0.000
  0.000  -0.000   0.000  -0.000  -0.000   0.000   0.000  -0.000
 -0.000  -0.000   0.000   0.000  -0.000   0.000   0.000   0.000
 -0.000  -0.000  -0.000  -0.000   0.000   0.000   0.000  -0.000
 -0.000   0.000  -0.000   0.000   0.000  -0.000  -0.000   0.000
  0.000   0.000  -0.000  -0.000   0.000  -0.000  -0.000   0.000
  0.000   0.000  -0.000   0.000   0.000  -0.000  -0.000   0.000
 total augmentation occupancy for first ion, spin component:           1
  1.935   0.000  -0.001  -0.000  -0.000  -0.003  -0.000   0.000   0.000   0.000   0.005  -0.000   0.001   0.000  -0.000   0.000
  0.000   1.939  -0.001  -0.001  -0.001  -0.000  -0.007   0.002   0.000   0.000   0.004  -0.001   0.000   0.000  -0.000  -0.000
 -0.001  -0.001   1.966  -0.001  -0.003   0.000   0.002  -0.043   0.001   0.002   0.014   0.002  -0.000  -0.000  -0.000  -0.000
 -0.000  -0.001  -0.001   1.942   0.000   0.000   0.000   0.001  -0.011   0.001   0.003  -0.001   0.000   0.001  -0.000  -0.000
 -0.000  -0.001  -0.003   0.000   1.957   0.001   0.000   0.002   0.001  -0.036   0.008   0.001   0.000   0.000   0.000  -0.000
 -0.003  -0.000   0.000   0.000   0.001   0.110   0.000   0.001   0.000  -0.000  -0.003   0.001   0.001  -0.000   0.000  -0.000
 -0.000  -0.007   0.002   0.000   0.000   0.000   0.114  -0.003  -0.000   0.001  -0.001   0.001   0.000  -0.000   0.000   0.000
  0.000   0.002  -0.043   0.001   0.002   0.001  -0.003   0.098  -0.002  -0.001  -0.013  -0.000   0.000   0.000  -0.000   0.000
  0.000   0.000   0.001  -0.011   0.001   0.000  -0.000  -0.002   0.117  -0.002  -0.000   0.002  -0.000   0.001   0.000   0.000
  0.000   0.000   0.002   0.001  -0.036  -0.000   0.001  -0.001  -0.002   0.093  -0.007  -0.000  -0.000  -0.000   0.001   0.000
  0.005   0.004   0.014   0.003   0.008  -0.003  -0.001  -0.013  -0.000  -0.007   1.123  -0.418   0.000  -0.000   0.003   0.000
 -0.000  -0.001   0.002  -0.001   0.001   0.001   0.001  -0.000   0.002  -0.000  -0.418   0.236   0.000  -0.000  -0.001  -0.000
  0.001   0.000  -0.000   0.000   0.000   0.001   0.000   0.000  -0.000  -0.000   0.000   0.000   0.137   0.000   0.002  -0.008
  0.000   0.000  -0.000   0.001   0.000  -0.000  -0.000   0.000   0.001  -0.000  -0.000  -0.000   0.000   0.144  -0.001  -0.000
 -0.000  -0.000  -0.000  -0.000   0.000   0.000   0.000  -0.000   0.000   0.001   0.003  -0.001   0.002  -0.001   0.140  -0.000
  0.000  -0.000  -0.000  -0.000  -0.000  -0.000   0.000   0.000   0.000   0.000   0.000  -0.000  -0.008  -0.000  -0.000   0.001
 -0.000  -0.000   0.000   0.000   0.000   0.000   0.000  -0.000  -0.000   0.000   0.000  -0.000  -0.000  -0.008  -0.000   0.000
  0.000  -0.000  -0.000   0.000   0.000  -0.000  -0.000   0.000  -0.000  -0.000  -0.000   0.000  -0.000  -0.000  -0.008   0.000


------------------------ aborting loop because EDIFF is reached ----------------------------------------




--------------------------------------------------------------------------------------------------------


    CHARGE:  VPU time   88.91: CPU time 1555.90
    FORLOC:  VPU time    0.28: CPU time    0.28
    FORNL :  VPU time  736.36: CPU time 1653.36
    STRESS:  VPU time 1201.83: CPU time 1293.92
    FORCOR:  VPU time    0.95: CPU time    1.93
    FORHAR:  VPU time    0.23: CPU time    0.22
    MIXING:  VPU time    0.09: CPU time    2.50


--------------------------------------------------------------------------------------------------------



  FREE ENERGIE OF THE ION-ELECTRON SYSTEM (eV)
  ---------------------------------------------------
  free  energy   TOTEN  =       -87.643276 eV

  energy  without entropy=      -87.642460  energy(sigma->0) =      -87.642868
 

  FORCE on cell =-STRESS in cart. coord.  units (eV/reduce length):
  Direction    X        Y        Z        XY       YZ       ZX
  --------------------------------------------------------------------------------------
  Alpha Z   3560.37   3560.37   3560.37
  Ewald   -10660.27 -10660.22 -10660.22     -0.00      0.00      0.00
  Hartree   1918.60   1918.63   1918.63      0.00     -0.00     -0.00
  E(xc)    -1869.37  -1869.37  -1869.37      0.00      0.00     -0.00
  Local     3436.85   3436.78   3436.78     -0.00      0.00      0.00
  n-local  -2048.97  -2053.26  -2044.69      2.14      1.35      0.58
  augment   1343.75   1343.75   1343.75     -0.00     -0.00     -0.00
  Kinetic   4368.77   4361.74   4375.79      0.96     -0.61     -2.18
  -------------------------------------------------------------------------------------
  Total       49.73     49.73     49.73      0.00      0.00      0.00
  in kB      156.02    156.02    156.02      0.00      0.00      0.00
  external pressure =      156.02 kB  Pullay stress =        0.00 kB


 VOLUME and BASIS-vectors are now :
 -----------------------------------------------------------------------------
  energy-cutoff  :      750.00
  volume of cell :      510.73
      direct lattice vectors                 reciprocal lattice vectors
     7.993391581  0.000000000  0.000000000     0.125103342  0.000000000  0.000000000
     0.000000000  7.993391581  0.000000000     0.000000000  0.125103342  0.000000000
     0.000000000  0.000000000  7.993391581     0.000000000  0.000000000  0.125103342

  length of vectors
     7.993391581  7.993391581  7.993391581     0.125103342  0.125103342  0.125103342


 FORCES acting on ions
    electron-ion (+dipol)            ewald-force                    non-local-force                 convergence-correction
 -----------------------------------------------------------------------------------------------
   0.437E+01 -.110E-12 0.924E-07   -.443E+01 0.604E-13 -.817E-13   -.194E-01 0.822E-20 -.244E-19   -.224E-06 0.259E-13 -.806E-13
   -.116E+01 0.191E-13 -.925E-07   0.117E+01 -.284E-13 0.000E+00   -.993E-02 0.820E-20 -.589E-20   -.187E-06 0.207E-13 -.142E-12
   0.367E+00 0.527E-12 -.419E-11   -.370E+00 0.355E-14 0.355E-14   0.262E-02 0.174E-20 -.185E-20   -.602E-06 -.557E-13 -.757E-13
   -.295E+00 0.429E-11 -.465E-11   0.291E+00 0.000E+00 0.000E+00   0.414E-02 -.103E-19 -.579E-21   0.109E-05 -.417E-13 -.126E-12
   0.367E+00 -.109E-12 0.145E-10   -.370E+00 0.711E-14 0.355E-14   0.262E-02 0.269E-20 -.799E-21   -.157E-06 0.228E-13 -.210E-14
   -.295E+00 -.132E-12 0.157E-10   0.291E+00 0.000E+00 0.000E+00   0.414E-02 0.323E-20 0.389E-20   0.996E-06 0.123E-13 0.149E-13
   0.154E+00 0.525E-12 -.503E-10   -.153E+00 -.249E-13 0.355E-14   -.116E-02 0.231E-20 0.660E-20   -.101E-05 -.487E-13 -.449E-13
   -.143E+00 -.323E-11 -.486E-10   0.143E+00 -.284E-13 0.000E+00   0.700E-04 -.296E-20 0.777E-21   0.796E-06 -.313E-13 -.418E-13
   -.555E+00 -.107E+01 -.800E-10   0.562E+00 0.108E+01 -.142E-13   0.375E-02 0.124E-02 -.797E-20   -.231E-06 -.377E-06 -.123E-12
   -.558E+00 0.106E+01 -.780E-10   0.565E+00 -.107E+01 -.142E-13   0.380E-02 -.125E-02 0.179E-20   0.256E-07 0.433E-06 -.998E-13
   -.555E+00 0.107E+01 -.799E-10   0.562E+00 -.108E+01 -.284E-13   0.375E-02 -.124E-02 0.361E-20   -.231E-06 0.377E-06 -.121E-12
   -.558E+00 -.106E+01 -.780E-10   0.565E+00 0.107E+01 -.284E-13   0.380E-02 0.125E-02 -.118E-19   0.256E-07 -.433E-06 -.873E-13
   -.153E-01 -.886E-01 -.587E-10   0.171E-01 0.887E-01 0.000E+00   -.159E-02 -.281E-04 -.610E-20   -.317E-06 -.187E-06 -.245E-13
   -.171E-01 0.884E-01 -.629E-10   0.189E-01 -.886E-01 0.000E+00   -.157E-02 0.266E-04 0.769E-20   0.681E-07 0.241E-07 -.169E-13
   -.153E-01 0.886E-01 -.587E-10   0.171E-01 -.887E-01 0.000E+00   -.159E-02 0.281E-04 0.513E-20   -.317E-06 0.187E-06 -.289E-13
   -.171E-01 -.884E-01 -.637E-10   0.189E-01 0.886E-01 0.000E+00   -.157E-02 -.266E-04 0.572E-20   0.681E-07 -.241E-07 -.182E-13
   -.555E+00 -.743E-13 -.107E+01   0.562E+00 0.142E-12 0.108E+01   0.375E-02 -.283E-20 0.124E-02   -.319E-06 0.528E-14 -.302E-06
   -.558E+00 -.207E-12 0.106E+01   0.565E+00 0.142E-12 -.107E+01   0.380E-02 -.133E-21 -.125E-02   -.619E-07 0.229E-13 0.358E-06
   -.153E-01 0.502E-12 -.886E-01   0.171E-01 0.114E-12 0.887E-01   -.159E-02 -.729E-21 -.281E-04   -.294E-06 -.286E-13 -.112E-06
   -.171E-01 -.517E-11 0.884E-01   0.189E-01 0.114E-12 -.886E-01   -.157E-02 0.232E-20 0.266E-04   0.919E-07 -.602E-13 -.511E-07
   -.555E+00 -.109E-12 0.107E+01   0.562E+00 0.114E-12 -.108E+01   0.375E-02 -.993E-21 -.124E-02   -.319E-06 0.983E-14 0.302E-06
   -.558E+00 -.150E-12 -.106E+01   0.565E+00 0.114E-12 0.107E+01   0.380E-02 0.793E-21 0.125E-02   -.619E-07 0.291E-13 -.358E-06
   -.153E-01 0.536E-12 0.886E-01   0.171E-01 0.142E-12 -.887E-01   -.159E-02 0.392E-20 0.281E-04   -.294E-06 -.314E-13 0.112E-06
   -.171E-01 -.600E-11 -.884E-01   0.189E-01 0.142E-12 0.886E-01   -.157E-02 0.782E-21 -.266E-04   0.919E-07 -.653E-13 0.511E-07
   0.694E+00 0.273E-02 0.273E-02   -.698E+00 -.275E-02 -.275E-02   0.244E-02 -.509E-05 -.509E-05   -.230E-06 0.437E-08 0.380E-08
   -.390E+00 -.809E-03 -.809E-03   0.393E+00 0.823E-03 0.823E-03   -.261E-02 -.124E-04 -.124E-04   0.649E-06 -.576E-07 -.574E-07
   0.694E+00 -.273E-02 0.273E-02   -.698E+00 0.275E-02 -.275E-02   0.244E-02 0.509E-05 -.509E-05   -.230E-06 -.437E-08 0.380E-08
   -.390E+00 0.809E-03 -.809E-03   0.393E+00 -.823E-03 0.823E-03   -.261E-02 0.124E-04 -.124E-04   0.649E-06 0.576E-07 -.574E-07
   0.694E+00 0.273E-02 -.273E-02   -.698E+00 -.275E-02 0.275E-02   0.244E-02 -.509E-05 0.509E-05   -.230E-06 0.437E-08 -.380E-08
   -.390E+00 -.809E-03 0.809E-03   0.393E+00 0.823E-03 -.823E-03   -.261E-02 -.124E-04 0.124E-04   0.649E-06 -.576E-07 0.574E-07
   0.694E+00 -.273E-02 -.273E-02   -.698E+00 0.275E-02 0.275E-02   0.244E-02 0.509E-05 0.509E-05   -.230E-06 -.437E-08 -.380E-08
   -.390E+00 0.809E-03 0.809E-03   0.393E+00 -.823E-03 -.823E-03   -.261E-02 0.124E-04 0.124E-04   0.649E-06 0.576E-07 0.574E-07
 -----------------------------------------------------------------------------------------------
   -.884E-06 -.169E-10 -.686E-09   0.244E-13 0.341E-13 0.825E-13   -.564E-05 -.169E-20 0.120E-18   0.298E-06 -.590E-12 -.168E-11
 
 
 POSITION                                       TOTAL-FORCE (eV/Angst)
 -----------------------------------------------------------------------------------
      0.01000      0.00000      0.00000        -0.081389     -0.000000     -0.000000
      3.99670      0.00000      0.00000         0.001538     -0.000000      0.000000
      0.00000      3.99670      0.00000        -0.000369      0.000000     -0.000000
      3.99670      3.99670      0.00000        -0.000418     -0.000000     -0.000000
      0.00000      0.00000      3.99670        -0.000369      0.000000      0.000000
      3.99670      0.00000      3.99670        -0.000418     -0.000000      0.000000
      0.00000      3.99670      3.99670        -0.000030     -0.000000     -0.000000
      3.99670      3.99670      3.99670        -0.000296     -0.000000      0.000000
      1.99835      1.99835      0.00000         0.010938      0.013004      0.000000
      5.99504      1.99835      0.00000         0.010646     -0.012583      0.000000
      1.99835      5.99504      0.00000         0.010938     -0.013004     -0.000000
      5.99504      5.99504      0.00000         0.010646      0.012583     -0.000000
      1.99835      1.99835      3.99670         0.000222      0.000144     -0.000000
      5.99504      1.99835      3.99670         0.000221     -0.000145     -0.000000
      1.99835      5.99504      3.99670         0.000222     -0.000144     -0.000000
      5.99504      5.99504      3.99670         0.000221      0.000145     -0.000000
      1.99835      0.00000      1.99835         0.010938     -0.000000      0.013004
      5.99504      0.00000      1.99835         0.010646     -0.000000     -0.012583
      1.99835      3.99670      1.99835         0.000222      0.000000      0.000144
      5.99504      3.99670      1.99835         0.000221      0.000000     -0.000145
      1.99835      0.00000      5.99504         0.010938      0.000000     -0.013004
      5.99504      0.00000      5.99504         0.010646     -0.000000      0.012583
      1.99835      3.99670      5.99504         0.000222      0.000000     -0.000144
      5.99504      3.99670      5.99504         0.000221     -0.000000      0.000145
      0.00000      1.99835      1.99835        -0.002103     -0.000024     -0.000024
      3.99670      1.99835      1.99835         0.000514      0.000001      0.000001
      0.00000      5.99504      1.99835        -0.002103      0.000024     -0.000024
      3.99670      5.99504      1.99835         0.000514     -0.000001      0.000001
      0.00000      1.99835      5.99504        -0.002103     -0.000024      0.000024
      3.99670      1.99835      5.99504         0.000514      0.000001     -0.000001
      0.00000      5.99504      5.99504        -0.002103      0.000024      0.000024
      3.99670      5.99504      5.99504         0.000514     -0.000001     -0.000001
 -----------------------------------------------------------------------------------
    total drift:                               -0.000006     -0.000000     -0.000000


--------------------------------------------------------------------------------------------------------



 mean value of Nose-termostat <S>:     1.000 mean value of <T> :     0.000
 mean temperature <T/S>/<1/S>  :     0.000

     LOOP+:  VPU time65175.61: CPU time99581.54
  
  
 General timing and accounting informations for this job:
 ========================================================
  
                  Total CPU time used (sec):    65598.511
                            User time (sec):    47583.927
                          System time (sec):    18014.583
                         Elapsed time (sec):   100372.743
  
                   Maximum memory used (kb):     6889904.
                   Average memory used (kb):           0.
  
                          Minor page faults:     10204121
                          Major page faults:      1041066
                 Voluntary context switches:      1443332
