 running on    8 nodes
 distr:  one band on    1 nodes,    8 groups
 vasp.4.6.28 25Jul05 complex 
 POSCAR found :  1 types and   32 ions

 ----------------------------------------------------------------------------- 
|                                                                             |
|  ADVICE TO THIS USER RUNNING 'VASP/VAMP'   (HEAR YOUR MASTER'S VOICE ...):  |
|                                                                             |
|      You have a (more or less) 'large supercell' and for larger cells       |
|      it might be more efficient to use real space projection operators      |
|      So try LREAL= Auto  in the INCAR   file.                               |
|      Mind: If you want to do an extremely accurate calculations keep the    |
|      reciprocal projection scheme          (i.e. LREAL=.FALSE.)             |
|                                                                             |
 ----------------------------------------------------------------------------- 

 LDA part: xc-table for Pade appr. of Perdew
 generate k-points for:   6   6   6
 POSCAR, INCAR and KPOINTS ok, starting setup
 FFT: planning ...           1
 reading WAVECAR
 WARNING: random wavefunctions but no delay for mixing, default for NELMDL
 entering main loop
       N       E                     dE             d eps       ncg     rms          rms(c)
DAV:   1     0.124318874940E+03    0.12432E+03   -0.32854E+04  5760   0.104E+03
DAV:   2    -0.107229075004E+03   -0.23155E+03   -0.21516E+03  6784   0.141E+02
DAV:   3    -0.120146706882E+03   -0.12918E+02   -0.12338E+02  7168   0.266E+01
DAV:   4    -0.120382673084E+03   -0.23597E+00   -0.23419E+00  6728   0.382E+00
DAV:   5    -0.120385527468E+03   -0.28544E-02   -0.28524E-02  6816   0.483E-01    0.537E+00
DAV:   6    -0.119952059904E+03    0.43347E+00   -0.46604E-02  6520   0.668E-01    0.334E+00
DAV:   7    -0.119636209349E+03    0.31585E+00   -0.14111E-01  6344   0.108E+00    0.135E-01
DAV:   8    -0.119636363576E+03   -0.15423E-03   -0.12173E-03  6792   0.130E-01    0.469E-02
DAV:   9    -0.119636396744E+03   -0.33168E-04   -0.53243E-05  6688   0.200E-02    0.411E-03
DAV:  10    -0.119636398325E+03   -0.15811E-05   -0.33357E-06  6800   0.555E-03    0.205E-03
DAV:  11    -0.119636395659E+03    0.26668E-05   -0.22237E-07  6720   0.138E-03    0.785E-04
DAV:  12    -0.119636394592E+03    0.10666E-05   -0.21255E-08  4584   0.451E-04    0.125E-04
DAV:  13    -0.119636394449E+03    0.14330E-06   -0.28891E-09  3744   0.190E-04    0.338E-05
DAV:  14    -0.119636394441E+03    0.81786E-08   -0.48029E-10  3656   0.717E-05
   1 F= -.11963639E+03 E0= -.11963623E+03  d E =-.323373E-03
