  32  32   0   0
  0.1596196E+02  0.7993656E-09  0.7993656E-09  0.7993656E-09  0.5000000E-15
  1.000000000000000E-004
  CAR 
 unknown system                          
     13.00979228     -3.77857877  301      8.31736865      1.00000000
     -3.779  0.0000E+00  0.0000E+00
     -3.723  0.0000E+00  0.0000E+00
     -3.667  0.0000E+00  0.0000E+00
     -3.611  0.0000E+00  0.0000E+00
     -3.555  0.0000E+00  0.0000E+00
     -3.499  0.0000E+00  0.0000E+00
     -3.443  0.0000E+00  0.0000E+00
     -3.387  0.0000E+00  0.0000E+00
     -3.331  0.0000E+00  0.0000E+00
     -3.275  0.0000E+00  0.0000E+00
     -3.219  0.0000E+00  0.0000E+00
     -3.163  0.0000E+00  0.0000E+00
     -3.107  0.0000E+00  0.0000E+00
     -3.051  0.3927E-07  0.2198E-08
     -2.995  0.1651E+00  0.9241E-02
     -2.939  0.9484E+00  0.6231E-01
     -2.883  0.1427E+01  0.1421E+00
     -2.827  0.9393E+00  0.1947E+00
     -2.771  0.1021E+01  0.2518E+00
     -2.715  0.9651E+00  0.3059E+00
     -2.659  0.3966E+01  0.5278E+00
     -2.603  0.3971E+01  0.7500E+00
     -2.547  0.9078E-10  0.7500E+00
     -2.491  0.1835E+01  0.8527E+00
     -2.436  0.3183E+01  0.1031E+01
     -2.380  0.2707E+01  0.1182E+01
     -2.324  0.3287E+01  0.1366E+01
     -2.268  0.3880E+01  0.1583E+01
     -2.212  0.1323E+01  0.1657E+01
     -2.156  0.3970E+01  0.1880E+01
     -2.100  0.7892E+01  0.2321E+01
     -2.044  0.5028E-01  0.2324E+01
     -1.988  0.5990E+00  0.2358E+01
     -1.932  0.1965E+01  0.2468E+01
     -1.876  0.6523E+01  0.2833E+01
     -1.820  0.5810E+01  0.3158E+01
     -1.764  0.3966E+01  0.3380E+01
     -1.708  0.3971E+01  0.3602E+01
     -1.652  0.7906E+01  0.4044E+01
     -1.596  0.3745E+01  0.4254E+01
     -1.540  0.2620E+00  0.4269E+01
     -1.484  0.1060E+01  0.4328E+01
     -1.428  0.3129E+01  0.4503E+01
     -1.372  0.4779E+01  0.4770E+01
     -1.316  0.1188E+02  0.5435E+01
     -1.260  0.5294E+01  0.5731E+01
     -1.204  0.6749E-04  0.5731E+01
     -1.148  0.1155E+02  0.6378E+01
     -1.092  0.6713E+01  0.6754E+01
     -1.036  0.1592E+01  0.6843E+01
     -0.981  0.2036E+00  0.6854E+01
     -0.925  0.1869E+01  0.6959E+01
     -0.869  0.7859E+01  0.7398E+01
     -0.813  0.7938E+01  0.7843E+01
     -0.757  0.7939E+01  0.8287E+01
     -0.701  0.4926E+01  0.8563E+01
     -0.645  0.3703E+01  0.8770E+01
     -0.589  0.8192E+01  0.9228E+01
     -0.533  0.4028E+01  0.9454E+01
     -0.477  0.2350E+00  0.9467E+01
     -0.421  0.3811E+01  0.9680E+01
     -0.365  0.1581E+02  0.1056E+02
     -0.309  0.7941E+01  0.1101E+02
     -0.253  0.3968E+01  0.1123E+02
     -0.197  0.3925E+01  0.1145E+02
     -0.141  0.1063E+02  0.1205E+02
     -0.085  0.6133E+01  0.1239E+02
     -0.029  0.3145E+01  0.1256E+02
      0.027  0.5285E-01  0.1257E+02
      0.083  0.1309E+01  0.1264E+02
      0.139  0.8899E+01  0.1314E+02
      0.195  0.1390E+02  0.1392E+02
      0.251  0.7936E+01  0.1436E+02
      0.307  0.3926E+01  0.1458E+02
      0.363  0.1086E+02  0.1519E+02
      0.419  0.1142E+02  0.1583E+02
      0.474  0.5561E+01  0.1614E+02
      0.530  0.5081E+00  0.1617E+02
      0.586  0.7488E+01  0.1659E+02
      0.642  0.7890E+01  0.1703E+02
      0.698  0.3969E+01  0.1725E+02
      0.754  0.1191E+02  0.1792E+02
      0.810  0.2088E-02  0.1792E+02
      0.866  0.1126E+02  0.1855E+02
      0.922  0.1293E+02  0.1927E+02
      0.978  0.3612E+01  0.1947E+02
      1.034  0.2079E+00  0.1948E+02
      1.090  0.1252E+01  0.1955E+02
      1.146  0.1546E+02  0.2042E+02
      1.202  0.1584E+02  0.2131E+02
      1.258  0.3970E+01  0.2153E+02
      1.314  0.7936E+01  0.2197E+02
      1.370  0.1574E+02  0.2285E+02
      1.426  0.7305E+01  0.2326E+02
      1.482  0.7820E+00  0.2331E+02
      1.538  0.2509E+01  0.2345E+02
      1.594  0.4489E+01  0.2370E+02
      1.650  0.7375E+01  0.2411E+02
      1.706  0.1940E+02  0.2520E+02
      1.762  0.9249E+01  0.2571E+02
      1.818  0.3971E+01  0.2594E+02
      1.874  0.1587E+02  0.2682E+02
      1.929  0.7870E+01  0.2726E+02
      1.985  0.8421E-01  0.2727E+02
      2.041  0.3185E+01  0.2745E+02
      2.097  0.8603E+01  0.2793E+02
      2.153  0.1158E+02  0.2858E+02
      2.209  0.6306E+01  0.2893E+02
      2.265  0.1109E+02  0.2955E+02
      2.321  0.7900E+01  0.2999E+02
      2.377  0.7928E+01  0.3044E+02
      2.433  0.1985E+02  0.3155E+02
      2.489  0.3051E-02  0.3155E+02
      2.545  0.3839E+01  0.3176E+02
      2.601  0.2144E+02  0.3296E+02
      2.657  0.1631E+02  0.3387E+02
      2.713  0.1109E+02  0.3449E+02
      2.769  0.2913E+01  0.3466E+02
      2.825  0.2329E+00  0.3467E+02
      2.881  0.7934E+01  0.3511E+02
      2.937  0.1566E+02  0.3599E+02
      2.993  0.7602E-04  0.3599E+02
      3.049  0.3971E+01  0.3621E+02
      3.105  0.7939E+01  0.3666E+02
      3.161  0.1768E+02  0.3765E+02
      3.217  0.1130E+02  0.3828E+02
      3.273  0.4542E+01  0.3853E+02
      3.328  0.1920E+02  0.3961E+02
      3.384  0.1426E+02  0.4041E+02
      3.440  0.3507E+01  0.4060E+02
      3.496  0.2464E+01  0.4074E+02
      3.552  0.1205E+02  0.4141E+02
      3.608  0.1331E+02  0.4216E+02
      3.664  0.1255E+02  0.4286E+02
      3.720  0.1193E+02  0.4353E+02
      3.776  0.7924E+01  0.4397E+02
      3.832  0.1189E+02  0.4464E+02
      3.888  0.1571E+02  0.4552E+02
      3.944  0.8515E+00  0.4556E+02
      4.000  0.3963E+01  0.4579E+02
      4.056  0.1452E+02  0.4660E+02
      4.112  0.9672E+01  0.4714E+02
      4.168  0.9910E+01  0.4770E+02
      4.224  0.7103E+01  0.4809E+02
      4.280  0.3910E+01  0.4831E+02
      4.336  0.2275E+02  0.4958E+02
      4.392  0.1156E+02  0.5023E+02
      4.448  0.5300E+01  0.5053E+02
      4.504  0.1555E+02  0.5140E+02
      4.560  0.1191E+02  0.5206E+02
      4.616  0.7940E+01  0.5251E+02
      4.672  0.1650E-01  0.5251E+02
      4.728  0.1175E+02  0.5317E+02
      4.783  0.1974E+02  0.5427E+02
      4.839  0.2260E+02  0.5554E+02
      4.895  0.1494E+01  0.5562E+02
      4.951  0.1292E+01  0.5569E+02
      5.007  0.1053E+02  0.5628E+02
      5.063  0.1906E+02  0.5735E+02
      5.119  0.1876E+02  0.5840E+02
      5.175  0.1557E+02  0.5927E+02
      5.231  0.4284E+01  0.5951E+02
      5.287  0.7939E+01  0.5995E+02
      5.343  0.8109E+01  0.6041E+02
      5.399  0.7681E+01  0.6084E+02
      5.455  0.1075E+02  0.6144E+02
      5.511  0.2511E+02  0.6284E+02
      5.567  0.1609E+02  0.6374E+02
      5.623  0.9672E+01  0.6429E+02
      5.679  0.1813E+02  0.6530E+02
      5.735  0.2237E+01  0.6543E+02
      5.791  0.7770E+01  0.6586E+02
      5.847  0.5688E+01  0.6618E+02
      5.903  0.1831E+02  0.6720E+02
      5.959  0.4241E+01  0.6744E+02
      6.015  0.1505E+02  0.6828E+02
      6.071  0.1251E+02  0.6898E+02
      6.127  0.1979E+02  0.7009E+02
      6.183  0.4094E+01  0.7032E+02
      6.238  0.9170E+01  0.7083E+02
      6.294  0.1764E+02  0.7182E+02
      6.350  0.7454E+01  0.7224E+02
      6.406  0.3857E+01  0.7245E+02
      6.462  0.1870E+02  0.7350E+02
      6.518  0.1504E+02  0.7434E+02
      6.574  0.2309E+02  0.7563E+02
      6.630  0.8470E+01  0.7611E+02
      6.686  0.5022E+01  0.7639E+02
      6.742  0.2551E+00  0.7640E+02
      6.798  0.7755E+01  0.7684E+02
      6.854  0.1249E+02  0.7754E+02
      6.910  0.1340E+02  0.7829E+02
      6.966  0.1158E+02  0.7893E+02
      7.022  0.1659E+02  0.7986E+02
      7.078  0.1858E+02  0.8090E+02
      7.134  0.1251E+01  0.8097E+02
      7.190  0.1386E+02  0.8175E+02
      7.246  0.1791E+02  0.8275E+02
      7.302  0.1252E+02  0.8345E+02
      7.358  0.1260E+02  0.8416E+02
      7.414  0.8656E+01  0.8464E+02
      7.470  0.9047E+01  0.8515E+02
      7.526  0.1332E+02  0.8589E+02
      7.582  0.1014E+02  0.8646E+02
      7.638  0.1225E+02  0.8714E+02
      7.693  0.2212E+02  0.8838E+02
      7.749  0.9570E+01  0.8892E+02
      7.805  0.1190E+02  0.8958E+02
      7.861  0.3957E+01  0.8980E+02
      7.917  0.1948E-01  0.8981E+02
      7.973  0.1489E+02  0.9064E+02
      8.029  0.1851E+02  0.9167E+02
      8.085  0.1197E+02  0.9234E+02
      8.141  0.1408E+02  0.9313E+02
      8.197  0.1789E+02  0.9413E+02
      8.253  0.6458E+01  0.9449E+02
      8.309  0.2536E+02  0.9591E+02
      8.365  0.4810E+01  0.9618E+02
      8.421  0.3234E+02  0.9799E+02
      8.477  0.9409E+01  0.9852E+02
      8.533  0.2165E+01  0.9864E+02
      8.589  0.1000E+02  0.9920E+02
      8.645  0.1121E+02  0.9983E+02
      8.701  0.1451E+02  0.1006E+03
      8.757  0.7423E+01  0.1011E+03
      8.813  0.8112E+01  0.1015E+03
      8.869  0.1222E+02  0.1022E+03
      8.925  0.2321E+02  0.1035E+03
      8.981  0.1334E+02  0.1042E+03
      9.037  0.1244E+02  0.1049E+03
      9.093  0.9595E-01  0.1049E+03
      9.148  0.9857E+01  0.1055E+03
      9.204  0.1481E+02  0.1063E+03
      9.260  0.5919E+01  0.1067E+03
      9.316  0.3192E+02  0.1084E+03
      9.372  0.2008E+02  0.1096E+03
      9.428  0.9694E+01  0.1101E+03
      9.484  0.1586E+02  0.1110E+03
      9.540  0.1366E+02  0.1118E+03
      9.596  0.2015E+02  0.1129E+03
      9.652  0.1343E+02  0.1136E+03
      9.708  0.6518E+01  0.1140E+03
      9.764  0.5236E+01  0.1143E+03
      9.820  0.1585E+02  0.1152E+03
      9.876  0.2226E+02  0.1164E+03
      9.932  0.4649E+01  0.1167E+03
      9.988  0.7525E+01  0.1171E+03
     10.044  0.1137E+02  0.1177E+03
     10.100  0.1767E+02  0.1187E+03
     10.156  0.1754E+02  0.1197E+03
     10.212  0.9621E+01  0.1203E+03
     10.268  0.1687E+02  0.1212E+03
     10.324  0.2502E+02  0.1226E+03
     10.380  0.1201E+02  0.1233E+03
     10.436  0.3972E+01  0.1235E+03
     10.492  0.2187E+02  0.1247E+03
     10.547  0.2387E+02  0.1261E+03
     10.603  0.8730E+01  0.1265E+03
     10.659  0.3751E+01  0.1267E+03
     10.715  0.1564E+01  0.1268E+03
     10.771  0.1413E+02  0.1276E+03
     10.827  0.1962E+02  0.1287E+03
     10.883  0.1804E+02  0.1297E+03
     10.939  0.1434E+02  0.1305E+03
     10.995  0.1404E+02  0.1313E+03
     11.051  0.8728E+01  0.1318E+03
     11.107  0.2410E+02  0.1332E+03
     11.163  0.1962E+01  0.1333E+03
     11.219  0.1475E+02  0.1341E+03
     11.275  0.1950E+02  0.1352E+03
     11.331  0.9023E+01  0.1357E+03
     11.387  0.3264E+02  0.1375E+03
     11.443  0.1000E+02  0.1381E+03
     11.499  0.1191E+02  0.1387E+03
     11.555  0.3937E+01  0.1390E+03
     11.611  0.1485E+02  0.1398E+03
     11.667  0.1007E+02  0.1404E+03
     11.723  0.8024E+01  0.1408E+03
     11.779  0.2398E+02  0.1421E+03
     11.835  0.9588E+01  0.1427E+03
     11.891  0.1322E+01  0.1428E+03
     11.947  0.2153E+01  0.1429E+03
     12.002  0.1373E+02  0.1436E+03
     12.058  0.9745E-06  0.1436E+03
     12.114  0.1322E+01  0.1437E+03
     12.170  0.1591E-01  0.1437E+03
     12.226  0.3624E+01  0.1439E+03
     12.282  0.1325E+01  0.1440E+03
     12.338  0.0000E+00  0.1440E+03
     12.394  0.0000E+00  0.1440E+03
     12.450  0.0000E+00  0.1440E+03
     12.506  0.0000E+00  0.1440E+03
     12.562  0.0000E+00  0.1440E+03
     12.618  0.0000E+00  0.1440E+03
     12.674  0.0000E+00  0.1440E+03
     12.730  0.0000E+00  0.1440E+03
     12.786  0.0000E+00  0.1440E+03
     12.842  0.0000E+00  0.1440E+03
     12.898  0.0000E+00  0.1440E+03
     12.954  0.0000E+00  0.1440E+03
     13.010  0.0000E+00  0.1440E+03
