   32   32    1    1
  0.1596196E+02  0.7993656E-09  0.7993656E-09  0.7993656E-09  0.5000000E-15
  1.000000000000000E-004
  CAR 
 unknown system                          
   96   40   72
 
  0.0000000E+00  0.0000000E+00  0.0000000E+00  0.4629630E-02
   1       -3.0155
   2       -0.7222
   3       -0.7184
   4       -0.7184
   5       -0.7184
   6       -0.7184
   7       -0.7145
   8        1.5343
   9        1.5388
  10        1.5388
  11        1.5405
  12        1.5407
  13        1.5407
  14        1.5407
  15        1.5407
  16        1.5409
  17        1.5427
  18        1.5427
  19        1.5471
  20        3.6241
  21        3.6242
  22        3.6242
  23        3.6242
  24        3.9249
  25        3.9249
  26        3.9249
  27        3.9249
  28        5.3459
  29        5.3459
  30        5.3459
  31        6.7419
  32        6.7419
  33        6.7419
  34        7.4572
  35        7.4572
  36        7.4617
  37        7.4617
  38        7.4618
  39        7.4618
  40        7.4618
  41        7.4619
  42        7.4620
  43        7.4620
  44        7.4664
  45        7.4664
  46        8.4568
  47        8.4611
  48        8.4611
  49        8.4611
  50        8.4611
  51        8.4654
  52        9.5816
  53        9.5816
  54        9.5832
  55        9.5856
  56        9.5858
  57        9.5858
  58        9.5858
  59        9.5858
  60        9.5859
  61        9.5884
  62        9.5899
  63        9.5899
  64        9.6427
  65        9.6439
  66        9.6439
  67        9.6440
  68        9.6440
  69        9.6450
  70       11.2034
  71       11.2048
  72       11.2064
 
  0.1666667E+00  0.0000000E+00  0.0000000E+00  0.9259259E-02
   1       -2.9511
   2       -1.4161
   3       -0.6551
   4       -0.6551
   5       -0.6551
   6       -0.6551
   7        0.1012
   8        0.8545
   9        0.8545
  10        0.8545
  11        0.8545
  12        1.6029
  13        1.6030
  14        1.6030
  15        1.6030
  16        2.3467
  17        2.3467
  18        2.3467
  19        2.3467
  20        3.0814
  21        3.0814
  22        3.0814
  23        3.0814
  24        4.4739
  25        4.5865
  26        4.5865
  27        4.5865
  28        4.5865
  29        5.4046
  30        5.4046
  31        6.6190
  32        6.6190
  33        6.6190
  34        6.6190
  35        6.8035
  36        6.8035
  37        6.8143
  38        6.8143
  39        7.5207
  40        7.5207
  41        7.5207
  42        7.5207
  43        7.7246
  44        8.1646
  45        8.1646
  46        8.2279
  47        8.2279
  48        8.8019
  49        8.8019
  50        8.8019
  51        8.8019
  52        8.9032
  53        8.9032
  54        8.9032
  55        8.9033
  56        8.9362
  57        8.9362
  58        8.9363
  59        8.9363
  60       10.0499
  61       10.0499
  62       10.2147
  63       10.2147
  64       10.2147
  65       10.2148
  66       10.3540
  67       10.3540
  68       10.3540
  69       10.3540
  70       10.5487
  71       10.5487
  72       10.5487
 
  0.3333333E+00  0.0000000E+00  0.0000000E+00  0.9259259E-02
   1       -2.7583
   2       -1.9897
   3       -0.4655
   4       -0.4655
   5       -0.4655
   6       -0.4655
   7        0.2904
   8        0.2904
   9        0.2904
  10        0.2904
  11        1.0398
  12        1.7895
  13        1.7895
  14        1.7895
  15        1.7895
  16        2.5318
  17        2.5318
  18        2.5318
  19        2.5318
  20        3.2500
  21        3.2689
  22        3.2689
  23        3.2689
  24        3.2690
  25        5.4328
  26        5.4328
  27        5.4329
  28        5.4329
  29        5.4916
  30        5.4916
  31        5.4917
  32        5.4917
  33        5.5806
  34        5.5806
  35        6.2852
  36        6.2852
  37        6.9869
  38        6.9869
  39        7.6321
  40        7.6321
  41        7.6321
  42        7.6321
  43        7.6948
  44        7.6949
  45        7.6975
  46        7.6975
  47        7.6976
  48        7.6976
  49        8.4051
  50        8.4051
  51        8.4051
  52        8.4051
  53        9.1129
  54        9.1129
  55        9.2250
  56        9.2250
  57        9.2250
  58        9.2250
  59        9.2803
  60       10.0013
  61       10.0013
  62       10.0013
  63       10.0013
  64       10.8447
  65       10.8447
  66       11.2379
  67       11.2379
  68       11.2408
  69       11.2408
  70       11.2414
  71       11.2414
  72       11.5879
 
  0.5000000E+00  0.0000000E+00  0.0000000E+00  0.4629630E-02
   1       -2.4390
   2       -2.4360
   3       -0.1541
   4       -0.1509
   5       -0.1509
   6       -0.1501
   7       -0.1500
   8       -0.1492
   9       -0.1492
  10       -0.1460
  11        2.0905
  12        2.0928
  13        2.0979
  14        2.0983
  15        2.0983
  16        2.0991
  17        2.1001
  18        2.1009
  19        2.1009
  20        2.1033
  21        4.3010
  22        4.3010
  23        4.3012
  24        4.3017
  25        4.3020
  26        4.3025
  27        4.3027
  28        4.3027
  29        5.8724
  30        5.8724
  31        5.8756
  32        5.8756
  33        6.5113
  34        6.5113
  35        6.5117
  36        6.5122
  37        6.5124
  38        6.5129
  39        6.5133
  40        6.5133
  41        7.2860
  42        7.2871
  43        7.2889
  44        7.2900
  45        7.9898
  46        7.9898
  47        7.9908
  48        7.9922
  49        7.9923
  50        7.9938
  51        7.9947
  52        7.9947
  53        9.5618
  54        9.5627
  55        9.5627
  56        9.5629
  57        9.5652
  58        9.5653
  59        9.5653
  60        9.5663
  61       10.1155
  62       10.1155
  63       10.1178
  64       10.1178
  65       10.9894
  66       10.9906
  67       11.7757
  68       11.7761
  69       11.7775
  70       11.7779
  71       12.2449
  72       12.2467
 
  0.0000000E+00  0.1666667E+00  0.0000000E+00  0.1851852E-01
   1       -2.9511
   2       -1.4161
   3       -0.6581
   4       -0.6551
   5       -0.6551
   6       -0.6521
   7        0.1012
   8        0.8515
   9        0.8545
  10        0.8545
  11        0.8575
  12        1.6008
  13        1.6018
  14        1.6041
  15        1.6051
  16        2.3436
  17        2.3467
  18        2.3467
  19        2.3497
  20        3.0792
  21        3.0802
  22        3.0826
  23        3.0835
  24        4.4738
  25        4.5843
  26        4.5853
  27        4.5877
  28        4.5887
  29        5.4046
  30        5.4046
  31        6.6158
  32        6.6190
  33        6.6190
  34        6.6222
  35        6.8033
  36        6.8035
  37        6.8143
  38        6.8145
  39        7.5179
  40        7.5207
  41        7.5208
  42        7.5235
  43        7.7246
  44        8.1646
  45        8.1646
  46        8.2279
  47        8.2279
  48        8.7993
  49        8.8007
  50        8.8031
  51        8.8045
  52        8.9005
  53        8.9032
  54        8.9032
  55        8.9058
  56        8.9334
  57        8.9362
  58        8.9363
  59        8.9391
  60       10.0499
  61       10.0499
  62       10.2130
  63       10.2147
  64       10.2148
  65       10.2165
  66       10.3511
  67       10.3540
  68       10.3540
  69       10.3569
  70       10.5465
  71       10.5487
  72       10.5500
 
  0.1666667E+00  0.1666667E+00  0.0000000E+00  0.3703704E-01
   1       -2.8868
   2       -1.3537
   3       -1.3513
   4       -0.5919
   5       -0.5919
   6        0.1624
   7        0.1644
   8        0.1662
   9        0.9154
  10        0.9163
  11        0.9178
  12        0.9188
  13        1.6642
  14        1.6652
  15        2.4060
  16        2.4072
  17        2.4085
  18        2.4085
  19        2.4098
  20        2.4110
  21        3.1474
  22        3.7429
  23        3.7429
  24        4.0502
  25        4.0502
  26        4.5336
  27        4.5345
  28        5.3718
  29        5.3718
  30        5.4632
  31        5.9696
  32        5.9721
  33        6.5562
  34        6.5562
  35        6.8317
  36        6.8317
  37        6.8645
  38        6.8718
  39        6.8746
  40        7.3493
  41        7.3513
  42        7.7837
  43        7.7847
  44        8.1446
  45        8.1456
  46        8.1471
  47        8.1481
  48        8.2847
  49        8.2870
  50        8.2893
  51        8.4043
  52        8.4059
  53        9.0170
  54        9.0197
  55        9.5732
  56        9.5743
  57        9.5746
  58        9.5756
  59        9.6071
  60        9.6073
  61        9.7030
  62        9.7049
  63        9.8897
  64       10.2099
  65       10.2106
  66       10.4917
  67       10.4917
  68       10.8549
  69       10.8572
  70       11.1224
  71       11.3133
  72       11.3135
 
  0.3333333E+00  0.1666667E+00  0.0000000E+00  0.3703704E-01
   1       -2.6941
   2       -1.9258
   3       -1.1619
   4       -0.4037
   5       -0.4023
   6       -0.4008
   7        0.3514
   8        0.3532
   9        0.3543
  10        1.1011
  11        1.1040
  12        1.1046
  13        1.1057
  14        1.8518
  15        1.8518
  16        2.5918
  17        2.5935
  18        2.5938
  19        3.3111
  20        3.3252
  21        3.3254
  22        3.3302
  23        3.3306
  24        4.0632
  25        4.7146
  26        4.7715
  27        4.8293
  28        4.8293
  29        5.4345
  30        5.4867
  31        5.4868
  32        5.6392
  33        6.2026
  34        6.2776
  35        6.2777
  36        6.3440
  37        6.8979
  38        6.8979
  39        6.9716
  40        6.9717
  41        7.0457
  42        7.0498
  43        7.6092
  44        7.6092
  45        7.6794
  46        7.7565
  47        7.9616
  48        8.4101
  49        8.4102
  50        8.4474
  51        8.4640
  52        8.6026
  53        8.6366
  54        9.1705
  55        9.1738
  56        9.3375
  57        9.3433
  58        9.8720
  59       10.1127
  60       10.1127
  61       10.4613
  62       10.4621
  63       10.4633
  64       10.5905
  65       10.7636
  66       10.9043
  67       10.9043
  68       10.9237
  69       11.0661
  70       11.2978
  71       11.6745
  72       11.6882
 
  0.5000000E+00  0.1666667E+00  0.0000000E+00  0.1851852E-01
   1       -2.3749
   2       -2.3720
   3       -0.8463
   4       -0.8434
   5       -0.0891
   6       -0.0879
   7       -0.0862
   8       -0.0850
   9        0.6647
  10        0.6676
  11        1.4144
  12        1.4156
  13        1.4174
  14        1.4186
  15        2.1540
  16        2.1553
  17        2.8987
  18        2.8999
  19        2.9016
  20        2.9029
  21        3.6308
  22        3.6321
  23        4.3606
  24        4.3610
  25        4.3618
  26        4.3623
  27        5.0136
  28        5.0166
  29        5.0864
  30        5.0876
  31        5.8478
  32        5.8480
  33        5.8492
  34        5.8493
  35        5.9312
  36        5.9343
  37        7.1896
  38        7.1908
  39        7.1927
  40        7.1939
  41        7.2940
  42        7.2943
  43        7.2954
  44        7.2957
  45        7.3368
  46        7.3397
  47        7.3426
  48        7.3458
  49        8.2503
  50        8.2533
  51        8.7574
  52        8.7607
  53        8.9121
  54        8.9150
  55        9.3693
  56        9.3711
  57       10.1747
  58       10.1770
  59       10.3070
  60       10.3102
  61       10.4669
  62       10.4677
  63       10.4700
  64       10.4708
  65       11.0425
  66       11.0437
  67       11.4600
  68       11.4601
  69       11.4619
  70       11.4620
  71       11.5948
  72       11.5971
 
  0.0000000E+00  0.3333333E+00  0.0000000E+00  0.1851852E-01
   1       -2.7583
   2       -1.9897
   3       -0.4685
   4       -0.4655
   5       -0.4655
   6       -0.4625
   7        0.2874
   8        0.2904
   9        0.2904
  10        0.2934
  11        1.0398
  12        1.7873
  13        1.7883
  14        1.7907
  15        1.7916
  16        2.5296
  17        2.5306
  18        2.5330
  19        2.5340
  20        3.2500
  21        3.2659
  22        3.2689
  23        3.2689
  24        3.2720
  25        5.4297
  26        5.4329
  27        5.4329
  28        5.4360
  29        5.4894
  30        5.4904
  31        5.4929
  32        5.4939
  33        5.5806
  34        5.5806
  35        6.2852
  36        6.2852
  37        6.9869
  38        6.9869
  39        7.6298
  40        7.6309
  41        7.6334
  42        7.6345
  43        7.6940
  44        7.6947
  45        7.6948
  46        7.6975
  47        7.6984
  48        7.7003
  49        8.4023
  50        8.4051
  51        8.4051
  52        8.4079
  53        9.1128
  54        9.1129
  55        9.2226
  56        9.2250
  57        9.2250
  58        9.2274
  59        9.2803
  60        9.9990
  61       10.0013
  62       10.0013
  63       10.0037
  64       10.8446
  65       10.8447
  66       11.2377
  67       11.2385
  68       11.2386
  69       11.2408
  70       11.2408
  71       11.2437
  72       11.5884
 
  0.1666667E+00  0.3333333E+00  0.0000000E+00  0.3703704E-01
   1       -2.6941
   2       -1.9258
   3       -1.1619
   4       -0.4037
   5       -0.4023
   6       -0.4009
   7        0.3514
   8        0.3532
   9        0.3543
  10        1.1013
  11        1.1034
  12        1.1046
  13        1.1061
  14        1.8518
  15        1.8518
  16        2.5912
  17        2.5935
  18        2.5944
  19        3.3111
  20        3.3256
  21        3.3256
  22        3.3301
  23        3.3302
  24        4.0631
  25        4.7146
  26        4.7715
  27        4.8293
  28        4.8293
  29        5.4344
  30        5.4868
  31        5.4868
  32        5.6392
  33        6.2026
  34        6.2776
  35        6.2777
  36        6.3439
  37        6.8979
  38        6.8979
  39        6.9716
  40        6.9716
  41        7.0457
  42        7.0498
  43        7.6092
  44        7.6092
  45        7.6794
  46        7.7565
  47        7.9617
  48        8.4102
  49        8.4102
  50        8.4474
  51        8.4639
  52        8.6026
  53        8.6367
  54        9.1713
  55        9.1730
  56        9.3375
  57        9.3432
  58        9.8720
  59       10.1127
  60       10.1127
  61       10.4620
  62       10.4621
  63       10.4625
  64       10.5906
  65       10.7636
  66       10.9043
  67       10.9043
  68       10.9237
  69       11.0661
  70       11.2978
  71       11.6745
  72       11.6838
 
  0.3333333E+00  0.3333333E+00  0.0000000E+00  0.3703704E-01
   1       -2.5016
   2       -1.7357
   3       -1.7332
   4       -0.9716
   5       -0.2131
   6       -0.2131
   7        0.5397
   8        0.5407
   9        0.5422
  10        0.5432
  11        1.2878
  12        1.2901
  13        1.2919
  14        1.2927
  15        2.0349
  16        2.0359
  17        3.4942
  18        3.4951
  19        3.5110
  20        3.5118
  21        3.5134
  22        3.5144
  23        4.0990
  24        4.0990
  25        4.2249
  26        4.2274
  27        4.4236
  28        4.4237
  29        4.9698
  30        5.5170
  31        5.5171
  32        5.8153
  33        5.8652
  34        5.8652
  35        6.4294
  36        6.4304
  37        6.4319
  38        6.4330
  39        6.5190
  40        6.5217
  41        7.0386
  42        7.0406
  43        7.1800
  44        7.1800
  45        7.2155
  46        7.2264
  47        8.1224
  48        8.1237
  49        8.7997
  50        9.3014
  51        9.3025
  52        9.3027
  53        9.3038
  54        9.3235
  55        9.3478
  56        9.3507
  57        9.5059
  58        9.5071
  59       10.0576
  60       10.0580
  61       10.0595
  62       10.0605
  63       11.2185
  64       11.2193
  65       11.3653
  66       11.3653
  67       11.4053
  68       11.4053
  69       11.4748
  70       11.4768
  71       11.6104
  72       11.6108
 
  0.5000000E+00  0.3333333E+00  0.0000000E+00  0.1851852E-01
   1       -2.1829
   2       -2.1800
   3       -1.4175
   4       -1.4146
   5        0.0997
   6        0.1009
   7        0.1027
   8        0.1039
   9        0.8526
  10        0.8538
  11        0.8556
  12        0.8567
  13        1.5992
  14        1.6022
  15        2.3395
  16        2.3408
  17        3.0791
  18        3.0803
  19        3.7985
  20        3.8016
  21        3.8099
  22        3.8113
  23        3.8129
  24        3.8143
  25        4.5353
  26        4.5359
  27        4.5365
  28        4.5371
  29        5.3099
  30        5.3100
  31        5.3112
  32        5.3113
  33        5.9769
  34        5.9781
  35        6.0152
  36        6.0161
  37        6.0181
  38        6.0191
  39        6.1074
  40        6.1105
  41        6.8128
  42        6.8160
  43        7.4319
  44        7.4343
  45        8.1918
  46        8.1920
  47        8.1932
  48        8.1934
  49        8.3087
  50        8.3098
  51        8.3798
  52        8.3825
  53        9.6431
  54        9.6464
  55        9.7721
  56        9.7751
  57       10.3039
  58       10.3040
  59       10.3055
  60       10.3056
  61       10.3523
  62       10.3546
  63       11.0624
  64       11.0647
  65       11.0671
  66       11.0703
  67       11.1930
  68       11.1939
  69       11.7708
  70       11.7740
  71       11.9458
  72       11.9493
 
  0.0000000E+00  0.5000000E+00  0.0000000E+00  0.9259259E-02
   1       -2.4375
   2       -2.4375
   3       -0.1554
   4       -0.1507
   5       -0.1501
   6       -0.1501
   7       -0.1501
   8       -0.1501
   9       -0.1494
  10       -0.1447
  11        2.0913
  12        2.0925
  13        2.0967
  14        2.0974
  15        2.0991
  16        2.0993
  17        2.0998
  18        2.1002
  19        2.1017
  20        2.1038
  21        4.2985
  22        4.2990
  23        4.3018
  24        4.3018
  25        4.3018
  26        4.3018
  27        4.3046
  28        4.3052
  29        5.8740
  30        5.8740
  31        5.8740
  32        5.8740
  33        6.5092
  34        6.5108
  35        6.5109
  36        6.5112
  37        6.5134
  38        6.5136
  39        6.5138
  40        6.5154
  41        7.2880
  42        7.2880
  43        7.2880
  44        7.2880
  45        7.9871
  46        7.9918
  47        7.9923
  48        7.9923
  49        7.9923
  50        7.9923
  51        7.9928
  52        7.9974
  53        9.5598
  54        9.5635
  55        9.5640
  56        9.5641
  57        9.5641
  58        9.5641
  59        9.5646
  60        9.5682
  61       10.1166
  62       10.1166
  63       10.1166
  64       10.1167
  65       10.9900
  66       10.9900
  67       11.7768
  68       11.7768
  69       11.7768
  70       11.7768
  71       12.2454
  72       12.2465
 
  0.1666667E+00  0.5000000E+00  0.0000000E+00  0.1851852E-01
   1       -2.3734
   2       -2.3734
   3       -0.8449
   4       -0.8448
   5       -0.0871
   6       -0.0870
   7       -0.0870
   8       -0.0870
   9        0.6662
  10        0.6662
  11        1.4165
  12        1.4165
  13        1.4165
  14        1.4165
  15        2.1546
  16        2.1546
  17        2.9008
  18        2.9008
  19        2.9008
  20        2.9008
  21        3.6314
  22        3.6314
  23        4.3614
  24        4.3614
  25        4.3614
  26        4.3614
  27        5.0151
  28        5.0151
  29        5.0870
  30        5.0870
  31        5.8486
  32        5.8486
  33        5.8486
  34        5.8486
  35        5.9327
  36        5.9328
  37        7.1917
  38        7.1917
  39        7.1918
  40        7.1918
  41        7.2948
  42        7.2948
  43        7.2949
  44        7.2949
  45        7.3382
  46        7.3383
  47        7.3441
  48        7.3443
  49        8.2518
  50        8.2518
  51        8.7591
  52        8.7591
  53        8.9135
  54        8.9135
  55        9.3702
  56        9.3702
  57       10.1758
  58       10.1758
  59       10.3085
  60       10.3086
  61       10.4689
  62       10.4689
  63       10.4689
  64       10.4689
  65       11.0431
  66       11.0431
  67       11.4610
  68       11.4610
  69       11.4610
  70       11.4610
  71       11.5959
  72       11.5960
 
  0.3333333E+00  0.5000000E+00  0.0000000E+00  0.1851852E-01
   1       -2.1814
   2       -2.1814
   3       -1.4161
   4       -1.4161
   5        0.1018
   6        0.1018
   7        0.1018
   8        0.1018
   9        0.8547
  10        0.8547
  11        0.8547
  12        0.8547
  13        1.6007
  14        1.6007
  15        2.3401
  16        2.3401
  17        3.0797
  18        3.0797
  19        3.8000
  20        3.8000
  21        3.8121
  22        3.8121
  23        3.8121
  24        3.8121
  25        4.5362
  26        4.5362
  27        4.5362
  28        4.5362
  29        5.3106
  30        5.3106
  31        5.3106
  32        5.3106
  33        5.9776
  34        5.9776
  35        6.0170
  36        6.0171
  37        6.0171
  38        6.0172
  39        6.1089
  40        6.1090
  41        6.8144
  42        6.8144
  43        7.4331
  44        7.4331
  45        8.1926
  46        8.1926
  47        8.1926
  48        8.1926
  49        8.3092
  50        8.3092
  51        8.3811
  52        8.3812
  53        9.6447
  54        9.6447
  55        9.7736
  56        9.7736
  57       10.3047
  58       10.3047
  59       10.3047
  60       10.3047
  61       10.3535
  62       10.3535
  63       11.0636
  64       11.0636
  65       11.0687
  66       11.0687
  67       11.1934
  68       11.1934
  69       11.7723
  70       11.7723
  71       11.9471
  72       11.9473
 
  0.5000000E+00  0.5000000E+00  0.0000000E+00  0.9259259E-02
   1       -1.8647
   2       -1.8622
   3       -1.8617
   4       -1.8593
   5        0.4122
   6        0.4144
   7        0.4157
   8        0.4159
   9        0.4161
  10        0.4164
  11        0.4177
  12        0.4198
  13        2.6448
  14        2.6467
  15        2.6484
  16        2.6487
  17        2.6489
  18        2.6492
  19        2.6510
  20        2.6528
  21        4.6886
  22        4.6902
  23        4.6909
  24        4.6915
  25        4.6916
  26        4.6922
  27        4.6930
  28        4.6945
  29        5.0340
  30        5.0343
  31        5.0352
  32        5.0362
  33        5.0362
  34        5.0372
  35        5.0381
  36        5.0384
  37        6.3998
  38        6.4025
  39        6.4030
  40        6.4057
  41        6.9272
  42        6.9279
  43        6.9292
  44        6.9300
  45        8.0121
  46        8.0134
  47        8.0143
  48        8.0156
  49        9.1981
  50        9.1990
  51        9.1992
  52        9.1994
  53        9.2004
  54        9.2006
  55        9.2009
  56        9.2017
  57       10.6436
  58       10.6474
  59       10.6490
  60       10.6493
  61       10.6494
  62       10.6497
  63       10.6513
  64       10.6551
  65       11.3641
  66       11.3658
  67       11.3675
  68       11.3676
  69       11.3679
  70       11.3680
  71       11.3697
  72       11.3714
 
  0.0000000E+00  0.1666667E+00  0.1666667E+00  0.1851852E-01
   1       -2.8868
   2       -1.3525
   3       -1.3525
   4       -0.5935
   5       -0.5902
   6        0.1641
   7        0.1641
   8        0.1648
   9        0.9144
  10        0.9164
  11        0.9178
  12        0.9198
  13        1.6647
  14        1.6647
  15        2.4056
  16        2.4070
  17        2.4077
  18        2.4092
  19        2.4100
  20        2.4113
  21        3.1474
  22        3.7429
  23        3.7429
  24        4.0502
  25        4.0502
  26        4.5341
  27        4.5341
  28        5.3701
  29        5.3735
  30        5.4632
  31        5.9708
  32        5.9708
  33        6.5561
  34        6.5561
  35        6.8317
  36        6.8317
  37        6.8643
  38        6.8732
  39        6.8734
  40        7.3503
  41        7.3503
  42        7.7842
  43        7.7842
  44        8.1434
  45        8.1455
  46        8.1472
  47        8.1493
  48        8.2869
  49        8.2869
  50        8.2872
  51        8.4051
  52        8.4051
  53        9.0183
  54        9.0183
  55        9.5722
  56        9.5729
  57        9.5760
  58        9.5767
  59        9.6071
  60        9.6071
  61        9.7040
  62        9.7040
  63        9.8897
  64       10.2102
  65       10.2102
  66       10.4917
  67       10.4917
  68       10.8560
  69       10.8561
  70       11.1224
  71       11.3133
  72       11.3133
 
  0.1666667E+00  0.1666667E+00  0.1666667E+00  0.3703704E-01
   1       -2.8225
   2       -1.2907
   3       -1.2889
   4       -1.2872
   5        0.2237
   6        0.2268
   7        0.2269
   8        0.2277
   9        0.2279
  10        0.2309
  11        1.7235
  12        1.7256
  13        1.7265
  14        1.7268
  15        1.7278
  16        1.7280
  17        1.7305
  18        3.2023
  19        3.2032
  20        3.2038
  21        3.2072
  22        3.2088
  23        3.2106
  24        4.5936
  25        4.5943
  26        4.5949
  27        4.7078
  28        4.7085
  29        4.7092
  30        6.0228
  31        6.0243
  32        6.0257
  33        6.0257
  34        6.0272
  35        6.0287
  36        6.1587
  37        7.4690
  38        7.4694
  39        7.4710
  40        7.4710
  41        7.4725
  42        7.4729
  43        7.4889
  44        7.4907
  45        7.4925
  46        7.8423
  47        7.8430
  48        7.8437
  49        8.9176
  50        8.9185
  51        8.9197
  52        8.9197
  53        8.9209
  54        8.9218
  55        9.2706
  56        9.2717
  57        9.2728
  58        9.2728
  59        9.2739
  60        9.2750
  61       10.3448
  62       10.3458
  63       10.3467
  64       10.7940
  65       10.7949
  66       10.7958
  67       10.9426
  68       10.9433
  69       10.9444
  70       10.9444
  71       10.9455
  72       10.9462
 
  0.3333333E+00  0.1666667E+00  0.1666667E+00  0.3703704E-01
   1       -2.6299
   2       -1.8620
   3       -1.0984
   4       -1.0984
   5       -0.3391
   6       -0.3391
   7        0.4154
   8        0.4154
   9        0.4162
  10        1.1633
  11        1.1664
  12        1.1670
  13        1.1680
  14        1.9131
  15        1.9131
  16        2.6525
  17        2.6531
  18        2.6552
  19        2.6558
  20        3.3724
  21        3.3915
  22        3.9803
  23        4.1229
  24        4.1230
  25        4.2996
  26        4.7747
  27        4.7747
  28        4.8307
  29        4.8307
  30        5.4933
  31        5.4933
  32        5.6125
  33        5.6125
  34        6.0942
  35        6.0942
  36        6.3112
  37        6.4119
  38        6.4119
  39        6.9543
  40        6.9543
  41        7.0619
  42        7.6616
  43        7.6617
  44        7.7508
  45        7.7509
  46        8.0169
  47        8.0169
  48        8.2686
  49        8.2687
  50        8.3825
  51        8.3825
  52        8.8716
  53        8.8716
  54        9.1862
  55        9.3926
  56        9.5125
  57        9.5125
  58        9.8082
  59        9.8082
  60       10.2554
  61       10.2555
  62       10.5251
  63       10.5251
  64       10.5458
  65       10.5458
  66       11.2316
  67       11.2316
  68       11.3626
  69       11.3626
  70       11.6552
  71       11.6554
  72       11.7575
 
  0.5000000E+00  0.1666667E+00  0.1666667E+00  0.1851852E-01
   1       -2.3109
   2       -2.3079
   3       -0.7840
   4       -0.7820
   5       -0.7810
   6       -0.7790
   7        0.7261
   8        0.7283
   9        0.7284
  10        0.7293
  11        0.7305
  12        0.7319
  13        2.2151
  14        2.2167
  15        2.2216
  16        2.2218
  17        2.2242
  18        2.2251
  19        3.6898
  20        3.6914
  21        3.6918
  22        3.6928
  23        3.6928
  24        3.6937
  25        5.0731
  26        5.0734
  27        5.0762
  28        5.0765
  29        5.1402
  30        5.1405
  31        5.1414
  32        5.1417
  33        5.1885
  34        5.1898
  35        6.5404
  36        6.5425
  37        6.5434
  38        6.5455
  39        6.6310
  40        6.6317
  41        6.6324
  42        6.6331
  43        7.9614
  44        7.9621
  45        7.9645
  46        7.9652
  47        8.0746
  48        8.0760
  49        8.2851
  50        8.2858
  51        8.2880
  52        8.2887
  53        9.4461
  54        9.4467
  55        9.4478
  56        9.4484
  57        9.8273
  58        9.8282
  59        9.8303
  60        9.8312
  61       10.8070
  62       10.8077
  63       10.8089
  64       10.8095
  65       11.0842
  66       11.0852
  67       11.1842
  68       11.1865
  69       11.1875
  70       11.1897
  71       12.1873
  72       12.2265
 
  0.0000000E+00  0.3333333E+00  0.1666667E+00  0.3703704E-01
   1       -2.6941
   2       -1.9258
   3       -1.1619
   4       -0.4045
   5       -0.4023
   6       -0.4001
   7        0.3508
   8        0.3528
   9        0.3553
  10        1.1013
  11        1.1034
  12        1.1040
  13        1.1066
  14        1.8501
  15        1.8534
  16        2.5914
  17        2.5924
  18        2.5953
  19        3.3111
  20        3.3240
  21        3.3273
  22        3.3284
  23        3.3317
  24        4.0631
  25        4.7146
  26        4.7714
  27        4.8276
  28        4.8310
  29        5.4344
  30        5.4851
  31        5.4885
  32        5.6392
  33        6.2026
  34        6.2759
  35        6.2794
  36        6.3440
  37        6.8961
  38        6.8997
  39        6.9698
  40        6.9734
  41        7.0455
  42        7.0499
  43        7.6073
  44        7.6110
  45        7.6793
  46        7.7566
  47        7.9616
  48        8.4083
  49        8.4120
  50        8.4473
  51        8.4640
  52        8.6026
  53        8.6367
  54        9.1719
  55        9.1724
  56        9.3375
  57        9.3432
  58        9.8720
  59       10.1113