 vasp.4.6.28 25Jul05 complex 
 executed on             LinuxIFC date 2016.10.19  12:29:28
 running on    8 nodes
 distr:  one band on    1 nodes,    8 groups


--------------------------------------------------------------------------------------------------------


 INCAR:
 POTCAR:   PAW_PBE Al 04Jan2001                   
 POTCAR:   PAW_PBE Al 04Jan2001                   
   VRHFIN =Al: s2p1                                                             
   LEXCH  = PE                                                                  
   EATOM  =    53.5387 eV,    3.9350 Ry                                         
                                                                                
   TITEL  = PAW_PBE Al 04Jan2001                                                
   LULTRA =        F    use ultrasoft PP ?                                      
   IUNSCR =        1    unscreen: 0-lin 1-nonlin 2-no                           
   RPACOR =    1.500    partial core radius                                     
   POMASS =   26.982; ZVAL   =    3.000    mass and valenz                      
   RCORE  =    1.900    outmost cutoff radius                                   
   RWIGS  =    2.650; RWIGS  =    1.402    wigner-seitz radius (au A)           
   ENMAX  =  240.300; ENMIN  =  180.225 eV                                      
   ICORE  =        2    local potential                                         
   LCOR   =        T    correct aug charges                                     
   LPAW   =        T    paw PP                                                  
   EAUG   =  291.052                                                            
   DEXC   =    -.041                                                            
   RMAX   =    2.974    core radius for proj-oper                               
   RAUG   =    1.300    factor for augmentation sphere                          
   RDEP   =    1.966    radius for radial grids                                 
   QCUT   =   -4.203; QGAM   =    8.405    optimization parameters              
                                                                                
   Description                                                                  
     l     E      TYP  RCUT    TYP  RCUT                                        
     0   .000     23  1.900                                                     
     0   .000     23  1.900                                                     
     1   .000     23  1.900                                                     
     1  1.000     23  1.900                                                     
     2   .000      7  1.900                                                     
  local pseudopotential read in
  partial core-charges read in
  atomic valenz-charges read in
  non local Contribution for L=           0  read in
    real space projection operators read in
  non local Contribution for L=           0  read in
    real space projection operators read in
  non local Contribution for L=           1  read in
    real space projection operators read in
  non local Contribution for L=           1  read in
    real space projection operators read in
    PAW grid and wavefunctions read in
 
   number of l-projection  operators is LMAX  =           4
   number of lm-projection operators is LMMAX =           8
 

 ----------------------------------------------------------------------------- 
|                                                                             |
|  ADVICE TO THIS USER RUNNING 'VASP/VAMP'   (HEAR YOUR MASTER'S VOICE ...):  |
|                                                                             |
|      You have a (more or less) 'large supercell' and for larger cells       |
|      it might be more efficient to use real space projection operators      |
|      So try LREAL= Auto  in the INCAR   file.                               |
|      Mind: If you want to do an extremely accurate calculations keep the    |
|      reciprocal projection scheme          (i.e. LREAL=.FALSE.)             |
|                                                                             |
 ----------------------------------------------------------------------------- 

 PAW_PBE Al 04Jan2001                   :
 energy of atom  1       EATOM=  -53.5387
 kinetic energy error for atom=    0.0003 (will be added to EATOM!!)
 
 EXHCAR: internal setup
 exchange correlation table for  LEXCH =        8
   RHO(1)=    0.500       N(1)  =     2000
   RHO(2)=  100.500       N(2)  =     4000
 
 POSCAR: Al                                      
  positions in direct lattice
  No initial velocities read in
 


--------------------------------------------------------------------------------------------------------


 ion  position               nearest neighbor table
   1  0.251  0.250  0.000-  18 2.82  22 2.82  26 2.82  28 2.82   9 2.83  11 2.83  13 2.83  15 2.83
                            25 2.83  21 2.83  27 2.83  17 2.83
   2  0.750  0.250  0.000-  10 2.83  12 2.83  14 2.83  16 2.83  17 2.83  18 2.83  21 2.83  22 2.83
                            25 2.83  26 2.83  27 2.83  28 2.83
   3  0.250  0.750  0.000-   9 2.83  11 2.83  13 2.83  15 2.83  19 2.83  20 2.83  23 2.83  24 2.83
                            25 2.83  26 2.83  27 2.83  28 2.83
   4  0.750  0.750  0.000-  10 2.83  12 2.83  14 2.83  16 2.83  19 2.83  20 2.83  23 2.83  24 2.83
                            25 2.83  26 2.83  27 2.83  28 2.83
   5  0.250  0.250  0.500-   9 2.83  11 2.83  13 2.83  15 2.83  17 2.83  18 2.83  21 2.83  22 2.83
                            29 2.83  30 2.83  31 2.83  32 2.83
   6  0.750  0.250  0.500-  10 2.83  12 2.83  14 2.83  16 2.83  17 2.83  18 2.83  21 2.83  22 2.83
                            29 2.83  30 2.83  31 2.83  32 2.83
   7  0.250  0.750  0.500-   9 2.83  11 2.83  13 2.83  15 2.83  19 2.83  20 2.83  23 2.83  24 2.83
                            29 2.83  30 2.83  31 2.83  32 2.83
   8  0.750  0.750  0.500-  10 2.83  12 2.83  14 2.83  16 2.83  19 2.83  20 2.83  23 2.83  24 2.83
                            29 2.83  30 2.83  31 2.83  32 2.83
   9  0.250  0.000  0.250-   3 2.83   5 2.83   7 2.83  17 2.83  18 2.83  19 2.83  20 2.83  25 2.83
                            26 2.83  29 2.83  30 2.83   1 2.83
  10  0.750  0.000  0.250-   2 2.83   4 2.83   6 2.83   8 2.83  17 2.83  18 2.83  19 2.83  20 2.83
                            25 2.83  26 2.83  29 2.83  30 2.83
  11  0.250  0.500  0.250-   3 2.83   5 2.83   7 2.83  17 2.83  18 2.83  19 2.83  20 2.83  27 2.83
                            28 2.83  31 2.83  32 2.83   1 2.83
  12  0.750  0.500  0.250-   2 2.83   4 2.83   6 2.83   8 2.83  17 2.83  18 2.83  19 2.83  20 2.83
                            27 2.83  28 2.83  31 2.83  32 2.83
  13  0.250  0.000  0.750-   3 2.83   5 2.83   7 2.83  21 2.83  22 2.83  23 2.83  24 2.83  25 2.83
                            26 2.83  29 2.83  30 2.83   1 2.83
  14  0.750  0.000  0.750-   2 2.83   4 2.83   6 2.83   8 2.83  21 2.83  22 2.83  23 2.83  24 2.83
                            25 2.83  26 2.83  29 2.83  30 2.83
  15  0.250  0.500  0.750-   3 2.83   5 2.83   7 2.83  21 2.83  22 2.83  23 2.83  24 2.83  27 2.83
                            28 2.83  31 2.83  32 2.83   1 2.83
  16  0.750  0.500  0.750-   2 2.83   4 2.83   6 2.83   8 2.83  21 2.83  22 2.83  23 2.83  24 2.83
                            27 2.83  28 2.83  31 2.83  32 2.83
  17  0.000  0.250  0.250-   2 2.83   5 2.83   6 2.83   9 2.83  10 2.83  11 2.83  12 2.83  25 2.83
                            27 2.83  29 2.83  31 2.83   1 2.83
  18  0.500  0.250  0.250-   1 2.82   2 2.83   5 2.83   6 2.83   9 2.83  10 2.83  11 2.83  12 2.83
                            26 2.83  28 2.83  30 2.83  32 2.83
  19  0.000  0.750  0.250-   3 2.83   4 2.83   7 2.83   8 2.83   9 2.83  10 2.83  11 2.83  12 2.83
                            25 2.83  27 2.83  29 2.83  31 2.83
  20  0.500  0.750  0.250-   3 2.83   4 2.83   7 2.83   8 2.83   9 2.83  10 2.83  11 2.83  12 2.83
                            26 2.83  28 2.83  30 2.83  32 2.83
  21  0.000  0.250  0.750-   2 2.83   5 2.83   6 2.83  13 2.83  14 2.83  15 2.83  16 2.83  25 2.83
                            27 2.83  29 2.83  31 2.83   1 2.83
  22  0.500  0.250  0.750-   1 2.82   2 2.83   5 2.83   6 2.83  13 2.83  14 2.83  15 2.83  16 2.83
                            26 2.83  28 2.83  30 2.83  32 2.83
  23  0.000  0.750  0.750-   3 2.83   4 2.83   7 2.83   8 2.83  13 2.83  14 2.83  15 2.83  16 2.83
                            25 2.83  27 2.83  29 2.83  31 2.83
  24  0.500  0.750  0.750-   3 2.83   4 2.83   7 2.83   8 2.83  13 2.83  14 2.83  15 2.83  16 2.83
                            26 2.83  28 2.83  30 2.83  32 2.83
  25  0.000  0.000  0.000-   2 2.83   3 2.83   4 2.83   9 2.83  10 2.83  13 2.83  14 2.83  17 2.83
                            19 2.83  21 2.83  23 2.83   1 2.83
  26  0.500  0.000  0.000-   1 2.82   2 2.83   3 2.83   4 2.83   9 2.83  10 2.83  13 2.83  14 2.83
                            18 2.83  20 2.83  22 2.83  24 2.83
  27  0.000  0.500  0.000-   2 2.83   3 2.83   4 2.83  11 2.83  12 2.83  15 2.83  16 2.83  17 2.83
                            19 2.83  21 2.83  23 2.83   1 2.83
  28  0.500  0.500  0.000-   1 2.82   2 2.83   3 2.83   4 2.83  11 2.83  12 2.83  15 2.83  16 2.83
                            18 2.83  20 2.83  22 2.83  24 2.83
  29  0.000  0.000  0.500-   5 2.83   6 2.83   7 2.83   8 2.83   9 2.83  10 2.83  13 2.83  14 2.83
                            17 2.83  19 2.83  21 2.83  23 2.83
  30  0.500  0.000  0.500-   5 2.83   6 2.83   7 2.83   8 2.83   9 2.83  10 2.83  13 2.83  14 2.83
                            18 2.83  20 2.83  22 2.83  24 2.83
  31  0.000  0.500  0.500-   5 2.83   6 2.83   7 2.83   8 2.83  11 2.83  12 2.83  15 2.83  16 2.83
                            17 2.83  19 2.83  21 2.83  23 2.83
  32  0.500  0.500  0.500-   5 2.83   6 2.83   7 2.83   8 2.83  11 2.83  12 2.83  15 2.83  16 2.83
                            18 2.83  20 2.83  22 2.83  24 2.83
 
  LATTYP: Found a simple cubic cell.
 ALAT       =     7.9936558020
  
  Lattice vectors:
  
 A1 = (   7.9936558020,   0.0000000000,   0.0000000000)
 A2 = (   0.0000000000,   7.9936558020,   0.0000000000)
 A3 = (   0.0000000000,   0.0000000000,   7.9936558020)
 Subroutine PRICEL returns:
 Original cell was already a primitive cell.
 

Analysis of symmetry for initial positions (statically):

 Routine SETGRP: Setting up the symmetry group for a 
 simple cubic supercell.


 Subroutine GETGRP returns: Found  8 space group operations
 (whereof  2 operations were pure point group operations)
 out of a pool of 48 trial point group operations.


The static configuration has the point symmetry C_1h.
 The point group associated with its full space group is C_4v.

Analysis of symmetry for dynamics (positions and initial velocities):

 Subroutine DYNSYM returns: Found  8 space group operations
 (whereof  2 operations were pure point group operations)
 out of a pool of  8 trial space group operations
 (whereof  2 operations were pure point group operations)
 and found also     1 'primitive' translations


The dynamic configuration has the point symmetry C_1h.
 The point group associated with its full space group is C_4v.
 
 
 KPOINTS: Automatic mesh                          

Automatic generation of k-mesh.
 generate k-points for:   6   6   6
 
 Subroutine IBZKPT returns following result:
 ===========================================
 
 Found     40 irreducible k-points:
 
 Following reciprocal coordinates:
            Coordinates               Weight
  0.000000  0.000000  0.000000      1.000000
  0.166667  0.000000  0.000000      2.000000
  0.333333  0.000000  0.000000      2.000000
  0.500000  0.000000  0.000000      1.000000
  0.000000  0.166667  0.000000      4.000000
  0.166667  0.166667  0.000000      8.000000
  0.333333  0.166667  0.000000      8.000000
  0.500000  0.166667  0.000000      4.000000
  0.000000  0.333333  0.000000      4.000000
  0.166667  0.333333  0.000000      8.000000
  0.333333  0.333333  0.000000      8.000000
  0.500000  0.333333  0.000000      4.000000
  0.000000  0.500000  0.000000      2.000000
  0.166667  0.500000  0.000000      4.000000
  0.333333  0.500000  0.000000      4.000000
  0.500000  0.500000  0.000000      2.000000
  0.000000  0.166667  0.166667      4.000000
  0.166667  0.166667  0.166667      8.000000
  0.333333  0.166667  0.166667      8.000000
  0.500000  0.166667  0.166667      4.000000
  0.000000  0.333333  0.166667      8.000000
  0.166667  0.333333  0.166667     16.000000
  0.333333  0.333333  0.166667     16.000000
  0.500000  0.333333  0.166667      8.000000
  0.000000  0.500000  0.166667      4.000000
  0.166667  0.500000  0.166667      8.000000
  0.333333  0.500000  0.166667      8.000000
  0.500000  0.500000  0.166667      4.000000
  0.000000  0.333333  0.333333      4.000000
  0.166667  0.333333  0.333333      8.000000
  0.333333  0.333333  0.333333      8.000000
  0.500000  0.333333  0.333333      4.000000
  0.000000  0.500000  0.333333      4.000000
  0.166667  0.500000  0.333333      8.000000
  0.333333  0.500000  0.333333      8.000000
  0.500000  0.500000  0.333333      4.000000
  0.000000  0.500000  0.500000      1.000000
  0.166667  0.500000  0.500000      2.000000
  0.333333  0.500000  0.500000      2.000000
  0.500000  0.500000  0.500000      1.000000
 
 Following cartesian coordinates:
            Coordinates               Weight
  0.000000  0.000000  0.000000      1.000000
  0.020850  0.000000  0.000000      2.000000
  0.041700  0.000000  0.000000      2.000000
  0.062550  0.000000  0.000000      1.000000
  0.000000  0.020850  0.000000      4.000000
  0.020850  0.020850  0.000000      8.000000
  0.041700  0.020850  0.000000      8.000000
  0.062550  0.020850  0.000000      4.000000
  0.000000  0.041700  0.000000      4.000000
  0.020850  0.041700  0.000000      8.000000
  0.041700  0.041700  0.000000      8.000000
  0.062550  0.041700  0.000000      4.000000
  0.000000  0.062550  0.000000      2.000000
  0.020850  0.062550  0.000000      4.000000
  0.041700  0.062550  0.000000      4.000000
  0.062550  0.062550  0.000000      2.000000
  0.000000  0.020850  0.020850      4.000000
  0.020850  0.020850  0.020850      8.000000
  0.041700  0.020850  0.020850      8.000000
  0.062550  0.020850  0.020850      4.000000
  0.000000  0.041700  0.020850      8.000000
  0.020850  0.041700  0.020850     16.000000
  0.041700  0.041700  0.020850     16.000000
  0.062550  0.041700  0.020850      8.000000
  0.000000  0.062550  0.020850      4.000000
  0.020850  0.062550  0.020850      8.000000
  0.041700  0.062550  0.020850      8.000000
  0.062550  0.062550  0.020850      4.000000
  0.000000  0.041700  0.041700      4.000000
  0.020850  0.041700  0.041700      8.000000
  0.041700  0.041700  0.041700      8.000000
  0.062550  0.041700  0.041700      4.000000
  0.000000  0.062550  0.041700      4.000000
  0.020850  0.062550  0.041700      8.000000
  0.041700  0.062550  0.041700      8.000000
  0.062550  0.062550  0.041700      4.000000
  0.000000  0.062550  0.062550      1.000000
  0.020850  0.062550  0.062550      2.000000
  0.041700  0.062550  0.062550      2.000000
  0.062550  0.062550  0.062550      1.000000
 


--------------------------------------------------------------------------------------------------------




 Dimension of arrays:
   k-Points           NKPTS =     40   number of bands    NBANDS=     72
   number of dos      NEDOS =    301   number of ions     NIONS =     32
   non local maximal  LDIM  =      4   non local SUM 2l+1 LMDIM =      8
   total plane-waves  NPLWV = 216000
   max r-space proj   IRMAX =      1   max aug-charges    IRDMAX=  16656
   dimension x,y,z NGX =    60 NGY =   60 NGZ =   60
   dimension x,y,z NGXF=   120 NGYF=  120 NGZF=  120
   support grid    NGXF=   120 NGYF=  120 NGZF=  120
   ions per type =              32
 NGX,Y,Z   is equivalent  to a cutoff of  12.48, 12.48, 12.48 a.u.
 NGXF,Y,Z  is equivalent  to a cutoff of  24.96, 24.96, 24.96 a.u.


 I would recommend the setting:
   dimension x,y,z NGX =    58 NGY =   58 NGZ =   58
 SYSTEM =  unknown system                          
 POSCAR =  Al                                      

 Startparameter for this run:
   NWRITE =      2    write-flag & timer
   PREC   = accura    medium, high low
   ISTART =      0    job   : 0-new  1-cont  2-samecut
   ICHARG =      2    charge: 1-file 2-atom 10-const
   ISPIN  =      1    spin polarized calculation?
   LNONCOLLINEAR =      F non collinear calculations
   LSORBIT =      F    spin-orbit coupling
   INIWAV =      1    electr: 0-lowe 1-rand  2-diag
   LASPH  =      F    aspherical Exc in radial PAW
   METAGGA=      F    non-selfconsistent MetaGGA calc.

 Electronic Relaxation 1
   ENCUT  =  500.0 eV  36.75 Ry    6.06 a.u.  14.57 14.57 14.57*2*pi/ulx,y,z
   ENINI  =  500.0     initial cutoff
   ENAUG  =  291.1 eV  augmentation charge cutoff
   NELM   =     60;   NELMIN=  2; NELMDL=  0     # of ELM steps 
   EDIFF  = 0.1E-07   stopping-criterion for ELM
   LREAL  =      F    real-space projection
   LCOMPAT=      F    compatible to vasp.4.4
   LREAL_COMPAT= F    compatible to vasp.4.5.1-3
   GGA_COMPAT  = T    GGA compatible to vasp.4.4-vasp.4.6
   LMAXPAW     = -100 max onsite density
   LMAXMIX     =    2 max onsite mixed and CHGCAR
   VOSKOWN=      0    Vosko Wilk Nusair interpolation
   ROPT   =    0.00000
 Ionic relaxation
   EDIFFG = 0.1E-06   stopping-criterion for IOM
   NSW    =      0    number of steps for IOM
   NBLOCK =      1;   KBLOCK =      1    inner block; outer block 
   IBRION =     -1    ionic relax: 0-MD 1-quasi-New 2-CG
   NFREE  =      0    steps in history (QN), initial steepest desc. (CG)
   ISIF   =      2    stress and relaxation
   IWAVPR =     10    prediction:  0-non 1-charg 2-wave 3-comb
   ISYM   =      2    0-nonsym 1-usesym 2-fastsym
   LCORR  =      T    Harris-Foulkes like correction to forces

   POTIM  =   0.50    time-step for ionic-motion
   TEIN   =    0.0    initial temperature
   TEBEG  =    0.0;   TEEND  =   0.0 temperature during run
   SMASS  =  -3.00    Nose mass-parameter (am)
   estimated Nose-frequenzy (Omega)   =  0.10E-29 period in steps =****** mass=  -0.146E-26a.u.
   NPACO  =    256;   APACO  = 16.0  distance and # of slots for P.C.
   PSTRESS=    0.0 pullay stress

  Mass of Ions in am
   POMASS =  26.98
  Ionic Valenz
   ZVAL   =   3.00
  Atomic Wigner-Seitz radii
   RWIGS  =  -1.00
   NELECT =      96.0000    total number of electrons
   NUPDOWN=      -1.0000    fix difference up-down

 DOS related values:
   EMIN   =  10.00;   EMAX   =-10.00  energy-range for DOS
   ISMEAR =     0;   SIGMA  =   0.01  broadening in eV -4-tet -1-fermi 0-gaus

 Electronic relaxation 2 (details)
   IALGO  =     38    algorithm
   LDIAG  =      T    sub-space diagonalisation
   IMIX   =      4    mixing-type and parameters
     AMIX     =   0.40;   BMIX     =  1.00
     AMIX_MAG =   1.60;   BMIX_MAG =  1.00
     AMIN     =   0.10
     WC   =   100.;   INIMIX=   1;  MIXPRE=   1

 Intra band minimization:
   WEIMIN = 0.0000     energy-eigenvalue tresh-hold
   EBREAK =  0.38E-10  absolut break condition
   DEPER  =   0.30     relativ break condition  

   TIME   =   0.10     timestep for ELM

  volume/ion in A,a.u.               =      15.96       107.72
  Fermi-wavevector in a.u.,eV,Ry     =   0.937749 11.964591  0.879373

 Second variation
   LSECVAR=     F    do a second variation
 
 Write flags
   LWAVE  =      F    write WAVECAR
   LCHARG =      F    write CHGCAR
   LVTOT  =      F    write LOCPOT, local potential
   LELF   =      F    write electronic localiz. function (ELF)
   LORBIT =      0    0 simple, 1 ext, 2 COOP (PROOUT)


 Dipole corrections
   IDIPOL =      0    1-x, 2-y, 3-z
   LDIPOL =      F    correct potential



--------------------------------------------------------------------------------------------------------


 Static calculation
 charge density will be updated during run
 non-spin polarized calculation
 Variant of blocked Davidson
 Davidson routine will perform the subspace rotation
 performe sub-space diagonalisation
    after iterative eigenvector-optimisation
 modified Broyden-mixing scheme, WC =      100.0
 initial mixing is a Kerker type mixing with AMIX =  0.4000 and BMIX =      1.0000
 Hartree-type preconditioning will be used
 using additional bands           24
 reciprocal scheme for non local part
 use partial core corrections
 calculate Harris-corrections to forces 
   (improved forces if not selfconsistent)
 use gradient corrections 
 use of overlap-Matrix (Vanderbilt PP)
 Gauss-broadening in eV      SIGMA  =   0.01


--------------------------------------------------------------------------------------------------------


  energy-cutoff  :      500.00
  volume of cell :      510.78
      direct lattice vectors                 reciprocal lattice vectors
     7.993655802  0.000000000  0.000000000     0.125099207  0.000000000  0.000000000
     0.000000000  7.993655802  0.000000000     0.000000000  0.125099207  0.000000000
     0.000000000  0.000000000  7.993655802     0.000000000  0.000000000  0.125099207

  length of vectors
     7.993655802  7.993655802  7.993655802     0.125099207  0.125099207  0.125099207


 
 k-points in units of 2pi/SCALE and weight: Automatic mesh                          
   0.00000000  0.00000000  0.00000000       0.005
   0.02084987  0.00000000  0.00000000       0.009
   0.04169974  0.00000000  0.00000000       0.009
   0.06254960  0.00000000  0.00000000       0.005
   0.00000000  0.02084987  0.00000000       0.019
   0.02084987  0.02084987  0.00000000       0.037
   0.04169974  0.02084987  0.00000000       0.037
   0.06254960  0.02084987  0.00000000       0.019
   0.00000000  0.04169974  0.00000000       0.019
   0.02084987  0.04169974  0.00000000       0.037
   0.04169974  0.04169974  0.00000000       0.037
   0.06254960  0.04169974  0.00000000       0.019
   0.00000000  0.06254960  0.00000000       0.009
   0.02084987  0.06254960  0.00000000       0.019
   0.04169974  0.06254960  0.00000000       0.019
   0.06254960  0.06254960  0.00000000       0.009
   0.00000000  0.02084987  0.02084987       0.019
   0.02084987  0.02084987  0.02084987       0.037
   0.04169974  0.02084987  0.02084987       0.037
   0.06254960  0.02084987  0.02084987       0.019
   0.00000000  0.04169974  0.02084987       0.037
   0.02084987  0.04169974  0.02084987       0.074
   0.04169974  0.04169974  0.02084987       0.074
   0.06254960  0.04169974  0.02084987       0.037
   0.00000000  0.06254960  0.02084987       0.019
   0.02084987  0.06254960  0.02084987       0.037
   0.04169974  0.06254960  0.02084987       0.037
   0.06254960  0.06254960  0.02084987       0.019
   0.00000000  0.04169974  0.04169974       0.019
   0.02084987  0.04169974  0.04169974       0.037
   0.04169974  0.04169974  0.04169974       0.037
   0.06254960  0.04169974  0.04169974       0.019
   0.00000000  0.06254960  0.04169974       0.019
   0.02084987  0.06254960  0.04169974       0.037
   0.04169974  0.06254960  0.04169974       0.037
   0.06254960  0.06254960  0.04169974       0.019
   0.00000000  0.06254960  0.06254960       0.005
   0.02084987  0.06254960  0.06254960       0.009
   0.04169974  0.06254960  0.06254960       0.009
   0.06254960  0.06254960  0.06254960       0.005
 
 k-points in reciprocal lattice and weights: Automatic mesh                          
   0.00000000  0.00000000  0.00000000       0.005
   0.16666667  0.00000000  0.00000000       0.009
   0.33333333  0.00000000  0.00000000       0.009
   0.50000000  0.00000000  0.00000000       0.005
   0.00000000  0.16666667  0.00000000       0.019
   0.16666667  0.16666667  0.00000000       0.037
   0.33333333  0.16666667  0.00000000       0.037
   0.50000000  0.16666667  0.00000000       0.019
   0.00000000  0.33333333  0.00000000       0.019
   0.16666667  0.33333333  0.00000000       0.037
   0.33333333  0.33333333  0.00000000       0.037
   0.50000000  0.33333333  0.00000000       0.019
   0.00000000  0.50000000  0.00000000       0.009
   0.16666667  0.50000000  0.00000000       0.019
   0.33333333  0.50000000  0.00000000       0.019
   0.50000000  0.50000000  0.00000000       0.009
   0.00000000  0.16666667  0.16666667       0.019
   0.16666667  0.16666667  0.16666667       0.037
   0.33333333  0.16666667  0.16666667       0.037
   0.50000000  0.16666667  0.16666667       0.019
   0.00000000  0.33333333  0.16666667       0.037
   0.16666667  0.33333333  0.16666667       0.074
   0.33333333  0.33333333  0.16666667       0.074
   0.50000000  0.33333333  0.16666667       0.037
   0.00000000  0.50000000  0.16666667       0.019
   0.16666667  0.50000000  0.16666667       0.037
   0.33333333  0.50000000  0.16666667       0.037
   0.50000000  0.50000000  0.16666667       0.019
   0.00000000  0.33333333  0.33333333       0.019
   0.16666667  0.33333333  0.33333333       0.037
   0.33333333  0.33333333  0.33333333       0.037
   0.50000000  0.33333333  0.33333333       0.019
   0.00000000  0.50000000  0.33333333       0.019
   0.16666667  0.50000000  0.33333333       0.037
   0.33333333  0.50000000  0.33333333       0.037
   0.50000000  0.50000000  0.33333333       0.019
   0.00000000  0.50000000  0.50000000       0.005
   0.16666667  0.50000000  0.50000000       0.009
   0.33333333  0.50000000  0.50000000       0.009
   0.50000000  0.50000000  0.50000000       0.005
 
 position of ions in fractional coordinates (direct lattice) 
   0.25125099  0.25000000  0.00000000
   0.75000000  0.25000000  0.00000000
   0.25000000  0.75000000  0.00000000
   0.75000000  0.75000000  0.00000000
   0.25000000  0.25000000  0.50000000
   0.75000000  0.25000000  0.50000000
   0.25000000  0.75000000  0.50000000
   0.75000000  0.75000000  0.50000000
   0.25000000  0.00000000  0.25000000
   0.75000000  0.00000000  0.25000000
   0.25000000  0.50000000  0.25000000
   0.75000000  0.50000000  0.25000000
   0.25000000  0.00000000  0.75000000
   0.75000000  0.00000000  0.75000000
   0.25000000  0.50000000  0.75000000
   0.75000000  0.50000000  0.75000000
   0.00000000  0.25000000  0.25000000
   0.50000000  0.25000000  0.25000000
   0.00000000  0.75000000  0.25000000
   0.50000000  0.75000000  0.25000000
   0.00000000  0.25000000  0.75000000
   0.50000000  0.25000000  0.75000000
   0.00000000  0.75000000  0.75000000
   0.50000000  0.75000000  0.75000000
   0.00000000  0.00000000  0.00000000
   0.50000000  0.00000000  0.00000000
   0.00000000  0.50000000  0.00000000
   0.50000000  0.50000000  0.00000000
   0.00000000  0.00000000  0.50000000
   0.50000000  0.00000000  0.50000000
   0.00000000  0.50000000  0.50000000
   0.50000000  0.50000000  0.50000000
 
 position of ions in cartesian coordinates  (Angst):
   2.00841395  1.99841395  0.00000000
   5.99524185  1.99841395  0.00000000
   1.99841395  5.99524185  0.00000000
   5.99524185  5.99524185  0.00000000
   1.99841395  1.99841395  3.99682790
   5.99524185  1.99841395  3.99682790
   1.99841395  5.99524185  3.99682790
   5.99524185  5.99524185  3.99682790
   1.99841395  0.00000000  1.99841395
   5.99524185  0.00000000  1.99841395
   1.99841395  3.99682790  1.99841395
   5.99524185  3.99682790  1.99841395
   1.99841395  0.00000000  5.99524185
   5.99524185  0.00000000  5.99524185
   1.99841395  3.99682790  5.99524185
   5.99524185  3.99682790  5.99524185
   0.00000000  1.99841395  1.99841395
   3.99682790  1.99841395  1.99841395
   0.00000000  5.99524185  1.99841395
   3.99682790  5.99524185  1.99841395
   0.00000000  1.99841395  5.99524185
   3.99682790  1.99841395  5.99524185
   0.00000000  5.99524185  5.99524185
   3.99682790  5.99524185  5.99524185
   0.00000000  0.00000000  0.00000000
   3.99682790  0.00000000  0.00000000
   0.00000000  3.99682790  0.00000000
   3.99682790  3.99682790  0.00000000
   0.00000000  0.00000000  3.99682790
   3.99682790  0.00000000  3.99682790
   0.00000000  3.99682790  3.99682790
   3.99682790  3.99682790  3.99682790
 


--------------------------------------------------------------------------------------------------------


 k-point  1 :  0.00000.00000.0000  plane waves:  13037
 k-point  2 :  0.16670.00000.0000  plane waves:  12993
 k-point  3 :  0.33330.00000.0000  plane waves:  12969
 k-point  4 :  0.50000.00000.0000  plane waves:  13022
 k-point  5 :  0.00000.16670.0000  plane waves:  12993
 k-point  6 :  0.16670.16670.0000  plane waves:  13009
 k-point  7 :  0.33330.16670.0000  plane waves:  12957
 k-point  8 :  0.50000.16670.0000  plane waves:  12972
 k-point  9 :  0.00000.33330.0000  plane waves:  12969
 k-point 10 :  0.16670.33330.0000  plane waves:  12957
 k-point 11 :  0.33330.33330.0000  plane waves:  12970
 k-point 12 :  0.50000.33330.0000  plane waves:  12964
 k-point 13 :  0.00000.50000.0000  plane waves:  13022
 k-point 14 :  0.16670.50000.0000  plane waves:  12972
 k-point 15 :  0.33330.50000.0000  plane waves:  12964
 k-point 16 :  0.50000.50000.0000  plane waves:  12920
 k-point 17 :  0.00000.16670.1667  plane waves:  13009
 k-point 18 :  0.16670.16670.1667  plane waves:  12995
 k-point 19 :  0.33330.16670.1667  plane waves:  12952
 k-point 20 :  0.50000.16670.1667  plane waves:  12998
 k-point 21 :  0.00000.33330.1667  plane waves:  12957
 k-point 22 :  0.16670.33330.1667  plane waves:  12952
 k-point 23 :  0.33330.33330.1667  plane waves:  12977
 k-point 24 :  0.50000.33330.1667  plane waves:  12980
 k-point 25 :  0.00000.50000.1667  plane waves:  12972
 k-point 26 :  0.16670.50000.1667  plane waves:  12998
 k-point 27 :  0.33330.50000.1667  plane waves:  12980
 k-point 28 :  0.50000.50000.1667  plane waves:  12892
 k-point 29 :  0.00000.33330.3333  plane waves:  12970
 k-point 30 :  0.16670.33330.3333  plane waves:  12977
 k-point 31 :  0.33330.33330.3333  plane waves:  12950
 k-point 32 :  0.50000.33330.3333  plane waves:  12952
 k-point 33 :  0.00000.50000.3333  plane waves:  12964
 k-point 34 :  0.16670.50000.3333  plane waves:  12980
 k-point 35 :  0.33330.50000.3333  plane waves:  12952
 k-point 36 :  0.50000.50000.3333  plane waves:  12932
 k-point 37 :  0.00000.50000.5000  plane waves:  12920
 k-point 38 :  0.16670.50000.5000  plane waves:  12892
 k-point 39 :  0.33330.50000.5000  plane waves:  12932
 k-point 40 :  0.50000.50000.5000  plane waves:  12856

 maximum and minimum number of plane-waves per node :  13037 12856

 maximum number of plane-waves:  13037
 maximal index in each direction: 
   IXMAX= 14   IYMAX= 14   IZMAX= 14
   IXMIN=-15   IYMIN=-15   IZMIN=-15

 NGX is ok and might be reduce to  60
 NGY is ok and might be reduce to  60
 NGZ is ok and might be reduce to  60

 parallel 3dFFT wavefunction:
    minimum data exchange during FFTs selected (reduces bandwidth)
 parallel 3dFFT charge:
    minimum data exchange during FFTs selected (reduces bandwidth)

 For storing wavefunctions  597.46 MBYTES are necessary
 For predicting wavefunctions   33.24 MBYTES are necessary
Broyden mixing: mesh for mixing (old mesh)
   NGX = 29   NGY = 29   NGZ = 29
  (NGX  =120   NGY  =120   NGZ  =120)
 gives a total of  24389 points
 initial charge density was supplied:
 charge density of overlapping atoms calculated
 number of electron   96.0000000 magnetization 
 keeping initial charge density in first step


--------------------------------------------------------------------------------------------------------


 Maximum index for augmentation-charges         2068 (set IRDMAX)


--------------------------------------------------------------------------------------------------------


 First call to EWALD:  gamma=   0.222
 Maximum number of real-space cells 3x 3x 3
 Maximum number of reciprocal cells 3x 3x 3

    FEWALD:  VPU time    0.00: CPU time    0.00


----------------------------------------- Iteration    1(   1)  ---------------------------------------


    POTLOK:  VPU time    0.25: CPU time    0.25
    SETDIJ:  VPU time    0.01: CPU time    0.01
    EDDAV :  VPU time   26.49: CPU time   26.91
    DOS   :  VPU time   -0.00: CPU time   -0.00
    ------------------------------------------
      LOOP:  VPU time   26.76: CPU time   27.18

 eigenvalue-minimisations  :  5760
 total energy-change (2. order) : 0.1243189E+03  (-0.3285375E+04)
 number of electron   96.0000000 magnetization 
 augmentation part    96.0000000 magnetization 

 Free energy of the ion-electron system (eV)
  ---------------------------------------------------
  alpha Z        PSCENC =        -6.73363111
  Ewald energy   TEWEN  =     -2378.64232680
  -1/2 Hartree   DENC   =        -2.88519933
  -V(xc)+E(xc)   XCENC  =      -837.74980942
  PAW double counting   =      1137.73615723     -115.16745734
  entropy T*S    EENTRO =        -0.00097554
  eigenvalues    EBANDS =       614.53298505
  atomic energy  EATOM  =      1713.22913220
  ---------------------------------------------------
  free energy    TOTEN  =       124.31887494 eV

  energy without entropy =      124.31985048  energy(sigma->0) =      124.31936271


--------------------------------------------------------------------------------------------------------




----------------------------------------- Iteration    1(   2)  ---------------------------------------


    EDDAV :  VPU time   33.14: CPU time   33.13
    DOS   :  VPU time    0.00: CPU time   -0.00
    ------------------------------------------
      LOOP:  VPU time   33.15: CPU time   33.14

 eigenvalue-minimisations  :  6784
 total energy-change (2. order) :-0.2315479E+03  (-0.2151645E+03)
 number of electron   96.0000000 magnetization 
 augmentation part    96.0000000 magnetization 

 Free energy of the ion-electron system (eV)
  ---------------------------------------------------
  alpha Z        PSCENC =        -6.73363111
  Ewald energy   TEWEN  =     -2378.64232680
  -1/2 Hartree   DENC   =        -2.88519933
  -V(xc)+E(xc)   XCENC  =      -837.74980942
  PAW double counting   =      1137.73615723     -115.16745734
  entropy T*S    EENTRO =        -0.00068654
  eigenvalues    EBANDS =       382.98474611
  atomic energy  EATOM  =      1713.22913220
  ---------------------------------------------------
  free energy    TOTEN  =      -107.22907500 eV

  energy without entropy =     -107.22838847  energy(sigma->0) =     -107.22873173


--------------------------------------------------------------------------------------------------------




----------------------------------------- Iteration    1(   3)  ---------------------------------------


    EDDAV :  VPU time   25.82: CPU time   25.82
    DOS   :  VPU time   -0.00: CPU time   -0.00
    ------------------------------------------
      LOOP:  VPU time   25.82: CPU time   25.83

 eigenvalue-minimisations  :  7168
 total energy-change (2. order) :-0.1291763E+02  (-0.1233758E+02)
 number of electron   96.0000000 magnetization 
 augmentation part    96.0000000 magnetization 

 Free energy of the ion-electron system (eV)
  ---------------------------------------------------
  alpha Z        PSCENC =        -6.73363111
  Ewald energy   TEWEN  =     -2378.64232680
  -1/2 Hartree   DENC   =        -2.88519933
  -V(xc)+E(xc)   XCENC  =      -837.74980942
  PAW double counting   =      1137.73615723     -115.16745734
  entropy T*S    EENTRO =        -0.00026510
  eigenvalues    EBANDS =       370.06669279
  atomic energy  EATOM  =      1713.22913220
  ---------------------------------------------------
  free energy    TOTEN  =      -120.14670688 eV

  energy without entropy =     -120.14644178  energy(sigma->0) =     -120.14657433


--------------------------------------------------------------------------------------------------------




----------------------------------------- Iteration    1(   4)  ---------------------------------------


    EDDAV :  VPU time   20.16: CPU time   20.16
    DOS   :  VPU time    0.00: CPU time   -0.00
    ------------------------------------------
      LOOP:  VPU time   20.17: CPU time   20.16

 eigenvalue-minimisations  :  6728
 total energy-change (2. order) :-0.2359662E+00  (-0.2341948E+00)
 number of electron   96.0000000 magnetization 
 augmentation part    96.0000000 magnetization 

 Free energy of the ion-electron system (eV)
  ---------------------------------------------------
  alpha Z        PSCENC =        -6.73363111
  Ewald energy   TEWEN  =     -2378.64232680
  -1/2 Hartree   DENC   =        -2.88519933
  -V(xc)+E(xc)   XCENC  =      -837.74980942
  PAW double counting   =      1137.73615723     -115.16745734
  entropy T*S    EENTRO =        -0.00032417
  eigenvalues    EBANDS =       369.83078565
  atomic energy  EATOM  =      1713.22913220
  ---------------------------------------------------
  free energy    TOTEN  =      -120.38267308 eV

  energy without entropy =     -120.38234892  energy(sigma->0) =     -120.38251100


--------------------------------------------------------------------------------------------------------




----------------------------------------- Iteration    1(   5)  ---------------------------------------


    EDDAV :  VPU time   20.34: CPU time   20.34
    DOS   :  VPU time    0.00: CPU time   -0.00
    CHARGE:  VPU time    0.90: CPU time    0.90
    MIXING:  VPU time    0.00: CPU time    0.00
    ------------------------------------------
      LOOP:  VPU time   21.25: CPU time   21.24

 eigenvalue-minimisations  :  6816
 total energy-change (2. order) :-0.2854383E-02  (-0.2852443E-02)
 number of electron   96.0000001 magnetization 
 augmentation part    -1.1655909 magnetization 

 Broyden mixing:
  rms(total) = 0.53739E+00    rms(broyden)= 0.53739E+00
  rms(prec ) = 0.77619E+00
  weight for this iteration     100.00

 Free energy of the ion-electron system (eV)
  ---------------------------------------------------
  alpha Z        PSCENC =        -6.73363111
  Ewald energy   TEWEN  =     -2378.64232680
  -1/2 Hartree   DENC   =        -2.88519933
  -V(xc)+E(xc)   XCENC  =      -837.74980942
  PAW double counting   =      1137.73615723     -115.16745734
  entropy T*S    EENTRO =        -0.00032423
  eigenvalues    EBANDS =       369.82793133
  atomic energy  EATOM  =      1713.22913220
  ---------------------------------------------------
  free energy    TOTEN  =      -120.38552747 eV

  energy without entropy =     -120.38520324  energy(sigma->0) =     -120.38536535


--------------------------------------------------------------------------------------------------------




----------------------------------------- Iteration    1(   6)  ---------------------------------------


    POTLOK:  VPU time    0.17: CPU time    0.17
    SETDIJ:  VPU time    0.01: CPU time    0.01
    EDDAV :  VPU time   19.69: CPU time   19.68
    DOS   :  VPU time    0.00: CPU time   -0.00
    CHARGE:  VPU time    0.90: CPU time    0.90
    MIXING:  VPU time    0.00: CPU time    0.00
    ------------------------------------------
      LOOP:  VPU time   20.77: CPU time   20.76

 eigenvalue-minimisations  :  6520
 total energy-change (2. order) : 0.4334676E+00  (-0.4660383E-02)
 number of electron   96.0000001 magnetization 
 augmentation part    -1.1816301 magnetization 

 Broyden mixing:
  rms(total) = 0.33388E+00    rms(broyden)= 0.33388E+00
  rms(prec ) = 0.48411E+00
  weight for this iteration     100.00

 eigenvalues of (default mixing * dielectric matrix)
  average eigenvalue GAMMA=   2.6316
  2.6316

 Free energy of the ion-electron system (eV)
  ---------------------------------------------------
  alpha Z        PSCENC =        -6.73363111
  Ewald energy   TEWEN  =     -2378.64232680
  -1/2 Hartree   DENC   =        -2.54903635
  -V(xc)+E(xc)   XCENC  =      -836.53788322
  PAW double counting   =      1140.23088218     -117.83369614
  entropy T*S    EENTRO =        -0.00032315
  eigenvalues    EBANDS =       368.88482248
  atomic energy  EATOM  =      1713.22913220
  ---------------------------------------------------
  free energy    TOTEN  =      -119.95205990 eV

  energy without entropy =     -119.95173675  energy(sigma->0) =     -119.95189833


--------------------------------------------------------------------------------------------------------




----------------------------------------- Iteration    1(   7)  ---------------------------------------


    POTLOK:  VPU time    0.16: CPU time    0.16
    SETDIJ:  VPU time    0.01: CPU time    0.01
    EDDAV :  VPU time   17.90: CPU time   17.89
    DOS   :  VPU time    0.00: CPU time   -0.00
    CHARGE:  VPU time    0.78: CPU time    0.78
    MIXING:  VPU time    0.00: CPU time    0.00
    ------------------------------------------
      LOOP:  VPU time   18.86: CPU time   18.85

 eigenvalue-minimisations  :  6344
 total energy-change (2. order) : 0.3158506E+00  (-0.1411102E-01)
 number of electron   96.0000001 magnetization 
 augmentation part    -1.2130996 magnetization 

 Broyden mixing:
  rms(total) = 0.13467E-01    rms(broyden)= 0.13467E-01
  rms(prec ) = 0.16037E-01
  weight for this iteration     100.00

 eigenvalues of (default mixing * dielectric matrix)
  average eigenvalue GAMMA=   2.4910
  2.4910  2.4910

 Free energy of the ion-electron system (eV)
  ---------------------------------------------------
  alpha Z        PSCENC =        -6.73363111
  Ewald energy   TEWEN  =     -2378.64232680
  -1/2 Hartree   DENC   =        -3.41182235
  -V(xc)+E(xc)   XCENC  =      -834.09956584
  PAW double counting   =      1143.78772184     -121.72812813
  entropy T*S    EENTRO =        -0.00032339
  eigenvalues    EBANDS =       367.96273423
  atomic energy  EATOM  =      1713.22913220
  ---------------------------------------------------
  free energy    TOTEN  =      -119.63620935 eV

  energy without entropy =     -119.63588596  energy(sigma->0) =     -119.63604765


--------------------------------------------------------------------------------------------------------




----------------------------------------- Iteration    1(   8)  ---------------------------------------


    POTLOK:  VPU time    0.17: CPU time    0.17
    SETDIJ:  VPU time    0.01: CPU time    0.01
    EDDAV :  VPU time   17.85: CPU time   17.85
    DOS   :  VPU time    0.00: CPU time   -0.00
    CHARGE:  VPU time    0.67: CPU time    0.67
    MIXING:  VPU time    0.00: CPU time    0.00
    ------------------------------------------
      LOOP:  VPU time   18.71: CPU time   18.71

 eigenvalue-minimisations  :  6792
 total energy-change (2. order) :-0.1542276E-03  (-0.1217281E-03)
 number of electron   96.0000001 magnetization 
 augmentation part    -1.2154442 magnetization 

 Broyden mixing:
  rms(total) = 0.46887E-02    rms(broyden)= 0.46887E-02
  rms(prec ) = 0.60664E-02
  weight for this iteration     100.00

 eigenvalues of (default mixing * dielectric matrix)
  average eigenvalue GAMMA=   2.0743
  0.9866  2.6783  2.5581

 Free energy of the ion-electron system (eV)
  ---------------------------------------------------
  alpha Z        PSCENC =        -6.73363111
  Ewald energy   TEWEN  =     -2378.64232680
  -1/2 Hartree   DENC   =        -3.45168952
  -V(xc)+E(xc)   XCENC  =      -834.05751707
  PAW double counting   =      1144.41284264     -122.39668182
  entropy T*S    EENTRO =        -0.00032336
  eigenvalues    EBANDS =       368.00383127
  atomic energy  EATOM  =      1713.22913220
  ---------------------------------------------------
  free energy    TOTEN  =      -119.63636358 eV

  energy without entropy =     -119.63604022  energy(sigma->0) =     -119.63620190


--------------------------------------------------------------------------------------------------------




----------------------------------------- Iteration    1(   9)  ---------------------------------------


    POTLOK:  VPU time    0.13: CPU time    0.14
    SETDIJ:  VPU time    0.01: CPU time    0.01
    EDDAV :  VPU time   16.79: CPU time   16.79
    DOS   :  VPU time    0.00: CPU time   -0.00
    CHARGE:  VPU time    0.70: CPU time    0.70
    MIXING:  VPU time    0.00: CPU time    0.00
    ------------------------------------------
      LOOP:  VPU time   17.64: CPU time   17.64

 eigenvalue-minimisations  :  6688
 total energy-change (2. order) :-0.3316809E-04  (-0.5324255E-05)
 number of electron   96.0000001 magnetization 
 augmentation part    -1.2162947 magnetization 

 Broyden mixing:
  rms(total) = 0.41096E-03    rms(broyden)= 0.41095E-03
  rms(prec ) = 0.63858E-03
  weight for this iteration     100.00

 eigenvalues of (default mixing * dielectric matrix)
  average eigenvalue GAMMA=   1.8825
  2.6952  2.5531  0.9256  1.3559

 Free energy of the ion-electron system (eV)
  ---------------------------------------------------
  alpha Z        PSCENC =        -6.73363111
  Ewald energy   TEWEN  =     -2378.64232680
  -1/2 Hartree   DENC   =        -3.48528466
  -V(xc)+E(xc)   XCENC  =      -834.01624891
  PAW double counting   =      1144.66903840     -122.67583618
  entropy T*S    EENTRO =        -0.00032337
  eigenvalues    EBANDS =       368.01908368
  atomic energy  EATOM  =      1713.22913220
  ---------------------------------------------------
  free energy    TOTEN  =      -119.63639674 eV

  energy without entropy =     -119.63607337  energy(sigma->0) =     -119.63623506


--------------------------------------------------------------------------------------------------------




----------------------------------------- Iteration    1(  10)  ---------------------------------------


    POTLOK:  VPU time    0.15: CPU time    0.15
    SETDIJ:  VPU time    0.01: CPU time    0.01
    EDDAV :  VPU time   17.02: CPU time   17.01
    DOS   :  VPU time    0.00: CPU time   -0.00
    CHARGE:  VPU time    0.68: CPU time    0.68
    MIXING:  VPU time    0.00: CPU time    0.00
    ------------------------------------------
      LOOP:  VPU time   17.87: CPU time   17.86

 eigenvalue-minimisations  :  6800
 total energy-change (2. order) :-0.1581136E-05  (-0.3335727E-06)
 number of electron   96.0000001 magnetization 
 augmentation part    -1.2164193 magnetization 

 Broyden mixing:
  rms(total) = 0.20466E-03    rms(broyden)= 0.20466E-03
  rms(prec ) = 0.27539E-03
  weight for this iteration     100.00

 eigenvalues of (default mixing * dielectric matrix)
  average eigenvalue GAMMA=   1.8784
  2.6354  2.6354  2.2761  1.0305  0.8148

 Free energy of the ion-electron system (eV)
  ---------------------------------------------------
  alpha Z        PSCENC =        -6.73363111
  Ewald energy   TEWEN  =     -2378.64232680
  -1/2 Hartree   DENC   =        -3.48778065
  -V(xc)+E(xc)   XCENC  =      -834.01327542
  PAW double counting   =      1144.64187932     -122.64895241
  entropy T*S    EENTRO =        -0.00032337
  eigenvalues    EBANDS =       368.01887991
  atomic energy  EATOM  =      1713.22913220
  ---------------------------------------------------
  free energy    TOTEN  =      -119.63639833 eV

  energy without entropy =     -119.63607495  energy(sigma->0) =     -119.63623664


--------------------------------------------------------------------------------------------------------




----------------------------------------- Iteration    1(  11)  ---------------------------------------


    POTLOK:  VPU time    0.14: CPU time    0.14
    SETDIJ:  VPU time    0.01: CPU time    0.01
    EDDAV :  VPU time   16.90: CPU time   16.89
    DOS   :  VPU time    0.00: CPU time   -0.00
    CHARGE:  VPU time    0.70: CPU time    0.70
    MIXING:  VPU time    0.00: CPU time    0.00
    ------------------------------------------
      LOOP:  VPU time   17.75: CPU time   17.74

 eigenvalue-minimisations  :  6720
 total energy-change (2. order) : 0.2666800E-05  (-0.2223711E-07)
 number of electron   96.0000001 magnetization 
 augmentation part    -1.2164404 magnetization 

 Broyden mixing:
  rms(total) = 0.78477E-04    rms(broyden)= 0.78477E-04
  rms(prec ) = 0.98767E-04
  weight for this iteration     100.00

 eigenvalues of (default mixing * dielectric matrix)
  average eigenvalue GAMMA=   1.8206
  2.6896  2.6896  2.5187  1.2253  1.0017  0.7985

 Free energy of the ion-electron system (eV)
  ---------------------------------------------------
  alpha Z        PSCENC =        -6.73363111
  Ewald energy   TEWEN  =     -2378.64232680
  -1/2 Hartree   DENC   =        -3.48763558
  -V(xc)+E(xc)   XCENC  =      -834.01382020
  PAW double counting   =      1144.59635479     -122.60223473
  entropy T*S    EENTRO =        -0.00032337
  eigenvalues    EBANDS =       368.01808914
  atomic energy  EATOM  =      1713.22913220
  ---------------------------------------------------
  free energy    TOTEN  =      -119.63639566 eV

  energy without entropy =     -119.63607229  energy(sigma->0) =     -119.63623397


--------------------------------------------------------------------------------------------------------




----------------------------------------- Iteration    1(  12)  ---------------------------------------


    POTLOK:  VPU time    0.14: CPU time    0.14
    SETDIJ:  VPU time    0.01: CPU time    0.01
    EDDAV :  VPU time   12.99: CPU time   12.98
    DOS   :  VPU time    0.00: CPU time   -0.00
    CHARGE:  VPU time    0.69: CPU time    0.69
    MIXING:  VPU time    0.00: CPU time    0.00
    ------------------------------------------
      LOOP:  VPU time   13.84: CPU time   13.83

 eigenvalue-minimisations  :  4584
 total energy-change (2. order) : 0.1066616E-05  (-0.2125505E-08)
 number of electron   96.0000001 magnetization 
 augmentation part    -1.2164469 magnetization 

 Broyden mixing:
  rms(total) = 0.12520E-04    rms(broyden)= 0.12520E-04
  rms(prec ) = 0.20373E-04
  weight for this iteration     100.00

 eigenvalues of (default mixing * dielectric matrix)
  average eigenvalue GAMMA=   1.7448
  2.6751  2.6751  2.4868  1.5010  1.0333  1.0511  0.7914

 Free energy of the ion-electron system (eV)
  ---------------------------------------------------
  alpha Z        PSCENC =        -6.73363111
  Ewald energy   TEWEN  =     -2378.64232680
  -1/2 Hartree   DENC   =        -3.48792405
  -V(xc)+E(xc)   XCENC  =      -834.01356357
  PAW double counting   =      1144.57760314     -122.58308892
  entropy T*S    EENTRO =        -0.00032337
  eigenvalues    EBANDS =       368.01772789
  atomic energy  EATOM  =      1713.22913220
  ---------------------------------------------------
  free energy    TOTEN  =      -119.63639459 eV

  energy without entropy =     -119.63607122  energy(sigma->0) =     -119.63623291


--------------------------------------------------------------------------------------------------------




----------------------------------------- Iteration    1(  13)  ---------------------------------------


    POTLOK:  VPU time    0.13: CPU time    0.14
    SETDIJ:  VPU time    0.01: CPU time    0.01
    EDDAV :  VPU time   11.43: CPU time   11.43
    DOS   :  VPU time    0.00: CPU time   -0.00
    CHARGE:  VPU time    0.69: CPU time    0.69
    MIXING:  VPU time    0.00: CPU time    0.00
    ------------------------------------------
      LOOP:  VPU time   12.28: CPU time   12.28

 eigenvalue-minimisations  :  3744
 total energy-change (2. order) : 0.1433036E-06  (-0.2889139E-09)
 number of electron   96.0000001 magnetization 
 augmentation part    -1.2164467 magnetization 

 Broyden mixing:
  rms(total) = 0.33791E-05    rms(broyden)= 0.33791E-05
  rms(prec ) = 0.49969E-05
  weight for this iteration     100.00

 eigenvalues of (default mixing * dielectric matrix)
  average eigenvalue GAMMA=   1.7067
  2.6989  2.6989  2.5072  1.6461  1.3231  1.0575  0.9316  0.7904

 Free energy of the ion-electron system (eV)
  ---------------------------------------------------
  alpha Z        PSCENC =        -6.73363111
  Ewald energy   TEWEN  =     -2378.64232680
  -1/2 Hartree   DENC   =        -3.48788594
  -V(xc)+E(xc)   XCENC  =      -834.01364705
  PAW double counting   =      1144.57570326     -122.58113296
  entropy T*S    EENTRO =        -0.00032337
  eigenvalues    EBANDS =       368.01771732
  atomic energy  EATOM  =      1713.22913220
  ---------------------------------------------------
  free energy    TOTEN  =      -119.63639445 eV

  energy without entropy =     -119.63607108  energy(sigma->0) =     -119.63623276


--------------------------------------------------------------------------------------------------------




----------------------------------------- Iteration    1(  14)  ---------------------------------------


    POTLOK:  VPU time    0.15: CPU time    0.15
    SETDIJ:  VPU time    0.01: CPU time    0.01
    EDDAV :  VPU time   11.29: CPU time   11.29
    DOS   :  VPU time    0.00: CPU time   -0.00
    ------------------------------------------
      LOOP:  VPU time   11.45: CPU time   11.45

 eigenvalue-minimisations  :  3656
 total energy-change (2. order) : 0.8178631E-08  (-0.4802934E-10)
 number of electron   96.0000001 magnetization 
 augmentation part    -1.2164467 magnetization 

 Free energy of the ion-electron system (eV)
  ---------------------------------------------------
  alpha Z        PSCENC =        -6.73363111
  Ewald energy   TEWEN  =     -2378.64232680
  -1/2 Hartree   DENC   =        -3.48790186
  -V(xc)+E(xc)   XCENC  =      -834.01363394
  PAW double counting   =      1144.57556659     -122.58099837
  entropy T*S    EENTRO =        -0.00032337
  eigenvalues    EBANDS =       368.01772221
  atomic energy  EATOM  =      1713.22913220
  ---------------------------------------------------
  free energy    TOTEN  =      -119.63639444 eV

  energy without entropy =     -119.63607107  energy(sigma->0) =     -119.63623275


--------------------------------------------------------------------------------------------------------




 average (electrostatic) potential at core
  the test charge radii are     1.0406
  (the norm of the test charge is              1.0000)
       1 -72.2336       2 -72.2337       3 -72.2337       4 -72.2337       5 -72.2337
       6 -72.2337       7 -72.2337       8 -72.2337       9 -72.2337      10 -72.2337
      11 -72.2337      12 -72.2337      13 -72.2337      14 -72.2337      15 -72.2337
      16 -72.2337      17 -72.2342      18 -72.2332      19 -72.2338      20 -72.2336
      21 -72.2342      22 -72.2332      23 -72.2338      24 -72.2336      25 -72.2342
      26 -72.2332      27 -72.2342      28 -72.2332      29 -72.2338      30 -72.2336
      31 -72.2338      32 -72.2336
 
 
 
 E-fermi :   8.3174     XC(G=0): -10.3175     alpha+bet :-15.3778
   add alpha+bet to get absolut eigen values

 k-point   1 :       0.0000    0.0000    0.0000
  band No.  band energies     occupation 
      1      -3.0155      2.00000
      2      -0.7222      2.00000
      3      -0.7184      2.00000
      4      -0.7184      2.00000
      5      -0.7184      2.00000
      6      -0.7184      2.00000
      7      -0.7145      2.00000
      8       1.5343      2.00000
      9       1.5388      2.00000
     10       1.5388      2.00000
     11       1.5405      2.00000
     12       1.5407      2.00000
     13       1.5407      2.00000
     14       1.5407      2.00000
     15       1.5407      2.00000
     16       1.5409      2.00000
     17       1.5427      2.00000
     18       1.5427      2.00000
     19       1.5471      2.00000
     20       3.6241      2.00000
     21       3.6242      2.00000
     22       3.6242      2.00000
     23       3.6242      2.00000
     24       3.9249      2.00000
     25       3.9249      2.00000
     26       3.9249      2.00000
     27       3.9249      2.00000
     28       5.3459      2.00000
     29       5.3459      2.00000
     30       5.3459      2.00000
     31       6.7419      2.00000
     32       6.7419      2.00000
     33       6.7419      2.00000
     34       7.4572      2.00000
     35       7.4572      2.00000
     36       7.4617      2.00000
     37       7.4617      2.00000
     38       7.4618      2.00000
     39       7.4618      2.00000
     40       7.4618      2.00000
     41       7.4619      2.00000
     42       7.4620      2.00000
     43       7.4620      2.00000
     44       7.4664      2.00000
     45       7.4664      2.00000
     46       8.4568      0.00000
     47       8.4611      0.00000
     48       8.4611      0.00000
     49       8.4611      0.00000
     50       8.4611      0.00000
     51       8.4654      0.00000
     52       9.5816      0.00000
     53       9.5816      0.00000
     54       9.5832      0.00000
     55       9.5856      0.00000
     56       9.5858      0.00000
     57       9.5858      0.00000
     58       9.5858      0.00000
     59       9.5858      0.00000
     60       9.5859      0.00000
     61       9.5884      0.00000
     62       9.5899      0.00000
     63       9.5899      0.00000
     64       9.6427      0.00000
     65       9.6439      0.00000
     66       9.6439      0.00000
     67       9.6440      0.00000
     68       9.6440      0.00000
     69       9.6450      0.00000
     70      11.2034      0.00000
     71      11.2048      0.00000
     72      11.2064      0.00000

 k-point   2 :       0.1667    0.0000    0.0000
  band No.  band energies     occupation 
      1      -2.9511      2.00000
      2      -1.4161      2.00000
      3      -0.6551      2.00000
      4      -0.6551      2.00000
      5      -0.6551      2.00000
      6      -0.6551      2.00000
      7       0.1012      2.00000
      8       0.8545      2.00000
      9       0.8545      2.00000
     10       0.8545      2.00000
     11       0.8545      2.00000
     12       1.6029      2.00000
     13       1.6030      2.00000
     14       1.6030      2.00000
     15       1.6030      2.00000
     16       2.3467      2.00000
     17       2.3467      2.00000
     18       2.3467      2.00000
     19       2.3467      2.00000
     20       3.0814      2.00000
     21       3.0814      2.00000
     22       3.0814      2.00000
     23       3.0814      2.00000
     24       4.4739      2.00000
     25       4.5865      2.00000
     26       4.5865      2.00000
     27       4.5865      2.00000
     28       4.5865      2.00000
     29       5.4046      2.00000
     30       5.4046      2.00000
     31       6.6190      2.00000
     32       6.6190      2.00000
     33       6.6190      2.00000
     34       6.6190      2.00000
     35       6.8035      2.00000
     36       6.8035      2.00000
     37       6.8143      2.00000
     38       6.8143      2.00000
     39       7.5207      2.00000
     40       7.5207      2.00000
     41       7.5207      2.00000
     42       7.5207      2.00000
     43       7.7246      2.00000
     44       8.1646      2.00000
     45       8.1646      2.00000
     46       8.2279      2.00000
     47       8.2279      2.00000
     48       8.8019      0.00000
     49       8.8019      0.00000
     50       8.8019      0.00000
     51       8.8019      0.00000
     52       8.9032      0.00000
     53       8.9032      0.00000
     54       8.9032      0.00000
     55       8.9033      0.00000
     56       8.9362      0.00000
     57       8.9362      0.00000
     58       8.9363      0.00000
     59       8.9363      0.00000
     60      10.0499      0.00000
     61      10.0499      0.00000
     62      10.2147      0.00000
     63      10.2147      0.00000
     64      10.2147      0.00000
     65      10.2148      0.00000
     66      10.3540      0.00000
     67      10.3540      0.00000
     68      10.3540      0.00000
     69      10.3540      0.00000
     70      10.5487      0.00000
     71      10.5487      0.00000
     72      10.5487      0.00000

 k-point   3 :       0.3333    0.0000    0.0000
  band No.  band energies     occupation 
      1      -2.7583      2.00000
      2      -1.9897      2.00000
      3      -0.4655      2.00000
      4      -0.4655      2.00000
      5      -0.4655      2.00000
      6      -0.4655      2.00000
      7       0.2904      2.00000
      8       0.2904      2.00000
      9       0.2904      2.00000
     10       0.2904      2.00000
     11       1.0398      2.00000
     12       1.7895      2.00000
     13       1.7895      2.00000
     14       1.7895      2.00000
     15       1.7895      2.00000
     16       2.5318      2.00000
     17       2.5318      2.00000
     18       2.5318      2.00000
     19       2.5318      2.00000
     20       3.2500      2.00000
     21       3.2689      2.00000
     22       3.2689      2.00000
     23       3.2689      2.00000
     24       3.2690      2.00000
     25       5.4328      2.00000
     26       5.4328      2.00000
     27       5.4329      2.00000
     28       5.4329      2.00000
     29       5.4916      2.00000
     30       5.4916      2.00000
     31       5.4917      2.00000
     32       5.4917      2.00000
     33       5.5806      2.00000
     34       5.5806      2.00000
     35       6.2852      2.00000
     36       6.2852      2.00000
     37       6.9869      2.00000
     38       6.9869      2.00000
     39       7.6321      2.00000
     40       7.6321      2.00000
     41       7.6321      2.00000
     42       7.6321      2.00000
     43       7.6948      2.00000
     44       7.6949      2.00000
     45       7.6975      2.00000
     46       7.6975      2.00000
     47       7.6976      2.00000
     48       7.6976      2.00000
     49       8.4051      0.00000
     50       8.4051      0.00000
     51       8.4051      0.00000
     52       8.4051      0.00000
     53       9.1129      0.00000
     54       9.1129      0.00000
     55       9.2250      0.00000
     56       9.2250      0.00000
     57       9.2250      0.00000
     58       9.2250      0.00000
     59       9.2803      0.00000
     60      10.0013      0.00000
     61      10.0013      0.00000
     62      10.0013      0.00000
     63      10.0013      0.00000
     64      10.8447      0.00000
     65      10.8447      0.00000
     66      11.2379      0.00000
     67      11.2379      0.00000
     68      11.2408      0.00000
     69      11.2408      0.00000
     70      11.2414      0.00000
     71      11.2414      0.00000
     72      11.5879      0.00000

 k-point   4 :       0.5000    0.0000    0.0000
  band No.  band energies     occupation 
      1      -2.4390      2.00000
      2      -2.4360      2.00000
      3      -0.1541      2.00000
      4      -0.1509      2.00000
      5      -0.1509      2.00000
      6      -0.1501      2.00000
      7      -0.1500      2.00000
      8      -0.1492      2.00000
      9      -0.1492      2.00000
     10      -0.1460      2.00000
     11       2.0905      2.00000
     12       2.0928      2.00000
     13       2.0979      2.00000
     14       2.0983      2.00000
     15       2.0983      2.00000
     16       2.0991      2.00000
     17       2.1001      2.00000
     18       2.1009      2.00000
     19       2.1009      2.00000
     20       2.1033      2.00000
     21       4.3010      2.00000
     22       4.3010      2.00000
     23       4.3012      2.00000
     24       4.3017      2.00000
     25       4.3020      2.00000
     26       4.3025      2.00000
     27       4.3027      2.00000
     28       4.3027      2.00000
     29       5.8724      2.00000
     30       5.8724      2.00000
     31       5.8756      2.00000
     32       5.8756      2.00000
     33       6.5113      2.00000
     34       6.5113      2.00000
     35       6.5117      2.00000
     36       6.5122      2.00000
     37       6.5124      2.00000
     38       6.5129      2.00000
     39       6.5133      2.00000
     40       6.5133      2.00000
     41       7.2860      2.00000
     42       7.2871      2.00000
     43       7.2889      2.00000
     44       7.2900      2.00000
     45       7.9898      2.00000
     46       7.9898      2.00000
     47       7.9908      2.00000
     48       7.9922      2.00000
     49       7.9923      2.00000
     50       7.9938      2.00000
     51       7.9947      2.00000
     52       7.9947      2.00000
     53       9.5618      0.00000
     54       9.5627      0.00000
     55       9.5627      0.00000
     56       9.5629      0.00000
     57       9.5652      0.00000
     58       9.5653      0.00000
     59       9.5653      0.00000
     60       9.5663      0.00000
     61      10.1155      0.00000
     62      10.1155      0.00000
     63      10.1178      0.00000
     64      10.1178      0.00000
     65      10.9894      0.00000
     66      10.9906      0.00000
     67      11.7757      0.00000
     68      11.7761      0.00000
     69      11.7775      0.00000
     70      11.7779      0.00000
     71      12.2449      0.00000
     72      12.2467      0.00000

 k-point   5 :       0.0000    0.1667    0.0000
  band No.  band energies     occupation 
      1      -2.9511      2.00000
      2      -1.4161      2.00000
      3      -0.6581      2.00000
      4      -0.6551      2.00000
      5      -0.6551      2.00000
      6      -0.6521      2.00000
      7       0.1012      2.00000
      8       0.8515      2.00000
      9       0.8545      2.00000
     10       0.8545      2.00000
     11       0.8575      2.00000
     12       1.6008      2.00000
     13       1.6018      2.00000
     14       1.6041      2.00000
     15       1.6051      2.00000
     16       2.3436      2.00000
     17       2.3467      2.00000
     18       2.3467      2.00000
     19       2.3497      2.00000
     20       3.0792      2.00000
     21       3.0802      2.00000
     22       3.0826      2.00000
     23       3.0835      2.00000
     24       4.4738      2.00000
     25       4.5843      2.00000
     26       4.5853      2.00000
     27       4.5877      2.00000
     28       4.5887      2.00000
     29       5.4046      2.00000
     30       5.4046      2.00000
     31       6.6158      2.00000
     32       6.6190      2.00000
     33       6.6190      2.00000
     34       6.6222      2.00000
     35       6.8033      2.00000
     36       6.8035      2.00000
     37       6.8143      2.00000
     38       6.8145      2.00000
     39       7.5179      2.00000
     40       7.5207      2.00000
     41       7.5208      2.00000
     42       7.5235      2.00000
     43       7.7246      2.00000
     44       8.1646      2.00000
     45       8.1646      2.00000
     46       8.2279      2.00000
     47       8.2279      2.00000
     48       8.7993      0.00000
     49       8.8007      0.00000
     50       8.8031      0.00000
     51       8.8045      0.00000
     52       8.9005      0.00000
     53       8.9032      0.00000
     54       8.9032      0.00000
     55       8.9058      0.00000
     56       8.9334      0.00000
     57       8.9362      0.00000
     58       8.9363      0.00000
     59       8.9391      0.00000
     60      10.0499      0.00000
     61      10.0499      0.00000
     62      10.2130      0.00000
     63      10.2147      0.00000
     64      10.2148      0.00000
     65      10.2165      0.00000
     66      10.3511      0.00000
     67      10.3540      0.00000
     68      10.3540      0.00000
     69      10.3569      0.00000
     70      10.5465      0.00000
     71      10.5487      0.00000
     72      10.5500      0.00000

 k-point   6 :       0.1667    0.1667    0.0000
  band No.  band energies     occupation 
      1      -2.8868      2.00000
      2      -1.3537      2.00000
      3      -1.3513      2.00000
      4      -0.5919      2.00000
      5      -0.5919      2.00000
      6       0.1624      2.00000
      7       0.1644      2.00000
      8       0.1662      2.00000
      9       0.9154      2.00000
     10       0.9163      2.00000
     11       0.9178      2.00000
     12       0.9188      2.00000
     13       1.6642      2.00000
     14       1.6652      2.00000
     15       2.4060      2.00000
     16       2.4072      2.00000
     17       2.4085      2.00000
     18       2.4085      2.00000
     19       2.4098      2.00000
     20       2.4110      2.00000
     21       3.1474      2.00000
     22       3.7429      2.00000
     23       3.7429      2.00000
     24       4.0502      2.00000
     25       4.0502      2.00000
     26       4.5336      2.00000
     27       4.5345      2.00000
     28       5.3718      2.00000
     29       5.3718      2.00000
     30       5.4632      2.00000
     31       5.9696      2.00000
     32       5.9721      2.00000
     33       6.5562      2.00000
     34       6.5562      2.00000
     35       6.8317      2.00000
     36       6.8317      2.00000
     37       6.8645      2.00000
     38       6.8718      2.00000
     39       6.8746      2.00000
     40       7.3493      2.00000
     41       7.3513      2.00000
     42       7.7837      2.00000
     43       7.7847      2.00000
     44       8.1446      2.00000
     45       8.1456      2.00000
     46       8.1471      2.00000
     47       8.1481      2.00000
     48       8.2847      2.00000
     49       8.2870      1.99998
     50       8.2893      1.99993
     51       8.4043      0.00000
     52       8.4059      0.00000
     53       9.0170      0.00000
     54       9.0197      0.00000
     55       9.5732      0.00000
     56       9.5743      0.00000
     57       9.5746      0.00000
     58       9.5756      0.00000
     59       9.6071      0.00000
     60       9.6073      0.00000
     61       9.7030      0.00000
     62       9.7049      0.00000
     63       9.8897      0.00000
     64      10.2099      0.00000
     65      10.2106      0.00000
     66      10.4917      0.00000
     67      10.4917      0.00000
     68      10.8549      0.00000
     69      10.8572      0.00000
     70      11.1224      0.00000
     71      11.3133      0.00000
     72      11.3135      0.00000

 k-point   7 :       0.3333    0.1667    0.0000
  band No.  band energies     occupation 
      1      -2.6941      2.00000
      2      -1.9258      2.00000
      3      -1.1619      2.00000
      4      -0.4037      2.00000
      5      -0.4023      2.00000
      6      -0.4008      2.00000
      7       0.3514      2.00000
      8       0.3532      2.00000
      9       0.3543      2.00000
     10       1.1011      2.00000
     11       1.1040      2.00000
     12       1.1046      2.00000
     13       1.1057      2.00000
     14       1.8518      2.00000
     15       1.8518      2.00000
     16       2.5918      2.00000
     17       2.5935      2.00000
     18       2.5938      2.00000
     19       3.3111      2.00000
     20       3.3252      2.00000
     21       3.3254      2.00000
     22       3.3302      2.00000
     23       3.3306      2.00000
     24       4.0632      2.00000
     25       4.7146      2.00000
     26       4.7715      2.00000
     27       4.8293      2.00000
     28       4.8293      2.00000
     29       5.4345      2.00000
     30       5.4867      2.00000
     31       5.4868      2.00000
     32       5.6392      2.00000
     33       6.2026      2.00000
     34       6.2776      2.00000
     35       6.2777      2.00000
     36       6.3440      2.00000
     37       6.8979      2.00000
     38       6.8979      2.00000
     39       6.9716      2.00000
     40       6.9717      2.00000
     41       7.0457      2.00000
     42       7.0498      2.00000
     43       7.6092      2.00000
     44       7.6092      2.00000
     45       7.6794      2.00000
     46       7.7565      2.00000
     47       7.9616      2.00000
     48       8.4101      0.00000
     49       8.4102      0.00000
     50       8.4474      0.00000
     51       8.4640      0.00000
     52       8.6026      0.00000
     53       8.6366      0.00000
     54       9.1705      0.00000
     55       9.1738      0.00000
     56       9.3375      0.00000
     57       9.3433      0.00000
     58       9.8720      0.00000
     59      10.1127      0.00000
     60      10.1127      0.00000
     61      10.4613      0.00000
     62      10.4621      0.00000
     63      10.4633      0.00000
     64      10.5905      0.00000
     65      10.7636      0.00000
     66      10.9043      0.00000
     67      10.9043      0.00000
     68      10.9237      0.00000
     69      11.0661      0.00000
     70      11.2978      0.00000
     71      11.6745      0.00000
     72      11.6882      0.00000

 k-point   8 :       0.5000    0.1667    0.0000
  band No.  band energies     occupation 
      1      -2.3749      2.00000
      2      -2.3720      2.00000
      3      -0.8463      2.00000
      4      -0.8434      2.00000
      5      -0.0891      2.00000
      6      -0.0879      2.00000
      7      -0.0862      2.00000
      8      -0.0850      2.00000
      9       0.6647      2.00000
     10       0.6676      2.00000
     11       1.4144      2.00000
     12       1.4156      2.00000
     13       1.4174      2.00000
     14       1.4186      2.00000
     15       2.1540      2.00000
     16       2.1553      2.00000
     17       2.8987      2.00000
     18       2.8999      2.00000
     19       2.9016      2.00000
     20       2.9029      2.00000
     21       3.6308      2.00000
     22       3.6321      2.00000
     23       4.3606      2.00000
     24       4.3610      2.00000
     25       4.3618      2.00000
     26       4.3623      2.00000
     27       5.0136      2.00000
     28       5.0166      2.00000
     29       5.0864      2.00000
     30       5.0876      2.00000
     31       5.8478      2.00000
     32       5.8480      2.00000
     33       5.8492      2.00000
     34       5.8493      2.00000
     35       5.9312      2.00000
     36       5.9343      2.00000
     37       7.1896      2.00000
     38       7.1908      2.00000
     39       7.1927      2.00000
     40       7.1939      2.00000
     41       7.2940      2.00000
     42       7.2943      2.00000
     43       7.2954      2.00000
     44       7.2957      2.00000
     45       7.3368      2.00000
     46       7.3397      2.00000
     47       7.3426      2.00000
     48       7.3458      2.00000
     49       8.2503      2.00000
     50       8.2533      2.00000
     51       8.7574      0.00000
     52       8.7607      0.00000
     53       8.9121      0.00000
     54       8.9150      0.00000
     55       9.3693      0.00000
     56       9.3711      0.00000
     57      10.1747      0.00000
     58      10.1770      0.00000
     59      10.3070      0.00000
     60      10.3102      0.00000
     61      10.4669      0.00000
     62      10.4677      0.00000
     63      10.4700      0.00000
     64      10.4708      0.00000
     65      11.0425      0.00000
     66      11.0437      0.00000
     67      11.4600      0.00000
     68      11.4601      0.00000
     69      11.4619      0.00000
     70      11.4620      0.00000
     71      11.5948      0.00000
     72      11.5971      0.00000

 k-point   9 :       0.0000    0.3333    0.0000
  band No.  band energies     occupation 
      1      -2.7583      2.00000
      2      -1.9897      2.00000
      3      -0.4685      2.00000
      4      -0.4655      2.00000
      5      -0.4655      2.00000
      6      -0.4625      2.00000
      7       0.2874      2.00000
      8       0.2904      2.00000
      9       0.2904      2.00000
     10       0.2934      2.00000
     11       1.0398      2.00000
     12       1.7873      2.00000
     13       1.7883      2.00000
     14       1.7907      2.00000
     15       1.7916      2.00000
     16       2.5296      2.00000
     17       2.5306      2.00000
     18       2.5330      2.00000
     19       2.5340      2.00000
     20       3.2500      2.00000
     21       3.2659      2.00000
     22       3.2689      2.00000
     23       3.2689      2.00000
     24       3.2720      2.00000
     25       5.4297      2.00000
     26       5.4329      2.00000
     27       5.4329      2.00000
     28       5.4360      2.00000
     29       5.4894      2.00000
     30       5.4904      2.00000
     31       5.4929      2.00000
     32       5.4939      2.00000
     33       5.5806      2.00000
     34       5.5806      2.00000
     35       6.2852      2.00000
     36       6.2852      2.00000
     37       6.9869      2.00000
     38       6.9869      2.00000
     39       7.6298      2.00000
     40       7.6309      2.00000
     41       7.6334      2.00000
     42       7.6345      2.00000
     43       7.6940      2.00000
     44       7.6947      2.00000
     45       7.6948      2.00000
     46       7.6975      2.00000
     47       7.6984      2.00000
     48       7.7003      2.00000
     49       8.4023      0.00000
     50       8.4051      0.00000
     51       8.4051      0.00000
     52       8.4079      0.00000
     53       9.1128      0.00000
     54       9.1129      0.00000
     55       9.2226      0.00000
     56       9.2250      0.00000
     57       9.2250      0.00000
     58       9.2274      0.00000
     59       9.2803      0.00000
     60       9.9990      0.00000
     61      10.0013      0.00000
     62      10.0013      0.00000
     63      10.0037      0.00000
     64      10.8446      0.00000
     65      10.8447      0.00000
     66      11.2377      0.00000
     67      11.2385      0.00000
     68      11.2386      0.00000
     69      11.2408      0.00000
     70      11.2408      0.00000
     71      11.2437      0.00000
     72      11.5884      0.00000

 k-point  10 :       0.1667    0.3333    0.0000
  band No.  band energies     occupation 
      1      -2.6941      2.00000
      2      -1.9258      2.00000
      3      -1.1619      2.00000
      4      -0.4037      2.00000
      5      -0.4023      2.00000
      6      -0.4009      2.00000
      7       0.3514      2.00000
      8       0.3532      2.00000
      9       0.3543      2.00000
     10       1.1013      2.00000
     11       1.1034      2.00000
     12       1.1046      2.00000
     13       1.1061      2.00000
     14       1.8518      2.00000
     15       1.8518      2.00000
     16       2.5912      2.00000
     17       2.5935      2.00000
     18       2.5944      2.00000
     19       3.3111      2.00000
     20       3.3256      2.00000
     21       3.3256      2.00000
     22       3.3301      2.00000
     23       3.3302      2.00000
     24       4.0631      2.00000
     25       4.7146      2.00000
     26       4.7715      2.00000
     27       4.8293      2.00000
     28       4.8293      2.00000
     29       5.4344      2.00000
     30       5.4868      2.00000
     31       5.4868      2.00000
     32       5.6392      2.00000
     33       6.2026      2.00000
     34       6.2776      2.00000
     35       6.2777      2.00000
     36       6.3439      2.00000
     37       6.8979      2.00000
     38       6.8979      2.00000
     39       6.9716      2.00000
     40       6.9716      2.00000
     41       7.0457      2.00000
     42       7.0498      2.00000
     43       7.6092      2.00000
     44       7.6092      2.00000
     45       7.6794      2.00000
     46       7.7565      2.00000
     47       7.9617      2.00000
     48       8.4102      0.00000
     49       8.4102      0.00000
     50       8.4474      0.00000
     51       8.4639      0.00000
     52       8.6026      0.00000
     53       8.6367      0.00000
     54       9.1713      0.00000
     55       9.1730      0.00000
     56       9.3375      0.00000
     57       9.3432      0.00000
     58       9.8720      0.00000
     59      10.1127      0.00000
     60      10.1127      0.00000
     61      10.4620      0.00000
     62      10.4621      0.00000
     63      10.4625      0.00000
     64      10.5906      0.00000
     65      10.7636      0.00000
     66      10.9043      0.00000
     67      10.9043      0.00000
     68      10.9237      0.00000
     69      11.0661      0.00000
     70      11.2978      0.00000
     71      11.6745      0.00000
     72      11.6838      0.00000

 k-point  11 :       0.3333    0.3333    0.0000
  band No.  band energies     occupation 
      1      -2.5016      2.00000
[...]
      6      -0.2759      2.00000
      7      -0.2759      2.00000
      8      -0.2759      2.00000
      9       1.2288      2.00000
     10       1.2288      2.00000
     11       1.2288      2.00000
     12       1.2288      2.00000
     13       2.7104      2.00000
     14       2.7104      2.00000
     15       2.7104      2.00000
     16       2.7104      2.00000
     17       2.7104      2.00000
     18       2.7104      2.00000
     19       2.7104      2.00000
     20       2.7104      2.00000
     21       4.1716      2.00000
     22       4.1716      2.00000
     23       4.1719      2.00000
     24       4.1719      2.00000
     25       4.1719      2.00000
     26       4.1719      2.00000
     27       4.1722      2.00000
     28       4.1722      2.00000
     29       5.5469      2.00000
     30       5.5469      2.00000
     31       5.5469      2.00000
     32       5.5469      2.00000
     33       5.6731      2.00000
     34       5.6731      2.00000
     35       5.6736      2.00000
     36       5.6736      2.00000
     37       5.6736      2.00000
     38       5.6736      2.00000
     39       5.6741      2.00000
     40       5.6741      2.00000
     41       7.0742      2.00000
     42       7.0742      2.00000
     43       7.0742      2.00000
     44       7.0742      2.00000
     45       8.5415      0.00000
     46       8.5415      0.00000
     47       8.5415      0.00000
     48       8.5416      0.00000
     49       8.8943      0.00000
     50       8.8944      0.00000
     51       8.8944      0.00000
     52       8.8944      0.00000
     53       9.8415      0.00000
     54       9.8415      0.00000
     55       9.8421      0.00000
     56       9.8421      0.00000
     57       9.8421      0.00000
     58       9.8422      0.00000
     59       9.8427      0.00000
     60       9.8427      0.00000
     61       9.9741      0.00000
     62       9.9741      0.00000
     63       9.9741      0.00000
     64       9.9741      0.00000
     65      11.5753      0.00000
     66      11.5753      0.00000
     67      11.5763      0.00000
     68      11.5763      0.00000
     69      11.5763      0.00000
     70      11.5763      0.00000
     71      11.5773      0.00000
     72      11.5773      0.00000

 k-point  39 :       0.3333    0.5000    0.5000
  band No.  band energies     occupation 
      1      -1.6070      2.00000
      2      -1.6070      2.00000
      3      -1.6070      2.00000
      4      -1.6070      2.00000
      5      -0.8448      2.00000
      6      -0.8448      2.00000
      7      -0.8448      2.00000
      8      -0.8448      2.00000
      9       2.1592      2.00000
     10       2.1592      2.00000
     11       2.1592      2.00000
     12       2.1593      2.00000
     13       2.8951      2.00000
     14       2.8951      2.00000
     15       2.8951      2.00000
     16       2.8951      2.00000
     17       2.8951      2.00000
     18       2.8951      2.00000
     19       2.8951      2.00000
     20       2.8951      2.00000
     21       3.6295      2.00000
     22       3.6295      2.00000
     23       3.6296      2.00000
     24       3.6296      2.00000
     25       3.6296      2.00000
     26       3.6296      2.00000
     27       3.6297      2.00000
     28       3.6297      2.00000
     29       4.3456      2.00000
     30       4.3456      2.00000
     31       4.3456      2.00000
     32       4.3456      2.00000
     33       6.5676      2.00000
     34       6.5676      2.00000
     35       6.5680      2.00000
     36       6.5680      2.00000
     37       6.5680      2.00000
     38       6.5680      2.00000
     39       6.5683      2.00000
     40       6.5683      2.00000
     41       7.2723      2.00000
     42       7.2723      2.00000
     43       7.2723      2.00000
     44       7.2724      2.00000
     45       8.0006      2.00000
     46       8.0006      2.00000
     47       8.0006      2.00000
     48       8.0006      2.00000
     49       8.6847      0.00000
     50       8.6847      0.00000
     51       8.6851      0.00000
     52       8.6851      0.00000
     53       8.6851      0.00000
     54       8.6852      0.00000
     55       8.6856      0.00000
     56       8.6856      0.00000
     57      10.4078      0.00000
     58      10.4078      0.00000
     59      10.4078      0.00000
     60      10.4078      0.00000
     61      10.8614      0.00000
     62      10.8614      0.00000
     63      10.8614      0.00000
     64      10.8615      0.00000
     65      11.7922      0.00000
     66      11.7922      0.00000
     67      11.7928      0.00000
     68      11.7929      0.00000
     69      11.7929      0.00000
     70      11.7929      0.00000
     71      11.7935      0.00000
     72      11.7935      0.00000

 k-point  40 :       0.5000    0.5000    0.5000
  band No.  band energies     occupation 
      1      -1.2939      2.00000
      2      -1.2894      2.00000
      3      -1.2894      2.00000
      4      -1.2889      2.00000
      5      -1.2889      2.00000
      6      -1.2884      2.00000
      7      -1.2884      2.00000
      8      -1.2840      2.00000
      9       3.1917      2.00000
     10       3.1978      2.00000
     11       3.1978      2.00000
     12       3.2011      2.00000
     13       3.2015      2.00000
     14       3.2016      2.00000
     15       3.2019      2.00000
     16       3.2019      2.00000
     17       3.2020      2.00000
     18       3.2020      2.00000
     19       3.2020      2.00000
     20       3.2020      2.00000
     21       3.2021      2.00000
     22       3.2021      2.00000
     23       3.2021      2.00000
     24       3.2021      2.00000
     25       3.2022      2.00000
     26       3.2022      2.00000
     27       3.2026      2.00000
     28       3.2026      2.00000
     29       3.2030      2.00000
     30       3.2063      2.00000
     31       3.2063      2.00000
     32       3.2124      2.00000
     33       7.5716      2.00000
     34       7.5716      2.00000
     35       7.5738      2.00000
     36       7.5755      2.00000
     37       7.5770      2.00000
     38       7.5774      2.00000
     39       7.5775      2.00000
     40       7.5775      2.00000
     41       7.5777      2.00000
     42       7.5778      2.00000
     43       7.5778      2.00000
     44       7.5778      2.00000
     45       7.5778      2.00000
     46       7.5779      2.00000
     47       7.5779      2.00000
     48       7.5779      2.00000
     49       7.5781      2.00000
     50       7.5781      2.00000
     51       7.5782      2.00000
     52       7.5786      2.00000
     53       7.5802      2.00000
     54       7.5819      2.00000
     55       7.5840      2.00000
     56       7.5840      2.00000
     57      11.8553      0.00000
     58      11.8556      0.00000
     59      11.8556      0.00000
     60      11.8560      0.00000
     61      11.8577      0.00000
     62      11.8582      0.00000
     63      11.8582      0.00000
     64      11.8586      0.00000
     65      12.0908      0.00000
     66      12.0917      0.00000
     67      12.0924      0.00000
     68      12.0930      0.00000
     69      12.0936      0.00000
     70      12.0938      0.00000
     71      12.0942      0.00000
     72      12.0950      0.00000


--------------------------------------------------------------------------------------------------------


 soft charge-density along one line, spin component           1
         0         1         2         3         4         5         6         7         8         9
 total charge-density along one line
 
 pseudopotential strength for first ion, spin component:           1
  8.433  -0.007  -0.000   0.000  -0.000  -0.000   0.000  -0.000
 -0.007   0.000  -0.000   0.000  -0.000   0.000  -0.000   0.000
 -0.000  -0.000   1.990  -0.000  -0.000  -0.028   0.000   0.000
  0.000   0.000  -0.000   1.990   0.000   0.000  -0.028  -0.000
 -0.000  -0.000  -0.000   0.000   1.990   0.000  -0.000  -0.028
 -0.000   0.000  -0.028   0.000   0.000  -0.012   0.000   0.000
  0.000  -0.000   0.000  -0.028  -0.000   0.000  -0.012  -0.000
 -0.000   0.000   0.000  -0.000  -0.028   0.000  -0.000  -0.012
 total augmentation occupancy for first ion, spin component:           1
  1.316  -0.516  -0.000   0.000   0.003   0.000  -0.000  -0.002
 -0.516   0.511  -0.000   0.000  -0.003   0.000  -0.000   0.001
 -0.000  -0.000   0.757   0.006   0.009  -0.157  -0.001  -0.001
  0.000   0.000   0.006   0.760   0.002  -0.001  -0.154  -0.001
  0.003  -0.003   0.009   0.002   0.759  -0.001  -0.001  -0.155
  0.000   0.000  -0.157  -0.001  -0.001   0.037   0.000   0.000
 -0.000  -0.000  -0.001  -0.154  -0.001   0.000   0.036   0.000
 -0.002   0.001  -0.001  -0.001  -0.155   0.000   0.000   0.037


------------------------ aborting loop because EDIFF is reached ----------------------------------------




--------------------------------------------------------------------------------------------------------


    CHARGE:  VPU time    0.70: CPU time    0.70
    FORLOC:  VPU time    0.03: CPU time    0.03
    FORNL :  VPU time    6.14: CPU time    6.14
    STRESS:  VPU time   12.96: CPU time   12.96
    FORCOR:  VPU time    0.15: CPU time    0.15
    FORHAR:  VPU time    0.05: CPU time    0.05
    MIXING:  VPU time    0.00: CPU time    0.00


--------------------------------------------------------------------------------------------------------



  FREE ENERGIE OF THE ION-ELECTRON SYSTEM (eV)
  ---------------------------------------------------
  free  energy   TOTEN  =      -119.636394 eV

  energy  without entropy=     -119.636071  energy(sigma->0) =     -119.636233
 

  FORCE on cell =-STRESS in cart. coord.  units (eV/reduce length):
  Direction    X        Y        Z        XY       YZ       ZX
  --------------------------------------------------------------------------------------
  Alpha Z     -6.73     -6.73     -6.73
  Ewald     -792.89   -792.88   -792.88      0.00      0.00     -0.00
  Hartree      1.16      1.16      1.16     -0.00     -0.00     -0.00
  E(xc)     -276.93   -276.93   -276.93      0.00      0.00      0.00
  Local       15.83     15.82     15.82     -0.00      0.00      0.00
  n-local    609.35    608.99    609.71     -1.30     -0.42      0.46
  augment    -32.43    -32.43    -32.43      0.00      0.00      0.00
  Kinetic    490.88    485.43    496.33      7.86      2.71     -2.44
  -------------------------------------------------------------------------------------
  Total        8.24      8.24      8.24     -0.00      0.00      0.00
  in kB       25.86     25.85     25.85     -0.00      0.00      0.00
  external pressure =       25.85 kB  Pullay stress =        0.00 kB


 VOLUME and BASIS-vectors are now :
 -----------------------------------------------------------------------------
  energy-cutoff  :      500.00
  volume of cell :      510.78
      direct lattice vectors                 reciprocal lattice vectors
     7.993655802  0.000000000  0.000000000     0.125099207  0.000000000  0.000000000
     0.000000000  7.993655802  0.000000000     0.000000000  0.125099207  0.000000000
     0.000000000  0.000000000  7.993655802     0.000000000  0.000000000  0.125099207

  length of vectors
     7.993655802  7.993655802  7.993655802     0.125099207  0.125099207  0.125099207


 FORCES acting on ions
    electron-ion (+dipol)            ewald-force                    non-local-force                 convergence-correction
 -----------------------------------------------------------------------------------------------
   0.403E+00 -.777E-13 -.128E-07   -.329E+00 -.266E-14 0.728E-15   -.126E+00 -.131E-19 0.943E-20   -.511E-06 0.161E-14 -.218E-13
   -.871E-01 0.232E-12 -.982E-13   0.870E-01 0.666E-14 0.266E-14   0.351E-02 0.412E-21 -.355E-21   0.215E-05 0.415E-14 -.282E-13
   0.278E-01 0.777E-13 -.261E-13   -.275E-01 0.933E-14 0.755E-14   -.467E-03 -.401E-20 -.561E-20   0.942E-06 -.227E-14 -.200E-13
   -.234E-01 -.349E-12 -.291E-13   0.216E-01 0.933E-14 0.755E-14   0.160E-02 -.182E-20 0.300E-20   -.243E-05 -.487E-14 -.245E-13
   0.278E-01 0.107E-13 -.734E-13   -.275E-01 0.711E-14 0.745E-14   -.467E-03 0.233E-19 0.433E-20   0.951E-06 -.903E-16 0.221E-13
   -.234E-01 -.606E-13 -.888E-14   0.216E-01 0.711E-14 0.745E-14   0.160E-02 -.377E-20 -.128E-19   -.243E-05 0.417E-15 0.286E-13
   0.108E-01 -.209E-13 -.360E-13   -.114E-01 0.888E-14 0.611E-14   0.773E-03 0.557E-20 0.239E-20   -.200E-05 -.551E-15 0.204E-13
   -.125E-01 0.134E-12 0.357E-12   0.106E-01 0.888E-14 0.611E-14   0.687E-03 -.551E-19 0.618E-20   0.179E-05 -.111E-14 0.248E-13
   0.502E-01 -.235E-03 0.235E-03   -.519E-01 0.204E-03 -.204E-03   0.161E-03 0.542E-04 -.542E-04   -.866E-06 -.113E-06 0.113E-06
   -.309E-01 0.771E-04 -.771E-04   0.292E-01 -.612E-04 0.612E-04   0.124E-02 -.146E-04 0.146E-04   0.227E-06 -.575E-07 0.575E-07
   0.502E-01 0.235E-03 0.235E-03   -.519E-01 -.204E-03 -.204E-03   0.161E-03 -.542E-04 -.542E-04   -.866E-06 0.113E-06 0.113E-06
   -.309E-01 -.771E-04 -.771E-04   0.292E-01 0.612E-04 0.612E-04   0.124E-02 0.146E-04 0.146E-04   0.227E-06 0.575E-07 0.575E-07
   0.502E-01 -.235E-03 -.235E-03   -.519E-01 0.204E-03 0.204E-03   0.161E-03 0.542E-04 0.542E-04   -.866E-06 -.113E-06 -.113E-06
   -.309E-01 0.771E-04 0.771E-04   0.292E-01 -.612E-04 -.612E-04   0.124E-02 -.146E-04 -.146E-04   0.227E-06 -.575E-07 -.575E-07
   0.502E-01 0.235E-03 -.235E-03   -.519E-01 -.204E-03 0.204E-03   0.161E-03 -.542E-04 0.542E-04   -.866E-06 0.113E-06 -.113E-06
   -.309E-01 -.771E-04 0.771E-04   0.292E-01 0.612E-04 -.612E-04   0.124E-02 0.146E-04 -.146E-04   0.227E-06 0.575E-07 -.575E-07
   -.497E-01 -.425E-15 0.867E-01   0.420E-01 -.133E-14 -.796E-01   0.147E-01 -.490E-20 -.150E-01   0.788E-07 0.102E-14 -.140E-05
   -.496E-01 -.312E-12 -.875E-01   0.418E-01 -.355E-14 0.803E-01   0.150E-01 0.494E-20 0.154E-01   0.124E-07 0.196E-15 0.160E-05
   -.416E-03 -.128E-13 0.738E-02   0.140E-02 -.400E-14 -.659E-02   -.664E-03 0.902E-20 -.591E-03   0.565E-06 -.173E-14 0.182E-05
   -.310E-03 -.510E-13 -.738E-02   0.127E-02 -.355E-14 0.660E-02   -.635E-03 0.282E-20 0.582E-03   0.380E-06 -.934E-15 -.175E-05
   -.497E-01 -.122E-14 -.867E-01   0.420E-01 -.133E-14 0.796E-01   0.147E-01 -.776E-20 0.150E-01   0.788E-07 0.245E-14 0.140E-05
   -.496E-01 0.791E-13 0.875E-01   0.418E-01 -.178E-14 -.803E-01   0.150E-01 -.153E-19 -.154E-01   0.124E-07 0.242E-14 -.160E-05
   -.416E-03 -.155E-13 -.738E-02   0.140E-02 -.400E-14 0.659E-02   -.664E-03 0.659E-20 0.591E-03   0.565E-06 -.316E-14 -.182E-05
   -.310E-03 0.132E-12 0.738E-02   0.127E-02 -.355E-14 -.660E-02   -.635E-03 -.276E-20 -.582E-03   0.380E-06 -.312E-14 0.175E-05
   -.497E-01 -.867E-01 0.475E-14   0.420E-01 0.796E-01 -.781E-14   0.147E-01 0.150E-01 -.687E-20   0.798E-07 0.139E-05 -.236E-13
   -.496E-01 0.875E-01 0.310E-13   0.418E-01 -.803E-01 -.737E-14   0.150E-01 -.154E-01 -.125E-19   0.133E-07 -.160E-05 -.218E-13
   -.497E-01 0.867E-01 -.291E-15   0.420E-01 -.796E-01 -.782E-14   0.147E-01 -.150E-01 0.738E-20   0.798E-07 -.139E-05 -.250E-13
   -.496E-01 -.875E-01 0.384E-13   0.418E-01 0.803E-01 -.738E-14   0.150E-01 0.154E-01 0.106E-19   0.133E-07 0.160E-05 -.240E-13
   -.416E-03 -.738E-02 -.655E-14   0.140E-02 0.659E-02 -.283E-14   -.664E-03 0.591E-03 -.566E-20   0.564E-06 -.182E-05 0.239E-13
   -.310E-03 0.738E-02 -.102E-12   0.127E-02 -.660E-02 -.684E-14   -.635E-03 -.582E-03 -.131E-19   0.379E-06 0.176E-05 0.222E-13
   -.416E-03 0.738E-02 -.302E-14   0.140E-02 -.659E-02 -.684E-14   -.664E-03 -.591E-03 -.514E-20   0.564E-06 0.182E-05 0.253E-13
   -.310E-03 -.738E-02 0.101E-12   0.127E-02 0.660E-02 -.684E-14   -.635E-03 0.582E-03 0.989E-21   0.379E-06 -.176E-05 0.244E-13
 -----------------------------------------------------------------------------------------------
   -.131E-05 0.211E-12 -.128E-07   0.675E-15 -.133E-13 -.112E-13   -.457E-05 0.347E-17 -.783E-18   0.534E-07 0.588E-16 -.184E-16
 
 
 POSITION                                       TOTAL-FORCE (eV/Angst)
 -----------------------------------------------------------------------------------
      2.00841      1.99841      0.00000        -0.053045      0.000000      0.000000
      5.99524      1.99841      0.00000         0.003400      0.000000     -0.000000
      1.99841      5.99524      0.00000        -0.000165      0.000000      0.000000
      5.99524      5.99524      0.00000        -0.000226      0.000000     -0.000000
      1.99841      1.99841      3.99683        -0.000165      0.000000      0.000000
      5.99524      1.99841      3.99683        -0.000226      0.000000      0.000000
      1.99841      5.99524      3.99683         0.000209     -0.000000      0.000000
      5.99524      5.99524      3.99683        -0.001227     -0.000000      0.000000
      1.99841      0.00000      1.99841        -0.001532      0.000023     -0.000023
      5.99524      0.00000      1.99841        -0.000431      0.000001     -0.000001
      1.99841      3.99683      1.99841        -0.001532     -0.000023     -0.000023
      5.99524      3.99683      1.99841        -0.000431     -0.000001     -0.000001
      1.99841      0.00000      5.99524        -0.001532      0.000023      0.000023
      5.99524      0.00000      5.99524        -0.000431      0.000001      0.000001
      1.99841      3.99683      5.99524        -0.001532     -0.000023      0.000023
      5.99524      3.99683      5.99524        -0.000431     -0.000001      0.000001
      0.00000      1.99841      1.99841         0.007002      0.000000     -0.007940
      3.99683      1.99841      1.99841         0.007171     -0.000000      0.008176
      0.00000      5.99524      1.99841         0.000324     -0.000000      0.000197
      3.99683      5.99524      1.99841         0.000326     -0.000000     -0.000197
      0.00000      1.99841      5.99524         0.007002     -0.000000      0.007940
      3.99683      1.99841      5.99524         0.007171      0.000000     -0.008176
      0.00000      5.99524      5.99524         0.000324      0.000000     -0.000197
      3.99683      5.99524      5.99524         0.000326     -0.000000      0.000197
      0.00000      0.00000      0.00000         0.007002      0.007940     -0.000000
      3.99683      0.00000      0.00000         0.007171     -0.008176     -0.000000
      0.00000      3.99683      0.00000         0.007002     -0.007940     -0.000000
      3.99683      3.99683      0.00000         0.007171      0.008176     -0.000000
      0.00000      0.00000      3.99683         0.000324     -0.000197     -0.000000
      3.99683      0.00000      3.99683         0.000326      0.000197     -0.000000
      0.00000      3.99683      3.99683         0.000324      0.000197      0.000000
      3.99683      3.99683      3.99683         0.000326     -0.000197      0.000000
 -----------------------------------------------------------------------------------
    total drift:                               -0.000006      0.000000     -0.000000


--------------------------------------------------------------------------------------------------------



 mean value of Nose-termostat <S>:     1.000 mean value of <T> :     0.000
 mean temperature <T/S>/<1/S>  :     0.000

     LOOP+:  VPU time  296.35: CPU time  296.75
  
  
 General timing and accounting informations for this job:
 ========================================================
  
                  Total CPU time used (sec):      305.639
                            User time (sec):      266.915
                          System time (sec):       38.723
                         Elapsed time (sec):      306.041
  
                   Maximum memory used (kb):      924372.
                   Average memory used (kb):           0.
  
                          Minor page faults:       213168
                          Major page faults:            0
                 Voluntary context switches:          899
