<?xml version="1.0" encoding="ISO-8859-1"?>
<modeling>
 <generator>
  <i name="program" type="string">vasp</i>
  <i name="version" type="string">4.6.28 </i>
  <i name="subversion" type="string">25Jul05 complex  parallel</i>
  <i name="platform" type="string">LinuxIFC</i>
  <i name="date" type="string">2016 10 19</i>
  <i name="time" type="string">12:29:28</i>
 </generator>
 <incar>
  <i type="string" name="PREC">accurate</i>
  <i type="int" name="IALGO">    38</i>
  <i name="EDIFF">      0.00000001</i>
  <i type="int" name="IBRION">    -1</i>
  <i name="ENCUT">    500.00000000</i>
  <i type="logical" name="LREAL"> F  </i>
  <i type="int" name="ISMEAR">     0</i>
  <i name="SIGMA">      0.01000000</i>
  <i type="logical" name="LWAVE"> F  </i>
  <i type="logical" name="LCHARG"> F  </i>
 </incar>
 <kpoints>
  <generation param="Auto">
   <i name="subdivisionlength">     50.00000000</i>
   <v type="int" name="divisions">       6       6       6</v>
   <v name="usershift">      0.00000000      0.00000000      0.00000000</v>
   <v name="genvec1">      0.16666667      0.00000000      0.00000000</v>
   <v name="genvec2">      0.00000000      0.16666667      0.00000000</v>
   <v name="genvec3">      0.00000000      0.00000000      0.16666667</v>
   <v name="shift">      0.00000000      0.00000000      0.00000000</v>
  </generation>
  <varray name="kpointlist" >
   <v>       0.00000000      0.00000000      0.00000000</v>
   <v>       0.16666667      0.00000000      0.00000000</v>
   <v>       0.33333333      0.00000000      0.00000000</v>
   <v>       0.50000000      0.00000000      0.00000000</v>
   <v>       0.00000000      0.16666667      0.00000000</v>
   <v>       0.16666667      0.16666667      0.00000000</v>
   <v>       0.33333333      0.16666667      0.00000000</v>
   <v>       0.50000000      0.16666667      0.00000000</v>
   <v>       0.00000000      0.33333333      0.00000000</v>
   <v>       0.16666667      0.33333333      0.00000000</v>
   <v>       0.33333333      0.33333333      0.00000000</v>
   <v>       0.50000000      0.33333333      0.00000000</v>
   <v>       0.00000000      0.50000000      0.00000000</v>
   <v>       0.16666667      0.50000000      0.00000000</v>
   <v>       0.33333333      0.50000000      0.00000000</v>
   <v>       0.50000000      0.50000000      0.00000000</v>
   <v>       0.00000000      0.16666667      0.16666667</v>
   <v>       0.16666667      0.16666667      0.16666667</v>
   <v>       0.33333333      0.16666667      0.16666667</v>
   <v>       0.50000000      0.16666667      0.16666667</v>
   <v>       0.00000000      0.33333333      0.16666667</v>
   <v>       0.16666667      0.33333333      0.16666667</v>
   <v>       0.33333333      0.33333333      0.16666667</v>
   <v>       0.50000000      0.33333333      0.16666667</v>
   <v>       0.00000000      0.50000000      0.16666667</v>
   <v>       0.16666667      0.50000000      0.16666667</v>
   <v>       0.33333333      0.50000000      0.16666667</v>
   <v>       0.50000000      0.50000000      0.16666667</v>
   <v>       0.00000000      0.33333333      0.33333333</v>
   <v>       0.16666667      0.33333333      0.33333333</v>
   <v>       0.33333333      0.33333333      0.33333333</v>
   <v>       0.50000000      0.33333333      0.33333333</v>
   <v>       0.00000000      0.50000000      0.33333333</v>
   <v>       0.16666667      0.50000000      0.33333333</v>
   <v>       0.33333333      0.50000000      0.33333333</v>
   <v>       0.50000000      0.50000000      0.33333333</v>
   <v>       0.00000000      0.50000000      0.50000000</v>
   <v>       0.16666667      0.50000000      0.50000000</v>
   <v>       0.33333333      0.50000000      0.50000000</v>
   <v>       0.50000000      0.50000000      0.50000000</v>
  </varray>
  <varray name="weights" >
   <v>       0.00462963</v>
   <v>       0.00925926</v>
   <v>       0.00925926</v>
   <v>       0.00462963</v>
   <v>       0.01851852</v>
   <v>       0.03703704</v>
   <v>       0.03703704</v>
   <v>       0.01851852</v>
   <v>       0.01851852</v>
   <v>       0.03703704</v>
   <v>       0.03703704</v>
   <v>       0.01851852</v>
   <v>       0.00925926</v>
   <v>       0.01851852</v>
   <v>       0.01851852</v>
   <v>       0.00925926</v>
   <v>       0.01851852</v>
   <v>       0.03703704</v>
   <v>       0.03703704</v>
   <v>       0.01851852</v>
   <v>       0.03703704</v>
   <v>       0.07407407</v>
   <v>       0.07407407</v>
   <v>       0.03703704</v>
   <v>       0.01851852</v>
   <v>       0.03703704</v>
   <v>       0.03703704</v>
   <v>       0.01851852</v>
   <v>       0.01851852</v>
   <v>       0.03703704</v>
   <v>       0.03703704</v>
   <v>       0.01851852</v>
   <v>       0.01851852</v>
   <v>       0.03703704</v>
   <v>       0.03703704</v>
   <v>       0.01851852</v>
   <v>       0.00462963</v>
   <v>       0.00925926</v>
   <v>       0.00925926</v>
   <v>       0.00462963</v>
  </varray>
 </kpoints>
 <parameters>
  <separator name="general" >
   <i type="string" name="SYSTEM">unknown system</i>
   <i type="logical" name="LCOMPAT"> F  </i>
  </separator>
  <separator name="electronic" >
   <i type="string" name="PREC">accura</i>
   <i name="ENMAX">    500.00000000</i>
   <i name="ENAUG">    291.05200000</i>
   <i name="EDIFF">      0.00000001</i>
   <i type="int" name="IALGO">    38</i>
   <i type="int" name="IWAVPR">    10</i>
   <i type="int" name="NBANDS">    65</i>
   <i name="NELECT">     96.00000000</i>
   <separator name="electronic smearing" >
    <i type="int" name="ISMEAR">     0</i>
    <i name="SIGMA">      0.01000000</i>
   </separator>
   <separator name="electronic projectors" >
    <i type="logical" name="LREAL"> F  </i>
    <v name="ROPT">      0.00000000</v>
    <i type="int" name="LMAXPAW">  -100</i>
    <i type="int" name="LMAXMIX">     2</i>
   </separator>
   <separator name="electronic startup" >
    <i type="int" name="ISTART">     0</i>
    <i type="int" name="ICHARG">     2</i>
    <i type="int" name="INIWAV">     1</i>
   </separator>
   <separator name="electronic spin" >
    <i type="int" name="ISPIN">     1</i>
    <i type="logical" name="LNONCOLLINEAR"> F  </i>
    <v name="MAGMOM">      1.00000000      1.00000000      1.00000000      1.00000000      1.00000000      1.00000000      1.00000000      1.00000000      1.00000000      1.00000000      1.00000000      1.00000000      1.00000000      1.00000000      1.00000000      1.00000000      1.00000000      1.00000000      1.00000000      1.00000000
      1.00000000      1.00000000      1.00000000      1.00000000      1.00000000      1.00000000      1.00000000      1.00000000      1.00000000      1.00000000      1.00000000      1.00000000</v>
    <i name="NUPDOWN">     -1.00000000</i>
    <i type="logical" name="LSORBIT"> F  </i>
    <v name="SAXIS">      0.00000000      0.00000000      1.00000000</v>
    <i type="logical" name="LSPIRAL"> F  </i>
    <v name="QSPIRAL">      0.00000000      0.00000000      0.00000000</v>
    <i type="logical" name="LZEROZ"> F  </i>
   </separator>
   <separator name="electronic exchange-correlation" >
    <i type="string" name="GGA">--</i>
    <i type="int" name="VOSKOWN">     0</i>
    <i type="logical" name="LASPH"> F  </i>
    <i type="logical" name="LMETAGGA"> F  </i>
    <i type="string" name="GGA2">--</i>
   </separator>
   <separator name="electronic convergence" >
    <i type="int" name="NELM">    60</i>
    <i type="int" name="NELMDL">     0</i>
    <i type="int" name="NELMIN">     2</i>
    <i name="ENINI">    500.00000000</i>
    <separator name="electronic convergence detail" >
     <i type="logical" name="LDIAG"> T  </i>
     <i name="WEIMIN">      0.00000000</i>
     <i name="EBREAK">      0.00000000</i>
     <i name="DEPER">      0.30000000</i>
     <i type="int" name="NRMM">     4</i>
     <i name="TIME">      0.10000000</i>
    </separator>
   </separator>
   <separator name="electronic mixer" >
    <i name="AMIX">      0.40000000</i>
    <i name="BMIX">      1.00000000</i>
    <i name="AMIN">      0.10000000</i>
    <i name="AMIX_MAG">      1.60000000</i>
    <i name="BMIX_MAG">      1.00000000</i>
    <separator name="electronic mixer details" >
     <i type="int" name="IMIX">     4</i>
     <i type="int" name="MAXMIX">   -45</i>
     <i name="WC">    100.00000000</i>
     <i type="int" name="INIMIX">     1</i>
     <i type="int" name="MIXPRE">     1</i>
     <i type="int" name="MREMOVE">     5</i>
    </separator>
   </separator>
   <separator name="electronic dipolcorrection" >
    <i type="int" name="IDIPOL">     0</i>
    <i type="logical" name="LDIPOL"> F  </i>
    <v name="DIPOL">   -100.00000000</v>
    <i name="EFIELD">      0.00000000</i>
   </separator>
  </separator>
  <separator name="grids" >
   <i type="int" name="NGX">    60</i>
   <i type="int" name="NGY">    60</i>
   <i type="int" name="NGZ">    60</i>
   <i type="int" name="NGXF">   120</i>
   <i type="int" name="NGYF">   120</i>
   <i type="int" name="NGZF">   120</i>
   <i type="logical" name="ADDGRID"> F  </i>
  </separator>
  <separator name="ionic" >
   <i type="int" name="NSW">     0</i>
   <i type="int" name="IBRION">    -1</i>
   <i type="int" name="ISIF">     2</i>
   <i name="PSTRESS">      0.00000000</i>
   <i name="EDIFFG">      0.00000010</i>
   <i type="int" name="NFREE">     0</i>
   <i name="POTIM">      0.50000000</i>
   <i name="SMASS">     -3.00000000</i>
  </separator>
  <separator name="ionic md" >
   <i name="TEBEG">      0.00010000</i>
   <i name="TEEND">      0.00010000</i>
   <i type="int" name="NBLOCK">     1</i>
   <i type="int" name="KBLOCK">     1</i>
   <i type="int" name="NPACO">   256</i>
   <i name="APACO">     16.00000000</i>
  </separator>
  <separator name="symmetry" >
   <i type="int" name="ISYM">     2</i>
   <i name="SYMPREC">      0.00001000</i>
  </separator>
  <separator name="dos" >
   <i type="logical" name="LORBIT"> F  </i>
   <v name="RWIGS">     -1.00000000</v>
   <i type="int" name="NEDOS">   301</i>
   <i name="EMIN">     10.00000000</i>
   <i name="EMAX">    -10.00000000</i>
  </separator>
  <separator name="writing" >
   <i type="int" name="NWRITE">     2</i>
   <i type="logical" name="LWAVE"> F  </i>
   <i type="logical" name="LCHARG"> F  </i>
   <i type="logical" name="LPARD"> F  </i>
   <i type="logical" name="LVTOT"> F  </i>
   <i type="logical" name="LELF"> F  </i>
   <i type="logical" name="LOPTICS"> F  </i>
   <i name="STM">      0.00000000</i>
  </separator>
  <separator name="performance" >
   <i type="int" name="NPAR">     8</i>
   <i type="int" name="NSIM">     4</i>
   <i type="int" name="NBLK">   256</i>
   <i type="logical" name="LPLANE"> T  </i>
   <i type="logical" name="LCRITICAL_MEM"> F  </i>
   <i type="logical" name="LSCALAPACK"> F  </i>
   <i type="logical" name="LSCALU"> F  </i>
   <i type="logical" name="LASYNC"> F  </i>
  </separator>
  <separator name="miscellaneous" >
   <i type="int" name="IDIOT">     3</i>
   <i type="logical" name="LMUSIC"> F  </i>
   <v name="POMASS">     26.98200000</v>
   <i type="logical" name="LCORR"> T  </i>
  </separator>
  <i type="logical" name="LREAL_COMPAT"> F  </i>
  <i type="logical" name="GGA_COMPAT"> T  </i>
  <i type="logical" name="LBERRY"> F  </i>
  <i type="int" name="ICORELEVEL">     0</i>
  <i type="logical" name="LDAU"> F  </i>
  <i type="int" name="I_CONSTRAINED_M">     0</i>
 </parameters>
 <atominfo>
  <atoms>      32</atoms>
  <types>       1</types>
  <array name="atoms" >
   <dimension dim="1">ion</dimension>
   <field type="string">element</field>
   <field type="int">atomtype</field>
   <set>
    <rc><c>Al</c><c>   1</c></rc>
    <rc><c>Al</c><c>   1</c></rc>
    <rc><c>Al</c><c>   1</c></rc>
    <rc><c>Al</c><c>   1</c></rc>
    <rc><c>Al</c><c>   1</c></rc>
    <rc><c>Al</c><c>   1</c></rc>
    <rc><c>Al</c><c>   1</c></rc>
    <rc><c>Al</c><c>   1</c></rc>
    <rc><c>Al</c><c>   1</c></rc>
    <rc><c>Al</c><c>   1</c></rc>
    <rc><c>Al</c><c>   1</c></rc>
    <rc><c>Al</c><c>   1</c></rc>
    <rc><c>Al</c><c>   1</c></rc>
    <rc><c>Al</c><c>   1</c></rc>
    <rc><c>Al</c><c>   1</c></rc>
    <rc><c>Al</c><c>   1</c></rc>
    <rc><c>Al</c><c>   1</c></rc>
    <rc><c>Al</c><c>   1</c></rc>
    <rc><c>Al</c><c>   1</c></rc>
    <rc><c>Al</c><c>   1</c></rc>
    <rc><c>Al</c><c>   1</c></rc>
    <rc><c>Al</c><c>   1</c></rc>
    <rc><c>Al</c><c>   1</c></rc>
    <rc><c>Al</c><c>   1</c></rc>
    <rc><c>Al</c><c>   1</c></rc>
    <rc><c>Al</c><c>   1</c></rc>
    <rc><c>Al</c><c>   1</c></rc>
    <rc><c>Al</c><c>   1</c></rc>
    <rc><c>Al</c><c>   1</c></rc>
    <rc><c>Al</c><c>   1</c></rc>
    <rc><c>Al</c><c>   1</c></rc>
    <rc><c>Al</c><c>   1</c></rc>
   </set>
  </array>
  <array name="atomtypes" >
   <dimension dim="1">type</dimension>
   <field type="int">atomspertype</field>
   <field type="string">element</field>
   <field>mass</field>
   <field>valence</field>
   <field type="string">pseudopotential</field>
   <set>
    <rc><c>  32</c><c>Al</c><c>     26.98200000</c><c>      3.00000000</c><c> PAW_PBE Al 04Jan2001                   </c></rc>
   </set>
  </array>
 </atominfo>
 <structure name="initialpos" >
  <crystal>
   <varray name="basis" >
    <v>       7.99365580      0.00000000      0.00000000</v>
    <v>       0.00000000      7.99365580      0.00000000</v>
    <v>       0.00000000      0.00000000      7.99365580</v>
   </varray>
   <i name="volume">    510.78287970</i>
   <varray name="rec_basis" >
    <v>       0.12509921      0.00000000      0.00000000</v>
    <v>       0.00000000      0.12509921      0.00000000</v>
    <v>       0.00000000      0.00000000      0.12509921</v>
   </varray>
  </crystal>
  <varray name="positions" >
   <v>       0.25125099      0.25000000      0.00000000</v>
   <v>       0.75000000      0.25000000      0.00000000</v>
   <v>       0.25000000      0.75000000      0.00000000</v>
   <v>       0.75000000      0.75000000      0.00000000</v>
   <v>       0.25000000      0.25000000      0.50000000</v>
   <v>       0.75000000      0.25000000      0.50000000</v>
   <v>       0.25000000      0.75000000      0.50000000</v>
   <v>       0.75000000      0.75000000      0.50000000</v>
   <v>       0.25000000      0.00000000      0.25000000</v>
   <v>       0.75000000      0.00000000      0.25000000</v>
   <v>       0.25000000      0.50000000      0.25000000</v>
   <v>       0.75000000      0.50000000      0.25000000</v>
   <v>       0.25000000      0.00000000      0.75000000</v>
   <v>       0.75000000      0.00000000      0.75000000</v>
   <v>       0.25000000      0.50000000      0.75000000</v>
   <v>       0.75000000      0.50000000      0.75000000</v>
   <v>       0.00000000      0.25000000      0.25000000</v>
   <v>       0.50000000      0.25000000      0.25000000</v>
   <v>       0.00000000      0.75000000      0.25000000</v>
   <v>       0.50000000      0.75000000      0.25000000</v>
   <v>       0.00000000      0.25000000      0.75000000</v>
   <v>       0.50000000      0.25000000      0.75000000</v>
   <v>       0.00000000      0.75000000      0.75000000</v>
   <v>       0.50000000      0.75000000      0.75000000</v>
   <v>       0.00000000      0.00000000      0.00000000</v>
   <v>       0.50000000      0.00000000      0.00000000</v>
   <v>       0.00000000      0.50000000      0.00000000</v>
   <v>       0.50000000      0.50000000      0.00000000</v>
   <v>       0.00000000      0.00000000      0.50000000</v>
   <v>       0.50000000      0.00000000      0.50000000</v>
   <v>       0.00000000      0.50000000      0.50000000</v>
   <v>       0.50000000      0.50000000      0.50000000</v>
  </varray>
 </structure>
 <calculation>
  <scstep>
   <time name="dav">   26.49   26.91</time>
   <time name="total">   26.76   27.18</time>
   <energy>
    <i name="alphaZ">     -6.73363111</i>
    <i name="ewald">  -2378.64232680</i>
    <i name="hartreedc">     -2.88519933</i>
    <i name="XCdc">   -837.74980942</i>
    <i name="pawpsdc">   1137.73615723</i>
    <i name="pawaedc">   -115.16745734</i>
    <i name="eentropy">     -0.00097554</i>
    <i name="bandstr">    614.53298505</i>
    <i name="atom">   1713.22913220</i>
    <i name="e_fr_energy">    124.31887494</i>
    <i name="e_wo_entrp">    124.31985048</i>
    <i name="e_0_energy">    124.31936271</i>
   </energy>
  </scstep>
  <scstep>
   <time name="dav">   33.14   33.13</time>
   <time name="total">   33.15   33.14</time>
   <energy>
    <i name="e_fr_energy">   -107.22907500</i>
    <i name="e_wo_entrp">   -107.22838847</i>
    <i name="e_0_energy">   -107.22873173</i>
   </energy>
  </scstep>
  <scstep>
   <time name="dav">   25.82   25.82</time>
   <time name="total">   25.82   25.83</time>
   <energy>
    <i name="e_fr_energy">   -120.14670688</i>
    <i name="e_wo_entrp">   -120.14644178</i>
    <i name="e_0_energy">   -120.14657433</i>
   </energy>
  </scstep>
  <scstep>
   <time name="dav">   20.16   20.16</time>
   <time name="total">   20.17   20.16</time>
   <energy>
    <i name="e_fr_energy">   -120.38267308</i>
    <i name="e_wo_entrp">   -120.38234892</i>
    <i name="e_0_energy">   -120.38251100</i>
   </energy>
  </scstep>
  <scstep>
   <time name="dav">   20.34   20.34</time>
   <time name="total">   21.25   21.24</time>
   <energy>
    <i name="e_fr_energy">   -120.38552747</i>
    <i name="e_wo_entrp">   -120.38520324</i>
    <i name="e_0_energy">   -120.38536535</i>
   </energy>
  </scstep>
  <scstep>
   <time name="dav">   19.69   19.68</time>
   <time name="total">   20.77   20.76</time>
   <energy>
    <i name="e_fr_energy">   -119.95205990</i>
    <i name="e_wo_entrp">   -119.95173675</i>
    <i name="e_0_energy">   -119.95189833</i>
   </energy>
  </scstep>
  <scstep>
   <time name="dav">   17.90   17.89</time>
   <time name="total">   18.86   18.85</time>
   <energy>
    <i name="e_fr_energy">   -119.63620935</i>
    <i name="e_wo_entrp">   -119.63588596</i>
    <i name="e_0_energy">   -119.63604765</i>
   </energy>
  </scstep>
  <scstep>
   <time name="dav">   17.85   17.85</time>
   <time name="total">   18.71   18.71</time>
   <energy>
    <i name="e_fr_energy">   -119.63636358</i>
    <i name="e_wo_entrp">   -119.63604022</i>
    <i name="e_0_energy">   -119.63620190</i>
   </energy>
  </scstep>
  <scstep>
   <time name="dav">   16.79   16.79</time>
   <time name="total">   17.64   17.64</time>
   <energy>
    <i name="e_fr_energy">   -119.63639674</i>
    <i name="e_wo_entrp">   -119.63607337</i>
    <i name="e_0_energy">   -119.63623506</i>
   </energy>
  </scstep>
  <scstep>
   <time name="dav">   17.02   17.01</time>
   <time name="total">   17.87   17.86</time>
   <energy>
    <i name="e_fr_energy">   -119.63639833</i>
    <i name="e_wo_entrp">   -119.63607495</i>
    <i name="e_0_energy">   -119.63623664</i>
   </energy>
  </scstep>
  <scstep>
   <time name="dav">   16.90   16.89</time>
   <time name="total">   17.75   17.74</time>
   <energy>
    <i name="e_fr_energy">   -119.63639566</i>
    <i name="e_wo_entrp">   -119.63607229</i>
    <i name="e_0_energy">   -119.63623397</i>
   </energy>
  </scstep>
  <scstep>
   <time name="dav">   12.99   12.98</time>
   <time name="total">   13.84   13.83</time>
   <energy>
    <i name="e_fr_energy">   -119.63639459</i>
    <i name="e_wo_entrp">   -119.63607122</i>
    <i name="e_0_energy">   -119.63623291</i>
   </energy>
  </scstep>
  <scstep>
   <time name="dav">   11.43   11.43</time>
   <time name="total">   12.28   12.28</time>
   <energy>
    <i name="e_fr_energy">   -119.63639445</i>
    <i name="e_wo_entrp">   -119.63607108</i>
    <i name="e_0_energy">   -119.63623276</i>
   </energy>
  </scstep>
  <scstep>
   <time name="dav">   11.29   11.29</time>
   <time name="total">   11.45   11.45</time>
   <energy>
    <i name="alphaZ">     -6.73363111</i>
    <i name="ewald">  -2378.64232680</i>
    <i name="hartreedc">     -3.48790186</i>
    <i name="XCdc">   -834.01363394</i>
    <i name="pawpsdc">   1144.57556659</i>
    <i name="pawaedc">   -122.58099837</i>
    <i name="eentropy">     -0.00032337</i>
    <i name="bandstr">    368.01772221</i>
    <i name="atom">   1713.22913220</i>
    <i name="e_fr_energy">   -119.63639444</i>
    <i name="e_wo_entrp">   -119.63607107</i>
    <i name="e_0_energy">   -119.63623275</i>
   </energy>
  </scstep>
  <structure>
   <crystal>
    <varray name="basis" >
     <v>       7.99365580      0.00000000      0.00000000</v>
     <v>       0.00000000      7.99365580      0.00000000</v>
     <v>       0.00000000      0.00000000      7.99365580</v>
    </varray>
    <i name="volume">    510.78287970</i>
    <varray name="rec_basis" >
     <v>       0.12509921      0.00000000      0.00000000</v>
     <v>       0.00000000      0.12509921      0.00000000</v>
     <v>       0.00000000      0.00000000      0.12509921</v>
    </varray>
   </crystal>
   <varray name="positions" >
    <v>       0.25125099      0.25000000      0.00000000</v>
    <v>       0.75000000      0.25000000      0.00000000</v>
    <v>       0.25000000      0.75000000      0.00000000</v>
    <v>       0.75000000      0.75000000      0.00000000</v>
    <v>       0.25000000      0.25000000      0.50000000</v>
    <v>       0.75000000      0.25000000      0.50000000</v>
    <v>       0.25000000      0.75000000      0.50000000</v>
    <v>       0.75000000      0.75000000      0.50000000</v>
    <v>       0.25000000      0.00000000      0.25000000</v>
    <v>       0.75000000      0.00000000      0.25000000</v>
    <v>       0.25000000      0.50000000      0.25000000</v>
    <v>       0.75000000      0.50000000      0.25000000</v>
    <v>       0.25000000      0.00000000      0.75000000</v>
    <v>       0.75000000      0.00000000      0.75000000</v>
    <v>       0.25000000      0.50000000      0.75000000</v>
    <v>       0.75000000      0.50000000      0.75000000</v>
    <v>       0.00000000      0.25000000      0.25000000</v>
    <v>       0.50000000      0.25000000      0.25000000</v>
    <v>       0.00000000      0.75000000      0.25000000</v>
    <v>       0.50000000      0.75000000      0.25000000</v>
    <v>       0.00000000      0.25000000      0.75000000</v>
    <v>       0.50000000      0.25000000      0.75000000</v>
    <v>       0.00000000      0.75000000      0.75000000</v>
    <v>       0.50000000      0.75000000      0.75000000</v>
    <v>       0.00000000      0.00000000      0.00000000</v>
    <v>       0.50000000      0.00000000      0.00000000</v>
    <v>       0.00000000      0.50000000      0.00000000</v>
    <v>       0.50000000      0.50000000      0.00000000</v>
    <v>       0.00000000      0.00000000      0.50000000</v>
    <v>       0.50000000      0.00000000      0.50000000</v>
    <v>       0.00000000      0.50000000      0.50000000</v>
    <v>       0.50000000      0.50000000      0.50000000</v>
   </varray>
  </structure>
  <varray name="forces" >
   <v>      -0.05304485      0.00000000      0.00000000</v>
   <v>       0.00339962      0.00000000     -0.00000000</v>
   <v>      -0.00016451      0.00000000      0.00000000</v>
   <v>      -0.00022605      0.00000000     -0.00000000</v>
   <v>      -0.00016451      0.00000000      0.00000000</v>
   <v>      -0.00022605      0.00000000      0.00000000</v>
   <v>       0.00020854     -0.00000000      0.00000000</v>
   <v>      -0.00122661     -0.00000000      0.00000000</v>
   <v>      -0.00153183      0.00002324     -0.00002324</v>
   <v>      -0.00043103      0.00000129     -0.00000129</v>
   <v>      -0.00153183     -0.00002324     -0.00002324</v>
   <v>      -0.00043103     -0.00000129     -0.00000129</v>
   <v>      -0.00153183      0.00002324      0.00002324</v>
   <v>      -0.00043103      0.00000129      0.00000129</v>
   <v>      -0.00153183     -0.00002324      0.00002324</v>
   <v>      -0.00043103     -0.00000129      0.00000129</v>
   <v>       0.00700227      0.00000000     -0.00794008</v>
   <v>       0.00717130     -0.00000000      0.00817648</v>
   <v>       0.00032390     -0.00000000      0.00019671</v>
   <v>       0.00032649     -0.00000000     -0.00019667</v>
   <v>       0.00700227     -0.00000000      0.00794008</v>
   <v>       0.00717130      0.00000000     -0.00817648</v>
   <v>       0.00032390      0.00000000     -0.00019671</v>
   <v>       0.00032649     -0.00000000      0.00019667</v>
   <v>       0.00700227      0.00794008     -0.00000000</v>
   <v>       0.00717130     -0.00817648     -0.00000000</v>
   <v>       0.00700227     -0.00794008     -0.00000000</v>
   <v>       0.00717130      0.00817648     -0.00000000</v>
   <v>       0.00032390     -0.00019671     -0.00000000</v>
   <v>       0.00032649      0.00019667     -0.00000000</v>
   <v>       0.00032390      0.00019671      0.00000000</v>
   <v>       0.00032649     -0.00019667      0.00000000</v>
  </varray>
  <varray name="stress" >
   <v>      25.85510244     -0.00000000      0.00000000</v>
   <v>      -0.00000000     25.85483404      0.00000000</v>
   <v>       0.00000000      0.00000000     25.85483404</v>
  </varray>
  <energy>
   <i name="e_fr_energy">   -119.63639444</i>
   <i name="e_wo_entrp">   -119.63623275</i>
   <i name="e_0_energy">     -0.00032337</i>
  </energy>
  <eigenvalues>
   <array>
    <dimension dim="1">band</dimension>
    <dimension dim="2">kpoint</dimension>
    <dimension dim="3">spin</dimension>
    <field>eigene</field>
    <field>occ</field>
    <set>
     <set comment="spin 1">
      <set comment="kpoint 1">
       <r>  -3.0155  1.0000</r>
       <r>  -0.7222  1.0000</r>
       <r>  -0.7184  1.0000</r>
       <r>  -0.7184  1.0000</r>
       <r>  -0.7184  1.0000</r>
       <r>  -0.7184  1.0000</r>
       <r>  -0.7145  1.0000</r>
       <r>   1.5343  1.0000</r>
       <r>   1.5388  1.0000</r>
       <r>   1.5388  1.0000</r>
       <r>   1.5405  1.0000</r>
       <r>   1.5407  1.0000</r>
       <r>   1.5407  1.0000</r>
       <r>   1.5407  1.0000</r>
       <r>   1.5407  1.0000</r>
       <r>   1.5409  1.0000</r>
       <r>   1.5427  1.0000</r>
       <r>   1.5427  1.0000</r>
       <r>   1.5471  1.0000</r>
       <r>   3.6241  1.0000</r>
       <r>   3.6242  1.0000</r>
       <r>   3.6242  1.0000</r>
       <r>   3.6242  1.0000</r>
       <r>   3.9249  1.0000</r>
       <r>   3.9249  1.0000</r>
       <r>   3.9249  1.0000</r>
       <r>   3.9249  1.0000</r>
       <r>   5.3459  1.0000</r>
       <r>   5.3459  1.0000</r>
       <r>   5.3459  1.0000</r>
       <r>   6.7419  1.0000</r>
       <r>   6.7419  1.0000</r>
       <r>   6.7419  1.0000</r>
       <r>   7.4572  1.0000</r>
       <r>   7.4572  1.0000</r>
       <r>   7.4617  1.0000</r>
       <r>   7.4617  1.0000</r>
       <r>   7.4618  1.0000</r>
       <r>   7.4618  1.0000</r>
       <r>   7.4618  1.0000</r>
       <r>   7.4619  1.0000</r>
       <r>   7.4620  1.0000</r>
       <r>   7.4620  1.0000</r>
       <r>   7.4664  1.0000</r>
       <r>   7.4664  1.0000</r>
       <r>   8.4568  0.0000</r>
       <r>   8.4611  0.0000</r>
       <r>   8.4611  0.0000</r>
       <r>   8.4611  0.0000</r>
       <r>   8.4611  0.0000</r>
       <r>   8.4654  0.0000</r>
       <r>   9.5816  0.0000</r>
       <r>   9.5816  0.0000</r>
       <r>   9.5832  0.0000</r>
       <r>   9.5856  0.0000</r>
       <r>   9.5858  0.0000</r>
       <r>   9.5858  0.0000</r>
       <r>   9.5858  0.0000</r>
       <r>   9.5858  0.0000</r>
       <r>   9.5859  0.0000</r>
       <r>   9.5884  0.0000</r>
       <r>   9.5899  0.0000</r>
       <r>   9.5899  0.0000</r>
       <r>   9.6427  0.0000</r>
       <r>   9.6439  0.0000</r>
       <r>   9.6439  0.0000</r>
       <r>   9.6440  0.0000</r>
       <r>   9.6440  0.0000</r>
       <r>   9.6450  0.0000</r>
       <r>  11.2034  0.0000</r>
       <r>  11.2048  0.0000</r>
       <r>  11.2064  0.0000</r>
      </set>
      <set comment="kpoint 2">
       <r>  -2.9511  1.0000</r>
       <r>  -1.4161  1.0000</r>
       <r>  -0.6551  1.0000</r>
       <r>  -0.6551  1.0000</r>
       <r>  -0.6551  1.0000</r>
       <r>  -0.6551  1.0000</r>
       <r>   0.1012  1.0000</r>
       <r>   0.8545  1.0000</r>
       <r>   0.8545  1.0000</r>
       <r>   0.8545  1.0000</r>
       <r>   0.8545  1.0000</r>
       <r>   1.6029  1.0000</r>
       <r>   1.6030  1.0000</r>
       <r>   1.6030  1.0000</r>
       <r>   1.6030  1.0000</r>
       <r>   2.3467  1.0000</r>
       <r>   2.3467  1.0000</r>
       <r>   2.3467  1.0000</r>
       <r>   2.3467  1.0000</r>
       <r>   3.0814  1.0000</r>
       <r>   3.0814  1.0000</r>
       <r>   3.0814  1.0000</r>
       <r>   3.0814  1.0000</r>
       <r>   4.4739  1.0000</r>
       <r>   4.5865  1.0000</r>
       <r>   4.5865  1.0000</r>
       <r>   4.5865  1.0000</r>
       <r>   4.5865  1.0000</r>
       <r>   5.4046  1.0000</r>
       <r>   5.4046  1.0000</r>
       <r>   6.6190  1.0000</r>
       <r>   6.6190  1.0000</r>
       <r>   6.6190  1.0000</r>
       <r>   6.6190  1.0000</r>
       <r>   6.8035  1.0000</r>
       <r>   6.8035  1.0000</r>
       <r>   6.8143  1.0000</r>
       <r>   6.8143  1.0000</r>
       <r>   7.5207  1.0000</r>
       <r>   7.5207  1.0000</r>
       <r>   7.5207  1.0000</r>
       <r>   7.5207  1.0000</r>
       <r>   7.7246  1.0000</r>
       <r>   8.1646  1.0000</r>
       <r>   8.1646  1.0000</r>
       <r>   8.2279  1.0000</r>
       <r>   8.2279  1.0000</r>
       <r>   8.8019  0.0000</r>
       <r>   8.8019  0.0000</r>
       <r>   8.8019  0.0000</r>
       <r>   8.8019  0.0000</r>
       <r>   8.9032  0.0000</r>
       <r>   8.9032  0.0000</r>
       <r>   8.9032  0.0000</r>
       <r>   8.9033  0.0000</r>
       <r>   8.9362  0.0000</r>
       <r>   8.9362  0.0000</r>
       <r>   8.9363  0.0000</r>
       <r>   8.9363  0.0000</r>
       <r>  10.0499  0.0000</r>
       <r>  10.0499  0.0000</r>
       <r>  10.2147  0.0000</r>
       <r>  10.2147  0.0000</r>
       <r>  10.2147  0.0000</r>
       <r>  10.2148  0.0000</r>
       <r>  10.3540  0.0000</r>
       <r>  10.3540  0.0000</r>
       <r>  10.3540  0.0000</r>
       <r>  10.3540  0.0000</r>
       <r>  10.5487  0.0000</r>
       <r>  10.5487  0.0000</r>
       <r>  10.5487  0.0000</r>
      </set>
      <set comment="kpoint 3">
       <r>  -2.7583  1.0000</r>
       <r>  -1.9897  1.0000</r>
       <r>  -0.4655  1.0000</r>
       <r>  -0.4655  1.0000</r>
       <r>  -0.4655  1.0000</r>
       <r>  -0.4655  1.0000</r>
       <r>   0.2904  1.0000</r>
       <r>   0.2904  1.0000</r>
       <r>   0.2904  1.0000</r>
       <r>   0.2904  1.0000</r>
       <r>   1.0398  1.0000</r>
       <r>   1.7895  1.0000</r>
       <r>   1.7895  1.0000</r>
       <r>   1.7895  1.0000</r>
       <r>   1.7895  1.0000</r>
       <r>   2.5318  1.0000</r>
       <r>   2.5318  1.0000</r>
       <r>   2.5318  1.0000</r>
       <r>   2.5318  1.0000</r>
       <r>   3.2500  1.0000</r>
       <r>   3.2689  1.0000</r>
       <r>   3.2689  1.0000</r>
       <r>   3.2689  1.0000</r>
       <r>   3.2690  1.0000</r>
       <r>   5.4328  1.0000</r>
       <r>   5.4328  1.0000</r>
       <r>   5.4329  1.0000</r>
       <r>   5.4329  1.0000</r>
       <r>   5.4916  1.0000</r>
       <r>   5.4916  1.0000</r>
       <r>   5.4917  1.0000</r>
       <r>   5.4917  1.0000</r>
       <r>   5.5806  1.0000</r>
       <r>   5.5806  1.0000</r>
       <r>   6.2852  1.0000</r>
       <r>   6.2852  1.0000</r>
       <r>   6.9869  1.0000</r>
       <r>   6.9869  1.0000</r>
       <r>   7.6321  1.0000</r>
       <r>   7.6321  1.0000</r>
       <r>   7.6321  1.0000</r>
       <r>   7.6321  1.0000</r>
       <r>   7.6948  1.0000</r>
       <r>   7.6949  1.0000</r>
       <r>   7.6975  1.0000</r>
       <r>   7.6975  1.0000</r>
       <r>   7.6976  1.0000</r>
       <r>   7.6976  1.0000</r>
       <r>   8.4051  0.0000</r>
       <r>   8.4051  0.0000</r>
       <r>   8.4051  0.0000</r>
       <r>   8.4051  0.0000</r>
       <r>   9.1129  0.0000</r>
       <r>   9.1129  0.0000</r>
       <r>   9.2250  0.0000</r>
       <r>   9.2250  0.0000</r>
       <r>   9.2250  0.0000</r>
       <r>   9.2250  0.0000</r>
       <r>   9.2803  0.0000</r>
       <r>  10.0013  0.0000</r>
       <r>  10.0013  0.0000</r>
       <r>  10.0013  0.0000</r>
       <r>  10.0013  0.0000</r>
       <r>  10.8447  0.0000</r>
       <r>  10.8447  0.0000</r>
       <r>  11.2379  0.0000</r>
       <r>  11.2379  0.0000</r>
       <r>  11.2408  0.0000</r>
       <r>  11.2408  0.0000</r>
       <r>  11.2414  0.0000</r>
       <r>  11.2414  0.0000</r>
       <r>  11.5879  0.0000</r>
      </set>
      <set comment="kpoint 4">
       <r>  -2.4390  1.0000</r>
       <r>  -2.4360  1.0000</r>
       <r>  -0.1541  1.0000</r>
       <r>  -0.1509  1.0000</r>
       <r>  -0.1509  1.0000</r>
       <r>  -0.1501  1.0000</r>
       <r>  -0.1500  1.0000</r>
       <r>  -0.1492  1.0000</r>
       <r>  -0.1492  1.0000</r>
       <r>  -0.1460  1.0000</r>
       <r>   2.0905  1.0000</r>
       <r>   2.0928  1.0000</r>
       <r>   2.0979  1.0000</r>
       <r>   2.0983  1.0000</r>
       <r>   2.0983  1.0000</r>
       <r>   2.0991  1.0000</r>
       <r>   2.1001  1.0000</r>
       <r>   2.1009  1.0000</r>
       <r>   2.1009  1.0000</r>
       <r>   2.1033  1.0000</r>
       <r>   4.3010  1.0000</r>
       <r>   4.3010  1.0000</r>
       <r>   4.3012  1.0000</r>
       <r>   4.3017  1.0000</r>
       <r>   4.3020  1.0000</r>
       <r>   4.3025  1.0000</r>
       <r>   4.3027  1.0000</r>
       <r>   4.3027  1.0000</r>
       <r>   5.8724  1.0000</r>
       <r>   5.8724  1.0000</r>
       <r>   5.8756  1.0000</r>
       <r>   5.8756  1.0000</r>
       <r>   6.5113  1.0000</r>
       <r>   6.5113  1.0000</r>
       <r>   6.5117  1.0000</r>
       <r>   6.5122  1.0000</r>
       <r>   6.5124  1.0000</r>
       <r>   6.5129  1.0000</r>
       <r>   6.5133  1.0000</r>
       <r>   6.5133  1.0000</r>
       <r>   7.2860  1.0000</r>
       <r>   7.2871  1.0000</r>
       <r>   7.2889  1.0000</r>
       <r>   7.2900  1.0000</r>
       <r>   7.9898  1.0000</r>
       <r>   7.9898  1.0000</r>
       <r>   7.9908  1.0000</r>
       <r>   7.9922  1.0000</r>
       <r>   7.9923  1.0000</r>
       <r>   7.9938  1.0000</r>
       <r>   7.9947  1.0000</r>
       <r>   7.9947  1.0000</r>
       <r>   9.5618  0.0000</r>
       <r>   9.5627  0.0000</r>
       <r>   9.5627  0.0000</r>
       <r>   9.5629  0.0000</r>
       <r>   9.5652  0.0000</r>
       <r>   9.5653  0.0000</r>
       <r>   9.5653  0.0000</r>
       <r>   9.5663  0.0000</r>
       <r>  10.1155  0.0000</r>
       <r>  10.1155  0.0000</r>
       <r>  10.1178  0.0000</r>
       <r>  10.1178  0.0000</r>
       <r>  10.9894  0.0000</r>
       <r>  10.9906  0.0000</r>
       <r>  11.7757  0.0000</r>
       <r>  11.7761  0.0000</r>
       <r>  11.7775  0.0000</r>
       <r>  11.7779  0.0000</r>
       <r>  12.2449  0.0000</r>
       <r>  12.2467  0.0000</r>
      </set>
      <set comment="kpoint 5">
       <r>  -2.9511  1.0000</r>
       <r>  -1.4161  1.0000</r>
       <r>  -0.6581  1.0000</r>
       <r>  -0.6551  1.0000</r>
       <r>  -0.6551  1.0000</r>
       <r>  -0.6521  1.0000</r>
       <r>   0.1012  1.0000</r>
       <r>   0.8515  1.0000</r>
       <r>   0.8545  1.0000</r>
       <r>   0.8545  1.0000</r>
       <r>   0.8575  1.0000</r>
       <r>   1.6008  1.0000</r>
       <r>   1.6018  1.0000</r>
       <r>   1.6041  1.0000</r>
       <r>   1.6051  1.0000</r>
       <r>   2.3436  1.0000</r>
       <r>   2.3467  1.0000</r>
       <r>   2.3467  1.0000</r>
       <r>   2.3497  1.0000</r>
       <r>   3.0792  1.0000</r>
       <r>   3.0802  1.0000</r>
       <r>   3.0826  1.0000</r>
       <r>   3.0835  1.0000</r>
       <r>   4.4738  1.0000</r>
       <r>   4.5843  1.0000</r>
       <r>   4.5853  1.0000</r>
       <r>   4.5877  1.0000</r>
       <r>   4.5887  1.0000</r>
       <r>   5.4046  1.0000</r>
       <r>   5.4046  1.0000</r>
       <r>   6.6158  1.0000</r>
       <r>   6.6190  1.0000</r>
       <r>   6.6190  1.0000</r>
       <r>   6.6222  1.0000</r>
       <r>   6.8033  1.0000</r>
       <r>   6.8035  1.0000</r>
       <r>   6.8143  1.0000</r>
       <r>   6.8145  1.0000</r>
       <r>   7.5179  1.0000</r>
       <r>   7.5207  1.0000</r>
       <r>   7.5208  1.0000</r>
       <r>   7.5235  1.0000</r>
       <r>   7.7246  1.0000</r>
       <r>   8.1646  1.0000</r>
       <r>   8.1646  1.0000</r>
       <r>   8.2279  1.0000</r>
       <r>   8.2279  1.0000</r>
       <r>   8.7993  0.0000</r>
       <r>   8.8007  0.0000</r>
       <r>   8.8031  0.0000</r>
       <r>   8.8045  0.0000</r>
       <r>   8.9005  0.0000</r>
       <r>   8.9032  0.0000</r>
       <r>   8.9032  0.0000</r>
       <r>   8.9058  0.0000</r>
       <r>   8.9334  0.0000</r>
       <r>   8.9362  0.0000</r>
       <r>   8.9363  0.0000</r>
       <r>   8.9391  0.0000</r>
       <r>  10.0499  0.0000</r>
       <r>  10.0499  0.0000</r>
       <r>  10.2130  0.0000</r>
       <r>  10.2147  0.0000</r>
       <r>  10.2148  0.0000</r>
       <r>  10.2165  0.0000</r>
       <r>  10.3511  0.0000</r>
       <r>  10.3540  0.0000</r>
       <r>  10.3540  0.0000</r>
       <r>  10.3569  0.0000</r>
       <r>  10.5465  0.0000</r>
       <r>  10.5487  0.0000</r>
       <r>  10.5500  0.0000</r>
      </set>
      <set comment="kpoint 6">
       <r>  -2.8868  1.0000</r>
       <r>  -1.3537  1.0000</r>
       <r>  -1.3513  1.0000</r>
       <r>  -0.5919  1.0000</r>
       <r>  -0.5919  1.0000</r>
       <r>   0.1624  1.0000</r>
       <r>   0.1644  1.0000</r>
       <r>   0.1662  1.0000</r>
       <r>   0.9154  1.0000</r>
       <r>   0.9163  1.0000</r>
       <r>   0.9178  1.0000</r>
       <r>   0.9188  1.0000</r>
       <r>   1.6642  1.0000</r>
       <r>   1.6652  1.0000</r>
       <r>   2.4060  1.0000</r>
       <r>   2.4072  1.0000</r>
       <r>   2.4085  1.0000</r>
       <r>   2.4085  1.0000</r>
       <r>   2.4098  1.0000</r>
       <r>   2.4110  1.0000</r>
       <r>   3.1474  1.0000</r>
       <r>   3.7429  1.0000</r>
       <r>   3.7429  1.0000</r>
       <r>   4.0502  1.0000</r>
       <r>   4.0502  1.0000</r>
       <r>   4.5336  1.0000</r>
       <r>   4.5345  1.0000</r>
       <r>   5.3718  1.0000</r>
       <r>   5.3718  1.0000</r>
       <r>   5.4632  1.0000</r>
       <r>   5.9696  1.0000</r>
       <r>   5.9721  1.0000</r>
       <r>   6.5562  1.0000</r>
       <r>   6.5562  1.0000</r>
       <r>   6.8317  1.0000</r>
       <r>   6.8317  1.0000</r>
       <r>   6.8645  1.0000</r>
       <r>   6.8718  1.0000</r>
       <r>   6.8746  1.0000</r>
       <r>   7.3493  1.0000</r>
       <r>   7.3513  1.0000</r>
       <r>   7.7837  1.0000</r>
       <r>   7.7847  1.0000</r>
       <r>   8.1446  1.0000</r>
       <r>   8.1456  1.0000</r>
       <r>   8.1471  1.0000</r>
       <r>   8.1481  1.0000</r>
       <r>   8.2847  1.0000</r>
       <r>   8.2870  1.0000</r>
       <r>   8.2893  1.0000</r>
       <r>   8.4043  0.0000</r>
       <r>   8.4059  0.0000</r>
       <r>   9.0170  0.0000</r>
       <r>   9.0197  0.0000</r>
       <r>   9.5732  0.0000</r>
       <r>   9.5743  0.0000</r>
       <r>   9.5746  0.0000</r>
       <r>   9.5756  0.0000</r>
       <r>   9.6071  0.0000</r>
       <r>   9.6073  0.0000</r>
       <r>   9.7030  0.0000</r>
       <r>   9.7049  0.0000</r>
       <r>   9.8897  0.0000</r>
       <r>  10.2099  0.0000</r>
       <r>  10.2106  0.0000</r>
       <r>  10.4917  0.0000</r>
       <r>  10.4917  0.0000</r>
       <r>  10.8549  0.0000</r>
       <r>  10.8572  0.0000</r>
       <r>  11.1224  0.0000</r>
       <r>  11.3133  0.0000</r>
       <r>  11.3135  0.0000</r>
      </set>
      <set comment="kpoint 7">
       <r>  -2.6941  1.0000</r>
       <r>  -1.9258  1.0000</r>
       <r>  -1.1619  1.0000</r>
       <r>  -0.4037  1.0000</r>
       <r>  -0.4023  1.0000</r>
       <r>  -0.4008  1.0000</r>
       <r>   0.3514  1.0000</r>
       <r>   0.3532  1.0000</r>
       <r>   0.3543  1.0000</r>
       <r>   1.1011  1.0000</r>
       <r>   1.1040  1.0000</r>
       <r>   1.1046  1.0000</r>
       <r>   1.1057  1.0000</r>
       <r>   1.8518  1.0000</r>
       <r>   1.8518  1.0000</r>
       <r>   2.5918  1.0000</r>
       <r>   2.5935  1.0000</r>
       <r>   2.5938  1.0000</r>
       <r>   3.3111  1.0000</r>
       <r>   3.3252  1.0000</r>
       <r>   3.3254  1.0000</r>
       <r>   3.3302  1.0000</r>
       <r>   3.3306  1.0000</r>
       <r>   4.0632  1.0000</r>
       <r>   4.7146  1.0000</r>
       <r>   4.7715  1.0000</r>
       <r>   4.8293  1.0000</r>
       <r>   4.8293  1.0000</r>
       <r>   5.4345  1.0000</r>
       <r>   5.4867  1.0000</r>
       <r>   5.4868  1.0000</r>
       <r>   5.6392  1.0000</r>
       <r>   6.2026  1.0000</r>
       <r>   6.2776  1.0000</r>
       <r>   6.2777  1.0000</r>
       <r>   6.3440  1.0000</r>
       <r>   6.8979  1.0000</r>
       <r>   6.8979  1.0000</r>
       <r>   6.9716  1.0000</r>
       <r>   6.9717  1.0000</r>
       <r>   7.0457  1.0000</r>
       <r>   7.0498  1.0000</r>
       <r>   7.6092  1.0000</r>
       <r>   7.6092  1.0000</r>
       <r>   7.6794  1.0000</r>
       <r>   7.7565  1.0000</r>
       <r>   7.9616  1.0000</r>
       <r>   8.4101  0.0000</r>
       <r>   8.4102  0.0000</r>
       <r>   8.4474  0.0000</r>
       <r>   8.4640  0.0000</r>
       <r>   8.6026  0.0000</r>
       <r>   8.6366  0.0000</r>
       <r>   9.1705  0.0000</r>
       <r>   9.1738  0.0000</r>
       <r>   9.3375  0.0000</r>
       <r>   9.3433  0.0000</r>
       <r>   9.8720  0.0000</r>
       <r>  10.1127  0.0000</r>
       <r>  10.1127  0.0000</r>
       <r>  10.4613  0.0000</r>
       <r>  10.4621  0.0000</r>
       <r>  10.4633  0.0000</r>
       <r>  10.5905  0.0000</r>
       <r>  10.7636  0.0000</r>
       <r>  10.9043  0.0000</r>
       <r>  10.9043  0.0000</r>
       <r>  10.9237  0.0000</r>
       <r>  11.0661  0.0000</r>
       <r>  11.2978  0.0000</r>
       <r>  11.6745  0.0000</r>
       <r>  11.6882  0.0000</r>
      </set>
      <set comment="kpoint 8">
       <r>  -2.3749  1.0000</r>
       <r>  -2.3720  1.0000</r>
       <r>  -0.8463  1.0000</r>
       <r>  -0.8434  1.0000</r>
       <r>  -0.0891  1.0000</r>
       <r>  -0.0879  1.0000</r>
       <r>  -0.0862  1.0000</r>
       <r>  -0.0850  1.0000</r>
       <r>   0.6647  1.0000</r>
       <r>   0.6676  1.0000</r>
       <r>   1.4144  1.0000</r>
       <r>   1.4156  1.0000</r>
       <r>   1.4174  1.0000</r>
       <r>   1.4186  1.0000</r>
       <r>   2.1540  1.0000</r>
       <r>   2.1553  1.0000</r>
       <r>   2.8987  1.0000</r>
       <r>   2.8999  1.0000</r>
       <r>   2.9016  1.0000</r>
       <r>   2.9029  1.0000</r>
       <r>   3.6308  1.0000</r>
       <r>   3.6321  1.0000</r>
       <r>   4.3606  1.0000</r>
       <r>   4.3610  1.0000</r>
       <r>   4.3618  1.0000</r>
       <r>   4.3623  1.0000</r>
       <r>   5.0136  1.0000</r>
       <r>   5.0166  1.0000</r>
       <r>   5.0864  1.0000</r>
       <r>   5.0876  1.0000</r>
       <r>   5.8478  1.0000</r>
       <r>   5.8480  1.0000</r>
       <r>   5.8492  1.0000</r>
       <r>   5.8493  1.0000</r>
       <r>   5.9312  1.0000</r>
       <r>   5.9343  1.0000</r>
       <r>   7.1896  1.0000</r>
       <r>   7.1908  1.0000</r>
       <r>   7.1927  1.0000</r>
       <r>   7.1939  1.0000</r>
       <r>   7.2940  1.0000</r>
       <r>   7.2943  1.0000</r>
       <r>   7.2954  1.0000</r>
       <r>   7.2957  1.0000</r>
       <r>   7.3368  1.0000</r>
       <r>   7.3397  1.0000</r>
       <r>   7.3426  1.0000</r>
       <r>   7.3458  1.0000</r>
       <r>   8.2503  1.0000</r>
       <r>   8.2533  1.0000</r>
       <r>   8.7574  0.0000</r>
       <r>   8.7607  0.0000</r>
       <r>   8.9121  0.0000</r>
       <r>   8.9150  0.0000</r>
       <r>   9.3693  0.0000</r>
       <r>   9.3711  0.0000</r>
       <r>  10.1747  0.0000</r>
       <r>  10.1770  0.0000</r>
       <r>  10.3070  0.0000</r>
       <r>  10.3102  0.0000</r>
       <r>  10.4669  0.0000</r>
       <r>  10.4677  0.0000</r>
       <r>  10.4700  0.0000</r>
       <r>  10.4708  0.0000</r>
       <r>  11.0425  0.0000</r>
       <r>  11.0437  0.0000</r>
       <r>  11.4600  0.0000</r>
       <r>  11.4601  0.0000</r>
       <r>  11.4619  0.0000</r>
       <r>  11.4620  0.0000</r>
       <r>  11.5948  0.0000</r>
       <r>  11.5971  0.0000</r>
      </set>
      <set comment="kpoint 9">
       <r>  -2.7583  1.0000</r>
       <r>  -1.9897  1.0000</r>
       <r>  -0.4685  1.0000</r>
       <r>  -0.4655  1.0000</r>
       <r>  -0.4655  1.0000</r>
       <r>  -0.4625  1.0000</r>
       <r>   0.2874  1.0000</r>
       <r>   0.2904  1.0000</r>
       <r>   0.2904  1.0000</r>
       <r>   0.2934  1.0000</r>
       <r>   1.0398  1.0000</r>
       <r>   1.7873  1.0000</r>
       <r>   1.7883  1.0000</r>
       <r>   1.7907  1.0000</r>
       <r>   1.7916  1.0000</r>
       <r>   2.5296  1.0000</r>
       <r>   2.5306  1.0000</r>
       <r>   2.5330  1.0000</r>
       <r>   2.5340  1.0000</r>
       <r>   3.2500  1.0000</r>
       <r>   3.2659  1.0000</r>
       <r>   3.2689  1.0000</r>
       <r>   3.2689  1.0000</r>
       <r>   3.2720  1.0000</r>
       <r>   5.4297  1.0000</r>
       <r>   5.4329  1.0000</r>
       <r>   5.4329  1.0000</r>
       <r>   5.4360  1.0000</r>
       <r>   5.4894  1.0000</r>
       <r>   5.4904  1.0000</r>
       <r>   5.4929  1.0000</r>
       <r>   5.4939  1.0000</r>
       <r>   5.5806  1.0000</r>
       <r>   5.5806  1.0000</r>
       <r>   6.2852  1.0000</r>
       <r>   6.2852  1.0000</r>
       <r>   6.9869  1.0000</r>
       <r>   6.9869  1.0000</r>
       <r>   7.6298  1.0000</r>
       <r>   7.6309  1.0000</r>
       <r>   7.6334  1.0000</r>
       <r>   7.6345  1.0000</r>
       <r>   7.6940  1.0000</r>
       <r>   7.6947  1.0000</r>
       <r>   7.6948  1.0000</r>
       <r>   7.6975  1.0000</r>
       <r>   7.6984  1.0000</r>
       <r>   7.7003  1.0000</r>
       <r>   8.4023  0.0000</r>
       <r>   8.4051  0.0000</r>
       <r>   8.4051  0.0000</r>
       <r>   8.4079  0.0000</r>
       <r>   9.1128  0.0000</r>
       <r>   9.1129  0.0000</r>
       <r>   9.2226  0.0000</r>
       <r>   9.2250  0.0000</r>
       <r>   9.2250  0.0000</r>
       <r>   9.2274  0.0000</r>
       <r>   9.2803  0.0000</r>
       <r>   9.9990  0.0000</r>
       <r>  10.0013  0.0000</r>
       <r>  10.0013  0.0000</r>
       <r>  10.0037  0.0000</r>
       <r>  10.8446  0.0000</r>
       <r>  10.8447  0.0000</r>
       <r>  11.2377  0.0000</r>
       <r>  11.2385  0.0000</r>
       <r>  11.2386  0.0000</r>
       <r>  11.2408  0.0000</r>
       <r>  11.2408  0.0000</r>
       <r>  11.2437  0.0000</r>
       <r>  11.5884  0.0000</r>
      </set>
      <set comment="kpoint 10">
       <r>  -2.6941  1.0000</r>
       <r>  -1.9258  1.0000</r>
       <r>  -1.1619  1.0000</r>
       <r>  -0.4037  1.0000</r>
       <r>  -0.4023  1.0000</r>
       <r>  -0.4009  1.0000</r>
       <r>   0.3514  1.0000</r>
       <r>   0.3532  1.0000</r>
       <r>   0.3543  1.0000</r>
       <r>   1.1013  1.0000</r>
       <r>   1.1034  1.0000</r>
       <r>   1.1046  1.0000</r>
       <r>   1.1061  1.0000</r>
       <r>   1.8518  1.0000</r>
       <r>   1.8518  1.0000</r>
       <r>   2.5912  1.0000</r>
       <r>   2.5935  1.0000</r>
       <r>   2.5944  1.0000</r>
       <r>   3.3111  1.0000</r>
       <r>   3.3256  1.0000</r>
       <r>   3.3256  1.0000</r>
       <r>   3.3301  1.0000</r>
       <r>   3.3302  1.0000</r>
       <r>   4.0631  1.0000</r>
       <r>   4.7146  1.0000</r>
       <r>   4.7715  1.0000</r>
       <r>   4.8293  1.0000</r>
       <r>   4.8293  1.0000</r>
       <r>   5.4344  1.0000</r>
       <r>   5.4868  1.0000</r>
       <r>   5.4868  1.0000</r>
       <r>   5.6392  1.0000</r>
       <r>   6.2026  1.0000</r>
       <r>   6.2776  1.0000</r>
       <r>   6.2777  1.0000</r>
       <r>   6.3439  1.0000</r>
       <r>   6.8979  1.0000</r>
       <r>   6.8979  1.0000</r>
       <r>   6.9716  1.0000</r>
       <r>   6.9716  1.0000</r>
       <r>   7.0457  1.0000</r>
       <r>   7.0498  1.0000</r>
       <r>   7.6092  1.0000</r>
       <r>   7.6092  1.0000</r>
       <r>   7.6794  1.0000</r>
       <r>   7.7565  1.0000</r>
       <r>   7.9617  1.0000</r>
       <r>   8.4102  0.0000</r>
       <r>   8.4102  0.0000</r>
       <r>   8.4474  0.0000</r>
       <r>   8.4639  0.0000</r>
       <r>   8.6026  0.0000</r>
       <r>   8.6367  0.0000</r>
       <r>   9.1713  0.0000</r>
       <r>   9.1730  0.0000</r>
       <r>   9.3375  0.0000</r>
       <r>   9.3432  0.0000</r>
       <r>   9.8720  0.0000</r>
       <r>  10.1127  0.0000</r>
       <r>  10.1127  0.0000</r>
       <r>  10.4620  0.0000</r>
       <r>  10.4621  0.0000</r>
       <r>  10.4625  0.0000</r>
       <r>  10.5906  0.0000</r>
       <r>  10.7636  0.0000</r>
       <r>  10.9043  0.0000</r>
       <r>  10.9043  0.0000</r>
       <r>  10.9237  0.0000</r>
       <r>  11.0661  0.0000</r>
       <r>  11.2978  0.0000</r>
       <r>  11.6745  0.0000</r>
       <r>  11.6838  0.0000</r>
      </set>
      <set comment="kpoint 11">
       <r>  -2.5016  1.0000</r>
       <r>  -1.7357  1.0000</r>
       <r>  -1.7332  1.0000</r>
       <r>  -0.9716  1.0000</r>
       <r>  -0.2131  1.0000</r>
       <r>  -0.2131  1.0000</r>
       <r>   0.5397  1.0000</r>
       <r>   0.5407  1.0000</r>
       <r>   0.5422  1.0000</r>
       <r>   0.5432  1.0000</r>
       <r>   1.2878  1.0000</r>
       <r>   1.2901  1.0000</r>
       <r>   1.2919  1.0000</r>
       <r>   1.2927  1.0000</r>
       <r>   2.0349  1.0000</r>
       <r>   2.0359  1.0000</r>
       <r>   3.4942  1.0000</r>
       <r>   3.4951  1.0000</r>
       <r>   3.5110  1.0000</r>
       <r>   3.5118  1.0000</r>
       <r>   3.5134  1.0000</r>
       <r>   3.5144  1.0000</r>
       <r>   4.0990  1.0000</r>
       <r>   4.0990  1.0000</r>
       <r>   4.2249  1.0000</r>
       <r>   4.2274  1.0000</r>
       <r>   4.4236  1.0000</r>
       <r>   4.4237  1.0000</r>
       <r>   4.9698  1.0000</r>
       <r>   5.5170  1.0000</r>
       <r>   5.5171  1.0000</r>
       <r>   5.8153  1.0000</r>
       <r>   5.8652  1.0000</r>
       <r>   5.8652  1.0000</r>
       <r>   6.4294  1.0000</r>
       <r>   6.4304  1.0000</r>
       <r>   6.4319  1.0000</r>
       <r>   6.4330  1.0000</r>
       <r>   6.5190  1.0000</r>
       <r>   6.5217  1.0000</r>
       <r>   7.0386  1.0000</r>
       <r>   7.0406  1.0000</r>
       <r>   7.1800  1.0000</r>
       <r>   7.1800  1.0000</r>
       <r>   7.2155  1.0000</r>
       <r>   7.2264  1.0000</r>
       <r>   8.1224  1.0000</r>
       <r>   8.1237  1.0000</r>
       <r>   8.7997  0.0000</r>
       <r>   9.3014  0.0000</r>
       <r>   9.3025  0.0000</r>
       <r>   9.3027  0.0000</r>
       <r>   9.3038  0.0000</r>
       <r>   9.3235  0.0000</r>
       <r>   9.3478  0.0000</r>
       <r>   9.3507  0.0000</r>
       <r>   9.5059  0.0000</r>
       <r>   9.5071  0.0000</r>
       <r>  10.0576  0.0000</r>
       <r>  10.0580  0.0000</r>
       <r>  10.0595  0.0000</r>
       <r>  10.0605  0.0000</r>
       <r>  11.2185  0.0000</r>
       <r>  11.2193  0.0000</r>
       <r>  11.3653  0.0000</r>
       <r>  11.3653  0.0000</r>
       <r>  11.4053  0.0000</r>
       <r>  11.4053  0.0000</r>
       <r>  11.4748  0.0000</r>
       <r>  11.4768  0.0000</r>
       <r>  11.6104  0.0000</r>
       <r>  11.6108  0.0000</r>
      </set>
      <set comment="kpoint 12">
       <r>  -2.1829  1.0000</r>
       <r>  -2.1800  1.0000</r>
       <r>  -1.4175  1.0000</r>
       <r>  -1.4146  1.0000</r>
       <r>   0.0997  1.0000</r>
       <r>   0.1009  1.0000</r>
       <r>   0.1027  1.0000</r>
       <r>   0.1039  1.0000</r>
       <r>   0.8526  1.0000</r>
       <r>   0.8538  1.0000</r>
       <r>   0.8556  1.0000</r>
       <r>   0.8567  1.0000</r>
       <r>   1.5992  1.0000</r>
       <r>   1.6022  1.0000</r>
       <r>   2.3395  1.0000</r>
       <r>   2.3408  1.0000</r>
       <r>   3.0791  1.0000</r>
       <r>   3.0803  1.0000</r>
       <r>   3.7985  1.0000</r>
       <r>   3.8016  1.0000</r>
       <r>   3.8099  1.0000</r>
       <r>   3.8113  1.0000</r>
       <r>   3.8129  1.0000</r>
       <r>   3.8143  1.0000</r>
       <r>   4.5353  1.0000</r>
       <r>   4.5359  1.0000</r>
       <r>   4.5365  1.0000</r>
       <r>   4.5371  1.0000</r>
       <r>   5.3099  1.0000</r>
       <r>   5.3100  1.0000</r>
       <r>   5.3112  1.0000</r>
       <r>   5.3113  1.0000</r>
       <r>   5.9769  1.0000</r>
       <r>   5.9781  1.0000</r>
       <r>   6.0152  1.0000</r>
       <r>   6.0161  1.0000</r>
       <r>   6.0181  1.0000</r>
       <r>   6.0191  1.0000</r>
       <r>   6.1074  1.0000</r>
       <r>   6.1105  1.0000</r>
       <r>   6.8128  1.0000</r>
       <r>   6.8160  1.0000</r>
       <r>   7.4319  1.0000</r>
       <r>   7.4343  1.0000</r>
       <r>   8.1918  1.0000</r>
       <r>   8.1920  1.0000</r>
       <r>   8.1932  1.0000</r>
       <r>   8.1934  1.0000</r>
       <r>   8.3087  0.8900</r>
       <r>   8.3098  0.8593</r>
       <r>   8.3798  0.0000</r>
       <r>   8.3825  0.0000</r>
       <r>   9.6431  0.0000</r>
       <r>   9.6464  0.0000</r>
       <r>   9.7721  0.0000</r>
       <r>   9.7751  0.0000</r>
       <r>  10.3039  0.0000</r>
       <r>  10.3040  0.0000</r>
       <r>  10.3055  0.0000</r>
       <r>  10.3056  0.0000</r>
       <r>  10.3523  0.0000</r>
       <r>  10.3546  0.0000</r>
       <r>  11.0624  0.0000</r>
       <r>  11.0647  0.0000</r>
       <r>  11.0671  0.0000</r>
       <r>  11.0703  0.0000</r>
       <r>  11.1930  0.0000</r>
       <r>  11.1939  0.0000</r>
       <r>  11.7708  0.0000</r>
       <r>  11.7740  0.0000</r>
       <r>  11.9458  0.0000</r>
       <r>  11.9493  0.0000</r>
      </set>
      <set comment="kpoint 13">
       <r>  -2.4375  1.0000</r>
       <r>  -2.4375  1.0000</r>
       <r>  -0.1554  1.0000</r>
       <r>  -0.1507  1.0000</r>
       <r>  -0.1501  1.0000</r>
       <r>  -0.1501  1.0000</r>
       <r>  -0.1501  1.0000</r>
       <r>  -0.1501  1.0000</r>
       <r>  -0.1494  1.0000</r>
       <r>  -0.1447  1.0000</r>
       <r>   2.0913  1.0000</r>
       <r>   2.0925  1.0000</r>
       <r>   2.0967  1.0000</r>
       <r>   2.0974  1.0000</r>
       <r>   2.0991  1.0000</r>
       <r>   2.0993  1.0000</r>
       <r>   2.0998  1.0000</r>
       <r>   2.1002  1.0000</r>
       <r>   2.1017  1.0000</r>
       <r>   2.1038  1.0000</r>
       <r>   4.2985  1.0000</r>
       <r>   4.2990  1.0000</r>
       <r>   4.3018  1.0000</r>
       <r>   4.3018  1.0000</r>
       <r>   4.3018  1.0000</r>
       <r>   4.3018  1.0000</r>
       <r>   4.3046  1.0000</r>
       <r>   4.3052  1.0000</r>
       <r>   5.8740  1.0000</r>
       <r>   5.8740  1.0000</r>
       <r>   5.8740  1.0000</r>
       <r>   5.8740  1.0000</r>
       <r>   6.5092  1.0000</r>
       <r>   6.5108  1.0000</r>
       <r>   6.5109  1.0000</r>
       <r>   6.5112  1.0000</r>
       <r>   6.5134  1.0000</r>
       <r>   6.5136  1.0000</r>
       <r>   6.5138  1.0000</r>
       <r>   6.5154  1.0000</r>
       <r>   7.2880  1.0000</r>
       <r>   7.2880  1.0000</r>
       <r>   7.2880  1.0000</r>
       <r>   7.2880  1.0000</r>
       <r>   7.9871  1.0000</r>
       <r>   7.9918  1.0000</r>
       <r>   7.9923  1.0000</r>
       <r>   7.9923  1.0000</r>
       <r>   7.9923  1.0000</r>
       <r>   7.9923  1.0000</r>
       <r>   7.9928  1.0000</r>
       <r>   7.9974  1.0000</r>
       <r>   9.5598  0.0000</r>
       <r>   9.5635  0.0000</r>
       <r>   9.5640  0.0000</r>
       <r>   9.5641  0.0000</r>
       <r>   9.5641  0.0000</r>
       <r>   9.5641  0.0000</r>
       <r>   9.5646  0.0000</r>
       <r>   9.5682  0.0000</r>
       <r>  10.1166  0.0000</r>
       <r>  10.1166  0.0000</r>
       <r>  10.1166  0.0000</r>
       <r>  10.1167  0.0000</r>
       <r>  10.9900  0.0000</r>
       <r>  10.9900  0.0000</r>
       <r>  11.7768  0.0000</r>
       <r>  11.7768  0.0000</r>
       <r>  11.7768  0.0000</r>
       <r>  11.7768  0.0000</r>
       <r>  12.2454  0.0000</r>
       <r>  12.2465  0.0000</r>
      </set>
      <set comment="kpoint 14">
       <r>  -2.3734  1.0000</r>
       <r>  -2.3734  1.0000</r>
       <r>  -0.8449  1.0000</r>
       <r>  -0.8448  1.0000</r>
       <r>  -0.0871  1.0000</r>
       <r>  -0.0870  1.0000</r>
       <r>  -0.0870  1.0000</r>
       <r>  -0.0870  1.0000</r>
       <r>   0.6662  1.0000</r>
       <r>   0.6662  1.0000</r>
       <r>   1.4165  1.0000</r>
       <r>   1.4165  1.0000</r>
       <r>   1.4165  1.0000</r>
       <r>   1.4165  1.0000</r>
       <r>   2.1546  1.0000</r>
       <r>   2.1546  1.0000</r>
       <r>   2.9008  1.0000</r>
       <r>   2.9008  1.0000</r>
       <r>   2.9008  1.0000</r>
       <r>   2.9008  1.0000</r>
       <r>   3.6314  1.0000</r>
       <r>   3.6314  1.0000</r>
       <r>   4.3614  1.0000</r>
       <r>   4.3614  1.0000</r>
       <r>   4.3614  1.0000</r>
       <r>   4.3614  1.0000</r>
       <r>   5.0151  1.0000</r>
       <r>   5.0151  1.0000</r>
       <r>   5.0870  1.0000</r>
       <r>   5.0870  1.0000</r>
       <r>   5.8486  1.0000</r>
       <r>   5.8486  1.0000</r>
       <r>   5.8486  1.0000</r>
       <r>   5.8486  1.0000</r>
       <r>   5.9327  1.0000</r>
       <r>   5.9328  1.0000</r>
       <r>   7.1917  1.0000</r>
       <r>   7.1917  1.0000</r>
       <r>   7.1918  1.0000</r>
       <r>   7.1918  1.0000</r>
       <r>   7.2948  1.0000</r>
       <r>   7.2948  1.0000</r>
       <r>   7.2949  1.0000</r>
       <r>   7.2949  1.0000</r>
       <r>   7.3382  1.0000</r>
       <r>   7.3383  1.0000</r>
       <r>   7.3441  1.0000</r>
       <r>   7.3443  1.0000</r>
       <r>   8.2518  1.0000</r>
       <r>   8.2518  1.0000</r>
       <r>   8.7591  0.0000</r>
       <r>   8.7591  0.0000</r>
       <r>   8.9135  0.0000</r>
       <r>   8.9135  0.0000</r>
       <r>   9.3702  0.0000</r>
       <r>   9.3702  0.0000</r>
       <r>  10.1758  0.0000</r>
       <r>  10.1758  0.0000</r>
       <r>  10.3085  0.0000</r>
       <r>  10.3086  0.0000</r>
       <r>  10.4689  0.0000</r>
       <r>  10.4689  0.0000</r>
       <r>  10.4689  0.0000</r>
       <r>  10.4689  0.0000</r>
       <r>  11.0431  0.0000</r>
       <r>  11.0431  0.0000</r>
       <r>  11.4610  0.0000</r>
       <r>  11.4610  0.0000</r>
       <r>  11.4610  0.0000</r>
       <r>  11.4610  0.0000</r>
       <r>  11.5959  0.0000</r>
       <r>  11.5960  0.0000</r>
      </set>
      <set comment="kpoint 15">
       <r>  -2.1814  1.0000</r>
       <r>  -2.1814  1.0000</r>
       <r>  -1.4161  1.0000</r>
       <r>  -1.4161  1.0000</r>
       <r>   0.1018  1.0000</r>
       <r>   0.1018  1.0000</r>
       <r>   0.1018  1.0000</r>
       <r>   0.1018  1.0000</r>
       <r>   0.8547  1.0000</r>
       <r>   0.8547  1.0000</r>
       <r>   0.8547  1.0000</r>
       <r>   0.8547  1.0000</r>
       <r>   1.6007  1.0000</r>
       <r>   1.6007  1.0000</r>
       <r>   2.3401  1.0000</r>
       <r>   2.3401  1.0000</r>
       <r>   3.0797  1.0000</r>
       <r>   3.0797  1.0000</r>
       <r>   3.8000  1.0000</r>
       <r>   3.8000  1.0000</r>
       <r>   3.8121  1.0000</r>
       <r>   3.8121  1.0000</r>
       <r>   3.8121  1.0000</r>
       <r>   3.8121  1.0000</r>
       <r>   4.5362  1.0000</r>
       <r>   4.5362  1.0000</r>
       <r>   4.5362  1.0000</r>
       <r>   4.5362  1.0000</r>
       <r>   5.3106  1.0000</r>
       <r>   5.3106  1.0000</r>
       <r>   5.3106  1.0000</r>
       <r>   5.3106  1.0000</r>
       <r>   5.9776  1.0000</r>
       <r>   5.9776  1.0000</r>
       <r>   6.0170  1.0000</r>
       <r>   6.0171  1.0000</r>
       <r>   6.0171  1.0000</r>
       <r>   6.0172  1.0000</r>
       <r>   6.1089  1.0000</r>
       <r>   6.1090  1.0000</r>
       <r>   6.8144  1.0000</r>
       <r>   6.8144  1.0000</r>
       <r>   7.4331  1.0000</r>
       <r>   7.4331  1.0000</r>
       <r>   8.1926  1.0000</r>
       <r>   8.1926  1.0000</r>
       <r>   8.1926  1.0000</r>
       <r>   8.1926  1.0000</r>
       <r>   8.3092  0.8752</r>
       <r>   8.3092  0.8752</r>
       <r>   8.3811  0.0000</r>
       <r>   8.3812  0.0000</r>
       <r>   9.6447  0.0000</r>
       <r>   9.6447  0.0000</r>
       <r>   9.7736  0.0000</r>
       <r>   9.7736  0.0000</r>
       <r>  10.3047  0.0000</r>
       <r>  10.3047  0.0000</r>
       <r>  10.3047  0.0000</r>
       <r>  10.3047  0.0000</r>
       <r>  10.3535  0.0000</r>
       <r>  10.3535  0.0000</r>
       <r>  11.0636  0.0000</r>
       <r>  11.0636  0.0000</r>
       <r>  11.0687  0.0000</r>
       <r>  11.0687  0.0000</r>
       <r>  11.1934  0.0000</r>
       <r>  11.1934  0.0000</r>
       <r>  11.7723  0.0000</r>
       <r>  11.7723  0.0000</r>
       <r>  11.9471  0.0000</r>
       <r>  11.9473  0.0000</r>
      </set>
      <set comment="kpoint 16">
       <r>  -1.8647  1.0000</r>
       <r>  -1.8622  1.0000</r>
       <r>  -1.8617  1.0000</r>
       <r>  -1.8593  1.0000</r>
       <r>   0.4122  1.0000</r>
       <r>   0.4144  1.0000</r>
       <r>   0.4157  1.0000</r>
       <r>   0.4159  1.0000</r>
       <r>   0.4161  1.0000</r>
       <r>   0.4164  1.0000</r>
       <r>   0.4177  1.0000</r>
       <r>   0.4198  1.0000</r>
       <r>   2.6448  1.0000</r>
       <r>   2.6467  1.0000</r>
       <r>   2.6484  1.0000</r>
       <r>   2.6487  1.0000</r>
       <r>   2.6489  1.0000</r>
       <r>   2.6492  1.0000</r>
       <r>   2.6510  1.0000</r>
       <r>   2.6528  1.0000</r>
       <r>   4.6886  1.0000</r>
       <r>   4.6902  1.0000</r>
       <r>   4.6909  1.0000</r>
       <r>   4.6915  1.0000</r>
       <r>   4.6916  1.0000</r>
       <r>   4.6922  1.0000</r>
       <r>   4.6930  1.0000</r>
       <r>   4.6945  1.0000</r>
       <r>   5.0340  1.0000</r>
       <r>   5.0343  1.0000</r>
       <r>   5.0352  1.0000</r>
       <r>   5.0362  1.0000</r>
       <r>   5.0362  1.0000</r>
       <r>   5.0372  1.0000</r>
       <r>   5.0381  1.0000</r>
       <r>   5.0384  1.0000</r>
       <r>   6.3998  1.0000</r>
       <r>   6.4025  1.0000</r>
       <r>   6.4030  1.0000</r>
       <r>   6.4057  1.0000</r>
       <r>   6.9272  1.0000</r>
       <r>   6.9279  1.0000</r>
       <r>   6.9292  1.0000</r>
       <r>   6.9300  1.0000</r>
       <r>   8.0121  1.0000</r>
       <r>   8.0134  1.0000</r>
       <r>   8.0143  1.0000</r>
       <r>   8.0156  1.0000</r>
       <r>   9.1981  0.0000</r>
       <r>   9.1990  0.0000</r>
       <r>   9.1992  0.0000</r>
       <r>   9.1994  0.0000</r>
       <r>   9.2004  0.0000</r>
       <r>   9.2006  0.0000</r>
       <r>   9.2009  0.0000</r>
       <r>   9.2017  0.0000</r>
       <r>  10.6436  0.0000</r>
       <r>  10.6474  0.0000</r>
       <r>  10.6490  0.0000</r>
       <r>  10.6493  0.0000</r>
       <r>  10.6494  0.0000</r>
       <r>  10.6497  0.0000</r>
       <r>  10.6513  0.0000</r>
       <r>  10.6551  0.0000</r>
       <r>  11.3641  0.0000</r>
       <r>  11.3658  0.0000</r>
       <r>  11.3675  0.0000</r>
       <r>  11.3676  0.0000</r>
       <r>  11.3679  0.0000</r>
       <r>  11.3680  0.0000</r>
       <r>  11.3697  0.0000</r>
       <r>  11.3714  0.0000</r>
      </set>
      <set comment="kpoint 17">
       <r>  -2.8868  1.0000</r>
       <r>  -1.3525  1.0000</r>
       <r>  -1.3525  1.0000</r>
       <r>  -0.5935  1.0000</r>
       <r>  -0.5902  1.0000</r>
       <r>   0.1641  1.0000</r>
       <r>   0.1641  1.0000</r>
       <r>   0.1648  1.0000</r>
       <r>   0.9144  1.0000</r>
       <r>   0.9164  1.0000</r>
       <r>   0.9178  1.0000</r>
       <r>   0.9198  1.0000</r>
       <r>   1.6647  1.0000</r>
       <r>   1.6647  1.0000</r>
       <r>   2.4056  1.0000</r>
       <r>   2.4070  1.0000</r>
       <r>   2.4077  1.0000</r>
       <r>   2.4092  1.0000</r>
       <r>   2.4100  1.0000</r>
       <r>   2.4113  1.0000</r>
       <r>   3.1474  1.0000</r>
       <r>   3.7429  1.0000</r>
       <r>   3.7429  1.0000</r>
       <r>   4.0502  1.0000</r>
       <r>   4.0502  1.0000</r>
       <r>   4.5341  1.0000</r>
       <r>   4.5341  1.0000</r>
       <r>   5.3701  1.0000</r>
       <r>   5.3735  1.0000</r>
       <r>   5.4632  1.0000</r>
       <r>   5.9708  1.0000</r>
       <r>   5.9708  1.0000</r>
       <r>   6.5561  1.0000</r>
       <r>   6.5561  1.0000</r>
       <r>   6.8317  1.0000</r>
       <r>   6.8317  1.0000</r>
       <r>   6.8643  1.0000</r>
       <r>   6.8732  1.0000</r>
       <r>   6.8734  1.0000</r>
       <r>   7.3503  1.0000</r>
       <r>   7.3503  1.0000</r>
       <r>   7.7842  1.0000</r>
       <r>   7.7842  1.0000</r>
       <r>   8.1434  1.0000</r>
       <r>   8.1455  1.0000</r>
       <r>   8.1472  1.0000</r>
       <r>   8.1493  1.0000</r>
       <r>   8.2869  1.0000</r>
       <r>   8.2869  1.0000</r>
       <r>   8.2872  1.0000</r>
       <r>   8.4051  0.0000</r>
       <r>   8.4051  0.0000</r>
       <r>   9.0183  0.0000</r>
       <r>   9.0183  0.0000</r>
       <r>   9.5722  0.0000</r>
       <r>   9.5729  0.0000</r>
       <r>   9.5760  0.0000</r>
       <r>   9.5767  0.0000</r>
       <r>   9.6071  0.0000</r>
       <r>   9.6071  0.0000</r>
       <r>   9.7040  0.0000</r>
       <r>   9.7040  0.0000</r>
       <r>   9.8897  0.0000</r>
       <r>  10.2102  0.0000</r>
       <r>  10.2102  0.0000</r>
       <r>  10.4917  0.0000</r>
       <r>  10.4917  0.0000</r>
       <r>  10.8560  0.0000</r>
       <r>  10.8561  0.0000</r>
       <r>  11.1224  0.0000</r>
       <r>  11.3133  0.0000</r>
       <r>  11.3133  0.0000</r>
      </set>
      <set comment="kpoint 18">
       <r>  -2.8225  1.0000</r>
       <r>  -1.2907  1.0000</r>
       <r>  -1.2889  1.0000</r>
       <r>  -1.2872  1.0000</r>
       <r>   0.2237  1.0000</r>
       <r>   0.2268  1.0000</r>
       <r>   0.2269  1.0000</r>
       <r>   0.2277  1.0000</r>
       <r>   0.2279  1.0000</r>
       <r>   0.2309  1.0000</r>
       <r>   1.7235  1.0000</r>
       <r>   1.7256  1.0000</r>
       <r>   1.7265  1.0000</r>
       <r>   1.7268  1.0000</r>
       <r>   1.7278  1.0000</r>
       <r>   1.7280  1.0000</r>
       <r>   1.7305  1.0000</r>
       <r>   3.2023  1.0000</r>
       <r>   3.2032  1.0000</r>
       <r>   3.2038  1.0000</r>
       <r>   3.2072  1.0000</r>
       <r>   3.2088  1.0000</r>
       <r>   3.2106  1.0000</r>
       <r>   4.5936  1.0000</r>
       <r>   4.5943  1.0000</r>
       <r>   4.5949  1.0000</r>
       <r>   4.7078  1.0000</r>
       <r>   4.7085  1.0000</r>
       <r>   4.7092  1.0000</r>
       <r>   6.0228  1.0000</r>
       <r>   6.0243  1.0000</r>
       <r>   6.0257  1.0000</r>
       <r>   6.0257  1.0000</r>
       <r>   6.0272  1.0000</r>
       <r>   6.0287  1.0000</r>
       <r>   6.1587  1.0000</r>
       <r>   7.4690  1.0000</r>
       <r>   7.4694  1.0000</r>
       <r>   7.4710  1.0000</r>
       <r>   7.4710  1.0000</r>
       <r>   7.4725  1.0000</r>
       <r>   7.4729  1.0000</r>
       <r>   7.4889  1.0000</r>
       <r>   7.4907  1.0000</r>
       <r>   7.4925  1.0000</r>
       <r>   7.8423  1.0000</r>
       <r>   7.8430  1.0000</r>
       <r>   7.8437  1.0000</r>
       <r>   8.9176  0.0000</r>
       <r>   8.9185  0.0000</r>
       <r>   8.9197  0.0000</r>
       <r>   8.9197  0.0000</r>
       <r>   8.9209  0.0000</r>
       <r>   8.9218  0.0000</r>
       <r>   9.2706  0.0000</r>
       <r>   9.2717  0.0000</r>
       <r>   9.2728  0.0000</r>
       <r>   9.2728  0.0000</r>
       <r>   9.2739  0.0000</r>
       <r>   9.2750  0.0000</r>
       <r>  10.3448  0.0000</r>
       <r>  10.3458  0.0000</r>
       <r>  10.3467  0.0000</r>
       <r>  10.7940  0.0000</r>
       <r>  10.7949  0.0000</r>
       <r>  10.7958  0.0000</r>
       <r>  10.9426  0.0000</r>
       <r>  10.9433  0.0000</r>
       <r>  10.9444  0.0000</r>
       <r>  10.9444  0.0000</r>
       <r>  10.9455  0.0000</r>
       <r>  10.9462  0.0000</r>
      </set>
      <set comment="kpoint 19">
       <r>  -2.6299  1.0000</r>
       <r>  -1.8620  1.0000</r>
       <r>  -1.0984  1.0000</r>
       <r>  -1.0984  1.0000</r>
       <r>  -0.3391  1.0000</r>
       <r>  -0.3391  1.0000</r>
       <r>   0.4154  1.0000</r>
       <r>   0.4154  1.0000</r>
       <r>   0.4162  1.0000</r>
       <r>   1.1633  1.0000</r>
       <r>   1.1664  1.0000</r>
       <r>   1.1670  1.0000</r>
       <r>   1.1680  1.0000</r>
       <r>   1.9131  1.0000</r>
       <r>   1.9131  1.0000</r>
       <r>   2.6525  1.0000</r>
       <r>   2.6531  1.0000</r>
       <r>   2.6552  1.0000</r>
       <r>   2.6558  1.0000</r>
       <r>   3.3724  1.0000</r>
       <r>   3.3915  1.0000</r>
       <r>   3.9803  1.0000</r>
       <r>   4.1229  1.0000</r>
       <r>   4.1230  1.0000</r>
       <r>   4.2996  1.0000</r>
       <r>   4.7747  1.0000</r>
       <r>   4.7747  1.0000</r>
       <r>   4.8307  1.0000</r>
       <r>   4.8307  1.0000</r>
       <r>   5.4933  1.0000</r>
       <r>   5.4933  1.0000</r>
       <r>   5.6125  1.0000</r>
       <r>   5.6125  1.0000</r>
       <r>   6.0942  1.0000</r>
       <r>   6.0942  1.0000</r>
       <r>   6.3112  1.0000</r>
       <r>   6.4119  1.0000</r>
       <r>   6.4119  1.0000</r>
       <r>   6.9543  1.0000</r>
       <r>   6.9543  1.0000</r>
       <r>   7.0619  1.0000</r>
       <r>   7.6616  1.0000</r>
       <r>   7.6617  1.0000</r>
       <r>   7.7508  1.0000</r>
       <r>   7.7509  1.0000</r>
       <r>   8.0169  1.0000</r>
       <r>   8.0169  1.0000</r>
       <r>   8.2686  1.0000</r>
       <r>   8.2687  1.0000</r>
       <r>   8.3825  0.0000</r>
       <r>   8.3825  0.0000</r>
       <r>   8.8716  0.0000</r>
       <r>   8.8716  0.0000</r>
       <r>   9.1862  0.0000</r>
       <r>   9.3926  0.0000</r>
       <r>   9.5125  0.0000</r>
       <r>   9.5125  0.0000</r>
       <r>   9.8082  0.0000</r>
       <r>   9.8082  0.0000</r>
       <r>  10.2554  0.0000</r>
       <r>  10.2555  0.0000</r>
       <r>  10.5251  0.0000</r>
       <r>  10.5251  0.0000</r>
       <r>  10.5458  0.0000</r>
       <r>  10.5458  0.0000</r>
       <r>  11.2316  0.0000</r>
       <r>  11.2316  0.0000</r>
       <r>  11.3626  0.0000</r>
       <r>  11.3626  0.0000</r>
       <r>  11.6552  0.0000</r>
       <r>  11.6554  0.0000</r>
       <r>  11.7575  0.0000</r>
      </set>
      <set comment="kpoint 20">
       <r>  -2.3109  1.0000</r>
       <r>  -2.3079  1.0000</r>
       <r>  -0.7840  1.0000</r>
       <r>  -0.7820  1.0000</r>
       <r>  -0.7810  1.0000</r>
       <r>  -0.7790  1.0000</r>
       <r>   0.7261  1.0000</r>
       <r>   0.7283  1.0000</r>
       <r>   0.7284  1.0000</r>
       <r>   0.7293  1.0000</r>
       <r>   0.7305  1.0000</r>
       <r>   0.7319  1.0000</r>
       <r>   2.2151  1.0000</r>
       <r>   2.2167  1.0000</r>
       <r>   2.2216  1.0000</r>
       <r>   2.2218  1.0000</r>
       <r>   2.2242  1.0000</r>
       <r>   2.2251  1.0000</r>
       <r>   3.6898  1.0000</r>
       <r>   3.6914  1.0000</r>
       <r>   3.6918  1.0000</r>
       <r>   3.6928  1.0000</r>
       <r>   3.6928  1.0000</r>
       <r>   3.6937  1.0000</r>
       <r>   5.0731  1.0000</r>
       <r>   5.0734  1.0000</r>
       <r>   5.0762  1.0000</r>
       <r>   5.0765  1.0000</r>
       <r>   5.1402  1.0000</r>
       <r>   5.1405  1.0000</r>
       <r>   5.1414  1.0000</r>
       <r>   5.1417  1.0000</r>
       <r>   5.1885  1.0000</r>
       <r>   5.1898  1.0000</r>
       <r>   6.5404  1.0000</r>
       <r>   6.5425  1.0000</r>
       <r>   6.5434  1.0000</r>
       <r>   6.5455  1.0000</r>
       <r>   6.6310  1.0000</r>
       <r>   6.6317  1.0000</r>
       <r>   6.6324  1.0000</r>
       <r>   6.6331  1.0000</r>
       <r>   7.9614  1.0000</r>
       <r>   7.9621  1.0000</r>
       <r>   7.9645  1.0000</r>
       <r>   7.9652  1.0000</r>
       <r>   8.0746  1.0000</r>
       <r>   8.0760  1.0000</r>
       <r>   8.2851  1.0000</r>
       <r>   8.2858  1.0000</r>
       <r>   8.2880  1.0000</r>
       <r>   8.2887  1.0000</r>
       <r>   9.4461  0.0000</r>
       <r>   9.4467  0.0000</r>
       <r>   9.4478  0.0000</r>
       <r>   9.4484  0.0000</r>
       <r>   9.8273  0.0000</r>
       <r>   9.8282  0.0000</r>
       <r>   9.8303  0.0000</r>
       <r>   9.8312  0.0000</r>
       <r>  10.8070  0.0000</r>
       <r>  10.8077  0.0000</r>
       <r>  10.8089  0.0000</r>
       <r>  10.8095  0.0000</r>
       <r>  11.0842  0.0000</r>
       <r>  11.0852  0.0000</r>
       <r>  11.1842  0.0000</r>
       <r>  11.1865  0.0000</r>
       <r>  11.1875  0.0000</r>
       <r>  11.1897  0.0000</r>
       <r>  12.1873  0.0000</r>
       <r>  12.2265  0.0000</r>
      </set>
      <set comment="kpoint 21">
       <r>  -2.6941  1.0000</r>
       <r>  -1.9258  1.0000</r>
       <r>  -1.1619  1.0000</r>
       <r>  -0.4045  1.0000</r>
       <r>  -0.4023  1.0000</r>
       <r>  -0.4001  1.0000</r>
       <r>   0.3508  1.0000</r>
       <r>   0.3528  1.0000</r>
       <r>   0.3553  1.0000</r>
       <r>   1.1013  1.0000</r>
       <r>   1.1034  1.0000</r>
       <r>   1.1040  1.0000</r>
       <r>   1.1066  1.0000</r>
       <r>   1.8501  1.0000</r>
       <r>   1.8534  1.0000</r>
       <r>   2.5914  1.0000</r>
       <r>   2.5924  1.0000</r>
       <r>   2.5953  1.0000</r>
       <r>   3.3111  1.0000</r>
       <r>   3.3240  1.0000</r>
       <r>   3.3273  1.0000</r>
       <r>   3.3284  1.0000</r>
       <r>   3.3317  1.0000</r>
       <r>   4.0631  1.0000</r>
       <r>   4.7146  1.0000</r>
       <r>   4.7714  1.0000</r>
       <r>   4.8276  1.0000</r>
       <r>   4.8310  1.0000</r>
       <r>   5.4344  1.0000</r>
       <r>   5.4851  1.0000</r>
       <r>   5.4885  1.0000</r>
       <r>   5.6392  1.0000</r>
       <r>   6.2026  1.0000</r>
       <r>   6.2759  1.0000</r>
       <r>   6.2794  1.0000</r>
       <r>   6.3440  1.0000</r>
       <r>   6.8961  1.0000</r>
       <r>   6.8997  1.0000</r>
       <r>   6.9698  1.0000</r>
       <r>   6.9734  1.0000</r>
       <r>   7.0455  1.0000</r>
       <r>   7.0499  1.0000</r>
       <r>   7.6073  1.0000</r>
       <r>   7.6110  1.0000</r>
       <r>   7.6793  1.0000</r>
       <r>   7.7566  1.0000</r>
       <r>   7.9616  1.0000</r>
       <r>   8.4083  0.0000</r>
       <r>   8.4120  0.0000</r>
       <r>   8.4473  0.0000</r>
       <r>   8.4640  0.0000</r>
       <r>   8.6026  0.0000</r>
       <r>   8.6367  0.0000</r>
       <r>   9.1719  0.0000</r>
       <r>   9.1724  0.0000</r>
       <r>   9.3375  0.0000</r>
       <r>   9.3432  0.0000</r>
       <r>   9.8720  0.0000</r>
       <r>  10.1113  0.0000</r>
       <r>  10.1140  0.0000</r>
       <r>  10.4601  0.0000</r>
       <r>  10.4625  0.0000</r>
       <r>  10.4640  0.0000</r>
       <r>  10.5906  0.0000</r>
       <r>  10.7636  0.0000</r>
       <r>  10.9027  0.0000</r>
       <r>  10.9058  0.0000</r>
       <r>  10.9237  0.0000</r>
       <r>  11.0661  0.0000</r>
       <r>  11.2978  0.0000</r>
       <r>  11.6753  0.0000</r>
       <r>  11.6804  0.0000</r>
      </set>
      <set comment="kpoint 22">
       <r>  -2.6299  1.0000</r>
       <r>  -1.8620  1.0000</r>
       <r>  -1.0997  1.0000</r>
       <r>  -1.0972  1.0000</r>
       <r>  -0.3403  1.0000</r>
       <r>  -0.3378  1.0000</r>
       <r>   0.4137  1.0000</r>
       <r>   0.4157  1.0000</r>
       <r>   0.4175  1.0000</r>
       <r>   1.1641  1.0000</r>
       <r>   1.1651  1.0000</r>
       <r>   1.1668  1.0000</r>
       <r>   1.1687  1.0000</r>
       <r>   1.9127  1.0000</r>
       <r>   1.9136  1.0000</r>
       <r>   2.6523  1.0000</r>
       <r>   2.6541  1.0000</r>
       <r>   2.6547  1.0000</r>
       <r>   2.6555  1.0000</r>
       <r>   3.3724  1.0000</r>
       <r>   3.3915  1.0000</r>
       <r>   3.9803  1.0000</r>
       <r>   4.1217  1.0000</r>
       <r>   4.1242  1.0000</r>
       <r>   4.2996  1.0000</r>
       <r>   4.7743  1.0000</r>
       <r>   4.7752  1.0000</r>
       <r>   4.8294  1.0000</r>
       <r>   4.8320  1.0000</r>
       <r>   5.4928  1.0000</r>
       <r>   5.4938  1.0000</r>
       <r>   5.6119  1.0000</r>
       <r>   5.6130  1.0000</r>
       <r>   6.0930  1.0000</r>
       <r>   6.0954  1.0000</r>
       <r>   6.3112  1.0000</r>
       <r>   6.4106  1.0000</r>
       <r>   6.4133  1.0000</r>
       <r>   6.9531  1.0000</r>
       <r>   6.9556  1.0000</r>
       <r>   7.0619  1.0000</r>
       <r>   7.6610  1.0000</r>
       <r>   7.6623  1.0000</r>
       <r>   7.7502  1.0000</r>
       <r>   7.7514  1.0000</r>
       <r>   8.0164  1.0000</r>
       <r>   8.0174  1.0000</r>
       <r>   8.2679  1.0000</r>
       <r>   8.2695  1.0000</r>
       <r>   8.3818  0.0000</r>
       <r>   8.3831  0.0000</r>
       <r>   8.8715  0.0000</r>
       <r>   8.8716  0.0000</r>
       <r>   9.1862  0.0000</r>
       <r>   9.3926  0.0000</r>
       <r>   9.5118  0.0000</r>
       <r>   9.5132  0.0000</r>
       <r>   9.8069  0.0000</r>
       <r>   9.8095  0.0000</r>
       <r>  10.2548  0.0000</r>
       <r>  10.2561  0.0000</r>
       <r>  10.5247  0.0000</r>
       <r>  10.5256  0.0000</r>
       <r>  10.5444  0.0000</r>
       <r>  10.5472  0.0000</r>
       <r>  11.2309  0.0000</r>
       <r>  11.2323  0.0000</r>
       <r>  11.3616  0.0000</r>
       <r>  11.3635  0.0000</r>
       <r>  11.6540  0.0000</r>
       <r>  11.6568  0.0000</r>
       <r>  11.7571  0.0000</r>
      </set>
      <set comment="kpoint 23">
       <r>  -2.4375  1.0000</r>
       <r>  -1.6719  1.0000</r>
       <r>  -1.6695  1.0000</r>
       <r>  -0.9092  1.0000</r>
       <r>  -0.9072  1.0000</r>
       <r>  -0.1511  1.0000</r>
       <r>  -0.1486  1.0000</r>
       <r>   0.6033  1.0000</r>
       <r>   0.6046  1.0000</r>
       <r>   1.3497  1.0000</r>
       <r>   1.3522  1.0000</r>
       <r>   1.3530  1.0000</r>
       <r>   1.3554  1.0000</r>
       <r>   2.0965  1.0000</r>
       <r>   2.0975  1.0000</r>
       <r>   2.0998  1.0000</r>
       <r>   2.8371  1.0000</r>
       <r>   2.8396  1.0000</r>
       <r>   3.5553  1.0000</r>
       <r>   3.5562  1.0000</r>
       <r>   3.5678  1.0000</r>
       <r>   3.5687  1.0000</r>
       <r>   4.2853  1.0000</r>
       <r>   4.2878  1.0000</r>
       <r>   4.2972  1.0000</r>
       <r>   4.2997  1.0000</r>
       <r>   4.9546  1.0000</r>
       <r>   5.0039  1.0000</r>
       <r>   5.0048  1.0000</r>
       <r>   5.0238  1.0000</r>
       <r>   5.0724  1.0000</r>
       <r>   5.0734  1.0000</r>
       <r>   5.6654  1.0000</r>
       <r>   5.6681  1.0000</r>
       <r>   5.7751  1.0000</r>
       <r>   5.7776  1.0000</r>
       <r>   6.4239  1.0000</r>
       <r>   6.4936  1.0000</r>
       <r>   6.4946  1.0000</r>
       <r>   6.5164  1.0000</r>
       <r>   7.1804  1.0000</r>
       <r>   7.1819  1.0000</r>
       <r>   7.2088  1.0000</r>
       <r>   7.2114  1.0000</r>
       <r>   7.9612  1.0000</r>
       <r>   8.1661  1.0000</r>
       <r>   8.5376  0.0000</r>
       <r>   8.5404  0.0000</r>
       <r>   8.6444  0.0000</r>
       <r>   8.6457  0.0000</r>
       <r>   9.0023  0.0000</r>
       <r>   9.0043  0.0000</r>
       <r>   9.2703  0.0000</r>
       <r>   9.2717  0.0000</r>
       <r>   9.4034  0.0000</r>
       <r>   9.5450  0.0000</r>
       <r>   9.5463  0.0000</r>
       <r>   9.7185  0.0000</r>
       <r>  10.0755  0.0000</r>
       <r>  10.0768  0.0000</r>
       <r>  10.2817  0.0000</r>
       <r>  10.2834  0.0000</r>
       <r>  10.7221  0.0000</r>
       <r>  10.7232  0.0000</r>
       <r>  10.7517  0.0000</r>
       <r>  10.9966  0.0000</r>
       <r>  10.9974  0.0000</r>
       <r>  11.3667  0.0000</r>
       <r>  11.3696  0.0000</r>
       <r>  11.7654  0.0000</r>
       <r>  11.7666  0.0000</r>
       <r>  11.9687  0.0000</r>
      </set>
      <set comment="kpoint 24">
       <r>  -2.1190  1.0000</r>
       <r>  -2.1160  1.0000</r>
       <r>  -1.3539  1.0000</r>
       <r>  -1.3510  1.0000</r>
       <r>  -0.5932  1.0000</r>
       <r>  -0.5902  1.0000</r>
       <r>   0.1635  1.0000</r>
       <r>   0.1664  1.0000</r>
       <r>   0.9150  1.0000</r>
       <r>   0.9180  1.0000</r>
       <r>   1.6613  1.0000</r>
       <r>   1.6634  1.0000</r>
       <r>   1.6643  1.0000</r>
       <r>   1.6663  1.0000</r>
       <r>   2.4013  1.0000</r>
       <r>   2.4026  1.0000</r>
[...]
       <r>   7.4331  1.0000</r>
       <r>   8.1905  1.0000</r>
       <r>   8.1911  1.0000</r>
       <r>   8.1941  1.0000</r>
       <r>   8.1947  1.0000</r>
       <r>   8.3092  0.8755</r>
       <r>   8.3092  0.8750</r>
       <r>   8.3811  0.0000</r>
       <r>   8.3811  0.0000</r>
       <r>   9.6447  0.0000</r>
       <r>   9.6447  0.0000</r>
       <r>   9.7736  0.0000</r>
       <r>   9.7737  0.0000</r>
       <r>  10.3026  0.0000</r>
       <r>  10.3031  0.0000</r>
       <r>  10.3064  0.0000</r>
       <r>  10.3068  0.0000</r>
       <r>  10.3534  0.0000</r>
       <r>  10.3535  0.0000</r>
       <r>  11.0629  0.0000</r>
       <r>  11.0633  0.0000</r>
       <r>  11.0690  0.0000</r>
       <r>  11.0694  0.0000</r>
       <r>  11.1934  0.0000</r>
       <r>  11.1934  0.0000</r>
       <r>  11.7723  0.0000</r>
       <r>  11.7724  0.0000</r>
       <r>  11.9468  0.0000</r>
       <r>  11.9486  0.0000</r>
      </set>
      <set comment="kpoint 34">
       <r>  -2.1175  1.0000</r>
       <r>  -2.1175  1.0000</r>
       <r>  -1.3525  1.0000</r>
       <r>  -1.3525  1.0000</r>
       <r>  -0.5917  1.0000</r>
       <r>  -0.5917  1.0000</r>
       <r>   0.1649  1.0000</r>
       <r>   0.1649  1.0000</r>
       <r>   0.9165  1.0000</r>
       <r>   0.9165  1.0000</r>
       <r>   1.6624  1.0000</r>
       <r>   1.6629  1.0000</r>
       <r>   1.6648  1.0000</r>
       <r>   1.6652  1.0000</r>
       <r>   2.4019  1.0000</r>
       <r>   2.4019  1.0000</r>
       <r>   3.1409  1.0000</r>
       <r>   3.1410  1.0000</r>
       <r>   3.1448  1.0000</r>
       <r>   3.1449  1.0000</r>
       <r>   3.8609  1.0000</r>
       <r>   3.8609  1.0000</r>
       <r>   3.8741  1.0000</r>
       <r>   3.8741  1.0000</r>
       <r>   4.4547  1.0000</r>
       <r>   4.4547  1.0000</r>
       <r>   4.7926  1.0000</r>
       <r>   4.7926  1.0000</r>
       <r>   5.1636  1.0000</r>
       <r>   5.1636  1.0000</r>
       <r>   5.2534  1.0000</r>
       <r>   5.2534  1.0000</r>
       <r>   5.5137  1.0000</r>
       <r>   5.5137  1.0000</r>
       <r>   5.8589  1.0000</r>
       <r>   5.8589  1.0000</r>
       <r>   6.0895  1.0000</r>
       <r>   6.0895  1.0000</r>
       <r>   6.1853  1.0000</r>
       <r>   6.1854  1.0000</r>
       <r>   6.7897  1.0000</r>
       <r>   6.7897  1.0000</r>
       <r>   7.5317  1.0000</r>
       <r>   7.5317  1.0000</r>
       <r>   8.0625  1.0000</r>
       <r>   8.0625  1.0000</r>
       <r>   8.7051  0.0000</r>
       <r>   8.7052  0.0000</r>
       <r>   8.8498  0.0000</r>
       <r>   8.8498  0.0000</r>
       <r>   8.9701  0.0000</r>
       <r>   8.9701  0.0000</r>
       <r>   9.2989  0.0000</r>
       <r>   9.2989  0.0000</r>
       <r>   9.4533  0.0000</r>
       <r>   9.4533  0.0000</r>
       <r>   9.6491  0.0000</r>
       <r>   9.6491  0.0000</r>
       <r>   9.9958  0.0000</r>
       <r>   9.9958  0.0000</r>
       <r>  10.2702  0.0000</r>
       <r>  10.2702  0.0000</r>
       <r>  10.8732  0.0000</r>
       <r>  10.8732  0.0000</r>
       <r>  11.0753  0.0000</r>
       <r>  11.0753  0.0000</r>
       <r>  11.3387  0.0000</r>
       <r>  11.3387  0.0000</r>
       <r>  11.3917  0.0000</r>
       <r>  11.3917  0.0000</r>
       <r>  11.7367  0.0000</r>
       <r>  11.7367  0.0000</r>
      </set>
      <set comment="kpoint 35">
       <r>  -1.9259  1.0000</r>
       <r>  -1.9258  1.0000</r>
       <r>  -1.1641  1.0000</r>
       <r>  -1.1621  1.0000</r>
       <r>  -1.1617  1.0000</r>
       <r>  -1.1597  1.0000</r>
       <r>  -0.4021  1.0000</r>
       <r>  -0.4021  1.0000</r>
       <r>   1.8470  1.0000</r>
       <r>   1.8490  1.0000</r>
       <r>   1.8495  1.0000</r>
       <r>   1.8515  1.0000</r>
       <r>   2.5863  1.0000</r>
       <r>   2.5870  1.0000</r>
       <r>   2.5913  1.0000</r>
       <r>   2.5917  1.0000</r>
       <r>   2.5920  1.0000</r>
       <r>   2.5930  1.0000</r>
       <r>   3.3235  1.0000</r>
       <r>   3.3236  1.0000</r>
       <r>   3.3260  1.0000</r>
       <r>   3.3261  1.0000</r>
       <r>   4.0421  1.0000</r>
       <r>   4.0430  1.0000</r>
       <r>   4.0433  1.0000</r>
       <r>   4.0437  1.0000</r>
       <r>   4.0503  1.0000</r>
       <r>   4.0508  1.0000</r>
       <r>   4.7602  1.0000</r>
       <r>   4.7622  1.0000</r>
       <r>   4.7627  1.0000</r>
       <r>   4.7647  1.0000</r>
       <r>   5.5567  1.0000</r>
       <r>   5.5567  1.0000</r>
       <r>   6.2703  1.0000</r>
       <r>   6.2703  1.0000</r>
       <r>   6.2729  1.0000</r>
       <r>   6.2729  1.0000</r>
       <r>   6.9885  1.0000</r>
       <r>   6.9894  1.0000</r>
       <r>   6.9896  1.0000</r>
       <r>   6.9905  1.0000</r>
       <r>   7.6816  1.0000</r>
       <r>   7.6827  1.0000</r>
       <r>   7.6829  1.0000</r>
       <r>   7.6840  1.0000</r>
       <r>   8.3670  0.0000</r>
       <r>   8.3677  0.0000</r>
       <r>   8.3683  0.0000</r>
       <r>   8.3690  0.0000</r>
       <r>   9.1081  0.0000</r>
       <r>   9.1082  0.0000</r>
       <r>   9.1108  0.0000</r>
       <r>   9.1109  0.0000</r>
       <r>   9.7789  0.0000</r>
       <r>   9.7789  0.0000</r>
       <r>   9.8614  0.0000</r>
       <r>   9.8614  0.0000</r>
       <r>  10.1177  0.0000</r>
       <r>  10.1180  0.0000</r>
       <r>  10.1184  0.0000</r>
       <r>  10.1187  0.0000</r>
       <r>  10.8168  0.0000</r>
       <r>  10.8179  0.0000</r>
       <r>  10.8181  0.0000</r>
       <r>  10.8192  0.0000</r>
       <r>  11.5148  0.0000</r>
       <r>  11.5148  0.0000</r>
       <r>  11.9574  0.0000</r>
       <r>  11.9582  0.0000</r>
       <r>  11.9586  0.0000</r>
       <r>  11.9595  0.0000</r>
      </set>
      <set comment="kpoint 36">
       <r>  -1.6097  1.0000</r>
       <r>  -1.6072  1.0000</r>
       <r>  -1.6068  1.0000</r>
       <r>  -1.6043  1.0000</r>
       <r>  -0.8475  1.0000</r>
       <r>  -0.8450  1.0000</r>
       <r>  -0.8446  1.0000</r>
       <r>  -0.8421  1.0000</r>
       <r>   2.1565  1.0000</r>
       <r>   2.1590  1.0000</r>
       <r>   2.1595  1.0000</r>
       <r>   2.1620  1.0000</r>
       <r>   2.8911  1.0000</r>
       <r>   2.8929  1.0000</r>
       <r>   2.8947  1.0000</r>
       <r>   2.8950  1.0000</r>
       <r>   2.8952  1.0000</r>
       <r>   2.8955  1.0000</r>
       <r>   2.8972  1.0000</r>
       <r>   2.8991  1.0000</r>
       <r>   3.6256  1.0000</r>
       <r>   3.6275  1.0000</r>
       <r>   3.6292  1.0000</r>
       <r>   3.6296  1.0000</r>
       <r>   3.6297  1.0000</r>
       <r>   3.6300  1.0000</r>
       <r>   3.6318  1.0000</r>
       <r>   3.6337  1.0000</r>
       <r>   4.3428  1.0000</r>
       <r>   4.3453  1.0000</r>
       <r>   4.3458  1.0000</r>
       <r>   4.3484  1.0000</r>
       <r>   6.5639  1.0000</r>
       <r>   6.5657  1.0000</r>
       <r>   6.5676  1.0000</r>
       <r>   6.5679  1.0000</r>
       <r>   6.5681  1.0000</r>
       <r>   6.5683  1.0000</r>
       <r>   6.5703  1.0000</r>
       <r>   6.5721  1.0000</r>
       <r>   7.2710  1.0000</r>
       <r>   7.2723  1.0000</r>
       <r>   7.2724  1.0000</r>
       <r>   7.2737  1.0000</r>
       <r>   7.9992  1.0000</r>
       <r>   8.0005  1.0000</r>
       <r>   8.0007  1.0000</r>
       <r>   8.0019  1.0000</r>
       <r>   8.6806  0.0000</r>
       <r>   8.6829  0.0000</r>
       <r>   8.6848  0.0000</r>
       <r>   8.6851  0.0000</r>
       <r>   8.6852  0.0000</r>
       <r>   8.6855  0.0000</r>
       <r>   8.6874  0.0000</r>
       <r>   8.6897  0.0000</r>
       <r>  10.4052  0.0000</r>
       <r>  10.4074  0.0000</r>
       <r>  10.4082  0.0000</r>
       <r>  10.4104  0.0000</r>
       <r>  10.8600  0.0000</r>
       <r>  10.8613  0.0000</r>
       <r>  10.8616  0.0000</r>
       <r>  10.8629  0.0000</r>
       <r>  11.7903  0.0000</r>
       <r>  11.7913  0.0000</r>
       <r>  11.7915  0.0000</r>
       <r>  11.7927  0.0000</r>
       <r>  11.7930  0.0000</r>
       <r>  11.7942  0.0000</r>
       <r>  11.7944  0.0000</r>
       <r>  11.7954  0.0000</r>
      </set>
      <set comment="kpoint 37">
       <r>  -1.8620  1.0000</r>
       <r>  -1.8620  1.0000</r>
       <r>  -1.8620  1.0000</r>
       <r>  -1.8620  1.0000</r>
       <r>   0.4108  1.0000</r>
       <r>   0.4153  1.0000</r>
       <r>   0.4153  1.0000</r>
       <r>   0.4159  1.0000</r>
       <r>   0.4161  1.0000</r>
       <r>   0.4167  1.0000</r>
       <r>   0.4167  1.0000</r>
       <r>   0.4212  1.0000</r>
       <r>   2.6488  1.0000</r>
       <r>   2.6488  1.0000</r>
       <r>   2.6488  1.0000</r>
       <r>   2.6488  1.0000</r>
       <r>   2.6488  1.0000</r>
       <r>   2.6488  1.0000</r>
       <r>   2.6488  1.0000</r>
       <r>   2.6488  1.0000</r>
       <r>   4.6900  1.0000</r>
       <r>   4.6900  1.0000</r>
       <r>   4.6915  1.0000</r>
       <r>   4.6916  1.0000</r>
       <r>   4.6916  1.0000</r>
       <r>   4.6916  1.0000</r>
       <r>   4.6931  1.0000</r>
       <r>   4.6931  1.0000</r>
       <r>   5.0344  1.0000</r>
       <r>   5.0344  1.0000</r>
       <r>   5.0362  1.0000</r>
       <r>   5.0362  1.0000</r>
       <r>   5.0362  1.0000</r>
       <r>   5.0363  1.0000</r>
       <r>   5.0380  1.0000</r>
       <r>   5.0380  1.0000</r>
       <r>   6.4028  1.0000</r>
       <r>   6.4028  1.0000</r>
       <r>   6.4028  1.0000</r>
       <r>   6.4028  1.0000</r>
       <r>   6.9286  1.0000</r>
       <r>   6.9286  1.0000</r>
       <r>   6.9286  1.0000</r>
       <r>   6.9286  1.0000</r>
       <r>   8.0138  1.0000</r>
       <r>   8.0139  1.0000</r>
       <r>   8.0139  1.0000</r>
       <r>   8.0139  1.0000</r>
       <r>   9.1976  0.0000</r>
       <r>   9.1976  0.0000</r>
       <r>   9.1980  0.0000</r>
       <r>   9.1992  0.0000</r>
       <r>   9.2007  0.0000</r>
       <r>   9.2019  0.0000</r>
       <r>   9.2023  0.0000</r>
       <r>   9.2023  0.0000</r>
       <r>  10.6493  0.0000</r>
       <r>  10.6493  0.0000</r>
       <r>  10.6493  0.0000</r>
       <r>  10.6494  0.0000</r>
       <r>  10.6494  0.0000</r>
       <r>  10.6494  0.0000</r>
       <r>  10.6494  0.0000</r>
       <r>  10.6494  0.0000</r>
       <r>  11.3677  0.0000</r>
       <r>  11.3677  0.0000</r>
       <r>  11.3678  0.0000</r>
       <r>  11.3678  0.0000</r>
       <r>  11.3678  0.0000</r>
       <r>  11.3678  0.0000</r>
       <r>  11.3678  0.0000</r>
       <r>  11.3678  0.0000</r>
      </set>
      <set comment="kpoint 38">
       <r>  -1.7982  1.0000</r>
       <r>  -1.7982  1.0000</r>
       <r>  -1.7982  1.0000</r>
       <r>  -1.7982  1.0000</r>
       <r>  -0.2760  1.0000</r>
       <r>  -0.2759  1.0000</r>
       <r>  -0.2759  1.0000</r>
       <r>  -0.2759  1.0000</r>
       <r>   1.2288  1.0000</r>
       <r>   1.2288  1.0000</r>
       <r>   1.2288  1.0000</r>
       <r>   1.2288  1.0000</r>
       <r>   2.7104  1.0000</r>
       <r>   2.7104  1.0000</r>
       <r>   2.7104  1.0000</r>
       <r>   2.7104  1.0000</r>
       <r>   2.7104  1.0000</r>
       <r>   2.7104  1.0000</r>
       <r>   2.7104  1.0000</r>
       <r>   2.7104  1.0000</r>
       <r>   4.1716  1.0000</r>
       <r>   4.1716  1.0000</r>
       <r>   4.1719  1.0000</r>
       <r>   4.1719  1.0000</r>
       <r>   4.1719  1.0000</r>
       <r>   4.1719  1.0000</r>
       <r>   4.1722  1.0000</r>
       <r>   4.1722  1.0000</r>
       <r>   5.5469  1.0000</r>
       <r>   5.5469  1.0000</r>
       <r>   5.5469  1.0000</r>
       <r>   5.5469  1.0000</r>
       <r>   5.6731  1.0000</r>
       <r>   5.6731  1.0000</r>
       <r>   5.6736  1.0000</r>
       <r>   5.6736  1.0000</r>
       <r>   5.6736  1.0000</r>
       <r>   5.6736  1.0000</r>
       <r>   5.6741  1.0000</r>
       <r>   5.6741  1.0000</r>
       <r>   7.0742  1.0000</r>
       <r>   7.0742  1.0000</r>
       <r>   7.0742  1.0000</r>
       <r>   7.0742  1.0000</r>
       <r>   8.5415  0.0000</r>
       <r>   8.5415  0.0000</r>
       <r>   8.5415  0.0000</r>
       <r>   8.5416  0.0000</r>
       <r>   8.8943  0.0000</r>
       <r>   8.8944  0.0000</r>
       <r>   8.8944  0.0000</r>
       <r>   8.8944  0.0000</r>
       <r>   9.8415  0.0000</r>
       <r>   9.8415  0.0000</r>
       <r>   9.8421  0.0000</r>
       <r>   9.8421  0.0000</r>
       <r>   9.8421  0.0000</r>
       <r>   9.8422  0.0000</r>
       <r>   9.8427  0.0000</r>
       <r>   9.8427  0.0000</r>
       <r>   9.9741  0.0000</r>
       <r>   9.9741  0.0000</r>
       <r>   9.9741  0.0000</r>
       <r>   9.9741  0.0000</r>
       <r>  11.5753  0.0000</r>
       <r>  11.5753  0.0000</r>
       <r>  11.5763  0.0000</r>
       <r>  11.5763  0.0000</r>
       <r>  11.5763  0.0000</r>
       <r>  11.5763  0.0000</r>
       <r>  11.5773  0.0000</r>
       <r>  11.5773  0.0000</r>
      </set>
      <set comment="kpoint 39">
       <r>  -1.6070  1.0000</r>
       <r>  -1.6070  1.0000</r>
       <r>  -1.6070  1.0000</r>
       <r>  -1.6070  1.0000</r>
       <r>  -0.8448  1.0000</r>
       <r>  -0.8448  1.0000</r>
       <r>  -0.8448  1.0000</r>
       <r>  -0.8448  1.0000</r>
       <r>   2.1592  1.0000</r>
       <r>   2.1592  1.0000</r>
       <r>   2.1592  1.0000</r>
       <r>   2.1593  1.0000</r>
       <r>   2.8951  1.0000</r>
       <r>   2.8951  1.0000</r>
       <r>   2.8951  1.0000</r>
       <r>   2.8951  1.0000</r>
       <r>   2.8951  1.0000</r>
       <r>   2.8951  1.0000</r>
       <r>   2.8951  1.0000</r>
       <r>   2.8951  1.0000</r>
       <r>   3.6295  1.0000</r>
       <r>   3.6295  1.0000</r>
       <r>   3.6296  1.0000</r>
       <r>   3.6296  1.0000</r>
       <r>   3.6296  1.0000</r>
       <r>   3.6296  1.0000</r>
       <r>   3.6297  1.0000</r>
       <r>   3.6297  1.0000</r>
       <r>   4.3456  1.0000</r>
       <r>   4.3456  1.0000</r>
       <r>   4.3456  1.0000</r>
       <r>   4.3456  1.0000</r>
       <r>   6.5676  1.0000</r>
       <r>   6.5676  1.0000</r>
       <r>   6.5680  1.0000</r>
       <r>   6.5680  1.0000</r>
       <r>   6.5680  1.0000</r>
       <r>   6.5680  1.0000</r>
       <r>   6.5683  1.0000</r>
       <r>   6.5683  1.0000</r>
       <r>   7.2723  1.0000</r>
       <r>   7.2723  1.0000</r>
       <r>   7.2723  1.0000</r>
       <r>   7.2724  1.0000</r>
       <r>   8.0006  1.0000</r>
       <r>   8.0006  1.0000</r>
       <r>   8.0006  1.0000</r>
       <r>   8.0006  1.0000</r>
       <r>   8.6847  0.0000</r>
       <r>   8.6847  0.0000</r>
       <r>   8.6851  0.0000</r>
       <r>   8.6851  0.0000</r>
       <r>   8.6851  0.0000</r>
       <r>   8.6852  0.0000</r>
       <r>   8.6856  0.0000</r>
       <r>   8.6856  0.0000</r>
       <r>  10.4078  0.0000</r>
       <r>  10.4078  0.0000</r>
       <r>  10.4078  0.0000</r>
       <r>  10.4078  0.0000</r>
       <r>  10.8614  0.0000</r>
       <r>  10.8614  0.0000</r>
       <r>  10.8614  0.0000</r>
       <r>  10.8615  0.0000</r>
       <r>  11.7922  0.0000</r>
       <r>  11.7922  0.0000</r>
       <r>  11.7928  0.0000</r>
       <r>  11.7929  0.0000</r>
       <r>  11.7929  0.0000</r>
       <r>  11.7929  0.0000</r>
       <r>  11.7935  0.0000</r>
       <r>  11.7935  0.0000</r>
      </set>
      <set comment="kpoint 40">
       <r>  -1.2939  1.0000</r>
       <r>  -1.2894  1.0000</r>
       <r>  -1.2894  1.0000</r>
       <r>  -1.2889  1.0000</r>
       <r>  -1.2889  1.0000</r>
       <r>  -1.2884  1.0000</r>
       <r>  -1.2884  1.0000</r>
       <r>  -1.2840  1.0000</r>
       <r>   3.1917  1.0000</r>
       <r>   3.1978  1.0000</r>
       <r>   3.1978  1.0000</r>
       <r>   3.2011  1.0000</r>
       <r>   3.2015  1.0000</r>
       <r>   3.2016  1.0000</r>
       <r>   3.2019  1.0000</r>
       <r>   3.2019  1.0000</r>
       <r>   3.2020  1.0000</r>
       <r>   3.2020  1.0000</r>
       <r>   3.2020  1.0000</r>
       <r>   3.2020  1.0000</r>
       <r>   3.2021  1.0000</r>
       <r>   3.2021  1.0000</r>
       <r>   3.2021  1.0000</r>
       <r>   3.2021  1.0000</r>
       <r>   3.2022  1.0000</r>
       <r>   3.2022  1.0000</r>
       <r>   3.2026  1.0000</r>
       <r>   3.2026  1.0000</r>
       <r>   3.2030  1.0000</r>
       <r>   3.2063  1.0000</r>
       <r>   3.2063  1.0000</r>
       <r>   3.2124  1.0000</r>
       <r>   7.5716  1.0000</r>
       <r>   7.5716  1.0000</r>
       <r>   7.5738  1.0000</r>
       <r>   7.5755  1.0000</r>
       <r>   7.5770  1.0000</r>
       <r>   7.5774  1.0000</r>
       <r>   7.5775  1.0000</r>
       <r>   7.5775  1.0000</r>
       <r>   7.5777  1.0000</r>
       <r>   7.5778  1.0000</r>
       <r>   7.5778  1.0000</r>
       <r>   7.5778  1.0000</r>
       <r>   7.5778  1.0000</r>
       <r>   7.5779  1.0000</r>
       <r>   7.5779  1.0000</r>
       <r>   7.5779  1.0000</r>
       <r>   7.5781  1.0000</r>
       <r>   7.5781  1.0000</r>
       <r>   7.5782  1.0000</r>
       <r>   7.5786  1.0000</r>
       <r>   7.5802  1.0000</r>
       <r>   7.5819  1.0000</r>
       <r>   7.5840  1.0000</r>
       <r>   7.5840  1.0000</r>
       <r>  11.8553  0.0000</r>
       <r>  11.8556  0.0000</r>
       <r>  11.8556  0.0000</r>
       <r>  11.8560  0.0000</r>
       <r>  11.8577  0.0000</r>
       <r>  11.8582  0.0000</r>
       <r>  11.8582  0.0000</r>
       <r>  11.8586  0.0000</r>
       <r>  12.0908  0.0000</r>
       <r>  12.0917  0.0000</r>
       <r>  12.0924  0.0000</r>
       <r>  12.0930  0.0000</r>
       <r>  12.0936  0.0000</r>
       <r>  12.0938  0.0000</r>
       <r>  12.0942  0.0000</r>
       <r>  12.0950  0.0000</r>
      </set>
     </set>
    </set>
   </array>
  </eigenvalues>
 </calculation>
 <structure name="finalpos" >
  <crystal>
   <varray name="basis" >
    <v>       7.99365580      0.00000000      0.00000000</v>
    <v>       0.00000000      7.99365580      0.00000000</v>
    <v>       0.00000000      0.00000000      7.99365580</v>
   </varray>
   <i name="volume">    510.78287970</i>
   <varray name="rec_basis" >
    <v>       0.12509921      0.00000000      0.00000000</v>
    <v>       0.00000000      0.12509921      0.00000000</v>
    <v>       0.00000000      0.00000000      0.12509921</v>
   </varray>
  </crystal>
  <varray name="positions" >
   <v>       0.25125099      0.25000000      0.00000000</v>
   <v>       0.75000000      0.25000000      0.00000000</v>
   <v>       0.25000000      0.75000000      0.00000000</v>
   <v>       0.75000000      0.75000000      0.00000000</v>
   <v>       0.25000000      0.25000000      0.50000000</v>
   <v>       0.75000000      0.25000000      0.50000000</v>
   <v>       0.25000000      0.75000000      0.50000000</v>
   <v>       0.75000000      0.75000000      0.50000000</v>
   <v>       0.25000000      0.00000000      0.25000000</v>
   <v>       0.75000000      0.00000000      0.25000000</v>
   <v>       0.25000000      0.50000000      0.25000000</v>
   <v>       0.75000000      0.50000000      0.25000000</v>
   <v>       0.25000000      0.00000000      0.75000000</v>
   <v>       0.75000000      0.00000000      0.75000000</v>
   <v>       0.25000000      0.50000000      0.75000000</v>
   <v>       0.75000000      0.50000000      0.75000000</v>
   <v>       0.00000000      0.25000000      0.25000000</v>
   <v>       0.50000000      0.25000000      0.25000000</v>
   <v>       0.00000000      0.75000000      0.25000000</v>
   <v>       0.50000000      0.75000000      0.25000000</v>
   <v>       0.00000000      0.25000000      0.75000000</v>
   <v>       0.50000000      0.25000000      0.75000000</v>
   <v>       0.00000000      0.75000000      0.75000000</v>
   <v>       0.50000000      0.75000000      0.75000000</v>
   <v>       0.00000000      0.00000000      0.00000000</v>
   <v>       0.50000000      0.00000000      0.00000000</v>
   <v>       0.00000000      0.50000000      0.00000000</v>
   <v>       0.50000000      0.50000000      0.00000000</v>
   <v>       0.00000000      0.00000000      0.50000000</v>
   <v>       0.50000000      0.00000000      0.50000000</v>
   <v>       0.00000000      0.50000000      0.50000000</v>
   <v>       0.50000000      0.50000000      0.50000000</v>
  </varray>
 </structure>
</modeling>
