 running on    8 nodes
 distr:  one band on    1 nodes,    8 groups
 vasp.4.6.28 25Jul05 complex 
 POSCAR found :  1 types and   32 ions

 ----------------------------------------------------------------------------- 
|                                                                             |
|  ADVICE TO THIS USER RUNNING 'VASP/VAMP'   (HEAR YOUR MASTER'S VOICE ...):  |
|                                                                             |
|      You have a (more or less) 'large supercell' and for larger cells       |
|      it might be more efficient to use real space projection operators      |
|      So try LREAL= Auto  in the INCAR   file.                               |
|      Mind: If you want to do an extremely accurate calculations keep the    |
|      reciprocal projection scheme          (i.e. LREAL=.FALSE.)             |
|                                                                             |
 ----------------------------------------------------------------------------- 

 LDA part: xc-table for Pade appr. of Perdew
 generate k-points for:   6   6   6
 POSCAR, INCAR and KPOINTS ok, starting setup
 FFT: planning ...           1
 reading WAVECAR
 WARNING: random wavefunctions but no delay for mixing, default for NELMDL
 entering main loop
       N       E                     dE             d eps       ncg     rms          rms(c)
DAV:   1     0.137244707470E+03    0.13724E+03   -0.33652E+04  5760   0.106E+03
DAV:   2    -0.104814119725E+03   -0.24206E+03   -0.22466E+03  6752   0.146E+02
DAV:   3    -0.118172244859E+03   -0.13358E+02   -0.12721E+02  7152   0.275E+01
DAV:   4    -0.118412247606E+03   -0.24000E+00   -0.23806E+00  6688   0.384E+00
DAV:   5    -0.118414942987E+03   -0.26954E-02   -0.26942E-02  6664   0.477E-01    0.557E+00
DAV:   6    -0.117934032678E+03    0.48091E+00   -0.34323E-02  6608   0.575E-01    0.347E+00
DAV:   7    -0.117587371878E+03    0.34666E+00   -0.10812E-01  6184   0.941E-01    0.134E-01
DAV:   8    -0.117587588722E+03   -0.21684E-03   -0.11088E-03  6872   0.132E-01    0.521E-02
DAV:   9    -0.117587626109E+03   -0.37387E-04   -0.64486E-05  6536   0.213E-02    0.484E-03
DAV:  10    -0.117587629284E+03   -0.31748E-05   -0.42244E-06  6800   0.646E-03    0.208E-03
DAV:  11    -0.117587627896E+03    0.13884E-05   -0.26451E-07  6672   0.156E-03    0.829E-04
DAV:  12    -0.117587627306E+03    0.59003E-06   -0.17950E-08  4424   0.448E-04    0.148E-04
DAV:  13    -0.117587627171E+03    0.13423E-06   -0.27954E-09  3720   0.195E-04    0.317E-05
DAV:  14    -0.117587627159E+03    0.12634E-07   -0.45857E-10  3688   0.713E-05    0.981E-06
DAV:  15    -0.117587627161E+03   -0.22833E-08   -0.90523E-11  3560   0.360E-05
   1 F= -.11758763E+03 E0= -.11758705E+03  d E =-.115336E-02
