  32  32   0   0
  0.1455441E+02  0.7751424E-09  0.7751424E-09  0.7751424E-09  0.5000000E-15
  1.000000000000000E-004
  CAR 
 unknown system                          
     14.24120831     -3.46186759  301      9.34483877      1.00000000
     -3.462  0.0000E+00  0.0000E+00
     -3.403  0.0000E+00  0.0000E+00
     -3.344  0.0000E+00  0.0000E+00
     -3.285  0.0000E+00  0.0000E+00
     -3.226  0.0000E+00  0.0000E+00
     -3.167  0.0000E+00  0.0000E+00
     -3.108  0.0000E+00  0.0000E+00
     -3.049  0.0000E+00  0.0000E+00
     -2.990  0.0000E+00  0.0000E+00
     -2.931  0.0000E+00  0.0000E+00
     -2.872  0.0000E+00  0.0000E+00
     -2.813  0.0000E+00  0.0000E+00
     -2.754  0.0000E+00  0.0000E+00
     -2.695  0.8570E-08  0.5057E-09
     -2.636  0.1567E+00  0.9248E-02
     -2.577  0.9006E+00  0.6240E-01
     -2.518  0.1269E+01  0.1373E+00
     -2.459  0.8791E+00  0.1892E+00
     -2.400  0.1043E+01  0.2507E+00
     -2.341  0.9301E+00  0.3056E+00
     -2.282  0.3765E+01  0.5278E+00
     -2.223  0.3765E+01  0.7500E+00
     -2.164  0.1179E-12  0.7500E+00
     -2.105  0.1553E+01  0.8417E+00
     -2.046  0.2044E+01  0.9623E+00
     -1.987  0.3194E+01  0.1151E+01
     -1.928  0.3572E+01  0.1362E+01
     -1.869  0.3758E+01  0.1583E+01
     -1.810  0.1255E+01  0.1657E+01
     -1.751  0.3759E+01  0.1879E+01
     -1.692  0.7170E+01  0.2302E+01
     -1.633  0.3682E+00  0.2324E+01
     -1.574  0.1908E+00  0.2335E+01
     -1.515  0.8988E+00  0.2388E+01
     -1.456  0.7386E+01  0.2824E+01
     -1.397  0.5646E+01  0.3157E+01
     -1.337  0.3765E+01  0.3380E+01
     -1.278  0.3746E+01  0.3601E+01
     -1.219  0.6892E+01  0.4007E+01
     -1.160  0.2774E+01  0.4171E+01
     -1.101  0.1651E+01  0.4269E+01
     -1.042  0.5180E-01  0.4272E+01
     -0.983  0.3715E+01  0.4491E+01
     -0.924  0.4706E+01  0.4769E+01
     -0.865  0.1130E+02  0.5435E+01
     -0.806  0.4983E+01  0.5729E+01
     -0.747  0.3757E-01  0.5731E+01
     -0.688  0.6337E+01  0.6105E+01
     -0.629  0.6152E+01  0.6468E+01
     -0.570  0.6340E+01  0.6843E+01
     -0.511  0.7826E-03  0.6843E+01
     -0.452  0.1882E+01  0.6954E+01
     -0.393  0.7531E+01  0.7398E+01
     -0.334  0.7501E+01  0.7841E+01
     -0.275  0.7065E+01  0.8258E+01
     -0.216  0.3579E+01  0.8469E+01
     -0.157  0.2551E+01  0.8619E+01
     -0.098  0.3217E+01  0.8809E+01
     -0.039  0.1092E+02  0.9454E+01
      0.020  0.1437E-03  0.9454E+01
      0.079  0.3766E+01  0.9676E+01
      0.138  0.1505E+02  0.1056E+02
      0.197  0.7370E+01  0.1100E+02
      0.256  0.3236E+01  0.1119E+02
      0.315  0.2350E+01  0.1133E+02
      0.374  0.3353E+01  0.1153E+02
      0.433  0.1014E+02  0.1213E+02
      0.492  0.7447E+01  0.1256E+02
      0.551  0.3636E-05  0.1256E+02
      0.610  0.1255E+01  0.1264E+02
      0.669  0.8445E+01  0.1314E+02
      0.728  0.1260E+02  0.1388E+02
      0.787  0.6166E+01  0.1424E+02
      0.846  0.3268E+01  0.1444E+02
      0.905  0.3362E+01  0.1464E+02
      0.964  0.1052E+02  0.1526E+02
      1.023  0.1495E+02  0.1614E+02
      1.082  0.2794E-04  0.1614E+02
      1.141  0.7531E+01  0.1658E+02
      1.200  0.7508E+01  0.1703E+02
      1.259  0.3642E+01  0.1724E+02
      1.318  0.8713E+01  0.1776E+02
      1.377  0.2731E+01  0.1792E+02
      1.436  0.1095E+01  0.1798E+02
      1.495  0.1038E+02  0.1859E+02
      1.554  0.1488E+02  0.1947E+02
      1.613  0.2394E-04  0.1947E+02
      1.672  0.9414E+00  0.1953E+02
      1.731  0.1505E+02  0.2042E+02
      1.790  0.1481E+02  0.2129E+02
      1.849  0.3544E+01  0.2150E+02
      1.908  0.5009E+01  0.2179E+02
      1.967  0.6872E+01  0.2220E+02
      2.026  0.1151E+02  0.2288E+02
      2.085  0.7224E+01  0.2331E+02
      2.144  0.2096E-02  0.2331E+02
      2.203  0.5647E+01  0.2364E+02
      2.262  0.7531E+01  0.2408E+02
      2.321  0.1879E+02  0.2519E+02
      2.380  0.8517E+01  0.2570E+02
      2.439  0.3398E+01  0.2590E+02
      2.498  0.9376E+01  0.2645E+02
      2.557  0.7881E+01  0.2691E+02
      2.616  0.6008E+01  0.2727E+02
      2.675  0.2511E-01  0.2727E+02
      2.734  0.3752E+01  0.2749E+02
      2.793  0.1599E+02  0.2844E+02
      2.852  0.7531E+01  0.2888E+02
      2.911  0.1129E+02  0.2955E+02
      2.970  0.7453E+01  0.2999E+02
      3.029  0.7098E+01  0.3040E+02
      3.088  0.1520E+02  0.3130E+02
      3.147  0.4144E+01  0.3155E+02
      3.206  0.9104E+00  0.3160E+02
      3.265  0.3825E+01  0.3183E+02
      3.324  0.2179E+02  0.3311E+02
      3.383  0.1868E+02  0.3421E+02
      3.442  0.7518E+01  0.3466E+02
      3.501  0.1512E-05  0.3466E+02
      3.560  0.7526E+01  0.3510E+02
      3.619  0.1502E+02  0.3599E+02
      3.678  0.4393E-01  0.3599E+02
      3.737  0.3449E+01  0.3619E+02
      3.796  0.6558E+01  0.3658E+02
      3.855  0.7451E+01  0.3702E+02
      3.914  0.1499E+02  0.3791E+02
      3.973  0.7614E+01  0.3835E+02
      4.032  0.7938E+01  0.3882E+02
      4.091  0.2289E+02  0.4017E+02
      4.150  0.7253E+01  0.4060E+02
      4.209  0.6203E-02  0.4060E+02
      4.268  0.1161E+02  0.4129E+02
      4.327  0.1537E+02  0.4219E+02
      4.386  0.1172E+02  0.4289E+02
      4.446  0.1385E+02  0.4370E+02
      4.505  0.4539E+01  0.4397E+02
      4.564  0.1110E+02  0.4463E+02
      4.623  0.9711E+01  0.4520E+02
      4.682  0.9336E+01  0.4575E+02
      4.741  0.8156E-04  0.4575E+02
      4.800  0.7892E+01  0.4622E+02
      4.859  0.1157E+02  0.4690E+02
      4.918  0.8859E+01  0.4742E+02
      4.977  0.9974E+01  0.4801E+02
      5.036  0.3772E+01  0.4823E+02
      5.095  0.1880E+02  0.4934E+02
      5.154  0.1797E+02  0.5040E+02
      5.213  0.3554E+01  0.5061E+02
      5.272  0.9556E+01  0.5118E+02
      5.331  0.1164E+02  0.5186E+02
      5.390  0.7628E+01  0.5231E+02
      5.449  0.7074E+01  0.5273E+02
      5.508  0.2015E+01  0.5285E+02
      5.567  0.1637E+02  0.5382E+02
      5.626  0.1046E+02  0.5443E+02
      5.685  0.8177E+01  0.5492E+02
      5.744  0.1201E+02  0.5562E+02
      5.803  0.1463E+02  0.5649E+02
      5.862  0.9791E+01  0.5707E+02
      5.921  0.1884E+02  0.5818E+02
      5.980  0.1728E+02  0.5920E+02
      6.039  0.1529E+01  0.5929E+02
      6.098  0.1130E+02  0.5995E+02
      6.157  0.4429E+00  0.5998E+02
      6.216  0.9223E+01  0.6052E+02
      6.275  0.1601E+02  0.6147E+02
      6.334  0.1611E+02  0.6242E+02
      6.393  0.1241E+02  0.6315E+02
      6.452  0.4680E+01  0.6343E+02
      6.511  0.2601E+02  0.6496E+02
      6.570  0.3218E+01  0.6515E+02
      6.629  0.6671E+01  0.6555E+02
      6.688  0.1445E+02  0.6640E+02
      6.747  0.6915E+01  0.6681E+02
      6.806  0.7315E+01  0.6724E+02
      6.865  0.1264E+02  0.6798E+02
      6.924  0.1888E+02  0.6910E+02
      6.983  0.9451E+01  0.6966E+02
      7.042  0.7778E+01  0.7012E+02
      7.101  0.4638E+01  0.7039E+02
      7.160  0.9384E+01  0.7094E+02
      7.219  0.1934E+02  0.7208E+02
      7.278  0.5162E+01  0.7239E+02
      7.337  0.1838E+01  0.7250E+02
      7.396  0.2448E+02  0.7394E+02
      7.455  0.1602E+02  0.7489E+02
      7.514  0.1783E+02  0.7594E+02
      7.573  0.6339E+01  0.7631E+02
      7.632  0.1278E+01  0.7639E+02
      7.691  0.3771E+01  0.7661E+02
      7.750  0.1194E+02  0.7732E+02
      7.809  0.9184E+01  0.7786E+02
      7.868  0.9635E+01  0.7843E+02
      7.927  0.1851E+02  0.7952E+02
      7.986  0.1427E+02  0.8036E+02
      8.045  0.1033E+02  0.8097E+02
      8.104  0.4512E+01  0.8124E+02
      8.163  0.1821E+02  0.8231E+02
      8.222  0.1152E+02  0.8299E+02
      8.281  0.1634E+02  0.8396E+02
      8.340  0.1451E+02  0.8481E+02
      8.399  0.5270E+01  0.8512E+02
      8.458  0.1232E+02  0.8585E+02
      8.517  0.6079E+01  0.8621E+02
      8.576  0.1249E+02  0.8695E+02
      8.635  0.1922E+02  0.8808E+02
      8.694  0.1318E+02  0.8886E+02
      8.753  0.8430E+01  0.8936E+02
      8.812  0.3858E+01  0.8958E+02
      8.871  0.3765E+01  0.8981E+02
      8.930  0.3732E+01  0.9003E+02
      8.989  0.2287E+02  0.9138E+02
      9.048  0.1104E+02  0.9203E+02
      9.107  0.9853E+01  0.9261E+02
      9.166  0.1546E+02  0.9352E+02
      9.225  0.1833E+02  0.9460E+02
      9.284  0.1661E+02  0.9558E+02
      9.343  0.6516E+01  0.9597E+02
      9.402  0.1702E+02  0.9697E+02
      9.461  0.1130E+02  0.9764E+02
      9.520  0.1018E+02  0.9824E+02
      9.579  0.1527E+02  0.9914E+02
      9.638  0.4649E+01  0.9942E+02
      9.697  0.8965E+01  0.9995E+02
      9.756  0.1336E+02  0.1007E+03
      9.815  0.6036E+00  0.1008E+03
      9.874  0.1191E+02  0.1015E+03
      9.933  0.1657E+02  0.1024E+03
      9.992  0.1203E+02  0.1032E+03
     10.051  0.1752E+02  0.1042E+03
     10.110  0.6665E+01  0.1046E+03
     10.170  0.1979E+02  0.1058E+03
     10.229  0.3052E+01  0.1059E+03
     10.288  0.7516E+01  0.1064E+03
     10.347  0.2262E+02  0.1077E+03
     10.406  0.1325E+02  0.1085E+03
     10.465  0.2281E+02  0.1098E+03
     10.524  0.4404E+01  0.1101E+03
     10.583  0.2271E+02  0.1114E+03
     10.642  0.1882E+02  0.1126E+03
     10.701  0.9301E+01  0.1131E+03
     10.760  0.1479E+02  0.1140E+03
     10.819  0.1503E+01  0.1141E+03
     10.878  0.8108E+01  0.1145E+03
     10.937  0.2078E+02  0.1158E+03
     10.996  0.6917E+01  0.1162E+03
     11.055  0.7314E+01  0.1166E+03
     11.114  0.8398E+01  0.1171E+03
     11.173  0.7325E+01  0.1175E+03
     11.232  0.2939E+02  0.1193E+03
     11.291  0.2518E+01  0.1194E+03
     11.350  0.1104E+02  0.1201E+03
     11.409  0.1812E+02  0.1211E+03
     11.468  0.2240E+02  0.1225E+03
     11.527  0.4249E+01  0.1227E+03
     11.586  0.1724E+02  0.1237E+03
     11.645  0.1004E+02  0.1243E+03
     11.704  0.2445E+02  0.1258E+03
     11.763  0.1019E+02  0.1264E+03
     11.822  0.2193E+01  0.1265E+03
     11.881  0.2035E+01  0.1266E+03
     11.940  0.2260E+02  0.1279E+03
     11.999  0.2609E+01  0.1281E+03
     12.058  0.2256E+02  0.1294E+03
     12.117  0.6584E+00  0.1295E+03
     12.176  0.2420E+02  0.1309E+03
     12.235  0.1324E+02  0.1317E+03
     12.294  0.9919E+01  0.1323E+03
     12.353  0.1692E+02  0.1333E+03
     12.412  0.2282E+02  0.1346E+03
     12.471  0.1177E+02  0.1353E+03
     12.530  0.9208E+01  0.1359E+03
     12.589  0.1758E+02  0.1369E+03
     12.648  0.1884E+02  0.1380E+03
     12.707  0.1402E+01  0.1381E+03
     12.766  0.1484E+02  0.1390E+03
     12.825  0.8658E+01  0.1395E+03
     12.884  0.6373E+01  0.1398E+03
     12.943  0.1892E+02  0.1410E+03
     13.002  0.1206E+00  0.1410E+03
     13.061  0.1660E+02  0.1419E+03
     13.120  0.7832E+01  0.1424E+03
     13.179  0.1369E+02  0.1432E+03
     13.238  0.1703E+01  0.1433E+03
     13.297  0.1796E+01  0.1434E+03
     13.356  0.4623E+01  0.1437E+03
     13.415  0.2925E+01  0.1439E+03
     13.474  0.2181E+01  0.1440E+03
     13.533  0.0000E+00  0.1440E+03
     13.592  0.0000E+00  0.1440E+03
     13.651  0.0000E+00  0.1440E+03
     13.710  0.0000E+00  0.1440E+03
     13.769  0.0000E+00  0.1440E+03
     13.828  0.0000E+00  0.1440E+03
     13.887  0.0000E+00  0.1440E+03
     13.946  0.0000E+00  0.1440E+03
     14.005  0.0000E+00  0.1440E+03
     14.064  0.0000E+00  0.1440E+03
     14.123  0.0000E+00  0.1440E+03
     14.182  0.0000E+00  0.1440E+03
     14.241  0.0000E+00  0.1440E+03
