   32   32    1    1
  0.1455441E+02  0.7751424E-09  0.7751424E-09  0.7751424E-09  0.5000000E-15
  1.000000000000000E-004
  CAR 
 unknown system                          
   96   40   72
 
  0.0000000E+00  0.0000000E+00  0.0000000E+00  0.4629630E-02
   1       -2.6572
   2       -0.2233
   3       -0.2193
   4       -0.2193
   5       -0.2193
   6       -0.2193
   7       -0.2153
   8        2.1638
   9        2.1683
  10        2.1683
  11        2.1702
  12        2.1704
  13        2.1704
  14        2.1704
  15        2.1704
  16        2.1705
  17        2.1724
  18        2.1724
  19        2.1769
  20        4.2685
  21        4.2686
  22        4.2686
  23        4.2686
  24        4.8151
  25        4.8151
  26        4.8152
  27        4.8152
  28        6.1458
  29        6.1458
  30        6.1458
  31        7.7211
  32        7.7211
  33        7.7211
  34        8.3630
  35        8.3630
  36        8.3677
  37        8.3677
  38        8.3679
  39        8.3679
  40        8.3679
  41        8.3680
  42        8.3681
  43        8.3681
  44        8.3728
  45        8.3728
  46        9.3047
  47        9.3093
  48        9.3093
  49        9.3093
  50        9.3093
  51        9.3138
  52       10.5996
  53       10.5996
  54       10.6009
  55       10.6037
  56       10.6038
  57       10.6038
  58       10.6038
  59       10.6039
  60       10.6040
  61       10.6068
  62       10.6081
  63       10.6081
  64       11.2160
  65       11.2173
  66       11.2173
  67       11.2173
  68       11.2173
  69       11.2187
  70       12.5132
  71       12.5161
  72       12.5165
 
  0.1666667E+00  0.0000000E+00  0.0000000E+00  0.9259259E-02
   1       -2.5888
   2       -0.9590
   3       -0.1523
   4       -0.1523
   5       -0.1523
   6       -0.1523
   7        0.6488
   8        1.4454
   9        1.4454
  10        1.4454
  11        1.4454
  12        2.2360
  13        2.2360
  14        2.2360
  15        2.2360
  16        3.0206
  17        3.0206
  18        3.0206
  19        3.0206
  20        3.7783
  21        3.7783
  22        3.7783
  23        3.7783
  24        5.2548
  25        5.4303
  26        5.4303
  27        5.4303
  28        5.4303
  29        6.2073
  30        6.2073
  31        7.4888
  32        7.4888
  33        7.4888
  34        7.4888
  35        7.6877
  36        7.6877
  37        7.7840
  38        7.7840
  39        8.4299
  40        8.4299
  41        8.4299
  42        8.4299
  43        8.7270
  44        9.0874
  45        9.0874
  46        9.1728
  47        9.1728
  48        9.8253
  49        9.8254
  50        9.8254
  51        9.8254
  52        9.8758
  53        9.8758
  54        9.8758
  55        9.8760
  56        9.9198
  57        9.9198
  58        9.9199
  59        9.9199
  60       11.4129
  61       11.4129
  62       11.4129
  63       11.4129
  64       11.5533
  65       11.5533
  66       11.7093
  67       11.7094
  68       11.7094
  69       11.7094
  70       11.8184
  71       11.8184
  72       11.8184
 
  0.3333333E+00  0.0000000E+00  0.0000000E+00  0.9259259E-02
   1       -2.3839
   2       -1.5677
   3        0.0485
   4        0.0486
   5        0.0486
   6        0.0486
   7        0.8488
   8        0.8488
   9        0.8488
  10        0.8488
  11        1.6417
  12        2.4325
  13        2.4325
  14        2.4325
  15        2.4325
  16        3.2113
  17        3.2113
  18        3.2113
  19        3.2113
  20        3.9730
  21        3.9916
  22        3.9916
  23        3.9916
  24        3.9917
  25        6.2580
  26        6.2580
  27        6.2580
  28        6.2580
  29        6.3707
  30        6.3707
  31        6.3708
  32        6.3708
  33        6.3922
  34        6.3922
  35        7.1319
  36        7.1319
  37        7.9706
  38        7.9706
  39        8.6118
  40        8.6118
  41        8.6128
  42        8.6133
  43        8.6159
  44        8.6165
  45        8.6174
  46        8.6174
  47        8.6676
  48        8.6676
  49        9.3606
  50        9.3606
  51        9.3607
  52        9.3607
  53       10.1026
  54       10.1026
  55       10.3421
  56       10.3421
  57       10.3421
  58       10.3421
  59       10.3533
  60       11.2308
  61       11.2308
  62       11.2308
  63       11.2308
  64       12.3110
  65       12.3110
  66       12.3311
  67       12.3311
  68       12.3471
  69       12.3471
  70       12.3472
  71       12.3472
  72       13.0103
 
  0.5000000E+00  0.0000000E+00  0.0000000E+00  0.4629630E-02
   1       -2.0447
   2       -2.0416
   3        0.3783
   4        0.3817
   5        0.3817
   6        0.3826
   7        0.3827
   8        0.3836
   9        0.3836
  10        0.3869
  11        2.7510
  12        2.7537
  13        2.7572
  14        2.7573
  15        2.7573
  16        2.7581
  17        2.7592
  18        2.7600
  19        2.7600
  20        2.7628
  21        5.0751
  22        5.0751
  23        5.0758
  24        5.0759
  25        5.0762
  26        5.0762
  27        5.0769
  28        5.0769
  29        6.6985
  30        6.6985
  31        6.7018
  32        6.7018
  33        7.4399
  34        7.4399
  35        7.4401
  36        7.4407
  37        7.4408
  38        7.4414
  39        7.4417
  40        7.4417
  41        8.2703
  42        8.2716
  43        8.2734
  44        8.2747
  45        8.9235
  46        8.9235
  47        8.9244
  48        8.9260
  49        8.9262
  50        8.9278
  51        8.9287
  52        8.9287
  53       10.7464
  54       10.7473
  55       10.7473
  56       10.7475
  57       10.7501
  58       10.7502
  59       10.7502
  60       10.7512
  61       11.1553
  62       11.1553
  63       11.1575
  64       11.1575
  65       12.1457
  66       12.1466
  67       13.2489
  68       13.2490
  69       13.2509
  70       13.2510
  71       13.4057
  72       13.4060
 
  0.0000000E+00  0.1666667E+00  0.0000000E+00  0.1851852E-01
   1       -2.5888
   2       -0.9590
   3       -0.1554
   4       -0.1523
   5       -0.1523
   6       -0.1492
   7        0.6488
   8        1.4423
   9        1.4454
  10        1.4454
  11        1.4485
  12        2.2339
  13        2.2347
  14        2.2373
  15        2.2381
  16        3.0174
  17        3.0206
  18        3.0206
  19        3.0237
  20        3.7763
  21        3.7771
  22        3.7795
  23        3.7803
  24        5.2547
  25        5.4283
  26        5.4291
  27        5.4316
  28        5.4324
  29        6.2073
  30        6.2073
  31        7.4854
  32        7.4888
  33        7.4888
  34        7.4922
  35        7.6877
  36        7.6878
  37        7.7840
  38        7.7840
  39        8.4270
  40        8.4299
  41        8.4299
  42        8.4328
  43        8.7270
  44        9.0874
  45        9.0874
  46        9.1728
  47        9.1729
  48        9.8228
  49        9.8241
  50        9.8267
  51        9.8280
  52        9.8728
  53        9.8758
  54        9.8758
  55        9.8788
  56        9.9168
  57        9.9198
  58        9.9199
  59        9.9228
  60       11.4099
  61       11.4129
  62       11.4129
  63       11.4160
  64       11.5533
  65       11.5533
  66       11.7079
  67       11.7094
  68       11.7094
  69       11.7109
  70       11.8162
  71       11.8184
  72       11.8191
 
  0.1666667E+00  0.1666667E+00  0.0000000E+00  0.3703704E-01
   1       -2.5205
   2       -0.8929
   3       -0.8903
   4       -0.0853
   5       -0.0853
   6        0.7135
   7        0.7156
   8        0.7175
   9        1.5097
  10        1.5107
  11        1.5123
  12        1.5133
  13        2.3009
  14        2.3017
  15        3.0807
  16        3.0812
  17        3.0842
  18        3.0848
  19        3.0864
  20        3.0876
  21        3.8636
  22        4.3938
  23        4.3938
  24        4.9469
  25        4.9469
  26        5.3175
  27        5.3183
  28        6.2448
  29        6.2448
  30        6.2689
  31        6.8179
  32        6.8205
  33        7.3727
  34        7.3727
  35        7.7481
  36        7.7510
  37        7.7945
  38        7.7946
  39        7.8457
  40        8.2191
  41        8.2214
  42        8.7871
  43        8.7880
  44        9.1333
  45        9.1343
  46        9.1359
  47        9.1370
  48        9.2329
  49        9.2356
  50        9.2383
  51        9.4958
  52        9.4976
  53        9.9356
  54        9.9385
  55       10.5599
  56       10.5600
  57       10.6380
  58       10.6389
  59       10.6395
  60       10.6405
  61       10.7270
  62       10.7288
  63       11.1241
  64       11.7513
  65       11.7521
  66       12.0179
  67       12.0179
  68       12.2230
  69       12.2739
  70       12.2762
  71       12.6198
  72       12.6214
 
  0.3333333E+00  0.1666667E+00  0.0000000E+00  0.3703704E-01
   1       -2.3157
   2       -1.4999
   3       -0.6895
   4        0.1140
   5        0.1155
   6        0.1170
   7        0.9135
   8        0.9152
   9        0.9165
  10        1.7063
  11        1.7091
  12        1.7096
  13        1.7109
  14        2.4972
  15        2.4972
  16        3.2788
  17        3.2795
  18        3.2801
  19        4.0342
  20        4.0349
  21        4.0380
  22        4.0552
  23        4.0553
  24        4.8250
  25        5.5071
  26        5.5690
  27        5.6863
  28        5.6863
  29        6.2603
  30        6.3055
  31        6.3056
  32        6.4537
  33        7.0510
  34        7.1929
  35        7.1954
  36        7.1961
  37        7.8287
  38        7.8287
  39        7.9184
  40        7.9186
  41        7.9354
  42        8.0270
  43        8.5698
  44        8.5699
  45        8.5808
  46        8.6786
  47        8.9667
  48        9.4211
  49        9.4325
  50        9.4328
  51        9.5693
  52        9.6183
  53        9.7462
  54       10.1640
  55       10.1686
  56       10.4098
  57       10.5454
  58       10.9037
  59       11.2038
  60       11.2038
  61       11.5740
  62       11.5741
  63       11.5936
  64       11.6611
  65       12.0181
  66       12.1325
  67       12.1325
  68       12.3941
  69       12.4107
  70       12.5725
  71       13.1090
  72       13.1292
 
  0.5000000E+00  0.1666667E+00  0.0000000E+00  0.1851852E-01
   1       -1.9767
   2       -1.9736
   3       -0.3550
   4       -0.3518
   5        0.4472
   6        0.4484
   7        0.4503
   8        0.4515
   9        1.2448
  10        1.2480
  11        2.0365
  12        2.0378
  13        2.0396
  14        2.0409
  15        2.8184
  16        2.8195
  17        3.5977
  18        3.5991
  19        3.6009
  20        3.6022
  21        4.3728
  22        4.3738
  23        5.1354
  24        5.1362
  25        5.1364
  26        5.1372
  27        5.8202
  28        5.8235
  29        5.8946
  30        5.8956
  31        6.7442
  32        6.7448
  33        6.7456
  34        6.7457
  35        6.7603
  36        6.7637
  37        8.1297
  38        8.1310
  39        8.1330
  40        8.1343
  41        8.2431
  42        8.2465
  43        8.2633
  44        8.2636
  45        8.2644
  46        8.2649
  47        8.3078
  48        8.3108
  49        9.2527
  50        9.2559
  51        9.7305
  52        9.7340
  53       10.0852
  54       10.0883
  55       10.4675
  56       10.4692
  57       11.2178
  58       11.2200
  59       11.4873
  60       11.4908
  61       11.6452
  62       11.6460
  63       11.6486
  64       11.6494
  65       12.1944
  66       12.1952
  67       12.6248
  68       12.6249
  69       12.6266
  70       12.6267
  71       12.7179
  72       12.7203
 
  0.0000000E+00  0.3333333E+00  0.0000000E+00  0.1851852E-01
   1       -2.3839
   2       -1.5677
   3        0.0455
   4        0.0486
   5        0.0486
   6        0.0517
   7        0.8457
   8        0.8488
   9        0.8488
  10        0.8519
  11        1.6417
  12        2.4304
  13        2.4312
  14        2.4338
  15        2.4346
  16        3.2092
  17        3.2101
  18        3.2126
  19        3.2134
  20        3.9730
  21        3.9885
  22        3.9916
  23        3.9916
  24        3.9948
  25        6.2547
  26        6.2580
  27        6.2580
  28        6.2613
  29        6.3686
  30        6.3694
  31        6.3721
  32        6.3730
  33        6.3922
  34        6.3922
  35        7.1319
  36        7.1319
  37        7.9706
  38        7.9706
  39        8.6109
  40        8.6116
  41        8.6134
  42        8.6145
  43        8.6157
  44        8.6159
  45        8.6159
  46        8.6190
  47        8.6676
  48        8.6677
  49        9.3577
  50        9.3606
  51        9.3607
  52        9.3636
  53       10.1025
  54       10.1025
  55       10.3394
  56       10.3421
  57       10.3422
  58       10.3448
  59       10.3534
  60       11.2281
  61       11.2308
  62       11.2308
  63       11.2334
  64       12.3108
  65       12.3109
  66       12.3312
  67       12.3314
  68       12.3440
  69       12.3471
  70       12.3473
  71       12.3502
  72       13.0107
 
  0.1666667E+00  0.3333333E+00  0.0000000E+00  0.3703704E-01
   1       -2.3157
   2       -1.4999
   3       -0.6895
   4        0.1140
   5        0.1155
   6        0.1170
   7        0.9135
   8        0.9152
   9        0.9165
  10        1.7065
  11        1.7086
  12        1.7096
  13        1.7112
  14        2.4972
  15        2.4972
  16        3.2781
  17        3.2795
  18        3.2809
  19        4.0342
  20        4.0349
  21        4.0380
  22        4.0552
  23        4.0552
  24        4.8250
  25        5.5072
  26        5.5689
  27        5.6863
  28        5.6863
  29        6.2603
  30        6.3056
  31        6.3056
  32        6.4537
  33        7.0510
  34        7.1934
  35        7.1954
  36        7.1957
  37        7.8287
  38        7.8288
  39        7.9185
  40        7.9185
  41        7.9353
  42        8.0270
  43        8.5698
  44        8.5699
  45        8.5809
  46        8.6786
  47        8.9667
  48        9.4214
  49        9.4325
  50        9.4325
  51        9.5693
  52        9.6183
  53        9.7463
  54       10.1646
  55       10.1680
  56       10.4098
  57       10.5454
  58       10.9037
  59       11.2038
  60       11.2038
  61       11.5740
  62       11.5741
  63       11.5935
  64       11.6611
  65       12.0181
  66       12.1325
  67       12.1326
  68       12.3941
  69       12.4107
  70       12.5725
  71       13.1148
  72       13.1477
 
  0.3333333E+00  0.3333333E+00  0.0000000E+00  0.3703704E-01
   1       -2.1112
   2       -1.2981
   3       -1.2955
   4       -0.4877
   5        0.3159
   6        0.3159
   7        1.1126
   8        1.1136
   9        1.1152
  10        1.1161
  11        1.9036
  12        1.9059
  13        1.9071
  14        1.9082
  15        2.6923
  16        2.6931
  17        4.2298
  18        4.2307
  19        4.2423
  20        4.2432
  21        4.2449
  22        4.2459
  23        4.7695
  24        4.7695
  25        4.9969
  26        4.9995
  27        5.3387
  28        5.3388
  29        5.7720
  30        6.2682
  31        6.2682
  32        6.6385
  33        6.8324
  34        6.8324
  35        7.3507
  36        7.3517
  37        7.3532
  38        7.3545
  39        7.3777
  40        7.3806
  41        7.8810
  42        7.8834
  43        8.1212
  44        8.1444
  45        8.1444
  46        8.1820
  47        9.3056
  48        9.3069
  49        9.9790
  50       10.3502
  51       10.3532
  52       10.3709
  53       10.3720
  54       10.3726
  55       10.3734
  56       10.4496
  57       10.5737
  58       10.5749
  59       11.0477
  60       11.0506
  61       11.0990
  62       11.1008
  63       12.4293
  64       12.4293
  65       12.5797
  66       12.5808
  67       12.5823
  68       12.5842
  69       12.7772
  70       12.7779
  71       12.8735
  72       12.8742
 
  0.5000000E+00  0.3333333E+00  0.0000000E+00  0.1851852E-01
   1       -1.7728
   2       -1.7697
   3       -0.9606
   4       -0.9575
   5        0.6471
   6        0.6483
   7        0.6502
   8        0.6514
   9        1.4432
  10        1.4445
  11        1.4464
  12        1.4476
  13        2.2325
  14        2.2357
  15        3.0141
  16        3.0151
  17        3.7929
  18        3.7939
  19        4.5438
  20        4.5454
  21        4.5470
  22        4.5485
  23        4.5495
  24        4.5527
  25        5.3062
  26        5.3071
  27        5.3072
  28        5.3081
  29        6.1914
  30        6.1915
  31        6.1924
  32        6.1926
  33        6.8135
  34        6.8144
  35        6.9266
  36        6.9274
  37        6.9296
  38        6.9306
  39        6.9453
  40        6.9487
  41        7.6864
  42        7.6898
  43        8.3199
  44        8.3220
  45        9.2080
  46        9.2084
  47        9.2093
  48        9.2097
  49        9.4802
  50        9.4807
  51        9.5474
  52        9.5503
  53       10.6617
  54       10.6652
  55       10.8204
  56       10.8236
  57       11.4054
  58       11.4076
  59       11.4254
  60       11.4257
  61       11.4269
  62       11.4272
  63       12.1555
  64       12.1578
  65       12.1769
  66       12.1801
  67       12.3246
  68       12.3250
  69       12.8949
  70       12.8985
  71       13.1472
  72       13.1493
 
  0.0000000E+00  0.5000000E+00  0.0000000E+00  0.9259259E-02
   1       -2.0431
   2       -2.0431
   3        0.3770
   4        0.3820
   5        0.3826
   6        0.3826
   7        0.3826
   8        0.3826
   9        0.3832
  10        0.3882
  11        2.7517
  12        2.7535
  13        2.7564
  14        2.7564
  15        2.7583
  16        2.7584
  17        2.7589
  18        2.7593
  19        2.7610
  20        2.7629
  21        5.0724
  22        5.0731
  23        5.0760
  24        5.0760
  25        5.0760
  26        5.0760
  27        5.0789
  28        5.0796
  29        6.7001
  30        6.7002
  31        6.7002
  32        6.7002
  33        7.4375
  34        7.4394
  35        7.4394
  36        7.4395
  37        7.4420
  38        7.4421
  39        7.4422
  40        7.4440
  41        8.2725
  42        8.2725
  43        8.2725
  44        8.2725
  45        8.9207
  46        8.9256
  47        8.9261
  48        8.9261
  49        8.9261
  50        8.9262
  51        8.9266
  52        8.9315
  53       10.7442
  54       10.7481
  55       10.7488
  56       10.7488
  57       10.7488
  58       10.7488
  59       10.7495
  60       10.7533
  61       11.1564
  62       11.1564
  63       11.1564
  64       11.1564
  65       12.1462
  66       12.1462
  67       13.2498
  68       13.2498
  69       13.2500
  70       13.2503
  71       13.4056
  72       13.4079
 
  0.1666667E+00  0.5000000E+00  0.0000000E+00  0.1851852E-01
   1       -1.9751
   2       -1.9751
   3       -0.3534
   4       -0.3534
   5        0.4493
   6        0.4493
   7        0.4493
   8        0.4493
   9        1.2464
  10        1.2464
  11        2.0387
  12        2.0387
  13        2.0387
  14        2.0387
  15        2.8190
  16        2.8190
  17        3.6000
  18        3.6000
  19        3.6000
  20        3.6000
  21        4.3733
  22        4.3733
  23        5.1363
  24        5.1363
  25        5.1363
  26        5.1363
  27        5.8218
  28        5.8219
  29        5.8951
  30        5.8951
  31        6.7449
  32        6.7452
  33        6.7452
  34        6.7452
  35        6.7618
  36        6.7621
  37        8.1319
  38        8.1320
  39        8.1320
  40        8.1320
  41        8.2447
  42        8.2448
  43        8.2640
  44        8.2640
  45        8.2640
  46        8.2642
  47        8.3093
  48        8.3093
  49        9.2543
  50        9.2543
  51        9.7323
  52        9.7323
  53       10.0867
  54       10.0867
  55       10.4683
  56       10.4684
  57       11.2189
  58       11.2189
  59       11.4890
  60       11.4890
  61       11.6473
  62       11.6473
  63       11.6473
  64       11.6473
  65       12.1948
  66       12.1948
  67       12.6257
  68       12.6257
  69       12.6257
  70       12.6258
  71       12.7191
  72       12.7191
 
  0.3333333E+00  0.5000000E+00  0.0000000E+00  0.1851852E-01
   1       -1.7713
   2       -1.7712
   3       -0.9590
   4       -0.9590
   5        0.6492
   6        0.6492
   7        0.6492
   8        0.6493
   9        1.4454
  10        1.4454
  11        1.4454
  12        1.4454
  13        2.2341
  14        2.2341
  15        3.0146
  16        3.0146
  17        3.7934
  18        3.7934
  19        4.5461
  20        4.5462
  21        4.5462
  22        4.5462
  23        4.5511
  24        4.5512
  25        5.3071
  26        5.3071
  27        5.3071
  28        5.3071
  29        6.1920
  30        6.1920
  31        6.1920
  32        6.1920
  33        6.8140
  34        6.8140
  35        6.9281
  36        6.9286
  37        6.9286
  38        6.9286
  39        6.9469
  40        6.9474
  41        7.6881
  42        7.6881
  43        8.3209
  44        8.3209
  45        9.2088
  46        9.2088
  47        9.2089
  48        9.2089
  49        9.4804
  50        9.4804
  51        9.5489
  52        9.5489
  53       10.6634
  54       10.6635
  55       10.8220
  56       10.8220
  57       11.4063
  58       11.4064
  59       11.4263
  60       11.4263
  61       11.4264
  62       11.4265
  63       12.1567
  64       12.1567
  65       12.1785
  66       12.1785
  67       12.3248
  68       12.3248
  69       12.8967
  70       12.8967
  71       13.1481
  72       13.1482
 
  0.5000000E+00  0.5000000E+00  0.0000000E+00  0.9259259E-02
   1       -1.4350
   2       -1.4324
   3       -1.4319
   4       -1.4293
   5        0.9777
   6        0.9799
   7        0.9813
   8        0.9815
   9        0.9818
  10        0.9821
  11        0.9834
  12        0.9856
  13        3.3358
  14        3.3375
  15        3.3394
  16        3.3398
  17        3.3398
  18        3.3403
  19        3.3422
  20        3.3438
  21        5.3919
  22        5.3937
  23        5.3944
  24        5.3951
  25        5.3951
  26        5.3958
  27        5.3966
  28        5.3983
  29        5.9756
  30        5.9763
  31        5.9769
  32        5.9780
  33        5.9781
  34        5.9792
  35        5.9799
  36        5.9805
  37        7.2524
  38        7.2553
  39        7.2558
  40        7.2588
  41        7.7616
  42        7.7619
  43        7.7640
  44        7.7643
  45        9.2089
  46        9.2101
  47        9.2111
  48        9.2123
  49       10.2663
  50       10.2670
  51       10.2674
  52       10.2675
  53       10.2687
  54       10.2688
  55       10.2692
  56       10.2699
  57       11.7132
  58       11.7168
  59       11.7187
  60       11.7191
  61       11.7191
  62       11.7195
  63       11.7214
  64       11.7250
  65       12.4355
  66       12.4376
  67       12.4393
  68       12.4394
  69       12.4398
  70       12.4399
  71       12.4416
  72       12.4436
 
  0.0000000E+00  0.1666667E+00  0.1666667E+00  0.1851852E-01
   1       -2.5205
   2       -0.8916
   3       -0.8916
   4       -0.0870
   5       -0.0836
   6        0.7153
   7        0.7153
   8        0.7159
   9        1.5089
  10        1.5108
  11        1.5122
  12        1.5142
  13        2.3013
  14        2.3013
  15        3.0797
  16        3.0828
  17        3.0831
  18        3.0847
  19        3.0862
  20        3.0882
  21        3.8636
  22        4.3938
  23        4.3938
  24        4.9469
  25        4.9469
  26        5.3179
  27        5.3179
  28        6.2431
  29        6.2466
  30        6.2690
  31        6.8192
  32        6.8192
  33        7.3727
  34        7.3727
  35        7.7495
  36        7.7496
  37        7.7945
  38        7.7946
  39        7.8457
  40        8.2202
  41        8.2202
  42        8.7875
  43        8.7875
  44        9.1321
  45        9.1342
  46        9.1360
  47        9.1381
  48        9.2350
  49        9.2350
  50        9.2369
  51        9.4967
  52        9.4967
  53        9.9370
  54        9.9371
  55       10.5600
  56       10.5600
  57       10.6369
  58       10.6375
  59       10.6409
  60       10.6415
  61       10.7279
  62       10.7280
  63       11.1240
  64       11.7517
  65       11.7517
  66       12.0179
  67       12.0179
  68       12.2229
  69       12.2751
  70       12.2751
  71       12.6197
  72       12.6206
 
  0.1666667E+00  0.1666667E+00  0.1666667E+00  0.3703704E-01
   1       -2.4522
   2       -0.8260
   3       -0.8242
   4       -0.8224
   5        0.7784
   6        0.7816
   7        0.7817
   8        0.7826
   9        0.7827
  10        0.7859
  11        2.3632
  12        2.3655
  13        2.3660
  14        2.3668
  15        2.3673
  16        2.3681
  17        2.3703
  18        3.9058
  19        3.9064
  20        3.9070
  21        3.9255
  22        3.9273
  23        3.9292
  24        5.3805
  25        5.3810
  26        5.3815
  27        5.5584
  28        5.5590
  29        5.5596
  30        6.8675
  31        6.8690
  32        6.8705
  33        6.8705
  34        6.8720
  35        6.8735
  36        7.0705
  37        8.4001
  38        8.4004
  39        8.4022
  40        8.4022
  41        8.4039
  42        8.4043
  43        8.4443
  44        8.4462
  45        8.4480
  46        8.8458
  47        8.8464
  48        8.8470
  49        9.9461
  50        9.9471
  51        9.9484
  52        9.9484
  53        9.9497
  54        9.9506
  55       10.3129
  56       10.3145
  57       10.3156
  58       10.3156
  59       10.3168
  60       10.3184
  61       11.4516
  62       11.4527
  63       11.4538
  64       12.0283
  65       12.0294
  66       12.0305
  67       12.3933
  68       12.3933
  69       12.3947
  70       12.3947
  71       12.3960
  72       12.3961
 
  0.3333333E+00  0.1666667E+00  0.1666667E+00  0.3703704E-01
   1       -2.2475
   2       -1.4321
   3       -0.6222
   4       -0.6222
   5        0.1824
   6        0.1824
   7        0.9811
   8        0.9812
   9        0.9818
  10        1.7721
  11        1.7750
  12        1.7754
  13        1.7766
  14        2.5631
  15        2.5631
  16        3.3401
  17        3.3405
  18        3.3444
  19        3.3448
  20        4.1017
  21        4.1166
  22        4.6443
  23        4.8856
  24        4.8856
  25        5.2087
  26        5.5700
  27        5.5700
  28        5.6289
  29        5.6289
  30        6.3204
  31        6.3204
  32        6.4978
  33        6.4978
  34        6.8824
  35        6.8824
  36        7.2270
  37        7.3744
  38        7.3744
  39        7.8846
  40        7.8846
  41        8.0207
  42        8.6167
  43        8.6168
  44        8.7374
  45        8.7374
  46        9.0172
  47        9.0173
  48        9.1770
  49        9.1770
  50        9.3813
  51        9.3813
  52       10.0084
  53       10.0084
  54       10.2507
  55       10.4616
  56       10.6391
  57       10.6391
  58       10.8830
  59       10.8830
  60       11.4564
  61       11.4564
  62       11.5583
  63       11.5583
  64       11.6633
  65       11.6633
  66       12.3869
  67       12.3869
  68       12.9018
  69       12.9021
  70       12.9054
  71       12.9057
  72       13.0676
 
  0.5000000E+00  0.1666667E+00  0.1666667E+00  0.1851852E-01
   1       -1.9087
   2       -1.9056
   3       -0.2889
   4       -0.2868
   5       -0.2858
   6       -0.2837
   7        1.3097
   8        1.3119
   9        1.3121
  10        1.3131
  11        1.3143
  12        1.3157
  13        2.8826
  14        2.8843
  15        2.8874
  16        2.8878
  17        2.8901
  18        2.8913
  19        4.4178
  20        4.4210
  21        4.4360
  22        4.4360
  23        4.4370
  24        4.4371
  25        5.8821
  26        5.8825
  27        5.8854
  28        5.8857
  29        5.9416
  30        5.9417
  31        5.9426
  32        5.9426
  33        6.0639
  34        6.0649
  35        7.4590
  36        7.4612
  37        7.4621
  38        7.4644
  39        7.5654
  40        7.5660
  41        7.5665
  42        7.5672
  43        8.9360
  44        8.9368
  45        8.9394
  46        8.9402
  47        9.0857
  48        9.0870
  49        9.2601
  50        9.2609
  51        9.2630
  52        9.2639
  53       10.5653
  54       10.5659
  55       10.5668
  56       10.5674
  57       10.9950
  58       10.9960
  59       10.9982
  60       10.9993
  61       11.9329
  62       11.9334
  63       11.9346
  64       11.9351
  65       12.2186
  66       12.2190
  67       12.3422
  68       12.3446
  69       12.3456
  70       12.3480
  71       13.4062
  72       13.4365
 
  0.0000000E+00  0.3333333E+00  0.1666667E+00  0.3703704E-01
   1       -2.3157
   2       -1.4999
   3       -0.6895
   4        0.1132
   5        0.1155
   6        0.1177
   7        0.9129
   8        0.9150
   9        0.9174
  10        1.7065
  11        1.7085
  12        1.7092
  13        1.7117
  14        2.4955
  15        2.4989
  16        3.2777
  17        3.2794
  18        3.2813
  19        4.0330
  20        4.0360
  21        4.0382
  22        4.0535
  23        4.0569
  24        4.8250
  25        5.5072
  26        5.5689
  27        5.6846
  28        5.6879
  29        6.2603
  30        6.3039
  31        6.3073
  32        6.4537
  33        7.0509
  34        7.1935
  35        7.1938
  36        7.1972
  37        7.8269
  38        7.8305
  39        7.9167
  40        7.9204
  41        7.9353
  42        8.0270
  43        8.5680
  44        8.5718
  45        8.5808
  46        8.6786
  47        8.9667
  48        9.4214
  49        9.4306
  50        9.4344
  51        9.5693
  52        9.6183
  53        9.7462
  54       10.1649
  55       10.1677
  56       10.4098
  57       10.5454
  58       10.9037
  59       11.2027