<?xml version="1.0" encoding="ISO-8859-1"?>
<modeling>
 <generator>
  <i name="program" type="string">vasp</i>
  <i name="version" type="string">4.6.28 </i>
  <i name="subversion" type="string">25Jul05 complex  parallel</i>
  <i name="platform" type="string">LinuxIFC</i>
  <i name="date" type="string">2016 10 19</i>
  <i name="time" type="string">12:36:34</i>
 </generator>
 <incar>
  <i type="string" name="PREC">accurate</i>
  <i type="int" name="IALGO">    38</i>
  <i name="EDIFF">      0.00000001</i>
  <i type="int" name="IBRION">    -1</i>
  <i name="ENCUT">    500.00000000</i>
  <i type="logical" name="LREAL"> F  </i>
  <i type="int" name="ISMEAR">     0</i>
  <i name="SIGMA">      0.01000000</i>
  <i type="logical" name="LWAVE"> F  </i>
  <i type="logical" name="LCHARG"> F  </i>
 </incar>
 <kpoints>
  <generation param="Auto">
   <i name="subdivisionlength">     50.00000000</i>
   <v type="int" name="divisions">       6       6       6</v>
   <v name="usershift">      0.00000000      0.00000000      0.00000000</v>
   <v name="genvec1">      0.16666667      0.00000000      0.00000000</v>
   <v name="genvec2">      0.00000000      0.16666667      0.00000000</v>
   <v name="genvec3">      0.00000000      0.00000000      0.16666667</v>
   <v name="shift">      0.00000000      0.00000000      0.00000000</v>
  </generation>
  <varray name="kpointlist" >
   <v>       0.00000000      0.00000000      0.00000000</v>
   <v>       0.16666667      0.00000000      0.00000000</v>
   <v>       0.33333333      0.00000000      0.00000000</v>
   <v>       0.50000000      0.00000000      0.00000000</v>
   <v>       0.00000000      0.16666667      0.00000000</v>
   <v>       0.16666667      0.16666667      0.00000000</v>
   <v>       0.33333333      0.16666667      0.00000000</v>
   <v>       0.50000000      0.16666667      0.00000000</v>
   <v>       0.00000000      0.33333333      0.00000000</v>
   <v>       0.16666667      0.33333333      0.00000000</v>
   <v>       0.33333333      0.33333333      0.00000000</v>
   <v>       0.50000000      0.33333333      0.00000000</v>
   <v>       0.00000000      0.50000000      0.00000000</v>
   <v>       0.16666667      0.50000000      0.00000000</v>
   <v>       0.33333333      0.50000000      0.00000000</v>
   <v>       0.50000000      0.50000000      0.00000000</v>
   <v>       0.00000000      0.16666667      0.16666667</v>
   <v>       0.16666667      0.16666667      0.16666667</v>
   <v>       0.33333333      0.16666667      0.16666667</v>
   <v>       0.50000000      0.16666667      0.16666667</v>
   <v>       0.00000000      0.33333333      0.16666667</v>
   <v>       0.16666667      0.33333333      0.16666667</v>
   <v>       0.33333333      0.33333333      0.16666667</v>
   <v>       0.50000000      0.33333333      0.16666667</v>
   <v>       0.00000000      0.50000000      0.16666667</v>
   <v>       0.16666667      0.50000000      0.16666667</v>
   <v>       0.33333333      0.50000000      0.16666667</v>
   <v>       0.50000000      0.50000000      0.16666667</v>
   <v>       0.00000000      0.33333333      0.33333333</v>
   <v>       0.16666667      0.33333333      0.33333333</v>
   <v>       0.33333333      0.33333333      0.33333333</v>
   <v>       0.50000000      0.33333333      0.33333333</v>
   <v>       0.00000000      0.50000000      0.33333333</v>
   <v>       0.16666667      0.50000000      0.33333333</v>
   <v>       0.33333333      0.50000000      0.33333333</v>
   <v>       0.50000000      0.50000000      0.33333333</v>
   <v>       0.00000000      0.50000000      0.50000000</v>
   <v>       0.16666667      0.50000000      0.50000000</v>
   <v>       0.33333333      0.50000000      0.50000000</v>
   <v>       0.50000000      0.50000000      0.50000000</v>
  </varray>
  <varray name="weights" >
   <v>       0.00462963</v>
   <v>       0.00925926</v>
   <v>       0.00925926</v>
   <v>       0.00462963</v>
   <v>       0.01851852</v>
   <v>       0.03703704</v>
   <v>       0.03703704</v>
   <v>       0.01851852</v>
   <v>       0.01851852</v>
   <v>       0.03703704</v>
   <v>       0.03703704</v>
   <v>       0.01851852</v>
   <v>       0.00925926</v>
   <v>       0.01851852</v>
   <v>       0.01851852</v>
   <v>       0.00925926</v>
   <v>       0.01851852</v>
   <v>       0.03703704</v>
   <v>       0.03703704</v>
   <v>       0.01851852</v>
   <v>       0.03703704</v>
   <v>       0.07407407</v>
   <v>       0.07407407</v>
   <v>       0.03703704</v>
   <v>       0.01851852</v>
   <v>       0.03703704</v>
   <v>       0.03703704</v>
   <v>       0.01851852</v>
   <v>       0.01851852</v>
   <v>       0.03703704</v>
   <v>       0.03703704</v>
   <v>       0.01851852</v>
   <v>       0.01851852</v>
   <v>       0.03703704</v>
   <v>       0.03703704</v>
   <v>       0.01851852</v>
   <v>       0.00462963</v>
   <v>       0.00925926</v>
   <v>       0.00925926</v>
   <v>       0.00462963</v>
  </varray>
 </kpoints>
 <parameters>
  <separator name="general" >
   <i type="string" name="SYSTEM">unknown system</i>
   <i type="logical" name="LCOMPAT"> F  </i>
  </separator>
  <separator name="electronic" >
   <i type="string" name="PREC">accura</i>
   <i name="ENMAX">    500.00000000</i>
   <i name="ENAUG">    291.05200000</i>
   <i name="EDIFF">      0.00000001</i>
   <i type="int" name="IALGO">    38</i>
   <i type="int" name="IWAVPR">    10</i>
   <i type="int" name="NBANDS">    65</i>
   <i name="NELECT">     96.00000000</i>
   <separator name="electronic smearing" >
    <i type="int" name="ISMEAR">     0</i>
    <i name="SIGMA">      0.01000000</i>
   </separator>
   <separator name="electronic projectors" >
    <i type="logical" name="LREAL"> F  </i>
    <v name="ROPT">      0.00000000</v>
    <i type="int" name="LMAXPAW">  -100</i>
    <i type="int" name="LMAXMIX">     2</i>
   </separator>
   <separator name="electronic startup" >
    <i type="int" name="ISTART">     0</i>
    <i type="int" name="ICHARG">     2</i>
    <i type="int" name="INIWAV">     1</i>
   </separator>
   <separator name="electronic spin" >
    <i type="int" name="ISPIN">     1</i>
    <i type="logical" name="LNONCOLLINEAR"> F  </i>
    <v name="MAGMOM">      1.00000000      1.00000000      1.00000000      1.00000000      1.00000000      1.00000000      1.00000000      1.00000000      1.00000000      1.00000000      1.00000000      1.00000000      1.00000000      1.00000000      1.00000000      1.00000000      1.00000000      1.00000000      1.00000000      1.00000000
      1.00000000      1.00000000      1.00000000      1.00000000      1.00000000      1.00000000      1.00000000      1.00000000      1.00000000      1.00000000      1.00000000      1.00000000</v>
    <i name="NUPDOWN">     -1.00000000</i>
    <i type="logical" name="LSORBIT"> F  </i>
    <v name="SAXIS">      0.00000000      0.00000000      1.00000000</v>
    <i type="logical" name="LSPIRAL"> F  </i>
    <v name="QSPIRAL">      0.00000000      0.00000000      0.00000000</v>
    <i type="logical" name="LZEROZ"> F  </i>
   </separator>
   <separator name="electronic exchange-correlation" >
    <i type="string" name="GGA">--</i>
    <i type="int" name="VOSKOWN">     0</i>
    <i type="logical" name="LASPH"> F  </i>
    <i type="logical" name="LMETAGGA"> F  </i>
    <i type="string" name="GGA2">--</i>
   </separator>
   <separator name="electronic convergence" >
    <i type="int" name="NELM">    60</i>
    <i type="int" name="NELMDL">     0</i>
    <i type="int" name="NELMIN">     2</i>
    <i name="ENINI">    500.00000000</i>
    <separator name="electronic convergence detail" >
     <i type="logical" name="LDIAG"> T  </i>
     <i name="WEIMIN">      0.00000000</i>
     <i name="EBREAK">      0.00000000</i>
     <i name="DEPER">      0.30000000</i>
     <i type="int" name="NRMM">     4</i>
     <i name="TIME">      0.10000000</i>
    </separator>
   </separator>
   <separator name="electronic mixer" >
    <i name="AMIX">      0.40000000</i>
    <i name="BMIX">      1.00000000</i>
    <i name="AMIN">      0.10000000</i>
    <i name="AMIX_MAG">      1.60000000</i>
    <i name="BMIX_MAG">      1.00000000</i>
    <separator name="electronic mixer details" >
     <i type="int" name="IMIX">     4</i>
     <i type="int" name="MAXMIX">   -45</i>
     <i name="WC">    100.00000000</i>
     <i type="int" name="INIMIX">     1</i>
     <i type="int" name="MIXPRE">     1</i>
     <i type="int" name="MREMOVE">     5</i>
    </separator>
   </separator>
   <separator name="electronic dipolcorrection" >
    <i type="int" name="IDIPOL">     0</i>
    <i type="logical" name="LDIPOL"> F  </i>
    <v name="DIPOL">   -100.00000000</v>
    <i name="EFIELD">      0.00000000</i>
   </separator>
  </separator>
  <separator name="grids" >
   <i type="int" name="NGX">    60</i>
   <i type="int" name="NGY">    60</i>
   <i type="int" name="NGZ">    60</i>
   <i type="int" name="NGXF">   120</i>
   <i type="int" name="NGYF">   120</i>
   <i type="int" name="NGZF">   120</i>
   <i type="logical" name="ADDGRID"> F  </i>
  </separator>
  <separator name="ionic" >
   <i type="int" name="NSW">     0</i>
   <i type="int" name="IBRION">    -1</i>
   <i type="int" name="ISIF">     2</i>
   <i name="PSTRESS">      0.00000000</i>
   <i name="EDIFFG">      0.00000010</i>
   <i type="int" name="NFREE">     0</i>
   <i name="POTIM">      0.50000000</i>
   <i name="SMASS">     -3.00000000</i>
  </separator>
  <separator name="ionic md" >
   <i name="TEBEG">      0.00010000</i>
   <i name="TEEND">      0.00010000</i>
   <i type="int" name="NBLOCK">     1</i>
   <i type="int" name="KBLOCK">     1</i>
   <i type="int" name="NPACO">   256</i>
   <i name="APACO">     16.00000000</i>
  </separator>
  <separator name="symmetry" >
   <i type="int" name="ISYM">     2</i>
   <i name="SYMPREC">      0.00001000</i>
  </separator>
  <separator name="dos" >
   <i type="logical" name="LORBIT"> F  </i>
   <v name="RWIGS">     -1.00000000</v>
   <i type="int" name="NEDOS">   301</i>
   <i name="EMIN">     10.00000000</i>
   <i name="EMAX">    -10.00000000</i>
  </separator>
  <separator name="writing" >
   <i type="int" name="NWRITE">     2</i>
   <i type="logical" name="LWAVE"> F  </i>
   <i type="logical" name="LCHARG"> F  </i>
   <i type="logical" name="LPARD"> F  </i>
   <i type="logical" name="LVTOT"> F  </i>
   <i type="logical" name="LELF"> F  </i>
   <i type="logical" name="LOPTICS"> F  </i>
   <i name="STM">      0.00000000</i>
  </separator>
  <separator name="performance" >
   <i type="int" name="NPAR">     8</i>
   <i type="int" name="NSIM">     4</i>
   <i type="int" name="NBLK">   256</i>
   <i type="logical" name="LPLANE"> T  </i>
   <i type="logical" name="LCRITICAL_MEM"> F  </i>
   <i type="logical" name="LSCALAPACK"> F  </i>
   <i type="logical" name="LSCALU"> F  </i>
   <i type="logical" name="LASYNC"> F  </i>
  </separator>
  <separator name="miscellaneous" >
   <i type="int" name="IDIOT">     3</i>
   <i type="logical" name="LMUSIC"> F  </i>
   <v name="POMASS">     26.98200000</v>
   <i type="logical" name="LCORR"> T  </i>
  </separator>
  <i type="logical" name="LREAL_COMPAT"> F  </i>
  <i type="logical" name="GGA_COMPAT"> T  </i>
  <i type="logical" name="LBERRY"> F  </i>
  <i type="int" name="ICORELEVEL">     0</i>
  <i type="logical" name="LDAU"> F  </i>
  <i type="int" name="I_CONSTRAINED_M">     0</i>
 </parameters>
 <atominfo>
  <atoms>      32</atoms>
  <types>       1</types>
  <array name="atoms" >
   <dimension dim="1">ion</dimension>
   <field type="string">element</field>
   <field type="int">atomtype</field>
   <set>
    <rc><c>Al</c><c>   1</c></rc>
    <rc><c>Al</c><c>   1</c></rc>
    <rc><c>Al</c><c>   1</c></rc>
    <rc><c>Al</c><c>   1</c></rc>
    <rc><c>Al</c><c>   1</c></rc>
    <rc><c>Al</c><c>   1</c></rc>
    <rc><c>Al</c><c>   1</c></rc>
    <rc><c>Al</c><c>   1</c></rc>
    <rc><c>Al</c><c>   1</c></rc>
    <rc><c>Al</c><c>   1</c></rc>
    <rc><c>Al</c><c>   1</c></rc>
    <rc><c>Al</c><c>   1</c></rc>
    <rc><c>Al</c><c>   1</c></rc>
    <rc><c>Al</c><c>   1</c></rc>
    <rc><c>Al</c><c>   1</c></rc>
    <rc><c>Al</c><c>   1</c></rc>
    <rc><c>Al</c><c>   1</c></rc>
    <rc><c>Al</c><c>   1</c></rc>
    <rc><c>Al</c><c>   1</c></rc>
    <rc><c>Al</c><c>   1</c></rc>
    <rc><c>Al</c><c>   1</c></rc>
    <rc><c>Al</c><c>   1</c></rc>
    <rc><c>Al</c><c>   1</c></rc>
    <rc><c>Al</c><c>   1</c></rc>
    <rc><c>Al</c><c>   1</c></rc>
    <rc><c>Al</c><c>   1</c></rc>
    <rc><c>Al</c><c>   1</c></rc>
    <rc><c>Al</c><c>   1</c></rc>
    <rc><c>Al</c><c>   1</c></rc>
    <rc><c>Al</c><c>   1</c></rc>
    <rc><c>Al</c><c>   1</c></rc>
    <rc><c>Al</c><c>   1</c></rc>
   </set>
  </array>
  <array name="atomtypes" >
   <dimension dim="1">type</dimension>
   <field type="int">atomspertype</field>
   <field type="string">element</field>
   <field>mass</field>
   <field>valence</field>
   <field type="string">pseudopotential</field>
   <set>
    <rc><c>  32</c><c>Al</c><c>     26.98200000</c><c>      3.00000000</c><c> PAW_PBE Al 04Jan2001                   </c></rc>
   </set>
  </array>
 </atominfo>
 <structure name="initialpos" >
  <crystal>
   <varray name="basis" >
    <v>       7.75142381      0.00000000      0.00000000</v>
    <v>       0.00000000      7.75142381      0.00000000</v>
    <v>       0.00000000      0.00000000      7.75142381</v>
   </varray>
   <i name="volume">    465.74097454</i>
   <varray name="rec_basis" >
    <v>       0.12900856      0.00000000      0.00000000</v>
    <v>       0.00000000      0.12900856      0.00000000</v>
    <v>       0.00000000      0.00000000      0.12900856</v>
   </varray>
  </crystal>
  <varray name="positions" >
   <v>       0.25129009      0.25000000      0.00000000</v>
   <v>       0.75000000      0.25000000      0.00000000</v>
   <v>       0.25000000      0.75000000      0.00000000</v>
   <v>       0.75000000      0.75000000      0.00000000</v>
   <v>       0.25000000      0.25000000      0.50000000</v>
   <v>       0.75000000      0.25000000      0.50000000</v>
   <v>       0.25000000      0.75000000      0.50000000</v>
   <v>       0.75000000      0.75000000      0.50000000</v>
   <v>       0.25000000      0.00000000      0.25000000</v>
   <v>       0.75000000      0.00000000      0.25000000</v>
   <v>       0.25000000      0.50000000      0.25000000</v>
   <v>       0.75000000      0.50000000      0.25000000</v>
   <v>       0.25000000      0.00000000      0.75000000</v>
   <v>       0.75000000      0.00000000      0.75000000</v>
   <v>       0.25000000      0.50000000      0.75000000</v>
   <v>       0.75000000      0.50000000      0.75000000</v>
   <v>       0.00000000      0.25000000      0.25000000</v>
   <v>       0.50000000      0.25000000      0.25000000</v>
   <v>       0.00000000      0.75000000      0.25000000</v>
   <v>       0.50000000      0.75000000      0.25000000</v>
   <v>       0.00000000      0.25000000      0.75000000</v>
   <v>       0.50000000      0.25000000      0.75000000</v>
   <v>       0.00000000      0.75000000      0.75000000</v>
   <v>       0.50000000      0.75000000      0.75000000</v>
   <v>       0.00000000      0.00000000      0.00000000</v>
   <v>       0.50000000      0.00000000      0.00000000</v>
   <v>       0.00000000      0.50000000      0.00000000</v>
   <v>       0.50000000      0.50000000      0.00000000</v>
   <v>       0.00000000      0.00000000      0.50000000</v>
   <v>       0.50000000      0.00000000      0.50000000</v>
   <v>       0.00000000      0.50000000      0.50000000</v>
   <v>       0.50000000      0.50000000      0.50000000</v>
  </varray>
 </structure>
 <calculation>
  <scstep>
   <time name="dav">   14.20   14.23</time>
   <time name="total">   14.36   14.38</time>
   <energy>
    <i name="alphaZ">     -7.38484195</i>
    <i name="ewald">  -2452.97479168</i>
    <i name="hartreedc">     -2.22613264</i>
    <i name="XCdc">   -832.28348294</i>
    <i name="pawpsdc">   1137.73615723</i>
    <i name="pawaedc">   -115.16745734</i>
    <i name="eentropy">     -0.00075669</i>
    <i name="bandstr">    696.31688128</i>
    <i name="atom">   1713.22913220</i>
    <i name="e_fr_energy">    137.24470747</i>
    <i name="e_wo_entrp">    137.24546415</i>
    <i name="e_0_energy">    137.24508581</i>
   </energy>
  </scstep>
  <scstep>
   <time name="dav">   15.87   15.87</time>
   <time name="total">   15.87   15.87</time>
   <energy>
    <i name="e_fr_energy">   -104.81411973</i>
    <i name="e_wo_entrp">   -104.81355072</i>
    <i name="e_0_energy">   -104.81383522</i>
   </energy>
  </scstep>
  <scstep>
   <time name="dav">   16.57   16.56</time>
   <time name="total">   16.57   16.57</time>
   <energy>
    <i name="e_fr_energy">   -118.17224486</i>
    <i name="e_wo_entrp">   -118.17130639</i>
    <i name="e_0_energy">   -118.17177562</i>
   </energy>
  </scstep>
  <scstep>
   <time name="dav">   15.77   15.77</time>
   <time name="total">   15.77   15.77</time>
   <energy>
    <i name="e_fr_energy">   -118.41224761</i>
    <i name="e_wo_entrp">   -118.41112660</i>
    <i name="e_0_energy">   -118.41168710</i>
   </energy>
  </scstep>
  <scstep>
   <time name="dav">   15.74   15.74</time>
   <time name="total">   16.42   16.41</time>
   <energy>
    <i name="e_fr_energy">   -118.41494299</i>
    <i name="e_wo_entrp">   -118.41382145</i>
    <i name="e_0_energy">   -118.41438222</i>
   </energy>
  </scstep>
  <scstep>
   <time name="dav">   15.58   15.58</time>
   <time name="total">   16.42   16.42</time>
   <energy>
    <i name="e_fr_energy">   -117.93403268</i>
    <i name="e_wo_entrp">   -117.93290175</i>
    <i name="e_0_energy">   -117.93346722</i>
   </energy>
  </scstep>
  <scstep>
   <time name="dav">   14.89   14.89</time>
   <time name="total">   15.73   15.72</time>
   <energy>
    <i name="e_fr_energy">   -117.58737188</i>
    <i name="e_wo_entrp">   -117.58621618</i>
    <i name="e_0_energy">   -117.58679403</i>
   </energy>
  </scstep>
  <scstep>
   <time name="dav">   16.11   16.11</time>
   <time name="total">   16.94   16.94</time>
   <energy>
    <i name="e_fr_energy">   -117.58758872</i>
    <i name="e_wo_entrp">   -117.58643415</i>
    <i name="e_0_energy">   -117.58701144</i>
   </energy>
  </scstep>
  <scstep>
   <time name="dav">   15.47   15.47</time>
   <time name="total">   16.33   16.32</time>
   <energy>
    <i name="e_fr_energy">   -117.58762611</i>
    <i name="e_wo_entrp">   -117.58647260</i>
    <i name="e_0_energy">   -117.58704936</i>
   </energy>
  </scstep>
  <scstep>
   <time name="dav">   15.95   15.94</time>
   <time name="total">   16.78   16.78</time>
   <energy>
    <i name="e_fr_energy">   -117.58762928</i>
    <i name="e_wo_entrp">   -117.58647589</i>
    <i name="e_0_energy">   -117.58705259</i>
   </energy>
  </scstep>
  <scstep>
   <time name="dav">   15.75   15.75</time>
   <time name="total">   16.58   16.58</time>
   <energy>
    <i name="e_fr_energy">   -117.58762790</i>
    <i name="e_wo_entrp">   -117.58647454</i>
    <i name="e_0_energy">   -117.58705122</i>
   </energy>
  </scstep>
  <scstep>
   <time name="dav">   11.87   11.86</time>
   <time name="total">   12.71   12.71</time>
   <energy>
    <i name="e_fr_energy">   -117.58762731</i>
    <i name="e_wo_entrp">   -117.58647394</i>
    <i name="e_0_energy">   -117.58705062</i>
   </energy>
  </scstep>
  <scstep>
   <time name="dav">   10.69   10.69</time>
   <time name="total">   11.55   11.55</time>
   <energy>
    <i name="e_fr_energy">   -117.58762717</i>
    <i name="e_wo_entrp">   -117.58647381</i>
    <i name="e_0_energy">   -117.58705049</i>
   </energy>
  </scstep>
  <scstep>
   <time name="dav">   10.63   10.63</time>
   <time name="total">   11.47   11.47</time>
   <energy>
    <i name="e_fr_energy">   -117.58762716</i>
    <i name="e_wo_entrp">   -117.58647380</i>
    <i name="e_0_energy">   -117.58705048</i>
   </energy>
  </scstep>
  <scstep>
   <time name="dav">   10.42   10.41</time>
   <time name="total">   10.57   10.56</time>
   <energy>
    <i name="alphaZ">     -7.38484195</i>
    <i name="ewald">  -2452.97479168</i>
    <i name="hartreedc">     -4.21825169</i>
    <i name="XCdc">   -827.90174234</i>
    <i name="pawpsdc">   1156.25831253</i>
    <i name="pawaedc">   -134.86845375</i>
    <i name="eentropy">     -0.00115336</i>
    <i name="bandstr">    440.27416289</i>
    <i name="atom">   1713.22913220</i>
    <i name="e_fr_energy">   -117.58762716</i>
    <i name="e_wo_entrp">   -117.58647380</i>
    <i name="e_0_energy">   -117.58705048</i>
   </energy>
  </scstep>
  <structure>
   <crystal>
    <varray name="basis" >
     <v>       7.75142381      0.00000000      0.00000000</v>
     <v>       0.00000000      7.75142381      0.00000000</v>
     <v>       0.00000000      0.00000000      7.75142381</v>
    </varray>
    <i name="volume">    465.74097454</i>
    <varray name="rec_basis" >
     <v>       0.12900856      0.00000000      0.00000000</v>
     <v>       0.00000000      0.12900856      0.00000000</v>
     <v>       0.00000000      0.00000000      0.12900856</v>
    </varray>
   </crystal>
   <varray name="positions" >
    <v>       0.25129009      0.25000000      0.00000000</v>
    <v>       0.75000000      0.25000000      0.00000000</v>
    <v>       0.25000000      0.75000000      0.00000000</v>
    <v>       0.75000000      0.75000000      0.00000000</v>
    <v>       0.25000000      0.25000000      0.50000000</v>
    <v>       0.75000000      0.25000000      0.50000000</v>
    <v>       0.25000000      0.75000000      0.50000000</v>
    <v>       0.75000000      0.75000000      0.50000000</v>
    <v>       0.25000000      0.00000000      0.25000000</v>
    <v>       0.75000000      0.00000000      0.25000000</v>
    <v>       0.25000000      0.50000000      0.25000000</v>
    <v>       0.75000000      0.50000000      0.25000000</v>
    <v>       0.25000000      0.00000000      0.75000000</v>
    <v>       0.75000000      0.00000000      0.75000000</v>
    <v>       0.25000000      0.50000000      0.75000000</v>
    <v>       0.75000000      0.50000000      0.75000000</v>
    <v>       0.00000000      0.25000000      0.25000000</v>
    <v>       0.50000000      0.25000000      0.25000000</v>
    <v>       0.00000000      0.75000000      0.25000000</v>
    <v>       0.50000000      0.75000000      0.25000000</v>
    <v>       0.00000000      0.25000000      0.75000000</v>
    <v>       0.50000000      0.25000000      0.75000000</v>
    <v>       0.00000000      0.75000000      0.75000000</v>
    <v>       0.50000000      0.75000000      0.75000000</v>
    <v>       0.00000000      0.00000000      0.00000000</v>
    <v>       0.50000000      0.00000000      0.00000000</v>
    <v>       0.00000000      0.50000000      0.00000000</v>
    <v>       0.50000000      0.50000000      0.00000000</v>
    <v>       0.00000000      0.00000000      0.50000000</v>
    <v>       0.50000000      0.00000000      0.50000000</v>
    <v>       0.00000000      0.50000000      0.50000000</v>
    <v>       0.50000000      0.50000000      0.50000000</v>
   </varray>
  </structure>
  <varray name="forces" >
   <v>      -0.07349821     -0.00000000      0.00000000</v>
   <v>       0.00408348     -0.00000000     -0.00000000</v>
   <v>       0.00077389     -0.00000000     -0.00000000</v>
   <v>       0.00060463      0.00000000      0.00000000</v>
   <v>       0.00077389     -0.00000000     -0.00000000</v>
   <v>       0.00060463      0.00000000      0.00000000</v>
   <v>       0.00095276     -0.00000000     -0.00000000</v>
   <v>      -0.00029078      0.00000000      0.00000000</v>
   <v>      -0.00172674      0.00006418     -0.00006418</v>
   <v>      -0.00089826     -0.00001767      0.00001767</v>
   <v>      -0.00172674     -0.00006418     -0.00006418</v>
   <v>      -0.00089826      0.00001767      0.00001767</v>
   <v>      -0.00172674      0.00006418      0.00006418</v>
   <v>      -0.00089826     -0.00001767     -0.00001767</v>
   <v>      -0.00172674     -0.00006418      0.00006418</v>
   <v>      -0.00089826      0.00001767     -0.00001767</v>
   <v>       0.00948503      0.00000000     -0.01089123</v>
   <v>       0.00965453      0.00000000      0.01118195</v>
   <v>      -0.00003270     -0.00000000      0.00031135</v>
   <v>       0.00001707     -0.00000000     -0.00032507</v>
   <v>       0.00948503     -0.00000000      0.01089123</v>
   <v>       0.00965453      0.00000000     -0.01118195</v>
   <v>      -0.00003270     -0.00000000     -0.00031135</v>
   <v>       0.00001707     -0.00000000      0.00032507</v>
   <v>       0.00948503      0.01089123     -0.00000000</v>
   <v>       0.00965453     -0.01118195      0.00000000</v>
   <v>       0.00948503     -0.01089123     -0.00000000</v>
   <v>       0.00965453      0.01118195      0.00000000</v>
   <v>      -0.00003270     -0.00031135     -0.00000000</v>
   <v>       0.00001707      0.00032507      0.00000000</v>
   <v>      -0.00003270      0.00031135     -0.00000000</v>
   <v>       0.00001707     -0.00032507     -0.00000000</v>
  </varray>
  <varray name="stress" >
   <v>     128.11019331      0.00000000      0.00000000</v>
   <v>       0.00000000    128.11185014      0.00000000</v>
   <v>       0.00000000      0.00000000    128.11185014</v>
  </varray>
  <energy>
   <i name="e_fr_energy">   -117.58762716</i>
   <i name="e_wo_entrp">   -117.58705048</i>
   <i name="e_0_energy">     -0.00115336</i>
  </energy>
  <eigenvalues>
   <array>
    <dimension dim="1">band</dimension>
    <dimension dim="2">kpoint</dimension>
    <dimension dim="3">spin</dimension>
    <field>eigene</field>
    <field>occ</field>
    <set>
     <set comment="spin 1">
      <set comment="kpoint 1">
       <r>  -2.6572  1.0000</r>
       <r>  -0.2233  1.0000</r>
       <r>  -0.2193  1.0000</r>
       <r>  -0.2193  1.0000</r>
       <r>  -0.2193  1.0000</r>
       <r>  -0.2193  1.0000</r>
       <r>  -0.2153  1.0000</r>
       <r>   2.1638  1.0000</r>
       <r>   2.1683  1.0000</r>
       <r>   2.1683  1.0000</r>
       <r>   2.1702  1.0000</r>
       <r>   2.1704  1.0000</r>
       <r>   2.1704  1.0000</r>
       <r>   2.1704  1.0000</r>
       <r>   2.1704  1.0000</r>
       <r>   2.1705  1.0000</r>
       <r>   2.1724  1.0000</r>
       <r>   2.1724  1.0000</r>
       <r>   2.1769  1.0000</r>
       <r>   4.2685  1.0000</r>
       <r>   4.2686  1.0000</r>
       <r>   4.2686  1.0000</r>
       <r>   4.2686  1.0000</r>
       <r>   4.8151  1.0000</r>
       <r>   4.8151  1.0000</r>
       <r>   4.8152  1.0000</r>
       <r>   4.8152  1.0000</r>
       <r>   6.1458  1.0000</r>
       <r>   6.1458  1.0000</r>
       <r>   6.1458  1.0000</r>
       <r>   7.7211  1.0000</r>
       <r>   7.7211  1.0000</r>
       <r>   7.7211  1.0000</r>
       <r>   8.3630  1.0000</r>
       <r>   8.3630  1.0000</r>
       <r>   8.3677  1.0000</r>
       <r>   8.3677  1.0000</r>
       <r>   8.3679  1.0000</r>
       <r>   8.3679  1.0000</r>
       <r>   8.3679  1.0000</r>
       <r>   8.3680  1.0000</r>
       <r>   8.3681  1.0000</r>
       <r>   8.3681  1.0000</r>
       <r>   8.3728  1.0000</r>
       <r>   8.3728  1.0000</r>
       <r>   9.3047  1.0000</r>
       <r>   9.3093  1.0000</r>
       <r>   9.3093  1.0000</r>
       <r>   9.3093  1.0000</r>
       <r>   9.3093  1.0000</r>
       <r>   9.3138  1.0000</r>
       <r>  10.5996  0.0000</r>
       <r>  10.5996  0.0000</r>
       <r>  10.6009  0.0000</r>
       <r>  10.6037  0.0000</r>
       <r>  10.6038  0.0000</r>
       <r>  10.6038  0.0000</r>
       <r>  10.6038  0.0000</r>
       <r>  10.6039  0.0000</r>
       <r>  10.6040  0.0000</r>
       <r>  10.6068  0.0000</r>
       <r>  10.6081  0.0000</r>
       <r>  10.6081  0.0000</r>
       <r>  11.2160  0.0000</r>
       <r>  11.2173  0.0000</r>
       <r>  11.2173  0.0000</r>
       <r>  11.2173  0.0000</r>
       <r>  11.2173  0.0000</r>
       <r>  11.2187  0.0000</r>
       <r>  12.5132  0.0000</r>
       <r>  12.5161  0.0000</r>
       <r>  12.5165  0.0000</r>
      </set>
      <set comment="kpoint 2">
       <r>  -2.5888  1.0000</r>
       <r>  -0.9590  1.0000</r>
       <r>  -0.1523  1.0000</r>
       <r>  -0.1523  1.0000</r>
       <r>  -0.1523  1.0000</r>
       <r>  -0.1523  1.0000</r>
       <r>   0.6488  1.0000</r>
       <r>   1.4454  1.0000</r>
       <r>   1.4454  1.0000</r>
       <r>   1.4454  1.0000</r>
       <r>   1.4454  1.0000</r>
       <r>   2.2360  1.0000</r>
       <r>   2.2360  1.0000</r>
       <r>   2.2360  1.0000</r>
       <r>   2.2360  1.0000</r>
       <r>   3.0206  1.0000</r>
       <r>   3.0206  1.0000</r>
       <r>   3.0206  1.0000</r>
       <r>   3.0206  1.0000</r>
       <r>   3.7783  1.0000</r>
       <r>   3.7783  1.0000</r>
       <r>   3.7783  1.0000</r>
       <r>   3.7783  1.0000</r>
       <r>   5.2548  1.0000</r>
       <r>   5.4303  1.0000</r>
       <r>   5.4303  1.0000</r>
       <r>   5.4303  1.0000</r>
       <r>   5.4303  1.0000</r>
       <r>   6.2073  1.0000</r>
       <r>   6.2073  1.0000</r>
       <r>   7.4888  1.0000</r>
       <r>   7.4888  1.0000</r>
       <r>   7.4888  1.0000</r>
       <r>   7.4888  1.0000</r>
       <r>   7.6877  1.0000</r>
       <r>   7.6877  1.0000</r>
       <r>   7.7840  1.0000</r>
       <r>   7.7840  1.0000</r>
       <r>   8.4299  1.0000</r>
       <r>   8.4299  1.0000</r>
       <r>   8.4299  1.0000</r>
       <r>   8.4299  1.0000</r>
       <r>   8.7270  1.0000</r>
       <r>   9.0874  1.0000</r>
       <r>   9.0874  1.0000</r>
       <r>   9.1728  1.0000</r>
       <r>   9.1728  1.0000</r>
       <r>   9.8253  0.0000</r>
       <r>   9.8254  0.0000</r>
       <r>   9.8254  0.0000</r>
       <r>   9.8254  0.0000</r>
       <r>   9.8758  0.0000</r>
       <r>   9.8758  0.0000</r>
       <r>   9.8758  0.0000</r>
       <r>   9.8760  0.0000</r>
       <r>   9.9198  0.0000</r>
       <r>   9.9198  0.0000</r>
       <r>   9.9199  0.0000</r>
       <r>   9.9199  0.0000</r>
       <r>  11.4129  0.0000</r>
       <r>  11.4129  0.0000</r>
       <r>  11.4129  0.0000</r>
       <r>  11.4129  0.0000</r>
       <r>  11.5533  0.0000</r>
       <r>  11.5533  0.0000</r>
       <r>  11.7093  0.0000</r>
       <r>  11.7094  0.0000</r>
       <r>  11.7094  0.0000</r>
       <r>  11.7094  0.0000</r>
       <r>  11.8184  0.0000</r>
       <r>  11.8184  0.0000</r>
       <r>  11.8184  0.0000</r>
      </set>
      <set comment="kpoint 3">
       <r>  -2.3839  1.0000</r>
       <r>  -1.5677  1.0000</r>
       <r>   0.0485  1.0000</r>
       <r>   0.0486  1.0000</r>
       <r>   0.0486  1.0000</r>
       <r>   0.0486  1.0000</r>
       <r>   0.8488  1.0000</r>
       <r>   0.8488  1.0000</r>
       <r>   0.8488  1.0000</r>
       <r>   0.8488  1.0000</r>
       <r>   1.6417  1.0000</r>
       <r>   2.4325  1.0000</r>
       <r>   2.4325  1.0000</r>
       <r>   2.4325  1.0000</r>
       <r>   2.4325  1.0000</r>
       <r>   3.2113  1.0000</r>
       <r>   3.2113  1.0000</r>
       <r>   3.2113  1.0000</r>
       <r>   3.2113  1.0000</r>
       <r>   3.9730  1.0000</r>
       <r>   3.9916  1.0000</r>
       <r>   3.9916  1.0000</r>
       <r>   3.9916  1.0000</r>
       <r>   3.9917  1.0000</r>
       <r>   6.2580  1.0000</r>
       <r>   6.2580  1.0000</r>
       <r>   6.2580  1.0000</r>
       <r>   6.2580  1.0000</r>
       <r>   6.3707  1.0000</r>
       <r>   6.3707  1.0000</r>
       <r>   6.3708  1.0000</r>
       <r>   6.3708  1.0000</r>
       <r>   6.3922  1.0000</r>
       <r>   6.3922  1.0000</r>
       <r>   7.1319  1.0000</r>
       <r>   7.1319  1.0000</r>
       <r>   7.9706  1.0000</r>
       <r>   7.9706  1.0000</r>
       <r>   8.6118  1.0000</r>
       <r>   8.6118  1.0000</r>
       <r>   8.6128  1.0000</r>
       <r>   8.6133  1.0000</r>
       <r>   8.6159  1.0000</r>
       <r>   8.6165  1.0000</r>
       <r>   8.6174  1.0000</r>
       <r>   8.6174  1.0000</r>
       <r>   8.6676  1.0000</r>
       <r>   8.6676  1.0000</r>
       <r>   9.3606  0.0127</r>
       <r>   9.3606  0.0127</r>
       <r>   9.3607  0.0127</r>
       <r>   9.3607  0.0126</r>
       <r>  10.1026  0.0000</r>
       <r>  10.1026  0.0000</r>
       <r>  10.3421  0.0000</r>
       <r>  10.3421  0.0000</r>
       <r>  10.3421  0.0000</r>
       <r>  10.3421  0.0000</r>
       <r>  10.3533  0.0000</r>
       <r>  11.2308  0.0000</r>
       <r>  11.2308  0.0000</r>
       <r>  11.2308  0.0000</r>
       <r>  11.2308  0.0000</r>
       <r>  12.3110  0.0000</r>
       <r>  12.3110  0.0000</r>
       <r>  12.3311  0.0000</r>
       <r>  12.3311  0.0000</r>
       <r>  12.3471  0.0000</r>
       <r>  12.3471  0.0000</r>
       <r>  12.3472  0.0000</r>
       <r>  12.3472  0.0000</r>
       <r>  13.0103  0.0000</r>
      </set>
      <set comment="kpoint 4">
       <r>  -2.0447  1.0000</r>
       <r>  -2.0416  1.0000</r>
       <r>   0.3783  1.0000</r>
       <r>   0.3817  1.0000</r>
       <r>   0.3817  1.0000</r>
       <r>   0.3826  1.0000</r>
       <r>   0.3827  1.0000</r>
       <r>   0.3836  1.0000</r>
       <r>   0.3836  1.0000</r>
       <r>   0.3869  1.0000</r>
       <r>   2.7510  1.0000</r>
       <r>   2.7537  1.0000</r>
       <r>   2.7572  1.0000</r>
       <r>   2.7573  1.0000</r>
       <r>   2.7573  1.0000</r>
       <r>   2.7581  1.0000</r>
       <r>   2.7592  1.0000</r>
       <r>   2.7600  1.0000</r>
       <r>   2.7600  1.0000</r>
       <r>   2.7628  1.0000</r>
       <r>   5.0751  1.0000</r>
       <r>   5.0751  1.0000</r>
       <r>   5.0758  1.0000</r>
       <r>   5.0759  1.0000</r>
       <r>   5.0762  1.0000</r>
       <r>   5.0762  1.0000</r>
       <r>   5.0769  1.0000</r>
       <r>   5.0769  1.0000</r>
       <r>   6.6985  1.0000</r>
       <r>   6.6985  1.0000</r>
       <r>   6.7018  1.0000</r>
       <r>   6.7018  1.0000</r>
       <r>   7.4399  1.0000</r>
       <r>   7.4399  1.0000</r>
       <r>   7.4401  1.0000</r>
       <r>   7.4407  1.0000</r>
       <r>   7.4408  1.0000</r>
       <r>   7.4414  1.0000</r>
       <r>   7.4417  1.0000</r>
       <r>   7.4417  1.0000</r>
       <r>   8.2703  1.0000</r>
       <r>   8.2716  1.0000</r>
       <r>   8.2734  1.0000</r>
       <r>   8.2747  1.0000</r>
       <r>   8.9235  1.0000</r>
       <r>   8.9235  1.0000</r>
       <r>   8.9244  1.0000</r>
       <r>   8.9260  1.0000</r>
       <r>   8.9262  1.0000</r>
       <r>   8.9278  1.0000</r>
       <r>   8.9287  1.0000</r>
       <r>   8.9287  1.0000</r>
       <r>  10.7464  0.0000</r>
       <r>  10.7473  0.0000</r>
       <r>  10.7473  0.0000</r>
       <r>  10.7475  0.0000</r>
       <r>  10.7501  0.0000</r>
       <r>  10.7502  0.0000</r>
       <r>  10.7502  0.0000</r>
       <r>  10.7512  0.0000</r>
       <r>  11.1553  0.0000</r>
       <r>  11.1553  0.0000</r>
       <r>  11.1575  0.0000</r>
       <r>  11.1575  0.0000</r>
       <r>  12.1457  0.0000</r>
       <r>  12.1466  0.0000</r>
       <r>  13.2489  0.0000</r>
       <r>  13.2490  0.0000</r>
       <r>  13.2509  0.0000</r>
       <r>  13.2510  0.0000</r>
       <r>  13.4057  0.0000</r>
       <r>  13.4060  0.0000</r>
      </set>
      <set comment="kpoint 5">
       <r>  -2.5888  1.0000</r>
       <r>  -0.9590  1.0000</r>
       <r>  -0.1554  1.0000</r>
       <r>  -0.1523  1.0000</r>
       <r>  -0.1523  1.0000</r>
       <r>  -0.1492  1.0000</r>
       <r>   0.6488  1.0000</r>
       <r>   1.4423  1.0000</r>
       <r>   1.4454  1.0000</r>
       <r>   1.4454  1.0000</r>
       <r>   1.4485  1.0000</r>
       <r>   2.2339  1.0000</r>
       <r>   2.2347  1.0000</r>
       <r>   2.2373  1.0000</r>
       <r>   2.2381  1.0000</r>
       <r>   3.0174  1.0000</r>
       <r>   3.0206  1.0000</r>
       <r>   3.0206  1.0000</r>
       <r>   3.0237  1.0000</r>
       <r>   3.7763  1.0000</r>
       <r>   3.7771  1.0000</r>
       <r>   3.7795  1.0000</r>
       <r>   3.7803  1.0000</r>
       <r>   5.2547  1.0000</r>
       <r>   5.4283  1.0000</r>
       <r>   5.4291  1.0000</r>
       <r>   5.4316  1.0000</r>
       <r>   5.4324  1.0000</r>
       <r>   6.2073  1.0000</r>
       <r>   6.2073  1.0000</r>
       <r>   7.4854  1.0000</r>
       <r>   7.4888  1.0000</r>
       <r>   7.4888  1.0000</r>
       <r>   7.4922  1.0000</r>
       <r>   7.6877  1.0000</r>
       <r>   7.6878  1.0000</r>
       <r>   7.7840  1.0000</r>
       <r>   7.7840  1.0000</r>
       <r>   8.4270  1.0000</r>
       <r>   8.4299  1.0000</r>
       <r>   8.4299  1.0000</r>
       <r>   8.4328  1.0000</r>
       <r>   8.7270  1.0000</r>
       <r>   9.0874  1.0000</r>
       <r>   9.0874  1.0000</r>
       <r>   9.1728  1.0000</r>
       <r>   9.1729  1.0000</r>
       <r>   9.8228  0.0000</r>
       <r>   9.8241  0.0000</r>
       <r>   9.8267  0.0000</r>
       <r>   9.8280  0.0000</r>
       <r>   9.8728  0.0000</r>
       <r>   9.8758  0.0000</r>
       <r>   9.8758  0.0000</r>
       <r>   9.8788  0.0000</r>
       <r>   9.9168  0.0000</r>
       <r>   9.9198  0.0000</r>
       <r>   9.9199  0.0000</r>
       <r>   9.9228  0.0000</r>
       <r>  11.4099  0.0000</r>
       <r>  11.4129  0.0000</r>
       <r>  11.4129  0.0000</r>
       <r>  11.4160  0.0000</r>
       <r>  11.5533  0.0000</r>
       <r>  11.5533  0.0000</r>
       <r>  11.7079  0.0000</r>
       <r>  11.7094  0.0000</r>
       <r>  11.7094  0.0000</r>
       <r>  11.7109  0.0000</r>
       <r>  11.8162  0.0000</r>
       <r>  11.8184  0.0000</r>
       <r>  11.8191  0.0000</r>
      </set>
      <set comment="kpoint 6">
       <r>  -2.5205  1.0000</r>
       <r>  -0.8929  1.0000</r>
       <r>  -0.8903  1.0000</r>
       <r>  -0.0853  1.0000</r>
       <r>  -0.0853  1.0000</r>
       <r>   0.7135  1.0000</r>
       <r>   0.7156  1.0000</r>
       <r>   0.7175  1.0000</r>
       <r>   1.5097  1.0000</r>
       <r>   1.5107  1.0000</r>
       <r>   1.5123  1.0000</r>
       <r>   1.5133  1.0000</r>
       <r>   2.3009  1.0000</r>
       <r>   2.3017  1.0000</r>
       <r>   3.0807  1.0000</r>
       <r>   3.0812  1.0000</r>
       <r>   3.0842  1.0000</r>
       <r>   3.0848  1.0000</r>
       <r>   3.0864  1.0000</r>
       <r>   3.0876  1.0000</r>
       <r>   3.8636  1.0000</r>
       <r>   4.3938  1.0000</r>
       <r>   4.3938  1.0000</r>
       <r>   4.9469  1.0000</r>
       <r>   4.9469  1.0000</r>
       <r>   5.3175  1.0000</r>
       <r>   5.3183  1.0000</r>
       <r>   6.2448  1.0000</r>
       <r>   6.2448  1.0000</r>
       <r>   6.2689  1.0000</r>
       <r>   6.8179  1.0000</r>
       <r>   6.8205  1.0000</r>
       <r>   7.3727  1.0000</r>
       <r>   7.3727  1.0000</r>
       <r>   7.7481  1.0000</r>
       <r>   7.7510  1.0000</r>
       <r>   7.7945  1.0000</r>
       <r>   7.7946  1.0000</r>
       <r>   7.8457  1.0000</r>
       <r>   8.2191  1.0000</r>
       <r>   8.2214  1.0000</r>
       <r>   8.7871  1.0000</r>
       <r>   8.7880  1.0000</r>
       <r>   9.1333  1.0000</r>
       <r>   9.1343  1.0000</r>
       <r>   9.1359  1.0000</r>
       <r>   9.1370  1.0000</r>
       <r>   9.2329  1.0000</r>
       <r>   9.2356  1.0000</r>
       <r>   9.2383  1.0000</r>
       <r>   9.4958  0.0000</r>
       <r>   9.4976  0.0000</r>
       <r>   9.9356  0.0000</r>
       <r>   9.9385  0.0000</r>
       <r>  10.5599  0.0000</r>
       <r>  10.5600  0.0000</r>
       <r>  10.6380  0.0000</r>
       <r>  10.6389  0.0000</r>
       <r>  10.6395  0.0000</r>
       <r>  10.6405  0.0000</r>
       <r>  10.7270  0.0000</r>
       <r>  10.7288  0.0000</r>
       <r>  11.1241  0.0000</r>
       <r>  11.7513  0.0000</r>
       <r>  11.7521  0.0000</r>
       <r>  12.0179  0.0000</r>
       <r>  12.0179  0.0000</r>
       <r>  12.2230  0.0000</r>
       <r>  12.2739  0.0000</r>
       <r>  12.2762  0.0000</r>
       <r>  12.6198  0.0000</r>
       <r>  12.6214  0.0000</r>
      </set>
      <set comment="kpoint 7">
       <r>  -2.3157  1.0000</r>
       <r>  -1.4999  1.0000</r>
       <r>  -0.6895  1.0000</r>
       <r>   0.1140  1.0000</r>
       <r>   0.1155  1.0000</r>
       <r>   0.1170  1.0000</r>
       <r>   0.9135  1.0000</r>
       <r>   0.9152  1.0000</r>
       <r>   0.9165  1.0000</r>
       <r>   1.7063  1.0000</r>
       <r>   1.7091  1.0000</r>
       <r>   1.7096  1.0000</r>
       <r>   1.7109  1.0000</r>
       <r>   2.4972  1.0000</r>
       <r>   2.4972  1.0000</r>
       <r>   3.2788  1.0000</r>
       <r>   3.2795  1.0000</r>
       <r>   3.2801  1.0000</r>
       <r>   4.0342  1.0000</r>
       <r>   4.0349  1.0000</r>
       <r>   4.0380  1.0000</r>
       <r>   4.0552  1.0000</r>
       <r>   4.0553  1.0000</r>
       <r>   4.8250  1.0000</r>
       <r>   5.5071  1.0000</r>
       <r>   5.5690  1.0000</r>
       <r>   5.6863  1.0000</r>
       <r>   5.6863  1.0000</r>
       <r>   6.2603  1.0000</r>
       <r>   6.3055  1.0000</r>
       <r>   6.3056  1.0000</r>
       <r>   6.4537  1.0000</r>
       <r>   7.0510  1.0000</r>
       <r>   7.1929  1.0000</r>
       <r>   7.1954  1.0000</r>
       <r>   7.1961  1.0000</r>
       <r>   7.8287  1.0000</r>
       <r>   7.8287  1.0000</r>
       <r>   7.9184  1.0000</r>
       <r>   7.9186  1.0000</r>
       <r>   7.9354  1.0000</r>
       <r>   8.0270  1.0000</r>
       <r>   8.5698  1.0000</r>
       <r>   8.5699  1.0000</r>
       <r>   8.5808  1.0000</r>
       <r>   8.6786  1.0000</r>
       <r>   8.9667  1.0000</r>
       <r>   9.4211  0.0000</r>
       <r>   9.4325  0.0000</r>
       <r>   9.4328  0.0000</r>
       <r>   9.5693  0.0000</r>
       <r>   9.6183  0.0000</r>
       <r>   9.7462  0.0000</r>
       <r>  10.1640  0.0000</r>
       <r>  10.1686  0.0000</r>
       <r>  10.4098  0.0000</r>
       <r>  10.5454  0.0000</r>
       <r>  10.9037  0.0000</r>
       <r>  11.2038  0.0000</r>
       <r>  11.2038  0.0000</r>
       <r>  11.5740  0.0000</r>
       <r>  11.5741  0.0000</r>
       <r>  11.5936  0.0000</r>
       <r>  11.6611  0.0000</r>
       <r>  12.0181  0.0000</r>
       <r>  12.1325  0.0000</r>
       <r>  12.1325  0.0000</r>
       <r>  12.3941  0.0000</r>
       <r>  12.4107  0.0000</r>
       <r>  12.5725  0.0000</r>
       <r>  13.1090  0.0000</r>
       <r>  13.1292  0.0000</r>
      </set>
      <set comment="kpoint 8">
       <r>  -1.9767  1.0000</r>
       <r>  -1.9736  1.0000</r>
       <r>  -0.3550  1.0000</r>
       <r>  -0.3518  1.0000</r>
       <r>   0.4472  1.0000</r>
       <r>   0.4484  1.0000</r>
       <r>   0.4503  1.0000</r>
       <r>   0.4515  1.0000</r>
       <r>   1.2448  1.0000</r>
       <r>   1.2480  1.0000</r>
       <r>   2.0365  1.0000</r>
       <r>   2.0378  1.0000</r>
       <r>   2.0396  1.0000</r>
       <r>   2.0409  1.0000</r>
       <r>   2.8184  1.0000</r>
       <r>   2.8195  1.0000</r>
       <r>   3.5977  1.0000</r>
       <r>   3.5991  1.0000</r>
       <r>   3.6009  1.0000</r>
       <r>   3.6022  1.0000</r>
       <r>   4.3728  1.0000</r>
       <r>   4.3738  1.0000</r>
       <r>   5.1354  1.0000</r>
       <r>   5.1362  1.0000</r>
       <r>   5.1364  1.0000</r>
       <r>   5.1372  1.0000</r>
       <r>   5.8202  1.0000</r>
       <r>   5.8235  1.0000</r>
       <r>   5.8946  1.0000</r>
       <r>   5.8956  1.0000</r>
       <r>   6.7442  1.0000</r>
       <r>   6.7448  1.0000</r>
       <r>   6.7456  1.0000</r>
       <r>   6.7457  1.0000</r>
       <r>   6.7603  1.0000</r>
       <r>   6.7637  1.0000</r>
       <r>   8.1297  1.0000</r>
       <r>   8.1310  1.0000</r>
       <r>   8.1330  1.0000</r>
       <r>   8.1343  1.0000</r>
       <r>   8.2431  1.0000</r>
       <r>   8.2465  1.0000</r>
       <r>   8.2633  1.0000</r>
       <r>   8.2636  1.0000</r>
       <r>   8.2644  1.0000</r>
       <r>   8.2649  1.0000</r>
       <r>   8.3078  1.0000</r>
       <r>   8.3108  1.0000</r>
       <r>   9.2527  1.0000</r>
       <r>   9.2559  1.0000</r>
       <r>   9.7305  0.0000</r>
       <r>   9.7340  0.0000</r>
       <r>  10.0852  0.0000</r>
       <r>  10.0883  0.0000</r>
       <r>  10.4675  0.0000</r>
       <r>  10.4692  0.0000</r>
       <r>  11.2178  0.0000</r>
       <r>  11.2200  0.0000</r>
       <r>  11.4873  0.0000</r>
       <r>  11.4908  0.0000</r>
       <r>  11.6452  0.0000</r>
       <r>  11.6460  0.0000</r>
       <r>  11.6486  0.0000</r>
       <r>  11.6494  0.0000</r>
       <r>  12.1944  0.0000</r>
       <r>  12.1952  0.0000</r>
       <r>  12.6248  0.0000</r>
       <r>  12.6249  0.0000</r>
       <r>  12.6266  0.0000</r>
       <r>  12.6267  0.0000</r>
       <r>  12.7179  0.0000</r>
       <r>  12.7203  0.0000</r>
      </set>
      <set comment="kpoint 9">
       <r>  -2.3839  1.0000</r>
       <r>  -1.5677  1.0000</r>
       <r>   0.0455  1.0000</r>
       <r>   0.0486  1.0000</r>
       <r>   0.0486  1.0000</r>
       <r>   0.0517  1.0000</r>
       <r>   0.8457  1.0000</r>
       <r>   0.8488  1.0000</r>
       <r>   0.8488  1.0000</r>
       <r>   0.8519  1.0000</r>
       <r>   1.6417  1.0000</r>
       <r>   2.4304  1.0000</r>
       <r>   2.4312  1.0000</r>
       <r>   2.4338  1.0000</r>
       <r>   2.4346  1.0000</r>
       <r>   3.2092  1.0000</r>
       <r>   3.2101  1.0000</r>
       <r>   3.2126  1.0000</r>
       <r>   3.2134  1.0000</r>
       <r>   3.9730  1.0000</r>
       <r>   3.9885  1.0000</r>
       <r>   3.9916  1.0000</r>
       <r>   3.9916  1.0000</r>
       <r>   3.9948  1.0000</r>
       <r>   6.2547  1.0000</r>
       <r>   6.2580  1.0000</r>
       <r>   6.2580  1.0000</r>
       <r>   6.2613  1.0000</r>
       <r>   6.3686  1.0000</r>
       <r>   6.3694  1.0000</r>
       <r>   6.3721  1.0000</r>
       <r>   6.3730  1.0000</r>
       <r>   6.3922  1.0000</r>
       <r>   6.3922  1.0000</r>
       <r>   7.1319  1.0000</r>
       <r>   7.1319  1.0000</r>
       <r>   7.9706  1.0000</r>
       <r>   7.9706  1.0000</r>
       <r>   8.6109  1.0000</r>
       <r>   8.6116  1.0000</r>
       <r>   8.6134  1.0000</r>
       <r>   8.6145  1.0000</r>
       <r>   8.6157  1.0000</r>
       <r>   8.6159  1.0000</r>
       <r>   8.6159  1.0000</r>
       <r>   8.6190  1.0000</r>
       <r>   8.6676  1.0000</r>
       <r>   8.6677  1.0000</r>
       <r>   9.3577  0.0346</r>
       <r>   9.3606  0.0127</r>
       <r>   9.3607  0.0125</r>
       <r>   9.3636  0.0039</r>
       <r>  10.1025  0.0000</r>
       <r>  10.1025  0.0000</r>
       <r>  10.3394  0.0000</r>
       <r>  10.3421  0.0000</r>
       <r>  10.3422  0.0000</r>
       <r>  10.3448  0.0000</r>
       <r>  10.3534  0.0000</r>
       <r>  11.2281  0.0000</r>
       <r>  11.2308  0.0000</r>
       <r>  11.2308  0.0000</r>
       <r>  11.2334  0.0000</r>
       <r>  12.3108  0.0000</r>
       <r>  12.3109  0.0000</r>
       <r>  12.3312  0.0000</r>
       <r>  12.3314  0.0000</r>
       <r>  12.3440  0.0000</r>
       <r>  12.3471  0.0000</r>
       <r>  12.3473  0.0000</r>
       <r>  12.3502  0.0000</r>
       <r>  13.0107  0.0000</r>
      </set>
      <set comment="kpoint 10">
       <r>  -2.3157  1.0000</r>
       <r>  -1.4999  1.0000</r>
       <r>  -0.6895  1.0000</r>
       <r>   0.1140  1.0000</r>
       <r>   0.1155  1.0000</r>
       <r>   0.1170  1.0000</r>
       <r>   0.9135  1.0000</r>
       <r>   0.9152  1.0000</r>
       <r>   0.9165  1.0000</r>
       <r>   1.7065  1.0000</r>
       <r>   1.7086  1.0000</r>
       <r>   1.7096  1.0000</r>
       <r>   1.7112  1.0000</r>
       <r>   2.4972  1.0000</r>
       <r>   2.4972  1.0000</r>
       <r>   3.2781  1.0000</r>
       <r>   3.2795  1.0000</r>
       <r>   3.2809  1.0000</r>
       <r>   4.0342  1.0000</r>
       <r>   4.0349  1.0000</r>
       <r>   4.0380  1.0000</r>
       <r>   4.0552  1.0000</r>
       <r>   4.0552  1.0000</r>
       <r>   4.8250  1.0000</r>
       <r>   5.5072  1.0000</r>
       <r>   5.5689  1.0000</r>
       <r>   5.6863  1.0000</r>
       <r>   5.6863  1.0000</r>
       <r>   6.2603  1.0000</r>
       <r>   6.3056  1.0000</r>
       <r>   6.3056  1.0000</r>
       <r>   6.4537  1.0000</r>
       <r>   7.0510  1.0000</r>
       <r>   7.1934  1.0000</r>
       <r>   7.1954  1.0000</r>
       <r>   7.1957  1.0000</r>
       <r>   7.8287  1.0000</r>
       <r>   7.8288  1.0000</r>
       <r>   7.9185  1.0000</r>
       <r>   7.9185  1.0000</r>
       <r>   7.9353  1.0000</r>
       <r>   8.0270  1.0000</r>
       <r>   8.5698  1.0000</r>
       <r>   8.5699  1.0000</r>
       <r>   8.5809  1.0000</r>
       <r>   8.6786  1.0000</r>
       <r>   8.9667  1.0000</r>
       <r>   9.4214  0.0000</r>
       <r>   9.4325  0.0000</r>
       <r>   9.4325  0.0000</r>
       <r>   9.5693  0.0000</r>
       <r>   9.6183  0.0000</r>
       <r>   9.7463  0.0000</r>
       <r>  10.1646  0.0000</r>
       <r>  10.1680  0.0000</r>
       <r>  10.4098  0.0000</r>
       <r>  10.5454  0.0000</r>
       <r>  10.9037  0.0000</r>
       <r>  11.2038  0.0000</r>
       <r>  11.2038  0.0000</r>
       <r>  11.5740  0.0000</r>
       <r>  11.5741  0.0000</r>
       <r>  11.5935  0.0000</r>
       <r>  11.6611  0.0000</r>
       <r>  12.0181  0.0000</r>
       <r>  12.1325  0.0000</r>
       <r>  12.1326  0.0000</r>
       <r>  12.3941  0.0000</r>
       <r>  12.4107  0.0000</r>
       <r>  12.5725  0.0000</r>
       <r>  13.1148  0.0000</r>
       <r>  13.1477  0.0000</r>
      </set>
      <set comment="kpoint 11">
       <r>  -2.1112  1.0000</r>
       <r>  -1.2981  1.0000</r>
       <r>  -1.2955  1.0000</r>
       <r>  -0.4877  1.0000</r>
       <r>   0.3159  1.0000</r>
       <r>   0.3159  1.0000</r>
       <r>   1.1126  1.0000</r>
       <r>   1.1136  1.0000</r>
       <r>   1.1152  1.0000</r>
       <r>   1.1161  1.0000</r>
       <r>   1.9036  1.0000</r>
       <r>   1.9059  1.0000</r>
       <r>   1.9071  1.0000</r>
       <r>   1.9082  1.0000</r>
       <r>   2.6923  1.0000</r>
       <r>   2.6931  1.0000</r>
       <r>   4.2298  1.0000</r>
       <r>   4.2307  1.0000</r>
       <r>   4.2423  1.0000</r>
       <r>   4.2432  1.0000</r>
       <r>   4.2449  1.0000</r>
       <r>   4.2459  1.0000</r>
       <r>   4.7695  1.0000</r>
       <r>   4.7695  1.0000</r>
       <r>   4.9969  1.0000</r>
       <r>   4.9995  1.0000</r>
       <r>   5.3387  1.0000</r>
       <r>   5.3388  1.0000</r>
       <r>   5.7720  1.0000</r>
       <r>   6.2682  1.0000</r>
       <r>   6.2682  1.0000</r>
       <r>   6.6385  1.0000</r>
       <r>   6.8324  1.0000</r>
       <r>   6.8324  1.0000</r>
       <r>   7.3507  1.0000</r>
       <r>   7.3517  1.0000</r>
       <r>   7.3532  1.0000</r>
       <r>   7.3545  1.0000</r>
       <r>   7.3777  1.0000</r>
       <r>   7.3806  1.0000</r>
       <r>   7.8810  1.0000</r>
       <r>   7.8834  1.0000</r>
       <r>   8.1212  1.0000</r>
       <r>   8.1444  1.0000</r>
       <r>   8.1444  1.0000</r>
       <r>   8.1820  1.0000</r>
       <r>   9.3056  1.0000</r>
       <r>   9.3069  1.0000</r>
       <r>   9.9790  0.0000</r>
       <r>  10.3502  0.0000</r>
       <r>  10.3532  0.0000</r>
       <r>  10.3709  0.0000</r>
       <r>  10.3720  0.0000</r>
       <r>  10.3726  0.0000</r>
       <r>  10.3734  0.0000</r>
       <r>  10.4496  0.0000</r>
       <r>  10.5737  0.0000</r>
       <r>  10.5749  0.0000</r>
       <r>  11.0477  0.0000</r>
       <r>  11.0506  0.0000</r>
       <r>  11.0990  0.0000</r>
       <r>  11.1008  0.0000</r>
       <r>  12.4293  0.0000</r>
       <r>  12.4293  0.0000</r>
       <r>  12.5797  0.0000</r>
       <r>  12.5808  0.0000</r>
       <r>  12.5823  0.0000</r>
       <r>  12.5842  0.0000</r>
       <r>  12.7772  0.0000</r>
       <r>  12.7779  0.0000</r>
       <r>  12.8735  0.0000</r>
       <r>  12.8742  0.0000</r>
      </set>
      <set comment="kpoint 12">
       <r>  -1.7728  1.0000</r>
       <r>  -1.7697  1.0000</r>
       <r>  -0.9606  1.0000</r>
       <r>  -0.9575  1.0000</r>
       <r>   0.6471  1.0000</r>
       <r>   0.6483  1.0000</r>
       <r>   0.6502  1.0000</r>
       <r>   0.6514  1.0000</r>
       <r>   1.4432  1.0000</r>
       <r>   1.4445  1.0000</r>
       <r>   1.4464  1.0000</r>
       <r>   1.4476  1.0000</r>
       <r>   2.2325  1.0000</r>
       <r>   2.2357  1.0000</r>
       <r>   3.0141  1.0000</r>
       <r>   3.0151  1.0000</r>
       <r>   3.7929  1.0000</r>
       <r>   3.7939  1.0000</r>
       <r>   4.5438  1.0000</r>
       <r>   4.5454  1.0000</r>
       <r>   4.5470  1.0000</r>
       <r>   4.5485  1.0000</r>
       <r>   4.5495  1.0000</r>
       <r>   4.5527  1.0000</r>
       <r>   5.3062  1.0000</r>
       <r>   5.3071  1.0000</r>
       <r>   5.3072  1.0000</r>
       <r>   5.3081  1.0000</r>
       <r>   6.1914  1.0000</r>
       <r>   6.1915  1.0000</r>
       <r>   6.1924  1.0000</r>
       <r>   6.1926  1.0000</r>
       <r>   6.8135  1.0000</r>
       <r>   6.8144  1.0000</r>
       <r>   6.9266  1.0000</r>
       <r>   6.9274  1.0000</r>
       <r>   6.9296  1.0000</r>
       <r>   6.9306  1.0000</r>
       <r>   6.9453  1.0000</r>
       <r>   6.9487  1.0000</r>
       <r>   7.6864  1.0000</r>
       <r>   7.6898  1.0000</r>
       <r>   8.3199  1.0000</r>
       <r>   8.3220  1.0000</r>
       <r>   9.2080  1.0000</r>
       <r>   9.2084  1.0000</r>
       <r>   9.2093  1.0000</r>
       <r>   9.2097  1.0000</r>
       <r>   9.4802  0.0000</r>
       <r>   9.4807  0.0000</r>
       <r>   9.5474  0.0000</r>
       <r>   9.5503  0.0000</r>
       <r>  10.6617  0.0000</r>
       <r>  10.6652  0.0000</r>
       <r>  10.8204  0.0000</r>
       <r>  10.8236  0.0000</r>
       <r>  11.4054  0.0000</r>
       <r>  11.4076  0.0000</r>
       <r>  11.4254  0.0000</r>
       <r>  11.4257  0.0000</r>
       <r>  11.4269  0.0000</r>
       <r>  11.4272  0.0000</r>
       <r>  12.1555  0.0000</r>
       <r>  12.1578  0.0000</r>
       <r>  12.1769  0.0000</r>
       <r>  12.1801  0.0000</r>
       <r>  12.3246  0.0000</r>
       <r>  12.3250  0.0000</r>
       <r>  12.8949  0.0000</r>
       <r>  12.8985  0.0000</r>
       <r>  13.1472  0.0000</r>
       <r>  13.1493  0.0000</r>
      </set>
      <set comment="kpoint 13">
       <r>  -2.0431  1.0000</r>
       <r>  -2.0431  1.0000</r>
       <r>   0.3770  1.0000</r>
       <r>   0.3820  1.0000</r>
       <r>   0.3826  1.0000</r>
       <r>   0.3826  1.0000</r>
       <r>   0.3826  1.0000</r>
       <r>   0.3826  1.0000</r>
       <r>   0.3832  1.0000</r>
       <r>   0.3882  1.0000</r>
       <r>   2.7517  1.0000</r>
       <r>   2.7535  1.0000</r>
       <r>   2.7564  1.0000</r>
       <r>   2.7564  1.0000</r>
       <r>   2.7583  1.0000</r>
       <r>   2.7584  1.0000</r>
       <r>   2.7589  1.0000</r>
       <r>   2.7593  1.0000</r>
       <r>   2.7610  1.0000</r>
       <r>   2.7629  1.0000</r>
       <r>   5.0724  1.0000</r>
       <r>   5.0731  1.0000</r>
       <r>   5.0760  1.0000</r>
       <r>   5.0760  1.0000</r>
       <r>   5.0760  1.0000</r>
       <r>   5.0760  1.0000</r>
       <r>   5.0789  1.0000</r>
       <r>   5.0796  1.0000</r>
       <r>   6.7001  1.0000</r>
       <r>   6.7002  1.0000</r>
       <r>   6.7002  1.0000</r>
       <r>   6.7002  1.0000</r>
       <r>   7.4375  1.0000</r>
       <r>   7.4394  1.0000</r>
       <r>   7.4394  1.0000</r>
       <r>   7.4395  1.0000</r>
       <r>   7.4420  1.0000</r>
       <r>   7.4421  1.0000</r>
       <r>   7.4422  1.0000</r>
       <r>   7.4440  1.0000</r>
       <r>   8.2725  1.0000</r>
       <r>   8.2725  1.0000</r>
       <r>   8.2725  1.0000</r>
       <r>   8.2725  1.0000</r>
       <r>   8.9207  1.0000</r>
       <r>   8.9256  1.0000</r>
       <r>   8.9261  1.0000</r>
       <r>   8.9261  1.0000</r>
       <r>   8.9261  1.0000</r>
       <r>   8.9262  1.0000</r>
       <r>   8.9266  1.0000</r>
       <r>   8.9315  1.0000</r>
       <r>  10.7442  0.0000</r>
       <r>  10.7481  0.0000</r>
       <r>  10.7488  0.0000</r>
       <r>  10.7488  0.0000</r>
       <r>  10.7488  0.0000</r>
       <r>  10.7488  0.0000</r>
       <r>  10.7495  0.0000</r>
       <r>  10.7533  0.0000</r>
       <r>  11.1564  0.0000</r>
       <r>  11.1564  0.0000</r>
       <r>  11.1564  0.0000</r>
       <r>  11.1564  0.0000</r>
       <r>  12.1462  0.0000</r>
       <r>  12.1462  0.0000</r>
       <r>  13.2498  0.0000</r>
       <r>  13.2498  0.0000</r>
       <r>  13.2500  0.0000</r>
       <r>  13.2503  0.0000</r>
       <r>  13.4056  0.0000</r>
       <r>  13.4079  0.0000</r>
      </set>
      <set comment="kpoint 14">
       <r>  -1.9751  1.0000</r>
       <r>  -1.9751  1.0000</r>
       <r>  -0.3534  1.0000</r>
       <r>  -0.3534  1.0000</r>
       <r>   0.4493  1.0000</r>
       <r>   0.4493  1.0000</r>
       <r>   0.4493  1.0000</r>
       <r>   0.4493  1.0000</r>
       <r>   1.2464  1.0000</r>
       <r>   1.2464  1.0000</r>
       <r>   2.0387  1.0000</r>
       <r>   2.0387  1.0000</r>
       <r>   2.0387  1.0000</r>
       <r>   2.0387  1.0000</r>
       <r>   2.8190  1.0000</r>
       <r>   2.8190  1.0000</r>
       <r>   3.6000  1.0000</r>
       <r>   3.6000  1.0000</r>
       <r>   3.6000  1.0000</r>
       <r>   3.6000  1.0000</r>
       <r>   4.3733  1.0000</r>
       <r>   4.3733  1.0000</r>
       <r>   5.1363  1.0000</r>
       <r>   5.1363  1.0000</r>
       <r>   5.1363  1.0000</r>
       <r>   5.1363  1.0000</r>
       <r>   5.8218  1.0000</r>
       <r>   5.8219  1.0000</r>
       <r>   5.8951  1.0000</r>
       <r>   5.8951  1.0000</r>
       <r>   6.7449  1.0000</r>
       <r>   6.7452  1.0000</r>
       <r>   6.7452  1.0000</r>
       <r>   6.7452  1.0000</r>
       <r>   6.7618  1.0000</r>
       <r>   6.7621  1.0000</r>
       <r>   8.1319  1.0000</r>
       <r>   8.1320  1.0000</r>
       <r>   8.1320  1.0000</r>
       <r>   8.1320  1.0000</r>
       <r>   8.2447  1.0000</r>
       <r>   8.2448  1.0000</r>
       <r>   8.2640  1.0000</r>
       <r>   8.2640  1.0000</r>
       <r>   8.2640  1.0000</r>
       <r>   8.2642  1.0000</r>
       <r>   8.3093  1.0000</r>
       <r>   8.3093  1.0000</r>
       <r>   9.2543  1.0000</r>
       <r>   9.2543  1.0000</r>
       <r>   9.7323  0.0000</r>
       <r>   9.7323  0.0000</r>
       <r>  10.0867  0.0000</r>
       <r>  10.0867  0.0000</r>
       <r>  10.4683  0.0000</r>
       <r>  10.4684  0.0000</r>
       <r>  11.2189  0.0000</r>
       <r>  11.2189  0.0000</r>
       <r>  11.4890  0.0000</r>
       <r>  11.4890  0.0000</r>
       <r>  11.6473  0.0000</r>
       <r>  11.6473  0.0000</r>
       <r>  11.6473  0.0000</r>
       <r>  11.6473  0.0000</r>
       <r>  12.1948  0.0000</r>
       <r>  12.1948  0.0000</r>
       <r>  12.6257  0.0000</r>
       <r>  12.6257  0.0000</r>
       <r>  12.6257  0.0000</r>
       <r>  12.6258  0.0000</r>
       <r>  12.7191  0.0000</r>
       <r>  12.7191  0.0000</r>
      </set>
      <set comment="kpoint 15">
       <r>  -1.7713  1.0000</r>
       <r>  -1.7712  1.0000</r>
       <r>  -0.9590  1.0000</r>
       <r>  -0.9590  1.0000</r>
       <r>   0.6492  1.0000</r>
       <r>   0.6492  1.0000</r>
       <r>   0.6492  1.0000</r>
       <r>   0.6493  1.0000</r>
       <r>   1.4454  1.0000</r>
       <r>   1.4454  1.0000</r>
       <r>   1.4454  1.0000</r>
       <r>   1.4454  1.0000</r>
       <r>   2.2341  1.0000</r>
       <r>   2.2341  1.0000</r>
       <r>   3.0146  1.0000</r>
       <r>   3.0146  1.0000</r>
       <r>   3.7934  1.0000</r>
       <r>   3.7934  1.0000</r>
       <r>   4.5461  1.0000</r>
       <r>   4.5462  1.0000</r>
       <r>   4.5462  1.0000</r>
       <r>   4.5462  1.0000</r>
       <r>   4.5511  1.0000</r>
       <r>   4.5512  1.0000</r>
       <r>   5.3071  1.0000</r>
       <r>   5.3071  1.0000</r>
       <r>   5.3071  1.0000</r>
       <r>   5.3071  1.0000</r>
       <r>   6.1920  1.0000</r>
       <r>   6.1920  1.0000</r>
       <r>   6.1920  1.0000</r>
       <r>   6.1920  1.0000</r>
       <r>   6.8140  1.0000</r>
       <r>   6.8140  1.0000</r>
       <r>   6.9281  1.0000</r>
       <r>   6.9286  1.0000</r>
       <r>   6.9286  1.0000</r>
       <r>   6.9286  1.0000</r>
       <r>   6.9469  1.0000</r>
       <r>   6.9474  1.0000</r>
       <r>   7.6881  1.0000</r>
       <r>   7.6881  1.0000</r>
       <r>   8.3209  1.0000</r>
       <r>   8.3209  1.0000</r>
       <r>   9.2088  1.0000</r>
       <r>   9.2088  1.0000</r>
       <r>   9.2089  1.0000</r>
       <r>   9.2089  1.0000</r>
       <r>   9.4804  0.0000</r>
       <r>   9.4804  0.0000</r>
       <r>   9.5489  0.0000</r>
       <r>   9.5489  0.0000</r>
       <r>  10.6634  0.0000</r>
       <r>  10.6635  0.0000</r>
       <r>  10.8220  0.0000</r>
       <r>  10.8220  0.0000</r>
       <r>  11.4063  0.0000</r>
       <r>  11.4064  0.0000</r>
       <r>  11.4263  0.0000</r>
       <r>  11.4263  0.0000</r>
       <r>  11.4264  0.0000</r>
       <r>  11.4265  0.0000</r>
       <r>  12.1567  0.0000</r>
       <r>  12.1567  0.0000</r>
       <r>  12.1785  0.0000</r>
       <r>  12.1785  0.0000</r>
       <r>  12.3248  0.0000</r>
       <r>  12.3248  0.0000</r>
       <r>  12.8967  0.0000</r>
       <r>  12.8967  0.0000</r>
       <r>  13.1481  0.0000</r>
       <r>  13.1482  0.0000</r>
      </set>
      <set comment="kpoint 16">
       <r>  -1.4350  1.0000</r>
       <r>  -1.4324  1.0000</r>
       <r>  -1.4319  1.0000</r>
       <r>  -1.4293  1.0000</r>
       <r>   0.9777  1.0000</r>
       <r>   0.9799  1.0000</r>
       <r>   0.9813  1.0000</r>
       <r>   0.9815  1.0000</r>
       <r>   0.9818  1.0000</r>
       <r>   0.9821  1.0000</r>
       <r>   0.9834  1.0000</r>
       <r>   0.9856  1.0000</r>
       <r>   3.3358  1.0000</r>
       <r>   3.3375  1.0000</r>
       <r>   3.3394  1.0000</r>
       <r>   3.3398  1.0000</r>
       <r>   3.3398  1.0000</r>
       <r>   3.3403  1.0000</r>
       <r>   3.3422  1.0000</r>
       <r>   3.3438  1.0000</r>
       <r>   5.3919  1.0000</r>
       <r>   5.3937  1.0000</r>
       <r>   5.3944  1.0000</r>
       <r>   5.3951  1.0000</r>
       <r>   5.3951  1.0000</r>
       <r>   5.3958  1.0000</r>
       <r>   5.3966  1.0000</r>
       <r>   5.3983  1.0000</r>
       <r>   5.9756  1.0000</r>
       <r>   5.9763  1.0000</r>
       <r>   5.9769  1.0000</r>
       <r>   5.9780  1.0000</r>
       <r>   5.9781  1.0000</r>
       <r>   5.9792  1.0000</r>
       <r>   5.9799  1.0000</r>
       <r>   5.9805  1.0000</r>
       <r>   7.2524  1.0000</r>
       <r>   7.2553  1.0000</r>
       <r>   7.2558  1.0000</r>
       <r>   7.2588  1.0000</r>
       <r>   7.7616  1.0000</r>
       <r>   7.7619  1.0000</r>
       <r>   7.7640  1.0000</r>
       <r>   7.7643  1.0000</r>
       <r>   9.2089  1.0000</r>
       <r>   9.2101  1.0000</r>
       <r>   9.2111  1.0000</r>
       <r>   9.2123  1.0000</r>
       <r>  10.2663  0.0000</r>
       <r>  10.2670  0.0000</r>
       <r>  10.2674  0.0000</r>
       <r>  10.2675  0.0000</r>
       <r>  10.2687  0.0000</r>
       <r>  10.2688  0.0000</r>
       <r>  10.2692  0.0000</r>
       <r>  10.2699  0.0000</r>
       <r>  11.7132  0.0000</r>
       <r>  11.7168  0.0000</r>
       <r>  11.7187  0.0000</r>
       <r>  11.7191  0.0000</r>
       <r>  11.7191  0.0000</r>
       <r>  11.7195  0.0000</r>
       <r>  11.7214  0.0000</r>
       <r>  11.7250  0.0000</r>
       <r>  12.4355  0.0000</r>
       <r>  12.4376  0.0000</r>
       <r>  12.4393  0.0000</r>
       <r>  12.4394  0.0000</r>
       <r>  12.4398  0.0000</r>
       <r>  12.4399  0.0000</r>
       <r>  12.4416  0.0000</r>
       <r>  12.4436  0.0000</r>
      </set>
      <set comment="kpoint 17">
       <r>  -2.5205  1.0000</r>
       <r>  -0.8916  1.0000</r>
       <r>  -0.8916  1.0000</r>
       <r>  -0.0870  1.0000</r>
       <r>  -0.0836  1.0000</r>
       <r>   0.7153  1.0000</r>
       <r>   0.7153  1.0000</r>
       <r>   0.7159  1.0000</r>
       <r>   1.5089  1.0000</r>
       <r>   1.5108  1.0000</r>
       <r>   1.5122  1.0000</r>
       <r>   1.5142  1.0000</r>
       <r>   2.3013  1.0000</r>
       <r>   2.3013  1.0000</r>
       <r>   3.0797  1.0000</r>
       <r>   3.0828  1.0000</r>
       <r>   3.0831  1.0000</r>
       <r>   3.0847  1.0000</r>
       <r>   3.0862  1.0000</r>
       <r>   3.0882  1.0000</r>
       <r>   3.8636  1.0000</r>
       <r>   4.3938  1.0000</r>
       <r>   4.3938  1.0000</r>
       <r>   4.9469  1.0000</r>
       <r>   4.9469  1.0000</r>
       <r>   5.3179  1.0000</r>
       <r>   5.3179  1.0000</r>
       <r>   6.2431  1.0000</r>
       <r>   6.2466  1.0000</r>
       <r>   6.2690  1.0000</r>
       <r>   6.8192  1.0000</r>
       <r>   6.8192  1.0000</r>
       <r>   7.3727  1.0000</r>
       <r>   7.3727  1.0000</r>
       <r>   7.7495  1.0000</r>
       <r>   7.7496  1.0000</r>
       <r>   7.7945  1.0000</r>
       <r>   7.7946  1.0000</r>
       <r>   7.8457  1.0000</r>
       <r>   8.2202  1.0000</r>
       <r>   8.2202  1.0000</r>
       <r>   8.7875  1.0000</r>
       <r>   8.7875  1.0000</r>
       <r>   9.1321  1.0000</r>
       <r>   9.1342  1.0000</r>
       <r>   9.1360  1.0000</r>
       <r>   9.1381  1.0000</r>
       <r>   9.2350  1.0000</r>
       <r>   9.2350  1.0000</r>
       <r>   9.2369  1.0000</r>
       <r>   9.4967  0.0000</r>
       <r>   9.4967  0.0000</r>
       <r>   9.9370  0.0000</r>
       <r>   9.9371  0.0000</r>
       <r>  10.5600  0.0000</r>
       <r>  10.5600  0.0000</r>
       <r>  10.6369  0.0000</r>
       <r>  10.6375  0.0000</r>
       <r>  10.6409  0.0000</r>
       <r>  10.6415  0.0000</r>
       <r>  10.7279  0.0000</r>
       <r>  10.7280  0.0000</r>
       <r>  11.1240  0.0000</r>
       <r>  11.7517  0.0000</r>
       <r>  11.7517  0.0000</r>
       <r>  12.0179  0.0000</r>
       <r>  12.0179  0.0000</r>
       <r>  12.2229  0.0000</r>
       <r>  12.2751  0.0000</r>
       <r>  12.2751  0.0000</r>
       <r>  12.6197  0.0000</r>
       <r>  12.6206  0.0000</r>
      </set>
      <set comment="kpoint 18">
       <r>  -2.4522  1.0000</r>
       <r>  -0.8260  1.0000</r>
       <r>  -0.8242  1.0000</r>
       <r>  -0.8224  1.0000</r>
       <r>   0.7784  1.0000</r>
       <r>   0.7816  1.0000</r>
       <r>   0.7817  1.0000</r>
       <r>   0.7826  1.0000</r>
       <r>   0.7827  1.0000</r>
       <r>   0.7859  1.0000</r>
       <r>   2.3632  1.0000</r>
       <r>   2.3655  1.0000</r>
       <r>   2.3660  1.0000</r>
       <r>   2.3668  1.0000</r>
       <r>   2.3673  1.0000</r>
       <r>   2.3681  1.0000</r>
       <r>   2.3703  1.0000</r>
       <r>   3.9058  1.0000</r>
       <r>   3.9064  1.0000</r>
       <r>   3.9070  1.0000</r>
       <r>   3.9255  1.0000</r>
       <r>   3.9273  1.0000</r>
       <r>   3.9292  1.0000</r>
       <r>   5.3805  1.0000</r>
       <r>   5.3810  1.0000</r>
       <r>   5.3815  1.0000</r>
       <r>   5.5584  1.0000</r>
       <r>   5.5590  1.0000</r>
       <r>   5.5596  1.0000</r>
       <r>   6.8675  1.0000</r>
       <r>   6.8690  1.0000</r>
       <r>   6.8705  1.0000</r>
       <r>   6.8705  1.0000</r>
       <r>   6.8720  1.0000</r>
       <r>   6.8735  1.0000</r>
       <r>   7.0705  1.0000</r>
       <r>   8.4001  1.0000</r>
       <r>   8.4004  1.0000</r>
       <r>   8.4022  1.0000</r>
       <r>   8.4022  1.0000</r>
       <r>   8.4039  1.0000</r>
       <r>   8.4043  1.0000</r>
       <r>   8.4443  1.0000</r>
       <r>   8.4462  1.0000</r>
       <r>   8.4480  1.0000</r>
       <r>   8.8458  1.0000</r>
       <r>   8.8464  1.0000</r>
       <r>   8.8470  1.0000</r>
       <r>   9.9461  0.0000</r>
       <r>   9.9471  0.0000</r>
       <r>   9.9484  0.0000</r>
       <r>   9.9484  0.0000</r>
       <r>   9.9497  0.0000</r>
       <r>   9.9506  0.0000</r>
       <r>  10.3129  0.0000</r>
       <r>  10.3145  0.0000</r>
       <r>  10.3156  0.0000</r>
       <r>  10.3156  0.0000</r>
       <r>  10.3168  0.0000</r>
       <r>  10.3184  0.0000</r>
       <r>  11.4516  0.0000</r>
       <r>  11.4527  0.0000</r>
       <r>  11.4538  0.0000</r>
       <r>  12.0283  0.0000</r>
       <r>  12.0294  0.0000</r>
       <r>  12.0305  0.0000</r>
       <r>  12.3933  0.0000</r>
       <r>  12.3933  0.0000</r>
       <r>  12.3947  0.0000</r>
       <r>  12.3947  0.0000</r>
       <r>  12.3960  0.0000</r>
       <r>  12.3961  0.0000</r>
      </set>
      <set comment="kpoint 19">
       <r>  -2.2475  1.0000</r>
       <r>  -1.4321  1.0000</r>
       <r>  -0.6222  1.0000</r>
       <r>  -0.6222  1.0000</r>
       <r>   0.1824  1.0000</r>
       <r>   0.1824  1.0000</r>
       <r>   0.9811  1.0000</r>
       <r>   0.9812  1.0000</r>
       <r>   0.9818  1.0000</r>
       <r>   1.7721  1.0000</r>
       <r>   1.7750  1.0000</r>
       <r>   1.7754  1.0000</r>
       <r>   1.7766  1.0000</r>
       <r>   2.5631  1.0000</r>
       <r>   2.5631  1.0000</r>
       <r>   3.3401  1.0000</r>
       <r>   3.3405  1.0000</r>
       <r>   3.3444  1.0000</r>
       <r>   3.3448  1.0000</r>
       <r>   4.1017  1.0000</r>
       <r>   4.1166  1.0000</r>
       <r>   4.6443  1.0000</r>
       <r>   4.8856  1.0000</r>
       <r>   4.8856  1.0000</r>
       <r>   5.2087  1.0000</r>
       <r>   5.5700  1.0000</r>
       <r>   5.5700  1.0000</r>
       <r>   5.6289  1.0000</r>
       <r>   5.6289  1.0000</r>
       <r>   6.3204  1.0000</r>
       <r>   6.3204  1.0000</r>
       <r>   6.4978  1.0000</r>
       <r>   6.4978  1.0000</r>
       <r>   6.8824  1.0000</r>
       <r>   6.8824  1.0000</r>
       <r>   7.2270  1.0000</r>
       <r>   7.3744  1.0000</r>
       <r>   7.3744  1.0000</r>
       <r>   7.8846  1.0000</r>
       <r>   7.8846  1.0000</r>
       <r>   8.0207  1.0000</r>
       <r>   8.6167  1.0000</r>
       <r>   8.6168  1.0000</r>
       <r>   8.7374  1.0000</r>
       <r>   8.7374  1.0000</r>
       <r>   9.0172  1.0000</r>
       <r>   9.0173  1.0000</r>
       <r>   9.1770  1.0000</r>
       <r>   9.1770  1.0000</r>
       <r>   9.3813  0.0000</r>
       <r>   9.3813  0.0000</r>
       <r>  10.0084  0.0000</r>
       <r>  10.0084  0.0000</r>
       <r>  10.2507  0.0000</r>
       <r>  10.4616  0.0000</r>
       <r>  10.6391  0.0000</r>
       <r>  10.6391  0.0000</r>
       <r>  10.8830  0.0000</r>
       <r>  10.8830  0.0000</r>
       <r>  11.4564  0.0000</r>
       <r>  11.4564  0.0000</r>
       <r>  11.5583  0.0000</r>
       <r>  11.5583  0.0000</r>
       <r>  11.6633  0.0000</r>
       <r>  11.6633  0.0000</r>
       <r>  12.3869  0.0000</r>
       <r>  12.3869  0.0000</r>
       <r>  12.9018  0.0000</r>
       <r>  12.9021  0.0000</r>
       <r>  12.9054  0.0000</r>
       <r>  12.9057  0.0000</r>
       <r>  13.0676  0.0000</r>
      </set>
      <set comment="kpoint 20">
       <r>  -1.9087  1.0000</r>
       <r>  -1.9056  1.0000</r>
       <r>  -0.2889  1.0000</r>
       <r>  -0.2868  1.0000</r>
       <r>  -0.2858  1.0000</r>
       <r>  -0.2837  1.0000</r>
       <r>   1.3097  1.0000</r>
       <r>   1.3119  1.0000</r>
       <r>   1.3121  1.0000</r>
       <r>   1.3131  1.0000</r>
       <r>   1.3143  1.0000</r>
       <r>   1.3157  1.0000</r>
       <r>   2.8826  1.0000</r>
       <r>   2.8843  1.0000</r>
       <r>   2.8874  1.0000</r>
       <r>   2.8878  1.0000</r>
       <r>   2.8901  1.0000</r>
       <r>   2.8913  1.0000</r>
       <r>   4.4178  1.0000</r>
       <r>   4.4210  1.0000</r>
       <r>   4.4360  1.0000</r>
       <r>   4.4360  1.0000</r>
       <r>   4.4370  1.0000</r>
       <r>   4.4371  1.0000</r>
       <r>   5.8821  1.0000</r>
       <r>   5.8825  1.0000</r>
       <r>   5.8854  1.0000</r>
       <r>   5.8857  1.0000</r>
       <r>   5.9416  1.0000</r>
       <r>   5.9417  1.0000</r>
       <r>   5.9426  1.0000</r>
       <r>   5.9426  1.0000</r>
       <r>   6.0639  1.0000</r>
       <r>   6.0649  1.0000</r>
       <r>   7.4590  1.0000</r>
       <r>   7.4612  1.0000</r>
       <r>   7.4621  1.0000</r>
       <r>   7.4644  1.0000</r>
       <r>   7.5654  1.0000</r>
       <r>   7.5660  1.0000</r>
       <r>   7.5665  1.0000</r>
       <r>   7.5672  1.0000</r>
       <r>   8.9360  1.0000</r>
       <r>   8.9368  1.0000</r>
       <r>   8.9394  1.0000</r>
       <r>   8.9402  1.0000</r>
       <r>   9.0857  1.0000</r>
       <r>   9.0870  1.0000</r>
       <r>   9.2601  1.0000</r>
       <r>   9.2609  1.0000</r>
       <r>   9.2630  1.0000</r>
       <r>   9.2639  1.0000</r>
       <r>  10.5653  0.0000</r>
       <r>  10.5659  0.0000</r>
       <r>  10.5668  0.0000</r>
       <r>  10.5674  0.0000</r>
       <r>  10.9950  0.0000</r>
       <r>  10.9960  0.0000</r>
       <r>  10.9982  0.0000</r>
       <r>  10.9993  0.0000</r>
       <r>  11.9329  0.0000</r>
       <r>  11.9334  0.0000</r>
       <r>  11.9346  0.0000</r>
       <r>  11.9351  0.0000</r>
       <r>  12.2186  0.0000</r>
       <r>  12.2190  0.0000</r>
       <r>  12.3422  0.0000</r>
       <r>  12.3446  0.0000</r>
       <r>  12.3456  0.0000</r>
       <r>  12.3480  0.0000</r>
       <r>  13.4062  0.0000</r>
       <r>  13.4365  0.0000</r>
      </set>
      <set comment="kpoint 21">
       <r>  -2.3157  1.0000</r>
       <r>  -1.4999  1.0000</r>
       <r>  -0.6895  1.0000</r>
       <r>   0.1132  1.0000</r>
       <r>   0.1155  1.0000</r>
       <r>   0.1177  1.0000</r>
       <r>   0.9129  1.0000</r>
       <r>   0.9150  1.0000</r>
       <r>   0.9174  1.0000</r>
       <r>   1.7065  1.0000</r>
       <r>   1.7085  1.0000</r>
       <r>   1.7092  1.0000</r>
       <r>   1.7117  1.0000</r>
       <r>   2.4955  1.0000</r>
       <r>   2.4989  1.0000</r>
       <r>   3.2777  1.0000</r>
       <r>   3.2794  1.0000</r>
       <r>   3.2813  1.0000</r>
       <r>   4.0330  1.0000</r>
       <r>   4.0360  1.0000</r>
       <r>   4.0382  1.0000</r>
       <r>   4.0535  1.0000</r>
       <r>   4.0569  1.0000</r>
       <r>   4.8250  1.0000</r>
       <r>   5.5072  1.0000</r>
       <r>   5.5689  1.0000</r>
       <r>   5.6846  1.0000</r>
       <r>   5.6879  1.0000</r>
       <r>   6.2603  1.0000</r>
       <r>   6.3039  1.0000</r>
       <r>   6.3073  1.0000</r>
       <r>   6.4537  1.0000</r>
       <r>   7.0509  1.0000</r>
       <r>   7.1935  1.0000</r>
       <r>   7.1938  1.0000</r>
       <r>   7.1972  1.0000</r>
       <r>   7.8269  1.0000</r>
       <r>   7.8305  1.0000</r>
       <r>   7.9167  1.0000</r>
       <r>   7.9204  1.0000</r>
       <r>   7.9353  1.0000</r>
       <r>   8.0270  1.0000</r>
       <r>   8.5680  1.0000</r>
       <r>   8.5718  1.0000</r>
       <r>   8.5808  1.0000</r>
       <r>   8.6786  1.0000</r>
       <r>   8.9667  1.0000</r>
       <r>   9.4214  0.0000</r>
       <r>   9.4306  0.0000</r>
       <r>   9.4344  0.0000</r>
       <r>   9.5693  0.0000</r>
       <r>   9.6183  0.0000</r>
       <r>   9.7462  0.0000</r>
       <r>  10.1649  0.0000</r>
       <r>  10.1677  0.0000</r>
       <r>  10.4098  0.0000</r>
       <r>  10.5454  0.0000</r>
       <r>  10.9037  0.0000</r>
       <r>  11.2027  0.0000</r>
       <r>  11.2049  0.0000</r>
       <r>  11.5720  0.0000</r>
       <r>  11.5761  0.0000</r>
       <r>  11.5935  0.0000</r>
       <r>  11.6611  0.0000</r>
       <r>  12.0181  0.0000</r>
       <r>  12.1310  0.0000</r>
       <r>  12.1341  0.0000</r>
       <r>  12.3941  0.0000</r>
       <r>  12.4107  0.0000</r>
       <r>  12.5725  0.0000</r>
       <r>  13.1081  0.0000</r>
       <r>  13.1319  0.0000</r>
      </set>
      <set comment="kpoint 22">
       <r>  -2.2475  1.0000</r>
       <r>  -1.4321  1.0000</r>
       <r>  -0.6235  1.0000</r>
       <r>  -0.6209  1.0000</r>
       <r>   0.1811  1.0000</r>
       <r>   0.1837  1.0000</r>
       <r>   0.9794  1.0000</r>
       <r>   0.9814  1.0000</r>
       <r>   0.9833  1.0000</r>
       <r>   1.7728  1.0000</r>
       <r>   1.7739  1.0000</r>
       <r>   1.7753  1.0000</r>
       <r>   1.7772  1.0000</r>
       <r>   2.5627  1.0000</r>
       <r>   2.5635  1.0000</r>
       <r>   3.3402  1.0000</r>
       <r>   3.3411  1.0000</r>
       <r>   3.3429  1.0000</r>
       <r>   3.3455  1.0000</r>
       <r>   4.1017  1.0000</r>
       <r>   4.1165  1.0000</r>
       <r>   4.6443  1.0000</r>
       <r>   4.8842  1.0000</r>
       <r>   4.8869  1.0000</r>
       <r>   5.2087  1.0000</r>
       <r>   5.5696  1.0000</r>
       <r>   5.5704  1.0000</r>
       <r>   5.6275  1.0000</r>
       <r>   5.6303  1.0000</r>
       <r>   6.3201  1.0000</r>
       <r>   6.3208  1.0000</r>
       <r>   6.4974  1.0000</r>
       <r>   6.4983  1.0000</r>
       <r>   6.8810  1.0000</r>
       <r>   6.8837  1.0000</r>
       <r>   7.2270  1.0000</r>
       <r>   7.3730  1.0000</r>
       <r>   7.3758  1.0000</r>
       <r>   7.8833  1.0000</r>
       <r>   7.8859  1.0000</r>
       <r>   8.0207  1.0000</r>
       <r>   8.6160  1.0000</r>
       <r>   8.6176  1.0000</r>
       <r>   8.7368  1.0000</r>
       <r>   8.7379  1.0000</r>
       <r>   9.0168  1.0000</r>
       <r>   9.0177  1.0000</r>
       <r>   9.1762  1.0000</r>
       <r>   9.1778  1.0000</r>
       <r>   9.3806  0.0000</r>
       <r>   9.3821  0.0000</r>
       <r>  10.0083  0.0000</r>
       <r>  10.0085  0.0000</r>
       <r>  10.2508  0.0000</r>
       <r>  10.4616  0.0000</r>
       <r>  10.6382  0.0000</r>
       <r>  10.6400  0.0000</r>
       <r>  10.8816  0.0000</r>
       <r>  10.8843  0.0000</r>
       <r>  11.4556  0.0000</r>
       <r>  11.4572  0.0000</r>
       <r>  11.5568  0.0000</r>
       <r>  11.5598  0.0000</r>
       <r>  11.6630  0.0000</r>
       <r>  11.6636  0.0000</r>
       <r>  12.3861  0.0000</r>
       <r>  12.3876  0.0000</r>
       <r>  12.9008  0.0000</r>
       <r>  12.9028  0.0000</r>
       <r>  12.9043  0.0000</r>
       <r>  12.9070  0.0000</r>
       <r>  13.0682  0.0000</r>
      </set>
      <set comment="kpoint 23">
       <r>  -2.0432  1.0000</r>
       <r>  -1.2305  1.0000</r>
       <r>  -1.2279  1.0000</r>
       <r>  -0.4216  1.0000</r>
       <r>  -0.4195  1.0000</r>
       <r>   0.3815  1.0000</r>
       <r>   0.3841  1.0000</r>
       <r>   1.1799  1.0000</r>
       <r>   1.1811  1.0000</r>
       <r>   1.9690  1.0000</r>
       <r>   1.9715  1.0000</r>
       <r>   1.9722  1.0000</r>
       <r>   1.9748  1.0000</r>
       <r>   2.7567  1.0000</r>
       <r>   2.7580  1.0000</r>
       <r>   2.7595  1.0000</r>
       <r>   3.5363  1.0000</r>
       <r>   3.5389  1.0000</r>
       <r>   4.2893  1.0000</r>
       <r>   4.2901  1.0000</r>
       <r>   4.2943  1.0000</r>
       <r>   4.2951  1.0000</r>
       <r>   5.0558  1.0000</r>
       <r>   5.0585  1.0000</r>
       <r>   5.0596  1.0000</r>
       <r>   5.0622  1.0000</r>
       <r>   5.7579  1.0000</r>
       <r>   5.7988  1.0000</r>
       <r>   5.7996  1.0000</r>
       <r>   5.8190  1.0000</r>
       <r>   5.9422  1.0000</r>
       <r>   5.9430  1.0000</r>
       <r>   6.4923  1.0000</r>
       <r>   6.4952  1.0000</r>
       <r>   6.6760  1.0000</r>
       <r>   6.6787  1.0000</r>
       <r>   7.3378  1.0000</r>
       <r>   7.4214  1.0000</r>
       <r>   7.4223  1.0000</r>
       <r>   7.4457  1.0000</r>
       <r>   8.1016  1.0000</r>
       <r>   8.1033  1.0000</r>
       <r>   8.1663  1.0000</r>
       <r>   8.1690  1.0000</r>
       <r>   8.9677  1.0000</r>
       <r>   9.1352  1.0000</r>
       <r>   9.5216  0.0000</r>
       <r>   9.5246  0.0000</r>
       <r>   9.6768  0.0000</r>
       <r>   9.6783  0.0000</r>
       <r>  10.1439  0.0000</r>
       <r>  10.1459  0.0000</r>
       <r>  10.3133  0.0000</r>
       <r>  10.3146  0.0000</r>
       <r>  10.5546  0.0000</r>
       <r>  10.5915  0.0000</r>
       <r>  10.5929  0.0000</r>
       <r>  10.8937  0.0000</r>
       <r>  11.1880  0.0000</r>
       <r>  11.1895  0.0000</r>
       <r>  11.3820  0.0000</r>
       <r>  11.3842  0.0000</r>
       <r>  11.8867  0.0000</r>
       <r>  11.8915  0.0000</r>
       <r>  11.8925  0.0000</r>
       <r>  12.1384  0.0000</r>
       <r>  12.1389  0.0000</r>
       <r>  12.5037  0.0000</r>
       <r>  12.5068  0.0000</r>
       <r>  13.0223  0.0000</r>
       <r>  13.0237  0.0000</r>
       <r>  13.3235  0.0000</r>
      </set>
      <set comment="kpoint 24">
       <r>  -1.7049  1.0000</r>
       <r>  -1.7018  1.0000</r>
       <r>  -0.8932  1.0000</r>
       <r>  -0.8900  1.0000</r>
       <r>  -0.0867  1.0000</r>
       <r>  -0.0836  1.0000</r>
       <r>   0.7144  1.0000</r>
[...]
       <r>   8.3209  1.0000</r>
       <r>   9.2066  1.0000</r>
       <r>   9.2074  1.0000</r>
       <r>   9.2103  1.0000</r>
       <r>   9.2111  1.0000</r>
       <r>   9.4804  0.0000</r>
       <r>   9.4804  0.0000</r>
       <r>   9.5488  0.0000</r>
       <r>   9.5489  0.0000</r>
       <r>  10.6634  0.0000</r>
       <r>  10.6635  0.0000</r>
       <r>  10.8220  0.0000</r>
       <r>  10.8221  0.0000</r>
       <r>  11.4064  0.0000</r>
       <r>  11.4065  0.0000</r>
       <r>  11.4240  0.0000</r>
       <r>  11.4246  0.0000</r>
       <r>  11.4280  0.0000</r>
       <r>  11.4286  0.0000</r>
       <r>  12.1565  0.0000</r>
       <r>  12.1565  0.0000</r>
       <r>  12.1787  0.0000</r>
       <r>  12.1787  0.0000</r>
       <r>  12.3248  0.0000</r>
       <r>  12.3248  0.0000</r>
       <r>  12.8967  0.0000</r>
       <r>  12.8967  0.0000</r>
       <r>  13.1477  0.0000</r>
       <r>  13.1499  0.0000</r>
      </set>
      <set comment="kpoint 34">
       <r>  -1.7034  1.0000</r>
       <r>  -1.7034  1.0000</r>
       <r>  -0.8916  1.0000</r>
       <r>  -0.8916  1.0000</r>
       <r>  -0.0852  1.0000</r>
       <r>  -0.0852  1.0000</r>
       <r>   0.7160  1.0000</r>
       <r>   0.7160  1.0000</r>
       <r>   1.5110  1.0000</r>
       <r>   1.5110  1.0000</r>
       <r>   2.2990  1.0000</r>
       <r>   2.2997  1.0000</r>
       <r>   2.3009  1.0000</r>
       <r>   2.3016  1.0000</r>
       <r>   3.0797  1.0000</r>
       <r>   3.0797  1.0000</r>
       <r>   3.8565  1.0000</r>
       <r>   3.8569  1.0000</r>
       <r>   3.8578  1.0000</r>
       <r>   3.8582  1.0000</r>
       <r>   4.6147  1.0000</r>
       <r>   4.6148  1.0000</r>
       <r>   4.6243  1.0000</r>
       <r>   4.6244  1.0000</r>
       <r>   5.1449  1.0000</r>
       <r>   5.1449  1.0000</r>
       <r>   5.7243  1.0000</r>
       <r>   5.7243  1.0000</r>
       <r>   5.8943  1.0000</r>
       <r>   5.8943  1.0000</r>
       <r>   6.0689  1.0000</r>
       <r>   6.0690  1.0000</r>
       <r>   6.4711  1.0000</r>
       <r>   6.4711  1.0000</r>
       <r>   6.6337  1.0000</r>
       <r>   6.6337  1.0000</r>
       <r>   6.9978  1.0000</r>
       <r>   6.9978  1.0000</r>
       <r>   7.1412  1.0000</r>
       <r>   7.1413  1.0000</r>
       <r>   7.7262  1.0000</r>
       <r>   7.7262  1.0000</r>
       <r>   8.5117  1.0000</r>
       <r>   8.5117  1.0000</r>
       <r>   8.9504  1.0000</r>
       <r>   8.9504  1.0000</r>
       <r>   9.8647  0.0000</r>
       <r>   9.8648  0.0000</r>
       <r>   9.9058  0.0000</r>
       <r>   9.9059  0.0000</r>
       <r>  10.0291  0.0000</r>
       <r>  10.0291  0.0000</r>
       <r>  10.4288  0.0000</r>
       <r>  10.4289  0.0000</r>
       <r>  10.4534  0.0000</r>
       <r>  10.4535  0.0000</r>
       <r>  10.7322  0.0000</r>
       <r>  10.7322  0.0000</r>
       <r>  11.1819  0.0000</r>
       <r>  11.1819  0.0000</r>
       <r>  11.3610  0.0000</r>
       <r>  11.3610  0.0000</r>
       <r>  11.9319  0.0000</r>
       <r>  11.9319  0.0000</r>
       <r>  12.2408  0.0000</r>
       <r>  12.2408  0.0000</r>
       <r>  12.5532  0.0000</r>
       <r>  12.5532  0.0000</r>
       <r>  12.6410  0.0000</r>
       <r>  12.6410  0.0000</r>
       <r>  12.8224  0.0000</r>
       <r>  12.8224  0.0000</r>
      </set>
      <set comment="kpoint 35">
       <r>  -1.4999  1.0000</r>
       <r>  -1.4999  1.0000</r>
       <r>  -0.6918  1.0000</r>
       <r>  -0.6897  1.0000</r>
       <r>  -0.6893  1.0000</r>
       <r>  -0.6871  1.0000</r>
       <r>   0.1157  1.0000</r>
       <r>   0.1157  1.0000</r>
       <r>   2.4939  1.0000</r>
       <r>   2.4960  1.0000</r>
       <r>   2.4965  1.0000</r>
       <r>   2.4986  1.0000</r>
       <r>   3.2735  1.0000</r>
       <r>   3.2745  1.0000</r>
       <r>   3.2775  1.0000</r>
       <r>   3.2777  1.0000</r>
       <r>   3.2780  1.0000</r>
       <r>   3.2792  1.0000</r>
       <r>   4.0486  1.0000</r>
       <r>   4.0487  1.0000</r>
       <r>   4.0513  1.0000</r>
       <r>   4.0514  1.0000</r>
       <r>   4.7961  1.0000</r>
       <r>   4.7965  1.0000</r>
       <r>   4.8048  1.0000</r>
       <r>   4.8051  1.0000</r>
       <r>   4.8054  1.0000</r>
       <r>   4.8062  1.0000</r>
       <r>   5.5427  1.0000</r>
       <r>   5.5447  1.0000</r>
       <r>   5.5454  1.0000</r>
       <r>   5.5474  1.0000</r>
       <r>   6.4500  1.0000</r>
       <r>   6.4500  1.0000</r>
       <r>   7.1906  1.0000</r>
       <r>   7.1907  1.0000</r>
       <r>   7.1934  1.0000</r>
       <r>   7.1935  1.0000</r>
       <r>   7.9391  1.0000</r>
       <r>   7.9401  1.0000</r>
       <r>   7.9401  1.0000</r>
       <r>   7.9411  1.0000</r>
       <r>   8.6573  1.0000</r>
       <r>   8.6583  1.0000</r>
       <r>   8.6587  1.0000</r>
       <r>   8.6598  1.0000</r>
       <r>   9.3475  0.3536</r>
       <r>   9.3482  0.3188</r>
       <r>   9.3487  0.2903</r>
       <r>   9.3494  0.2585</r>
       <r>  10.1577  0.0000</r>
       <r>  10.1578  0.0000</r>
       <r>  10.1605  0.0000</r>
       <r>  10.1606  0.0000</r>
       <r>  10.8349  0.0000</r>
       <r>  10.8349  0.0000</r>
       <r>  10.9688  0.0000</r>
       <r>  10.9688  0.0000</r>
       <r>  11.3002  0.0000</r>
       <r>  11.3002  0.0000</r>
       <r>  11.3006  0.0000</r>
       <r>  11.3006  0.0000</r>
       <r>  12.0203  0.0000</r>
       <r>  12.0214  0.0000</r>
       <r>  12.0219  0.0000</r>
       <r>  12.0230  0.0000</r>
       <r>  12.7534  0.0000</r>
       <r>  12.7534  0.0000</r>
       <r>  13.1723  0.0000</r>
       <r>  13.1730  0.0000</r>
       <r>  13.1737  0.0000</r>
       <r>  13.1745  0.0000</r>
      </set>
      <set comment="kpoint 36">
       <r>  -1.1644  1.0000</r>
       <r>  -1.1618  1.0000</r>
       <r>  -1.1613  1.0000</r>
       <r>  -1.1588  1.0000</r>
       <r>  -0.3562  1.0000</r>
       <r>  -0.3536  1.0000</r>
       <r>  -0.3531  1.0000</r>
       <r>  -0.3505  1.0000</r>
       <r>   2.8199  1.0000</r>
       <r>   2.8226  1.0000</r>
       <r>   2.8231  1.0000</r>
       <r>   2.8257  1.0000</r>
       <r>   3.5947  1.0000</r>
       <r>   3.5964  1.0000</r>
       <r>   3.5983  1.0000</r>
       <r>   3.5987  1.0000</r>
       <r>   3.5987  1.0000</r>
       <r>   3.5992  1.0000</r>
       <r>   3.6011  1.0000</r>
       <r>   3.6027  1.0000</r>
       <r>   4.3632  1.0000</r>
       <r>   4.3649  1.0000</r>
       <r>   4.3667  1.0000</r>
       <r>   4.3672  1.0000</r>
       <r>   4.3672  1.0000</r>
       <r>   4.3677  1.0000</r>
       <r>   4.3695  1.0000</r>
       <r>   4.3713  1.0000</r>
       <r>   5.1166  1.0000</r>
       <r>   5.1194  1.0000</r>
       <r>   5.1198  1.0000</r>
       <r>   5.1226  1.0000</r>
       <r>   7.4932  1.0000</r>
       <r>   7.4947  1.0000</r>
       <r>   7.4969  1.0000</r>
       <r>   7.4973  1.0000</r>
       <r>   7.4973  1.0000</r>
       <r>   7.4976  1.0000</r>
       <r>   7.4999  1.0000</r>
       <r>   7.5014  1.0000</r>
       <r>   8.2212  1.0000</r>
       <r>   8.2223  1.0000</r>
       <r>   8.2227  1.0000</r>
       <r>   8.2239  1.0000</r>
       <r>   8.9986  1.0000</r>
       <r>   8.9999  1.0000</r>
       <r>   9.0001  1.0000</r>
       <r>   9.0013  1.0000</r>
       <r>   9.6992  0.0000</r>
       <r>   9.7013  0.0000</r>
       <r>   9.7035  0.0000</r>
       <r>   9.7039  0.0000</r>
       <r>   9.7039  0.0000</r>
       <r>   9.7042  0.0000</r>
       <r>   9.7064  0.0000</r>
       <r>   9.7085  0.0000</r>
       <r>  11.5953  0.0000</r>
       <r>  11.5976  0.0000</r>
       <r>  11.5985  0.0000</r>
       <r>  11.6008  0.0000</r>
       <r>  12.0203  0.0000</r>
       <r>  12.0218  0.0000</r>
       <r>  12.0218  0.0000</r>
       <r>  12.0233  0.0000</r>
       <r>  13.0239  0.0000</r>
       <r>  13.0250  0.0000</r>
       <r>  13.0251  0.0000</r>
       <r>  13.0264  0.0000</r>
       <r>  13.0268  0.0000</r>
       <r>  13.0280  0.0000</r>
       <r>  13.0282  0.0000</r>
       <r>  13.0293  0.0000</r>
      </set>
      <set comment="kpoint 37">
       <r>  -1.4322  1.0000</r>
       <r>  -1.4322  1.0000</r>
       <r>  -1.4322  1.0000</r>
       <r>  -1.4322  1.0000</r>
       <r>   0.9764  1.0000</r>
       <r>   0.9810  1.0000</r>
       <r>   0.9810  1.0000</r>
       <r>   0.9816  1.0000</r>
       <r>   0.9818  1.0000</r>
       <r>   0.9824  1.0000</r>
       <r>   0.9824  1.0000</r>
       <r>   0.9869  1.0000</r>
       <r>   3.3398  1.0000</r>
       <r>   3.3398  1.0000</r>
       <r>   3.3398  1.0000</r>
       <r>   3.3398  1.0000</r>
       <r>   3.3398  1.0000</r>
       <r>   3.3398  1.0000</r>
       <r>   3.3398  1.0000</r>
       <r>   3.3398  1.0000</r>
       <r>   5.3935  1.0000</r>
       <r>   5.3935  1.0000</r>
       <r>   5.3951  1.0000</r>
       <r>   5.3951  1.0000</r>
       <r>   5.3951  1.0000</r>
       <r>   5.3951  1.0000</r>
       <r>   5.3967  1.0000</r>
       <r>   5.3967  1.0000</r>
       <r>   5.9761  1.0000</r>
       <r>   5.9761  1.0000</r>
       <r>   5.9780  1.0000</r>
       <r>   5.9780  1.0000</r>
       <r>   5.9781  1.0000</r>
       <r>   5.9781  1.0000</r>
       <r>   5.9800  1.0000</r>
       <r>   5.9800  1.0000</r>
       <r>   7.2556  1.0000</r>
       <r>   7.2556  1.0000</r>
       <r>   7.2556  1.0000</r>
       <r>   7.2556  1.0000</r>
       <r>   7.7629  1.0000</r>
       <r>   7.7629  1.0000</r>
       <r>   7.7629  1.0000</r>
       <r>   7.7629  1.0000</r>
       <r>   9.2106  1.0000</r>
       <r>   9.2106  1.0000</r>
       <r>   9.2106  1.0000</r>
       <r>   9.2106  1.0000</r>
       <r>  10.2657  0.0000</r>
       <r>  10.2657  0.0000</r>
       <r>  10.2659  0.0000</r>
       <r>  10.2674  0.0000</r>
       <r>  10.2688  0.0000</r>
       <r>  10.2703  0.0000</r>
       <r>  10.2705  0.0000</r>
       <r>  10.2705  0.0000</r>
       <r>  11.7191  0.0000</r>
       <r>  11.7191  0.0000</r>
       <r>  11.7191  0.0000</r>
       <r>  11.7191  0.0000</r>
       <r>  11.7191  0.0000</r>
       <r>  11.7191  0.0000</r>
       <r>  11.7191  0.0000</r>
       <r>  11.7192  0.0000</r>
       <r>  12.4396  0.0000</r>
       <r>  12.4396  0.0000</r>
       <r>  12.4396  0.0000</r>
       <r>  12.4396  0.0000</r>
       <r>  12.4396  0.0000</r>
       <r>  12.4396  0.0000</r>
       <r>  12.4396  0.0000</r>
       <r>  12.4396  0.0000</r>
      </set>
      <set comment="kpoint 38">
       <r>  -1.3645  1.0000</r>
       <r>  -1.3645  1.0000</r>
       <r>  -1.3645  1.0000</r>
       <r>  -1.3645  1.0000</r>
       <r>   0.2493  1.0000</r>
       <r>   0.2493  1.0000</r>
       <r>   0.2493  1.0000</r>
       <r>   0.2493  1.0000</r>
       <r>   1.8409  1.0000</r>
       <r>   1.8409  1.0000</r>
       <r>   1.8409  1.0000</r>
       <r>   1.8409  1.0000</r>
       <r>   3.4046  1.0000</r>
       <r>   3.4046  1.0000</r>
       <r>   3.4046  1.0000</r>
       <r>   3.4046  1.0000</r>
       <r>   3.4046  1.0000</r>
       <r>   3.4046  1.0000</r>
       <r>   3.4047  1.0000</r>
       <r>   3.4047  1.0000</r>
       <r>   4.9239  1.0000</r>
       <r>   4.9239  1.0000</r>
       <r>   4.9244  1.0000</r>
       <r>   4.9244  1.0000</r>
       <r>   4.9244  1.0000</r>
       <r>   4.9244  1.0000</r>
       <r>   4.9249  1.0000</r>
       <r>   4.9249  1.0000</r>
       <r>   6.3679  1.0000</r>
       <r>   6.3679  1.0000</r>
       <r>   6.3679  1.0000</r>
       <r>   6.3680  1.0000</r>
       <r>   6.5711  1.0000</r>
       <r>   6.5711  1.0000</r>
       <r>   6.5720  1.0000</r>
       <r>   6.5720  1.0000</r>
       <r>   6.5720  1.0000</r>
       <r>   6.5720  1.0000</r>
       <r>   6.5729  1.0000</r>
       <r>   6.5729  1.0000</r>
       <r>   7.9907  1.0000</r>
       <r>   7.9907  1.0000</r>
       <r>   7.9908  1.0000</r>
       <r>   7.9908  1.0000</r>
       <r>   9.5723  0.0000</r>
       <r>   9.5723  0.0000</r>
       <r>   9.5723  0.0000</r>
       <r>   9.5723  0.0000</r>
       <r>  10.0484  0.0000</r>
       <r>  10.0484  0.0000</r>
       <r>  10.0484  0.0000</r>
       <r>  10.0484  0.0000</r>
       <r>  10.8953  0.0000</r>
       <r>  10.8953  0.0000</r>
       <r>  10.8961  0.0000</r>
       <r>  10.8961  0.0000</r>
       <r>  10.8961  0.0000</r>
       <r>  10.8962  0.0000</r>
       <r>  10.8970  0.0000</r>
       <r>  10.8970  0.0000</r>
       <r>  11.0856  0.0000</r>
       <r>  11.0856  0.0000</r>
       <r>  11.0856  0.0000</r>
       <r>  11.0856  0.0000</r>
       <r>  12.7486  0.0000</r>
       <r>  12.7486  0.0000</r>
       <r>  12.7500  0.0000</r>
       <r>  12.7500  0.0000</r>
       <r>  12.7500  0.0000</r>
       <r>  12.7500  0.0000</r>
       <r>  12.7514  0.0000</r>
       <r>  12.7514  0.0000</r>
      </set>
      <set comment="kpoint 39">
       <r>  -1.1616  1.0000</r>
       <r>  -1.1616  1.0000</r>
       <r>  -1.1616  1.0000</r>
       <r>  -1.1616  1.0000</r>
       <r>  -0.3534  1.0000</r>
       <r>  -0.3534  1.0000</r>
       <r>  -0.3534  1.0000</r>
       <r>  -0.3533  1.0000</r>
       <r>   2.8228  1.0000</r>
       <r>   2.8229  1.0000</r>
       <r>   2.8229  1.0000</r>
       <r>   2.8229  1.0000</r>
       <r>   3.5987  1.0000</r>
       <r>   3.5987  1.0000</r>
       <r>   3.5987  1.0000</r>
       <r>   3.5987  1.0000</r>
       <r>   3.5987  1.0000</r>
       <r>   3.5987  1.0000</r>
       <r>   3.5988  1.0000</r>
       <r>   3.5988  1.0000</r>
       <r>   4.3670  1.0000</r>
       <r>   4.3670  1.0000</r>
       <r>   4.3672  1.0000</r>
       <r>   4.3672  1.0000</r>
       <r>   4.3672  1.0000</r>
       <r>   4.3672  1.0000</r>
       <r>   4.3674  1.0000</r>
       <r>   4.3674  1.0000</r>
       <r>   5.1196  1.0000</r>
       <r>   5.1196  1.0000</r>
       <r>   5.1196  1.0000</r>
       <r>   5.1196  1.0000</r>
       <r>   7.4967  1.0000</r>
       <r>   7.4967  1.0000</r>
       <r>   7.4973  1.0000</r>
       <r>   7.4973  1.0000</r>
       <r>   7.4973  1.0000</r>
       <r>   7.4973  1.0000</r>
       <r>   7.4979  1.0000</r>
       <r>   7.4979  1.0000</r>
       <r>   8.2225  1.0000</r>
       <r>   8.2225  1.0000</r>
       <r>   8.2225  1.0000</r>
       <r>   8.2225  1.0000</r>
       <r>   9.0000  1.0000</r>
       <r>   9.0000  1.0000</r>
       <r>   9.0000  1.0000</r>
       <r>   9.0000  1.0000</r>
       <r>   9.7032  0.0000</r>
       <r>   9.7032  0.0000</r>
       <r>   9.7039  0.0000</r>
       <r>   9.7039  0.0000</r>
       <r>   9.7039  0.0000</r>
       <r>   9.7039  0.0000</r>
       <r>   9.7045  0.0000</r>
       <r>   9.7045  0.0000</r>
       <r>  11.5980  0.0000</r>
       <r>  11.5980  0.0000</r>
       <r>  11.5980  0.0000</r>
       <r>  11.5980  0.0000</r>
       <r>  12.0218  0.0000</r>
       <r>  12.0218  0.0000</r>
       <r>  12.0218  0.0000</r>
       <r>  12.0218  0.0000</r>
       <r>  13.0255  0.0000</r>
       <r>  13.0255  0.0000</r>
       <r>  13.0266  0.0000</r>
       <r>  13.0266  0.0000</r>
       <r>  13.0266  0.0000</r>
       <r>  13.0266  0.0000</r>
       <r>  13.0276  0.0000</r>
       <r>  13.0276  0.0000</r>
      </set>
      <set comment="kpoint 40">
       <r>  -0.8294  1.0000</r>
       <r>  -0.8247  1.0000</r>
       <r>  -0.8247  1.0000</r>
       <r>  -0.8242  1.0000</r>
       <r>  -0.8241  1.0000</r>
       <r>  -0.8237  1.0000</r>
       <r>  -0.8237  1.0000</r>
       <r>  -0.8190  1.0000</r>
       <r>   3.9102  1.0000</r>
       <r>   3.9162  1.0000</r>
       <r>   3.9162  1.0000</r>
       <r>   3.9196  1.0000</r>
       <r>   3.9201  1.0000</r>
       <r>   3.9202  1.0000</r>
       <r>   3.9206  1.0000</r>
       <r>   3.9206  1.0000</r>
       <r>   3.9207  1.0000</r>
       <r>   3.9207  1.0000</r>
       <r>   3.9207  1.0000</r>
       <r>   3.9207  1.0000</r>
       <r>   3.9208  1.0000</r>
       <r>   3.9208  1.0000</r>
       <r>   3.9208  1.0000</r>
       <r>   3.9208  1.0000</r>
       <r>   3.9209  1.0000</r>
       <r>   3.9209  1.0000</r>
       <r>   3.9213  1.0000</r>
       <r>   3.9214  1.0000</r>
       <r>   3.9218  1.0000</r>
       <r>   3.9253  1.0000</r>
       <r>   3.9253  1.0000</r>
       <r>   3.9313  1.0000</r>
       <r>   8.5446  1.0000</r>
       <r>   8.5446  1.0000</r>
       <r>   8.5471  1.0000</r>
       <r>   8.5484  1.0000</r>
       <r>   8.5503  1.0000</r>
       <r>   8.5507  1.0000</r>
       <r>   8.5508  1.0000</r>
       <r>   8.5508  1.0000</r>
       <r>   8.5511  1.0000</r>
       <r>   8.5511  1.0000</r>
       <r>   8.5511  1.0000</r>
       <r>   8.5511  1.0000</r>
       <r>   8.5512  1.0000</r>
       <r>   8.5512  1.0000</r>
       <r>   8.5512  1.0000</r>
       <r>   8.5512  1.0000</r>
       <r>   8.5515  1.0000</r>
       <r>   8.5515  1.0000</r>
       <r>   8.5516  1.0000</r>
       <r>   8.5520  1.0000</r>
       <r>   8.5539  1.0000</r>
       <r>   8.5552  1.0000</r>
       <r>   8.5577  1.0000</r>
       <r>   8.5577  1.0000</r>
       <r>  13.0690  0.0000</r>
       <r>  13.0696  0.0000</r>
       <r>  13.0696  0.0000</r>
       <r>  13.0697  0.0000</r>
       <r>  13.0718  0.0000</r>
       <r>  13.0720  0.0000</r>
       <r>  13.0720  0.0000</r>
       <r>  13.0727  0.0000</r>
       <r>  13.3501  0.0000</r>
       <r>  13.3514  0.0000</r>
       <r>  13.3519  0.0000</r>
       <r>  13.3524  0.0000</r>
       <r>  13.3528  0.0000</r>
       <r>  13.3535  0.0000</r>
       <r>  13.3541  0.0000</r>
       <r>  13.3548  0.0000</r>
      </set>
     </set>
    </set>
   </array>
  </eigenvalues>
 </calculation>
 <structure name="finalpos" >
  <crystal>
   <varray name="basis" >
    <v>       7.75142381      0.00000000      0.00000000</v>
    <v>       0.00000000      7.75142381      0.00000000</v>
    <v>       0.00000000      0.00000000      7.75142381</v>
   </varray>
   <i name="volume">    465.74097454</i>
   <varray name="rec_basis" >
    <v>       0.12900856      0.00000000      0.00000000</v>
    <v>       0.00000000      0.12900856      0.00000000</v>
    <v>       0.00000000      0.00000000      0.12900856</v>
   </varray>
  </crystal>
  <varray name="positions" >
   <v>       0.25129009      0.25000000      0.00000000</v>
   <v>       0.75000000      0.25000000      0.00000000</v>
   <v>       0.25000000      0.75000000      0.00000000</v>
   <v>       0.75000000      0.75000000      0.00000000</v>
   <v>       0.25000000      0.25000000      0.50000000</v>
   <v>       0.75000000      0.25000000      0.50000000</v>
   <v>       0.25000000      0.75000000      0.50000000</v>
   <v>       0.75000000      0.75000000      0.50000000</v>
   <v>       0.25000000      0.00000000      0.25000000</v>
   <v>       0.75000000      0.00000000      0.25000000</v>
   <v>       0.25000000      0.50000000      0.25000000</v>
   <v>       0.75000000      0.50000000      0.25000000</v>
   <v>       0.25000000      0.00000000      0.75000000</v>
   <v>       0.75000000      0.00000000      0.75000000</v>
   <v>       0.25000000      0.50000000      0.75000000</v>
   <v>       0.75000000      0.50000000      0.75000000</v>
   <v>       0.00000000      0.25000000      0.25000000</v>
   <v>       0.50000000      0.25000000      0.25000000</v>
   <v>       0.00000000      0.75000000      0.25000000</v>
   <v>       0.50000000      0.75000000      0.25000000</v>
   <v>       0.00000000      0.25000000      0.75000000</v>
   <v>       0.50000000      0.25000000      0.75000000</v>
   <v>       0.00000000      0.75000000      0.75000000</v>
   <v>       0.50000000      0.75000000      0.75000000</v>
   <v>       0.00000000      0.00000000      0.00000000</v>
   <v>       0.50000000      0.00000000      0.00000000</v>
   <v>       0.00000000      0.50000000      0.00000000</v>
   <v>       0.50000000      0.50000000      0.00000000</v>
   <v>       0.00000000      0.00000000      0.50000000</v>
   <v>       0.50000000      0.00000000      0.50000000</v>
   <v>       0.00000000      0.50000000      0.50000000</v>
   <v>       0.50000000      0.50000000      0.50000000</v>
  </varray>
 </structure>
</modeling>
