natom:   32
displacements:
- atom:    1
  direction:
    [   1.0000000000000000,  0.0000000000000000,  0.0000000000000000 ]
  displacement:
    [   0.0100000000000000,  0.0000000000000000,  0.0000000000000000 ]
lattice:
- [     8.159920571968225,     0.000000000000000,     0.000000000000000 ] # a
- [     0.000000000000000,     8.159920571968225,     0.000000000000000 ] # b
- [     0.000000000000000,     0.000000000000000,     8.159920571968225 ] # c
points:
- symbol: Ag # 1
  coordinates: [  0.000000000000000,  0.000000000000000,  0.000000000000000 ]
  mass: 107.868200
- symbol: Ag # 2
  coordinates: [  0.500000000000000,  0.000000000000000,  0.000000000000000 ]
  mass: 107.868200
- symbol: Ag # 3
  coordinates: [  0.000000000000000,  0.500000000000000,  0.000000000000000 ]
  mass: 107.868200
- symbol: Ag # 4
  coordinates: [  0.500000000000000,  0.500000000000000,  0.000000000000000 ]
  mass: 107.868200
- symbol: Ag # 5
  coordinates: [  0.000000000000000,  0.000000000000000,  0.500000000000000 ]
  mass: 107.868200
- symbol: Ag # 6
  coordinates: [  0.500000000000000,  0.000000000000000,  0.500000000000000 ]
  mass: 107.868200
- symbol: Ag # 7
  coordinates: [  0.000000000000000,  0.500000000000000,  0.500000000000000 ]
  mass: 107.868200
- symbol: Ag # 8
  coordinates: [  0.500000000000000,  0.500000000000000,  0.500000000000000 ]
  mass: 107.868200
- symbol: Ag # 9
  coordinates: [  0.250000000000000,  0.250000000000000,  0.000000000000000 ]
  mass: 107.868200
- symbol: Ag # 10
  coordinates: [  0.750000000000000,  0.250000000000000,  0.000000000000000 ]
  mass: 107.868200
- symbol: Ag # 11
  coordinates: [  0.250000000000000,  0.750000000000000,  0.000000000000000 ]
  mass: 107.868200
- symbol: Ag # 12
  coordinates: [  0.750000000000000,  0.750000000000000,  0.000000000000000 ]
  mass: 107.868200
- symbol: Ag # 13
  coordinates: [  0.250000000000000,  0.250000000000000,  0.500000000000000 ]
  mass: 107.868200
- symbol: Ag # 14
  coordinates: [  0.750000000000000,  0.250000000000000,  0.500000000000000 ]
  mass: 107.868200
- symbol: Ag # 15
  coordinates: [  0.250000000000000,  0.750000000000000,  0.500000000000000 ]
  mass: 107.868200
- symbol: Ag # 16
  coordinates: [  0.750000000000000,  0.750000000000000,  0.500000000000000 ]
  mass: 107.868200
- symbol: Ag # 17
  coordinates: [  0.250000000000000,  0.000000000000000,  0.250000000000000 ]
  mass: 107.868200
- symbol: Ag # 18
  coordinates: [  0.750000000000000,  0.000000000000000,  0.250000000000000 ]
  mass: 107.868200
- symbol: Ag # 19
  coordinates: [  0.250000000000000,  0.500000000000000,  0.250000000000000 ]
  mass: 107.868200
- symbol: Ag # 20
  coordinates: [  0.750000000000000,  0.500000000000000,  0.250000000000000 ]
  mass: 107.868200
- symbol: Ag # 21
  coordinates: [  0.250000000000000,  0.000000000000000,  0.750000000000000 ]
  mass: 107.868200
- symbol: Ag # 22
  coordinates: [  0.750000000000000,  0.000000000000000,  0.750000000000000 ]
  mass: 107.868200
- symbol: Ag # 23
  coordinates: [  0.250000000000000,  0.500000000000000,  0.750000000000000 ]
  mass: 107.868200
- symbol: Ag # 24
  coordinates: [  0.750000000000000,  0.500000000000000,  0.750000000000000 ]
  mass: 107.868200
- symbol: Ag # 25
  coordinates: [  0.000000000000000,  0.250000000000000,  0.250000000000000 ]
  mass: 107.868200
- symbol: Ag # 26
  coordinates: [  0.500000000000000,  0.250000000000000,  0.250000000000000 ]
  mass: 107.868200
- symbol: Ag # 27
  coordinates: [  0.000000000000000,  0.750000000000000,  0.250000000000000 ]
  mass: 107.868200
- symbol: Ag # 28
  coordinates: [  0.500000000000000,  0.750000000000000,  0.250000000000000 ]
  mass: 107.868200
- symbol: Ag # 29
  coordinates: [  0.000000000000000,  0.250000000000000,  0.750000000000000 ]
  mass: 107.868200
- symbol: Ag # 30
  coordinates: [  0.500000000000000,  0.250000000000000,  0.750000000000000 ]
  mass: 107.868200
- symbol: Ag # 31
  coordinates: [  0.000000000000000,  0.750000000000000,  0.750000000000000 ]
  mass: 107.868200
- symbol: Ag # 32
  coordinates: [  0.500000000000000,  0.750000000000000,  0.750000000000000 ]
  mass: 107.868200