32   
1    

1    
  0.0100000000000000   0.0000000000000000   0.0000000000000000
  -0.0607979600   -0.0000000000    0.0000000000
   0.0011824700   -0.0000000000    0.0000000000
  -0.0003941000   -0.0000000000    0.0000000000
  -0.0004251600    0.0000000000   -0.0000000000
  -0.0003941000   -0.0000000000    0.0000000000
  -0.0004251600   -0.0000000000    0.0000000000
  -0.0002375600   -0.0000000000    0.0000000000
   0.0000037500   -0.0000000000    0.0000000000
   0.0080816200    0.0094546700    0.0000000000
   0.0078470100   -0.0091189000   -0.0000000000
   0.0080816200   -0.0094546700   -0.0000000000
   0.0078470100    0.0091189000   -0.0000000000
   0.0002211800    0.0000176000   -0.0000000000
   0.0002238400   -0.0000164900   -0.0000000000
   0.0002211800   -0.0000176000   -0.0000000000
   0.0002238400    0.0000164900   -0.0000000000
   0.0080816200   -0.0000000000    0.0094546700
   0.0078470100    0.0000000000   -0.0091189000
   0.0002211800    0.0000000000    0.0000176000
   0.0002238400    0.0000000000   -0.0000164900
   0.0080816200    0.0000000000   -0.0094546700
   0.0078470100   -0.0000000000    0.0091189000
   0.0002211800    0.0000000000   -0.0000176000
   0.0002238400   -0.0000000000    0.0000164900
  -0.0015472800   -0.0000134100   -0.0000134100
   0.0005455900    0.0000011200    0.0000011200
  -0.0015472800    0.0000134100   -0.0000134100
   0.0005455900   -0.0000011200    0.0000011200
  -0.0015472800   -0.0000134100    0.0000134100
   0.0005455900    0.0000011200   -0.0000011200
  -0.0015472800    0.0000134100    0.0000134100
   0.0005455900   -0.0000011200   -0.0000011200
