mesh: [    48,    48,    48 ]
nqpoint: 2600   
reciprocal_lattice:
- [   0.24510042,   0.00000000,   0.00000000 ] # a*
- [   0.00000000,   0.24510042,   0.00000000 ] # b*
- [   0.00000000,   0.00000000,   0.24510042 ] # c*
natom:   4      
lattice:
- [     4.079960285984113,     0.000000000000000,     0.000000000000000 ] # a
- [     0.000000000000000,     4.079960285984113,     0.000000000000000 ] # b
- [     0.000000000000000,     0.000000000000000,     4.079960285984113 ] # c
points:
- symbol: Ag # 1
  coordinates: [  0.000000000000000,  0.000000000000000,  0.000000000000000 ]
  mass: 107.868200
- symbol: Ag # 2
  coordinates: [  0.500000000000000,  0.500000000000000,  0.000000000000000 ]
  mass: 107.868200
- symbol: Ag # 3
  coordinates: [  0.500000000000000,  0.000000000000000,  0.500000000000000 ]
  mass: 107.868200
- symbol: Ag # 4
  coordinates: [  0.000000000000000,  0.500000000000000,  0.500000000000000 ]
  mass: 107.868200
phonon:
- q-position: [    0.0104167,    0.0104167,    0.0104167 ]
  weight: 8    
  band:
  - # 1
    frequency:     0.0833393312
  - # 2
    frequency:     0.0833393312
  - # 3
    frequency:     0.1844603633
  - # 4
    frequency:     3.6074481420
  - # 5
    frequency:     3.6074481420
  - # 6
    frequency:     3.6074481420
  - # 7
    frequency:     3.6099481647
  - # 8
    frequency:     3.6099481647
  - # 9
    frequency:     3.6099481647
  - # 10
    frequency:     5.4461997254
  - # 11
    frequency:     5.4461997254
  - # 12
    frequency:     5.4461997254

- q-position: [    0.0312500,    0.0104167,    0.0104167 ]
  weight: 24   
  band:
  - # 1
    frequency:     0.1680069697
  - # 2
    frequency:     0.1848383612
  - # 3
    frequency:     0.3364164643
  - # 4
    frequency:     3.6034989981
  - # 5
    frequency:     3.6056766833
  - # 6
    frequency:     3.6056766833
  - # 7
    frequency:     3.6059908263
  - # 8
    frequency:     3.6146166864
  - # 9
    frequency:     3.6146166864
  - # 10
    frequency:     5.4412716268
  - # 11
    frequency:     5.4422420897
  - # 12
    frequency:     5.4422420897

- q-position: [    0.0520833,    0.0104167,    0.0104167 ]
  weight: 24   
  band:
  - # 1
    frequency:     0.2836233201
  - # 2
    frequency:     0.2974832367
  - # 3
    frequency:     0.5111515222
  - # 4
    frequency:     3.5956057768
  - # 5
    frequency:     3.5980812472
  - # 6
    frequency:     3.6034455606
  - # 7
    frequency:     3.6034455606
  - # 8
    frequency:     3.6226422418
  - # 9
    frequency:     3.6226422418
  - # 10
    frequency:     5.4314116375
  - # 11
    frequency:     5.4343440116
  - # 12
    frequency:     5.4343440116

- q-position: [    0.0729167,    0.0104167,    0.0104167 ]
  weight: 24   
  band:
  - # 1
    frequency:     0.4011294103
  - # 2
    frequency:     0.4119732394
  - # 3
    frequency:     0.6927653317
  - # 4
    frequency:     3.5837785973
  - # 5
    frequency:     3.5862296082
  - # 6
    frequency:     3.6004351198
  - # 7
    frequency:     3.6004351198
  - # 8
    frequency:     3.6343449135
  - # 9
    frequency:     3.6343449135
  - # 10
    frequency:     5.4166122778
  - # 11
    frequency:     5.4225398025
  - # 12
    frequency:     5.4225398025

- q-position: [    0.0937500,    0.0104167,    0.0104167 ]
  weight: 24   
  band:
  - # 1
    frequency:     0.5181237251
  - # 2
    frequency:     0.5267998330
  - # 3
    frequency:     0.8767316176
  - # 4
    frequency:     3.5680326059
  - # 5
    frequency:     3.5704511459
  - # 6
    frequency:     3.5965892104
  - # 7
    frequency:     3.5965892104
  - # 8
    frequency:     3.6497810369
  - # 9
    frequency:     3.6497810369
  - # 10
    frequency:     5.3968625894
  - # 11
    frequency:     5.4068807417
  - # 12
    frequency:     5.4068807417

- q-position: [    0.1145833,    0.0104167,    0.0104167 ]
  weight: 24   
  band:
  - # 1
    frequency:     0.6343358528
  - # 2
    frequency:     0.6414467324
  - # 3
    frequency:     1.0611490051
  - # 4
    frequency:     3.5483879359
  - # 5
    frequency:     3.5507661107
  - # 6
    frequency:     3.5919368603
  - # 7
    frequency:     3.5919368603
  - # 8
    frequency:     3.6689209807
  - # 9
    frequency:     3.6689209807
  - # 10
    frequency:     5.3721484437
  - # 11
    frequency:     5.3874348525
  - # 12
    frequency:     5.3874348525

- q-position: [    0.1354167,    0.0104167,    0.0104167 ]
  weight: 24   
  band:
  - # 1
    frequency:     0.7497038065
  - # 2
    frequency:     0.7556411627
  - # 3
    frequency:     1.2450099866
  - # 4
    frequency:     3.5248696558
  - # 5
    frequency:     3.5271997119
  - # 6
    frequency:     3.5865416784
  - # 7
    frequency:     3.5865416784
  - # 8
    frequency:     3.6916990275
  - # 9
    frequency:     3.6916990275
  - # 10
    frequency:     5.3424529474
  - # 11
    frequency:     5.3642866044
  - # 12
    frequency:     5.3642866044

- q-position: [    0.1562500,    0.0104167,    0.0104167 ]
  weight: 24   
  band:
  - # 1
    frequency:     0.8641699361
  - # 2
    frequency:     0.8691936188
  - # 3
    frequency:     1.4276721341
  - # 4
    frequency:     3.4975077046
  - # 5
    frequency:     3.4997820493
  - # 6
    frequency:     3.5804871235
  - # 7
    frequency:     3.5804871235
  - # 8
    frequency:     3.7180272249
  - # 9
    frequency:     3.7180272249
  - # 10
    frequency:     5.3077569378
  - # 11
    frequency:     5.3375365430
  - # 12
    frequency:     5.3375365430

- q-position: [    0.1770833,    0.0104167,    0.0104167 ]
  weight: 24   
  band:
  - # 1
    frequency:     0.9776608811
  - # 2
    frequency:     0.9819494859
  - # 3
    frequency:     1.6086645555
  - # 4
    frequency:     3.4663368156
  - # 5
    frequency:     3.4685480330
  - # 6
    frequency:     3.5738709037
  - # 7
    frequency:     3.5738709037
  - # 8
    frequency:     3.7477999522
  - # 9
    frequency:     3.7477999522
  - # 10
    frequency:     5.2680395619
  - # 11
    frequency:     5.3073008503
  - # 12
    frequency:     5.3073008503

- q-position: [    0.1979167,    0.0104167,    0.0104167 ]
  weight: 24   
  band:
  - # 1
    frequency:     1.0900904037
  - # 2
    frequency:     1.0937710036
  - # 3
    frequency:     1.7876073198
  - # 4
    frequency:     3.4313964280
  - # 5
    frequency:     3.4335372906
  - # 6
    frequency:     3.5668019126
  - # 7
    frequency:     3.5668019126
  - # 8
    frequency:     3.7808958097
  - # 9
    frequency:     3.7808958097
  - # 10
    frequency:     5.2232789311
  - # 11
    frequency:     5.2737108346
  - # 12
    frequency:     5.2737108346

- q-position: [    0.2187500,    0.0104167,    0.0104167 ]
  weight: 24   
  band:
  - # 1
    frequency:     1.2013636865
  - # 2
    frequency:     1.2045295106
  - # 3
    frequency:     1.9641744453
  - # 4
    frequency:     3.3927305882
  - # 5
    frequency:     3.3947940635
  - # 6
    frequency:     3.5593979008
  - # 7
    frequency:     3.5593979008
  - # 8
    frequency:     3.8171786494
  - # 9
    frequency:     3.8171786494
  - # 10
    frequency:     5.1734528431
  - # 11
    frequency:     5.2369123545
  - # 12
    frequency:     5.2369123545

- q-position: [    0.2395833,    0.0104167,    0.0104167 ]
  weight: 24   
  band:
  - # 1
    frequency:     1.3113804697
  - # 2
    frequency:     1.3141017551
  - # 3
    frequency:     2.1380755698
  - # 4
    frequency:     3.3503878407
  - # 5
    frequency:     3.3523670924
  - # 6
    frequency:     3.5517833255
  - # 7
    frequency:     3.5517833255
  - # 8
    frequency:     3.8564983211
  - # 9
    frequency:     3.8564983211
  - # 10
    frequency:     5.1185395602
  - # 11
    frequency:     5.1970651785
  - # 12
    frequency:     5.1970651785

- q-position: [    0.2604167,    0.0104167,    0.0104167 ]
  weight: 24   
  band:
  - # 1
    frequency:     1.4200371208
  - # 2
    frequency:     1.4223680082
  - # 3
    frequency:     2.3090463477
  - # 4
    frequency:     3.3044211093
  - # 5
    frequency:     3.3063094929
  - # 6
    frequency:     3.5440871957
  - # 7
    frequency:     3.5440871957
  - # 8
    frequency:     3.8986913403
  - # 9
    frequency:     3.8986913403
  - # 10
    frequency:     5.0585186352
  - # 11
    frequency:     5.1543422823
  - # 12
    frequency:     5.1543422823

- q-position: [    0.2812500,    0.0104167,    0.0104167 ]
  weight: 24   
  band:
  - # 1
    frequency:     1.5272279916
  - # 2
    frequency:     1.5292110539
  - # 3
    frequency:     2.4768432053
  - # 4
    frequency:     3.2548875696
  - # 5
    frequency:     3.2566786227
  - # 6
    frequency:     3.5364408605
  - # 7
    frequency:     3.5364408605
  - # 8
    frequency:     3.9435815568
  - # 9
    frequency:     3.9435815568
  - # 10
    frequency:     4.9933717736
  - # 11
    frequency:     5.1089290874
  - # 12
    frequency:     5.1089290874

- q-position: [    0.3020833,    0.0104167,    0.0104167 ]
  weight: 24   
  band:
  - # 1
    frequency:     1.6328463307
  - # 2
    frequency:     1.6345156363
  - # 3
    frequency:     2.6412403940
  - # 4
    frequency:     3.2018485137
  - # 5
    frequency:     3.2035359395
  - # 6
    frequency:     3.5289757352
  - # 7
    frequency:     3.5289757352
  - # 8
    frequency:     3.9909808589
  - # 9
    frequency:     3.9909808589
  - # 10
    frequency:     4.9230837210
  - # 11
    frequency:     5.0610226449
  - # 12
    frequency:     5.0610226449

- q-position: [    0.3229167,    0.0104167,    0.0104167 ]
  weight: 24   
  band:
  - # 1
    frequency:     1.7367849197
  - # 2
    frequency:     1.7381681629
  - # 3
    frequency:     2.8020282995
  - # 4
    frequency:     3.1453692072
  - # 5
    frequency:     3.1469468524
  - # 6
    frequency:     3.5218209860
  - # 7
    frequency:     3.5218209860
  - # 8
    frequency:     4.0406899266
  - # 9
    frequency:     4.0406899266
  - # 10
    frequency:     4.8476431657
  - # 11
    frequency:     5.0108307663
  - # 12
    frequency:     5.0108307663

- q-position: [    0.3437500,    0.0104167,    0.0104167 ]
  weight: 24   
  band:
  - # 1
    frequency:     1.8389365394
  - # 2
    frequency:     1.8400565572
  - # 3
    frequency:     2.9590124547
  - # 4
    frequency:     3.0855187408
  - # 5
    frequency:     3.0869805667
  - # 6
    frequency:     3.5151012060
  - # 7
    frequency:     3.5151012060
  - # 8
    frequency:     4.0924990381
  - # 9
    frequency:     4.0924990381
  - # 10
    frequency:     4.7670436445
  - # 11
    frequency:     4.9585711089
  - # 12
    frequency:     4.9585711089

- q-position: [    0.3645833,    0.0104167,    0.0104167 ]
  weight: 24   
  band:
  - # 1
    frequency:     1.9391943286
  - # 2
    frequency:     1.9400702045
  - # 3
    frequency:     3.0223698762
  - # 4
    frequency:     3.0237099231
  - # 5
    frequency:     3.1120129485
  - # 6
    frequency:     3.5089341249
  - # 7
    frequency:     3.5089341249
  - # 8
    frequency:     4.1461889283
  - # 9
    frequency:     4.1461889283
  - # 10
    frequency:     4.6812844427
  - # 11
    frequency:     4.9044702187
  - # 12
    frequency:     4.9044702187

- q-position: [    0.3854167,    0.0104167,    0.0104167 ]
  weight: 24   
  band:
  - # 1
    frequency:     2.0374520747
  - # 2
    frequency:     2.0380999593
  - # 3
    frequency:     2.9559988880
  - # 4
    frequency:     2.9572112317
  - # 5
    frequency:     3.2608640504
  - # 6
    frequency:     3.5034283966
  - # 7
    frequency:     3.5034283966
  - # 8
    frequency:     4.2015316917
  - # 9
    frequency:     4.2015316917
  - # 10
    frequency:     4.5903714768
  - # 11
    frequency:     4.8487625426
  - # 12
    frequency:     4.8487625426

- q-position: [    0.4062500,    0.0104167,    0.0104167 ]
  weight: 24   
  band:
  - # 1
    frequency:     2.1336044613
  - # 2
    frequency:     2.1340381926
  - # 3
    frequency:     2.8864854019
  - # 4
    frequency:     2.8875641031
  - # 5
    frequency:     3.4054139429
  - # 6
    frequency:     3.4986815175
  - # 7
    frequency:     3.4986815175
  - # 8
    frequency:     4.2582917111
  - # 9
    frequency:     4.2582917111
  - # 10
    frequency:     4.4943181515
  - # 11
    frequency:     4.7916894268
  - # 12
    frequency:     4.7916894268

- q-position: [    0.4270833,    0.0104167,    0.0104167 ]
  weight: 24   
  band:
  - # 1
    frequency:     2.2275472889
  - # 2
    frequency:     2.2277788699
  - # 3
    frequency:     2.8139122314
  - # 4
    frequency:     2.8148512755
  - # 5
    frequency:     3.4947779217
  - # 6
    frequency:     3.4947779217
  - # 7
    frequency:     3.5455244964
  - # 8
    frequency:     4.3162265614
  - # 9
    frequency:     4.3162265614
  - # 10
    frequency:     4.3931461817
  - # 11
    frequency:     4.7334981545
  - # 12
    frequency:     4.7334981545

- q-position: [    0.4479167,    0.0104167,    0.0104167 ]
  weight: 24   
  band:
  - # 1
    frequency:     2.3191776776
  - # 2
    frequency:     2.3192176499
  - # 3
    frequency:     2.7383652128
  - # 4
    frequency:     2.7391584395
  - # 5
    frequency:     3.4917873057
  - # 6
    frequency:     3.4917873057
  - # 7
    frequency:     3.6810710423
  - # 8
    frequency:     4.2868863708
  - # 9
    frequency:     4.3750876827
  - # 10
    frequency:     4.3750876827
  - # 11
    frequency:     4.6744412249
  - # 12
    frequency:     4.6744412249

- q-position: [    0.4687500,    0.0104167,    0.0104167 ]
  weight: 24   
  band:
  - # 1
    frequency:     2.4082519998
  - # 2
    frequency:     2.4083942598
  - # 3
    frequency:     2.6599330406
  - # 4
    frequency:     2.6605740624
  - # 5
    frequency:     3.4897632262
  - # 6
    frequency:     3.4897632262
  - # 7
    frequency:     3.8119421191
  - # 8
    frequency:     4.1755793403
  - # 9
    frequency:     4.4346195660
  - # 10
    frequency:     4.4346195660
  - # 11
    frequency:     4.6147771316
  - # 12
    frequency:     4.6147771316

- q-position: [    0.4895833,    0.0104167,    0.0104167 ]
  weight: 24   
  band:
  - # 1
    frequency:     2.4947813243
  - # 2
    frequency:     2.4950973665
  - # 3
    frequency:     2.5787071037
  - # 4
    frequency:     2.5791892096
  - # 5
    frequency:     3.4887420102
  - # 6
    frequency:     3.4887420102
  - # 7
    frequency:     3.9380391731
  - # 8
    frequency:     4.0592762026
  - # 9
    frequency:     4.4945361879
  - # 10
    frequency:     4.4945361879
  - # 11
    frequency:     4.5547939017
  - # 12
    frequency:     4.5547939017

- q-position: [    0.0312500,    0.0312500,    0.0104167 ]
  weight: 24   
  band:
  - # 1
    frequency:     0.1877127331
  - # 2
    frequency:     0.2444921625
  - # 3
    frequency:     0.4559506775
  - # 4
    frequency:     3.6003655798
  - # 5
    frequency:     3.6017201335
  - # 6
    frequency:     3.6017201335
  - # 7
    frequency:     3.6106520104
  - # 8
    frequency:     3.6106520104
  - # 9
    frequency:     3.6227835962
  - # 10
    frequency:     5.4373522957
  - # 11
    frequency:     5.4373522957
  - # 12
    frequency:     5.4382872948

- q-position: [    0.0520833,    0.0312500,    0.0104167 ]
  weight: 48   
  band:
  - # 1
    frequency:     0.2710211568
  - # 2
    frequency:     0.3376334430
  - # 3
    frequency:     0.6078423876
  - # 4
    frequency:     3.5938119763
  - # 5
    frequency:     3.5951906014
  - # 6
    frequency:     3.5994573915
  - # 7
    frequency:     3.6027279977
  - # 8
    frequency:     3.6186795466
  - # 9
    frequency:     3.6336710464
  - # 10
    frequency:     5.4275688397
  - # 11
    frequency:     5.4295307813
  - # 12
    frequency:     5.4303948648

- q-position: [    0.0729167,    0.0312500,    0.0104167 ]
  weight: 48   
  band:
  - # 1
    frequency:     0.3801364194
  - # 2
    frequency:     0.4418016652
  - # 3
    frequency:     0.7724147629
  - # 4
    frequency:     3.5819620822
  - # 5
    frequency:     3.5900986415
  - # 6
    frequency:     3.5908553114
  - # 7
    frequency:     3.5963933330
  - # 8
    frequency:     3.6303910064
  - # 9
    frequency:     3.6473336617
  - # 10
    frequency:     5.4128840941
  - # 11
    frequency:     5.4178413041
  - # 12
    frequency:     5.4185990441

- q-position: [    0.0937500,    0.0312500,    0.0104167 ]
  weight: 48   
  band:
  - # 1
    frequency:     0.4959789714
  - # 2
    frequency:     0.5504252481
  - # 3
    frequency:     0.9434956094
  - # 4
    frequency:     3.5661852219
  - # 5
    frequency:     3.5750499065
  - # 6
    frequency:     3.5848425398
  - # 7
    frequency:     3.5924733610
  - # 8
    frequency:     3.6458407419
  - # 9
    frequency:     3.6640203817
  - # 10
    frequency:     5.3932868870
  - # 11
    frequency:     5.4023350052
  - # 12
    frequency:     5.4029510132

- q-position: [    0.1145833,    0.0312500,    0.0104167 ]
  weight: 48   
  band:
  - # 1
    frequency:     0.6131933794
  - # 2
    frequency:     0.6609790797
  - # 3
    frequency:     1.1180079168
  - # 4
    frequency:     3.5465010255
  - # 5
    frequency:     3.5553329825
  - # 6
    frequency:     3.5792585518
  - # 7
    frequency:     3.5877270582
  - # 8
    frequency:     3.6649980207
  - # 9
    frequency:     3.6838964018
  - # 10
    frequency:     5.3687628206
  - # 11
    frequency:     5.3830797211
  - # 12
    frequency:     5.3835186649

- q-position: [    0.1354167,    0.0312500,    0.0104167 ]
  weight: 48   
  band:
  - # 1
    frequency:     0.7301405083
  - # 2
    frequency:     0.7722869268
  - # 3
    frequency:     1.2940975601
  - # 4
    frequency:     3.5229339277
  - # 5
    frequency:     3.5317309208
  - # 6
    frequency:     3.5732679441
  - # 7
    frequency:     3.5822181446
  - # 8
    frequency:     3.6877963749
  - # 9
    frequency:     3.7070408028
  - # 10
    frequency:     5.3392946898
  - # 11
    frequency:     5.3601596832
  - # 12
    frequency:     5.3603863088

- q-position: [    0.1562500,    0.0312500,    0.0104167 ]
  weight: 48   
  band:
  - # 1
    frequency:     0.8462433965
  - # 2
    frequency:     0.8837025381
  - # 3
    frequency:     1.4705316169
  - # 4
    frequency:     3.4955131027
  - # 5
    frequency:     3.5042752058
  - # 6
    frequency:     3.5668567792
  - # 7
    frequency:     3.5760300119
  - # 8
    frequency:     3.7141472115
  - # 9
    frequency:     3.7334658193
  - # 10
    frequency:     5.3048629931
  - # 11
    frequency:     5.3336543036
  - # 12
    frequency:     5.3336751454

- q-position: [    0.1770833,    0.0312500,    0.0104167 ]
  weight: 48   
  band:
  - # 1
    frequency:     0.9612602231
  - # 2
    frequency:     0.9948180492
  - # 3
    frequency:     1.6464307877
  - # 4
    frequency:     3.4642723880
  - # 5
    frequency:     3.4730023316
  - # 6
    frequency:     3.5600573490
  - # 7
    frequency:     3.5692602369
  - # 8
    frequency:     3.7439442961
  - # 9
    frequency:     3.7631342966
  - # 10
    frequency:     5.2654465303
  - # 11
    frequency:     5.3034386191
  - # 12
    frequency:     5.3037419400

- q-position: [    0.1979167,    0.0312500,    0.0104167 ]
  weight: 48   
  band:
  - # 1
    frequency:     1.0750600528
  - # 2
    frequency:     1.1053448072
  - # 3
    frequency:     1.8211306646
  - # 4
    frequency:     3.4292501982
  - # 5
    frequency:     3.4379536921
  - # 6
    frequency:     3.5529343884
  - # 7
    frequency:     3.5620175768
  - # 8
    frequency:     3.7770656152
  - # 9
    frequency:     3.7959722251
  - # 10
    frequency:     5.2210230782
  - # 11
    frequency:     5.2698703307
  - # 12
    frequency:     5.2704909645

- q-position: [    0.2187500,    0.0312500,    0.0104167 ]
  weight: 48   
  band:
  - # 1
    frequency:     1.1875475633
  - # 2
    frequency:     1.2150589968
  - # 3
    frequency:     1.9941042274
  - # 4
    frequency:     3.3904894326
  - # 5
    frequency:     3.3991754569
  - # 6
    frequency:     3.5455753178
  - # 7
    frequency:     3.5544196781
  - # 8
    frequency:     3.8133744030
  - # 9
    frequency:     3.8318771176
  - # 10
    frequency:     5.1715701352
  - # 11
    frequency:     5.2330950477
  - # 12
    frequency:     5.2340676012

- q-position: [    0.2395833,    0.0312500,    0.0104167 ]
  weight: 48   
  band:
  - # 1
    frequency:     1.2986366936
  - # 2
    frequency:     1.3237745697
  - # 3
    frequency:     2.1649165639
  - # 4
    frequency:     3.3480373753
  - # 5
    frequency:     3.3567184316
  - # 6
    frequency:     3.5380832400
  - # 7
    frequency:     3.5465909565
  - # 8
    frequency:     3.8527198909
  - # 9
    frequency:     3.8707235295
  - # 10
    frequency:     5.1170657251
  - # 11
    frequency:     5.1932722778
  - # 12
    frequency:     5.1946310720

- q-position: [    0.2604167,    0.0312500,    0.0104167 ]
  weight: 48   
  band:
  - # 1
    frequency:     1.4082415288
  - # 2
    frequency:     1.4313287961
  - # 3
    frequency:     2.3331975255
  - # 4
    frequency:     3.3019455907
  - # 5
    frequency:     3.3106379041
  - # 6
    frequency:     3.5305716747
  - # 7
    frequency:     3.5386604704
  - # 8
    frequency:     3.8949379802
  - # 9
    frequency:     3.9123667598
  - # 10
    frequency:     5.0574892500
  - # 11
    frequency:     5.1505747330
  - # 12
    frequency:     5.1523537321

- q-position: [    0.2812500,    0.0312500,    0.0104167 ]
  weight: 48   
  band:
  - # 1
    frequency:     1.5162735078
  - # 2
    frequency:     1.5375741080
  - # 3
    frequency:     2.4986247526
  - # 4
    frequency:     3.2522698144
  - # 5
    frequency:     3.2609934777
  - # 6
    frequency:     3.5231603544
  - # 7
    frequency:     3.5307597338
  - # 8
    frequency:     3.9398519146
  - # 9
    frequency:     3.9566454398
  - # 10
    frequency:     4.9928223819
  - # 11
    frequency:     5.1051875787
  - # 12
    frequency:     5.1074203061

- q-position: [    0.3020833,    0.0312500,    0.0104167 ]
  weight: 48   
  band:
  - # 1
    frequency:     1.6226409659
  - # 2
    frequency:     1.6423732825
  - # 3
    frequency:     2.6609128781
  - # 4
    frequency:     3.1990698403
  - # 5
    frequency:     3.2078488923
  - # 6
    frequency:     3.5159716660
  - # 7
    frequency:     3.5230204674
  - # 8
    frequency:     3.9872729824
  - # 9
    frequency:     4.0033834525
  - # 10
    frequency:     4.9230499816
  - # 11
    frequency:     5.0573076324
  - # 12
    frequency:     5.0600270715

- q-position: [    0.3229167,    0.0312500,    0.0104167 ]
  weight: 48   
  band:
  - # 1
    frequency:     1.7272494976
  - # 2
    frequency:     1.7455964951
  - # 3
    frequency:     2.8198065036
  - # 4
    frequency:     3.1424094017
  - # 5
    frequency:     3.1512718383
  - # 6
    frequency:     3.5091275000
  - # 7
    frequency:     3.5155723055
  - # 8
    frequency:     4.0370012603
  - # 9
    frequency:     4.0523914544
  - # 10
    frequency:     4.8481610350
  - # 11
    frequency:     5.0071425200
  - # 12
    frequency:     5.0103809971

- q-position: [    0.3437500,    0.0312500,    0.0104167 ]
  weight: 48   
  band:
  - # 1
    frequency:     1.8300025609
  - # 2
    frequency:     1.8471194666
  - # 3
    frequency:     2.9750755322
  - # 4
    frequency:     3.0823560458
  - # 5
    frequency:     3.0913337648
  - # 6
    frequency:     3.5027463779
  - # 7
    frequency:     3.5085404931
  - # 8
    frequency:     4.0888263927
  - # 9
    frequency:     4.1034681580
  - # 10
    frequency:     4.7681495970
  - # 11
    frequency:     4.9549098014
  - # 12
    frequency:     4.9586988473

- q-position: [    0.3645833,    0.0312500,    0.0104167 ]
  weight: 48   
  band:
  - # 1
    frequency:     1.9308021049
  - # 2
    frequency:     1.9468222766
  - # 3
    frequency:     3.0189809982
  - # 4
    frequency:     3.0281096889
  - # 5
    frequency:     3.1265119933
  - # 6
    frequency:     3.4969407984
  - # 7
    frequency:     3.5020436130
  - # 8
    frequency:     4.1425283930
  - # 9
    frequency:     4.1564014579
  - # 10
    frequency:     4.6830157315
  - # 11
    frequency:     4.9008360895
  - # 12
    frequency:     4.9052062750

- q-position: [    0.3854167,    0.0312500,    0.0104167 ]
  weight: 48   
  band:
  - # 1
    frequency:     2.0295491487
  - # 2
    frequency:     2.0445885964
  - # 3
    frequency:     2.9523590142
  - # 4
    frequency:     2.9616780093
  - # 5
    frequency:     3.2739278263
  - # 6
    frequency:     3.4918147859
  - # 7
    frequency:     3.4961913883
  - # 8
    frequency:     4.1978784179
  - # 9
    frequency:     4.2109694110
  - # 10
    frequency:     4.5927664412
  - # 11
    frequency:     4.8451562175
  - # 12
    frequency:     4.8501369483

- q-position: [    0.4062500,    0.0312500,    0.0104167 ]
  weight: 48   
  band:
  - # 1
    frequency:     2.1261442935
  - # 2
    frequency:     2.1403051939
  - # 3
    frequency:     2.8825682148
  - # 4
    frequency:     2.8921203310
  - # 5
    frequency:     3.4171532809
  - # 6
    frequency:     3.4874616489
  - # 7
    frequency:     3.4910826112
  - # 8
    frequency:     4.2546393950
  - # 9
    frequency:     4.2669409688
  - # 10
    frequency:     4.4974165761
  - # 11
    frequency:     4.7881125953
  - # 12
    frequency:     4.7937318357

- q-position: [    0.4270833,    0.0312500,    0.0104167 ]
  weight: 48   
  band:
  - # 1
    frequency:     2.2204881745
  - # 2
    frequency:     2.2338616185
  - # 3
    frequency:     2.8096899036
  - # 4
    frequency:     2.8195213029
  - # 5
    frequency:     3.4839619747
  - # 6
    frequency:     3.4868032457
  - # 7
    frequency:     3.5560357146
  - # 8
    frequency:     4.3125661150
  - # 9
    frequency:     4.3240760177
  - # 10
    frequency:     4.3969897163
  - # 11
    frequency:     4.7299552257
  - # 12
    frequency:     4.7362390359

- q-position: [    0.4479167,    0.0312500,    0.0104167 ]
  weight: 48   
  band:
  - # 1
    frequency:     2.3124818604
  - # 2
    frequency:     2.3251500092
  - # 3
    frequency:     2.7338083658
  - # 4
    frequency:     2.7439684730
  - # 5
    frequency:     3.4813818897
  - # 6
    frequency:     3.4834247549
  - # 7
    frequency:     3.6904386392
  - # 8
    frequency:     4.2915190219
  - # 9
    frequency:     4.3714032127
  - # 10
    frequency:     4.3821227513
  - # 11
    frequency:     4.6709443711
  - # 12
    frequency:     4.6779157281

- q-position: [    0.4687500,    0.0312500,    0.0104167 ]
  weight: 48   
  band:
  - # 1
    frequency:     2.4020272149
  - # 2
    frequency:     2.4140649873
  - # 3
    frequency:     2.6550106480
  - # 4
    frequency:     2.6655521616
  - # 5
    frequency:     3.4797716201
  - # 6
    frequency:     3.4810026977
  - # 7
    frequency:     3.8202409196
  - # 8
    frequency:     4.1810480468
  - # 9
    frequency:     4.4308715004
  - # 10
    frequency:     4.4407992858
  - # 11
    frequency:     4.6113689689
  - # 12
    frequency:     4.6190417783

- q-position: [    0.4895833,    0.0312500,    0.0104167 ]
  weight: 48   
  band:
  - # 1
    frequency:     2.4890272270
  - # 2
    frequency:     2.5005036077
  - # 3
    frequency:     2.5733863209
  - # 4
    frequency:     2.5843653535
  - # 5
    frequency:     3.4791643833
  - # 6
    frequency:     3.4795756360
  - # 7
    frequency:     3.9453360573
  - # 8
    frequency:     4.0656315147
  - # 9
    frequency:     4.4905024199
  - # 10
    frequency:     4.4995071729
  - # 11
    frequency:     4.5518331472
  - # 12
    frequency:     4.5600852339

- q-position: [    0.0520833,    0.0520833,    0.0104167 ]
  weight: 24   
  band:
  - # 1
    frequency:     0.3025764064
  - # 2
    frequency:     0.4101282476
  - # 3
    frequency:     0.7415696875
  - # 4
    frequency:     3.5862956164
  - # 5
    frequency:     3.5914859117
  - # 6
    frequency:     3.5914859117
  - # 7
    frequency:     3.6107598338
  - # 8
    frequency:     3.6107598338
  - # 9
    frequency:     3.6481156603
  - # 10
    frequency:     5.4199002842
  - # 11
    frequency:     5.4199002842
  - # 12
    frequency:     5.4225136639

- q-position: [    0.0729167,    0.0520833,    0.0104167 ]
  weight: 48   
  band:
  - # 1
    frequency:     0.3794291868
  - # 2
    frequency:     0.4994071207
  - # 3
    frequency:     0.8909703156
  - # 4
    frequency:     3.5777223614
  - # 5
    frequency:     3.5795408352
  - # 6
    frequency:     3.5883147756
  - # 7
    frequency:     3.5988944260
  - # 8
    frequency:     3.6224891397
  - # 9
    frequency:     3.6650179727
  - # 10
    frequency:     5.4054445625
  - # 11
    frequency:     5.4084399745
  - # 12
    frequency:     5.4107345210

- q-position: [    0.0937500,    0.0520833,    0.0104167 ]
  weight: 48   
  band:
  - # 1
    frequency:     0.4796718367
  - # 2
    frequency:     0.5976668241
  - # 3
    frequency:     1.0489283824
  - # 4
    frequency:     3.5636367258
  - # 5
    frequency:     3.5694570827
  - # 6
    frequency:     3.5831002261
  - # 7
    frequency:     3.5842471143
  - # 8
    frequency:     3.6379663213
  - # 9
    frequency:     3.6843966325
  - # 10
    frequency:     5.3861519658
  - # 11
    frequency:     5.3932387226
  - # 12
    frequency:     5.3951084191

- q-position: [    0.1145833,    0.0520833,    0.0104167 ]
  weight: 48   
  band:
  - # 1
    frequency:     0.5898986374
  - # 2
    frequency:     0.7008256010
  - # 3
    frequency:     1.2120248988
  - # 4
    frequency:     3.5437929876
  - # 5
    frequency:     3.5613854875
  - # 6
    frequency:     3.5633996235
  - # 7
    frequency:     3.5793136648
  - # 8
    frequency:     3.6571584773
  - # 9
    frequency:     3.7063714006
  - # 10
    frequency:     5.3620074905
  - # 11
    frequency:     5.3743639187
  - # 12
    frequency:     5.3757029920

- q-position: [    0.1354167,    0.0520833,    0.0104167 ]
  weight: 48   
  band:
  - # 1
    frequency:     0.7040727952