<?xml version="1.0" encoding="ISO-8859-1"?>
<modeling>
 <generator>
  <i name="program" type="string">vasp</i>
  <i name="version" type="string">4.6.28 </i>
  <i name="subversion" type="string">25Jul05 complex  parallel</i>
  <i name="platform" type="string">LinuxIFC</i>
  <i name="date" type="string">2016 10 19</i>
  <i name="time" type="string">17:43:07</i>
 </generator>
 <incar>
  <i type="string" name="PREC">accurate</i>
  <i type="int" name="IALGO">    38</i>
  <i name="EDIFF">      0.00000001</i>
  <i type="int" name="IBRION">    -1</i>
  <i name="ENCUT">    500.00000000</i>
  <i type="logical" name="LREAL"> F  </i>
  <i type="int" name="ISMEAR">     0</i>
  <i name="SIGMA">      0.01000000</i>
  <i type="logical" name="LWAVE"> F  </i>
  <i type="logical" name="LCHARG"> F  </i>
 </incar>
 <kpoints>
  <generation param="Auto">
   <i name="subdivisionlength">     50.00000000</i>
   <v type="int" name="divisions">      12      12      12</v>
   <v name="usershift">      0.00000000      0.00000000      0.00000000</v>
   <v name="genvec1">      0.08333333      0.00000000      0.00000000</v>
   <v name="genvec2">      0.00000000      0.08333333      0.00000000</v>
   <v name="genvec3">      0.00000000      0.00000000      0.08333333</v>
   <v name="shift">      0.00000000      0.00000000      0.00000000</v>
  </generation>
  <varray name="kpointlist" >
   <v>       0.00000000      0.00000000      0.00000000</v>
   <v>       0.08333333      0.00000000      0.00000000</v>
   <v>       0.16666667      0.00000000      0.00000000</v>
   <v>       0.25000000      0.00000000      0.00000000</v>
   <v>       0.33333333      0.00000000      0.00000000</v>
   <v>       0.41666667      0.00000000      0.00000000</v>
   <v>       0.50000000      0.00000000      0.00000000</v>
   <v>       0.08333333      0.08333333      0.00000000</v>
   <v>       0.16666667      0.08333333      0.00000000</v>
   <v>       0.25000000      0.08333333      0.00000000</v>
   <v>       0.33333333      0.08333333      0.00000000</v>
   <v>       0.41666667      0.08333333      0.00000000</v>
   <v>       0.50000000      0.08333333      0.00000000</v>
   <v>       0.16666667      0.16666667      0.00000000</v>
   <v>       0.25000000      0.16666667      0.00000000</v>
   <v>       0.33333333      0.16666667      0.00000000</v>
   <v>       0.41666667      0.16666667      0.00000000</v>
   <v>       0.50000000      0.16666667      0.00000000</v>
   <v>       0.25000000      0.25000000      0.00000000</v>
   <v>       0.33333333      0.25000000      0.00000000</v>
   <v>       0.41666667      0.25000000      0.00000000</v>
   <v>       0.50000000      0.25000000      0.00000000</v>
   <v>       0.33333333      0.33333333      0.00000000</v>
   <v>       0.41666667      0.33333333      0.00000000</v>
   <v>       0.50000000      0.33333333      0.00000000</v>
   <v>       0.41666667      0.41666667      0.00000000</v>
   <v>       0.50000000      0.41666667      0.00000000</v>
   <v>       0.50000000      0.50000000      0.00000000</v>
   <v>       0.08333333      0.08333333      0.08333333</v>
   <v>       0.16666667      0.08333333      0.08333333</v>
   <v>       0.25000000      0.08333333      0.08333333</v>
   <v>       0.33333333      0.08333333      0.08333333</v>
   <v>       0.41666667      0.08333333      0.08333333</v>
   <v>       0.50000000      0.08333333      0.08333333</v>
   <v>       0.16666667      0.16666667      0.08333333</v>
   <v>       0.25000000      0.16666667      0.08333333</v>
   <v>       0.33333333      0.16666667      0.08333333</v>
   <v>       0.41666667      0.16666667      0.08333333</v>
   <v>       0.50000000      0.16666667      0.08333333</v>
   <v>       0.25000000      0.25000000      0.08333333</v>
   <v>       0.33333333      0.25000000      0.08333333</v>
   <v>       0.41666667      0.25000000      0.08333333</v>
   <v>       0.50000000      0.25000000      0.08333333</v>
   <v>       0.33333333      0.33333333      0.08333333</v>
   <v>       0.41666667      0.33333333      0.08333333</v>
   <v>       0.50000000      0.33333333      0.08333333</v>
   <v>       0.41666667      0.41666667      0.08333333</v>
   <v>       0.50000000      0.41666667      0.08333333</v>
   <v>       0.50000000      0.50000000      0.08333333</v>
   <v>       0.16666667      0.16666667      0.16666667</v>
   <v>       0.25000000      0.16666667      0.16666667</v>
   <v>       0.33333333      0.16666667      0.16666667</v>
   <v>       0.41666667      0.16666667      0.16666667</v>
   <v>       0.50000000      0.16666667      0.16666667</v>
   <v>       0.25000000      0.25000000      0.16666667</v>
   <v>       0.33333333      0.25000000      0.16666667</v>
   <v>       0.41666667      0.25000000      0.16666667</v>
   <v>       0.50000000      0.25000000      0.16666667</v>
   <v>       0.33333333      0.33333333      0.16666667</v>
   <v>       0.41666667      0.33333333      0.16666667</v>
   <v>       0.50000000      0.33333333      0.16666667</v>
   <v>       0.41666667      0.41666667      0.16666667</v>
   <v>       0.50000000      0.41666667      0.16666667</v>
   <v>       0.50000000      0.50000000      0.16666667</v>
   <v>       0.25000000      0.25000000      0.25000000</v>
   <v>       0.33333333      0.25000000      0.25000000</v>
   <v>       0.41666667      0.25000000      0.25000000</v>
   <v>       0.50000000      0.25000000      0.25000000</v>
   <v>       0.33333333      0.33333333      0.25000000</v>
   <v>       0.41666667      0.33333333      0.25000000</v>
   <v>       0.50000000      0.33333333      0.25000000</v>
   <v>       0.41666667      0.41666667      0.25000000</v>
   <v>       0.50000000      0.41666667      0.25000000</v>
   <v>       0.50000000      0.50000000      0.25000000</v>
   <v>       0.33333333      0.33333333      0.33333333</v>
   <v>       0.41666667      0.33333333      0.33333333</v>
   <v>       0.50000000      0.33333333      0.33333333</v>
   <v>       0.41666667      0.41666667      0.33333333</v>
   <v>       0.50000000      0.41666667      0.33333333</v>
   <v>       0.50000000      0.50000000      0.33333333</v>
   <v>       0.41666667      0.41666667      0.41666667</v>
   <v>       0.50000000      0.41666667      0.41666667</v>
   <v>       0.50000000      0.50000000      0.41666667</v>
   <v>       0.50000000      0.50000000      0.50000000</v>
  </varray>
  <varray name="weights" >
   <v>       0.00057870</v>
   <v>       0.00347222</v>
   <v>       0.00347222</v>
   <v>       0.00347222</v>
   <v>       0.00347222</v>
   <v>       0.00347222</v>
   <v>       0.00173611</v>
   <v>       0.00694444</v>
   <v>       0.01388889</v>
   <v>       0.01388889</v>
   <v>       0.01388889</v>
   <v>       0.01388889</v>
   <v>       0.00694444</v>
   <v>       0.00694444</v>
   <v>       0.01388889</v>
   <v>       0.01388889</v>
   <v>       0.01388889</v>
   <v>       0.00694444</v>
   <v>       0.00694444</v>
   <v>       0.01388889</v>
   <v>       0.01388889</v>
   <v>       0.00694444</v>
   <v>       0.00694444</v>
   <v>       0.01388889</v>
   <v>       0.00694444</v>
   <v>       0.00694444</v>
   <v>       0.00694444</v>
   <v>       0.00173611</v>
   <v>       0.00462963</v>
   <v>       0.01388889</v>
   <v>       0.01388889</v>
   <v>       0.01388889</v>
   <v>       0.01388889</v>
   <v>       0.00694444</v>
   <v>       0.01388889</v>
   <v>       0.02777778</v>
   <v>       0.02777778</v>
   <v>       0.02777778</v>
   <v>       0.01388889</v>
   <v>       0.01388889</v>
   <v>       0.02777778</v>
   <v>       0.02777778</v>
   <v>       0.01388889</v>
   <v>       0.01388889</v>
   <v>       0.02777778</v>
   <v>       0.01388889</v>
   <v>       0.01388889</v>
   <v>       0.01388889</v>
   <v>       0.00347222</v>
   <v>       0.00462963</v>
   <v>       0.01388889</v>
   <v>       0.01388889</v>
   <v>       0.01388889</v>
   <v>       0.00694444</v>
   <v>       0.01388889</v>
   <v>       0.02777778</v>
   <v>       0.02777778</v>
   <v>       0.01388889</v>
   <v>       0.01388889</v>
   <v>       0.02777778</v>
   <v>       0.01388889</v>
   <v>       0.01388889</v>
   <v>       0.01388889</v>
   <v>       0.00347222</v>
   <v>       0.00462963</v>
   <v>       0.01388889</v>
   <v>       0.01388889</v>
   <v>       0.00694444</v>
   <v>       0.01388889</v>
   <v>       0.02777778</v>
   <v>       0.01388889</v>
   <v>       0.01388889</v>
   <v>       0.01388889</v>
   <v>       0.00347222</v>
   <v>       0.00462963</v>
   <v>       0.01388889</v>
   <v>       0.00694444</v>
   <v>       0.01388889</v>
   <v>       0.01388889</v>
   <v>       0.00347222</v>
   <v>       0.00462963</v>
   <v>       0.00694444</v>
   <v>       0.00347222</v>
   <v>       0.00057870</v>
  </varray>
 </kpoints>
 <parameters>
  <separator name="general" >
   <i type="string" name="SYSTEM">unknown system</i>
   <i type="logical" name="LCOMPAT"> F  </i>
  </separator>
  <separator name="electronic" >
   <i type="string" name="PREC">accura</i>
   <i name="ENMAX">    500.00000000</i>
   <i name="ENAUG">    291.05200000</i>
   <i name="EDIFF">      0.00000001</i>
   <i type="int" name="IALGO">    38</i>
   <i type="int" name="IWAVPR">    10</i>
   <i type="int" name="NBANDS">    10</i>
   <i name="NELECT">     12.00000000</i>
   <separator name="electronic smearing" >
    <i type="int" name="ISMEAR">     0</i>
    <i name="SIGMA">      0.01000000</i>
   </separator>
   <separator name="electronic projectors" >
    <i type="logical" name="LREAL"> F  </i>
    <v name="ROPT">      0.00000000</v>
    <i type="int" name="LMAXPAW">  -100</i>
    <i type="int" name="LMAXMIX">     2</i>
   </separator>
   <separator name="electronic startup" >
    <i type="int" name="ISTART">     0</i>
    <i type="int" name="ICHARG">     2</i>
    <i type="int" name="INIWAV">     1</i>
   </separator>
   <separator name="electronic spin" >
    <i type="int" name="ISPIN">     1</i>
    <i type="logical" name="LNONCOLLINEAR"> F  </i>
    <v name="MAGMOM">      1.00000000      1.00000000      1.00000000      1.00000000</v>
    <i name="NUPDOWN">     -1.00000000</i>
    <i type="logical" name="LSORBIT"> F  </i>
    <v name="SAXIS">      0.00000000      0.00000000      1.00000000</v>
    <i type="logical" name="LSPIRAL"> F  </i>
    <v name="QSPIRAL">      0.00000000      0.00000000      0.00000000</v>
    <i type="logical" name="LZEROZ"> F  </i>
   </separator>
   <separator name="electronic exchange-correlation" >
    <i type="string" name="GGA">--</i>
    <i type="int" name="VOSKOWN">     0</i>
    <i type="logical" name="LASPH"> F  </i>
    <i type="logical" name="LMETAGGA"> F  </i>
    <i type="string" name="GGA2">--</i>
   </separator>
   <separator name="electronic convergence" >
    <i type="int" name="NELM">    60</i>
    <i type="int" name="NELMDL">     0</i>
    <i type="int" name="NELMIN">     2</i>
    <i name="ENINI">    500.00000000</i>
    <separator name="electronic convergence detail" >
     <i type="logical" name="LDIAG"> T  </i>
     <i name="WEIMIN">      0.00000000</i>
     <i name="EBREAK">      0.00000000</i>
     <i name="DEPER">      0.30000000</i>
     <i type="int" name="NRMM">     4</i>
     <i name="TIME">      0.10000000</i>
    </separator>
   </separator>
   <separator name="electronic mixer" >
    <i name="AMIX">      0.40000000</i>
    <i name="BMIX">      1.00000000</i>
    <i name="AMIN">      0.10000000</i>
    <i name="AMIX_MAG">      1.60000000</i>
    <i name="BMIX_MAG">      1.00000000</i>
    <separator name="electronic mixer details" >
     <i type="int" name="IMIX">     4</i>
     <i type="int" name="MAXMIX">   -45</i>
     <i name="WC">    100.00000000</i>
     <i type="int" name="INIMIX">     1</i>
     <i type="int" name="MIXPRE">     1</i>
     <i type="int" name="MREMOVE">     5</i>
    </separator>
   </separator>
   <separator name="electronic dipolcorrection" >
    <i type="int" name="IDIPOL">     0</i>
    <i type="logical" name="LDIPOL"> F  </i>
    <v name="DIPOL">   -100.00000000</v>
    <i name="EFIELD">      0.00000000</i>
   </separator>
  </separator>
  <separator name="grids" >
   <i type="int" name="NGX">    32</i>
   <i type="int" name="NGY">    32</i>
   <i type="int" name="NGZ">    32</i>
   <i type="int" name="NGXF">    64</i>
   <i type="int" name="NGYF">    64</i>
   <i type="int" name="NGZF">    64</i>
   <i type="logical" name="ADDGRID"> F  </i>
  </separator>
  <separator name="ionic" >
   <i type="int" name="NSW">     0</i>
   <i type="int" name="IBRION">    -1</i>
   <i type="int" name="ISIF">     2</i>
   <i name="PSTRESS">      0.00000000</i>
   <i name="EDIFFG">      0.00000010</i>
   <i type="int" name="NFREE">     0</i>
   <i name="POTIM">      0.50000000</i>
   <i name="SMASS">     -3.00000000</i>
  </separator>
  <separator name="ionic md" >
   <i name="TEBEG">      0.00010000</i>
   <i name="TEEND">      0.00010000</i>
   <i type="int" name="NBLOCK">     1</i>
   <i type="int" name="KBLOCK">     1</i>
   <i type="int" name="NPACO">   256</i>
   <i name="APACO">     16.00000000</i>
  </separator>
  <separator name="symmetry" >
   <i type="int" name="ISYM">     2</i>
   <i name="SYMPREC">      0.00001000</i>
  </separator>
  <separator name="dos" >
   <i type="logical" name="LORBIT"> F  </i>
   <v name="RWIGS">     -1.00000000</v>
   <i type="int" name="NEDOS">   301</i>
   <i name="EMIN">     10.00000000</i>
   <i name="EMAX">    -10.00000000</i>
  </separator>
  <separator name="writing" >
   <i type="int" name="NWRITE">     2</i>
   <i type="logical" name="LWAVE"> F  </i>
   <i type="logical" name="LCHARG"> F  </i>
   <i type="logical" name="LPARD"> F  </i>
   <i type="logical" name="LVTOT"> F  </i>
   <i type="logical" name="LELF"> F  </i>
   <i type="logical" name="LOPTICS"> F  </i>
   <i name="STM">      0.00000000</i>
  </separator>
  <separator name="performance" >
   <i type="int" name="NPAR">     8</i>
   <i type="int" name="NSIM">     4</i>
   <i type="int" name="NBLK">   192</i>
   <i type="logical" name="LPLANE"> T  </i>
   <i type="logical" name="LCRITICAL_MEM"> F  </i>
   <i type="logical" name="LSCALAPACK"> F  </i>
   <i type="logical" name="LSCALU"> F  </i>
   <i type="logical" name="LASYNC"> F  </i>
  </separator>
  <separator name="miscellaneous" >
   <i type="int" name="IDIOT">     3</i>
   <i type="logical" name="LMUSIC"> F  </i>
   <v name="POMASS">     26.98200000</v>
   <i type="logical" name="LCORR"> T  </i>
  </separator>
  <i type="logical" name="LREAL_COMPAT"> F  </i>
  <i type="logical" name="GGA_COMPAT"> T  </i>
  <i type="logical" name="LBERRY"> F  </i>
  <i type="int" name="ICORELEVEL">     0</i>
  <i type="logical" name="LDAU"> F  </i>
  <i type="int" name="I_CONSTRAINED_M">     0</i>
 </parameters>
 <atominfo>
  <atoms>       4</atoms>
  <types>       1</types>
  <array name="atoms" >
   <dimension dim="1">ion</dimension>
   <field type="string">element</field>
   <field type="int">atomtype</field>
   <set>
    <rc><c>Al</c><c>   1</c></rc>
    <rc><c>Al</c><c>   1</c></rc>
    <rc><c>Al</c><c>   1</c></rc>
    <rc><c>Al</c><c>   1</c></rc>
   </set>
  </array>
  <array name="atomtypes" >
   <dimension dim="1">type</dimension>
   <field type="int">atomspertype</field>
   <field type="string">element</field>
   <field>mass</field>
   <field>valence</field>
   <field type="string">pseudopotential</field>
   <set>
    <rc><c>   4</c><c>Al</c><c>     26.98200000</c><c>      3.00000000</c><c> PAW_PBE Al 04Jan2001                   </c></rc>
   </set>
  </array>
 </atominfo>
 <structure name="initialpos" >
  <crystal>
   <varray name="basis" >
    <v>       4.23917169      0.00000000      0.00000000</v>
    <v>       0.00000000      4.23917169      0.00000000</v>
    <v>       0.00000000      0.00000000      4.23917169</v>
   </varray>
   <i name="volume">     76.18035955</i>
   <varray name="rec_basis" >
    <v>       0.23589514      0.00000000      0.00000000</v>
    <v>       0.00000000      0.23589514      0.00000000</v>
    <v>       0.00000000      0.00000000      0.23589514</v>
   </varray>
  </crystal>
  <varray name="positions" >
   <v>       0.50000000      0.50000000      0.00000000</v>
   <v>       0.50000000      0.00000000      0.50000000</v>
   <v>       0.00000000      0.50000000      0.50000000</v>
   <v>       0.00000000      0.00000000      0.00000000</v>
  </varray>
 </structure>
 <calculation>
  <scstep>
   <time name="dav">    0.91    0.94</time>
   <time name="total">    0.93    0.96</time>
   <energy>
    <i name="alphaZ">     -0.70544419</i>
    <i name="ewald">   -280.33275957</i>
    <i name="hartreedc">     -0.71337382</i>
    <i name="XCdc">   -105.96154953</i>
    <i name="pawpsdc">    142.21701965</i>
    <i name="pawaedc">    -14.39593217</i>
    <i name="eentropy">     -0.00013427</i>
    <i name="bandstr">     49.80468985</i>
    <i name="atom">    214.15364153</i>
    <i name="e_fr_energy">      4.06615748</i>
    <i name="e_wo_entrp">      4.06629175</i>
    <i name="e_0_energy">      4.06622461</i>
   </energy>
  </scstep>
  <scstep>
   <time name="dav">    1.12    1.12</time>
   <time name="total">    1.12    1.12</time>
   <energy>
    <i name="e_fr_energy">    -14.16501611</i>
    <i name="e_wo_entrp">    -14.16493016</i>
    <i name="e_0_energy">    -14.16497314</i>
   </energy>
  </scstep>
  <scstep>
   <time name="dav">    1.11    1.11</time>
   <time name="total">    1.11    1.11</time>
   <energy>
    <i name="e_fr_energy">    -14.75972455</i>
    <i name="e_wo_entrp">    -14.75963086</i>
    <i name="e_0_energy">    -14.75967770</i>
   </energy>
  </scstep>
  <scstep>
   <time name="dav">    1.07    1.07</time>
   <time name="total">    1.07    1.08</time>
   <energy>
    <i name="e_fr_energy">    -14.76382427</i>
    <i name="e_wo_entrp">    -14.76373090</i>
    <i name="e_0_energy">    -14.76377758</i>
   </energy>
  </scstep>
  <scstep>
   <time name="dav">    1.10    1.10</time>
   <time name="total">    1.15    1.15</time>
   <energy>
    <i name="e_fr_energy">    -14.76387913</i>
    <i name="e_wo_entrp">    -14.76378576</i>
    <i name="e_0_energy">    -14.76383245</i>
   </energy>
  </scstep>
  <scstep>
   <time name="dav">    1.04    1.04</time>
   <time name="total">    1.10    1.10</time>
   <energy>
    <i name="e_fr_energy">    -14.71556201</i>
    <i name="e_wo_entrp">    -14.71547395</i>
    <i name="e_0_energy">    -14.71551798</i>
   </energy>
  </scstep>
  <scstep>
   <time name="dav">    0.99    0.99</time>
   <time name="total">    1.05    1.05</time>
   <energy>
    <i name="e_fr_energy">    -14.68095518</i>
    <i name="e_wo_entrp">    -14.68088255</i>
    <i name="e_0_energy">    -14.68091887</i>
   </energy>
  </scstep>
  <scstep>
   <time name="dav">    1.10    1.10</time>
   <time name="total">    1.16    1.16</time>
   <energy>
    <i name="e_fr_energy">    -14.68093787</i>
    <i name="e_wo_entrp">    -14.68086551</i>
    <i name="e_0_energy">    -14.68090169</i>
   </energy>
  </scstep>
  <scstep>
   <time name="dav">    1.09    1.09</time>
   <time name="total">    1.16    1.16</time>
   <energy>
    <i name="e_fr_energy">    -14.68094017</i>
    <i name="e_wo_entrp">    -14.68086805</i>
    <i name="e_0_energy">    -14.68090411</i>
   </energy>
  </scstep>
  <scstep>
   <time name="dav">    1.12    1.12</time>
   <time name="total">    1.18    1.18</time>
   <energy>
    <i name="e_fr_energy">    -14.68093880</i>
    <i name="e_wo_entrp">    -14.68086669</i>
    <i name="e_0_energy">    -14.68090274</i>
   </energy>
  </scstep>
  <scstep>
   <time name="dav">    0.85    0.85</time>
   <time name="total">    0.92    0.92</time>
   <energy>
    <i name="e_fr_energy">    -14.68093867</i>
    <i name="e_wo_entrp">    -14.68086656</i>
    <i name="e_0_energy">    -14.68090262</i>
   </energy>
  </scstep>
  <scstep>
   <time name="dav">    0.76    0.76</time>
   <time name="total">    0.83    0.83</time>
   <energy>
    <i name="e_fr_energy">    -14.68093870</i>
    <i name="e_wo_entrp">    -14.68086660</i>
    <i name="e_0_energy">    -14.68090265</i>
   </energy>
  </scstep>
  <scstep>
   <time name="dav">    0.67    0.67</time>
   <time name="total">    0.70    0.70</time>
   <energy>
    <i name="alphaZ">     -0.70544419</i>
    <i name="ewald">   -280.33275957</i>
    <i name="hartreedc">     -0.41298878</i>
    <i name="XCdc">   -105.65315151</i>
    <i name="pawpsdc">    141.31189056</i>
    <i name="pawaedc">    -13.46881238</i>
    <i name="eentropy">     -0.00007210</i>
    <i name="bandstr">     30.42675774</i>
    <i name="atom">    214.15364153</i>
    <i name="e_fr_energy">    -14.68093870</i>
    <i name="e_wo_entrp">    -14.68086660</i>
    <i name="e_0_energy">    -14.68090265</i>
   </energy>
  </scstep>
  <structure>
   <crystal>
    <varray name="basis" >
     <v>       4.23917169      0.00000000      0.00000000</v>
     <v>       0.00000000      4.23917169      0.00000000</v>
     <v>       0.00000000      0.00000000      4.23917169</v>
    </varray>
    <i name="volume">     76.18035955</i>
    <varray name="rec_basis" >
     <v>       0.23589514      0.00000000      0.00000000</v>
     <v>       0.00000000      0.23589514      0.00000000</v>
     <v>       0.00000000      0.00000000      0.23589514</v>
    </varray>
   </crystal>
   <varray name="positions" >
    <v>       0.50000000      0.50000000      0.00000000</v>
    <v>       0.50000000      0.00000000      0.50000000</v>
    <v>       0.00000000      0.50000000      0.50000000</v>
    <v>       0.00000000      0.00000000      0.00000000</v>
   </varray>
  </structure>
  <varray name="forces" >
   <v>       0.00000000      0.00000000      0.00000000</v>
   <v>       0.00000000      0.00000000      0.00000000</v>
   <v>       0.00000000      0.00000000      0.00000000</v>
   <v>       0.00000000     -0.00000000      0.00000000</v>
  </varray>
  <varray name="stress" >
   <v>     -77.96848740     -0.00000000      0.00000000</v>
   <v>      -0.00000000    -77.96848740      0.00000000</v>
   <v>      -0.00000000     -0.00000000    -77.96848740</v>
  </varray>
  <energy>
   <i name="e_fr_energy">    -14.68093870</i>
   <i name="e_wo_entrp">    -14.68090265</i>
   <i name="e_0_energy">     -0.00007210</i>
  </energy>
  <eigenvalues>
   <array>
    <dimension dim="1">band</dimension>
    <dimension dim="2">kpoint</dimension>
    <dimension dim="3">spin</dimension>
    <field>eigene</field>
    <field>occ</field>
    <set>
     <set comment="spin 1">
      <set comment="kpoint 1">
       <r>  -3.5982  1.0000</r>
       <r>   4.0042  1.0000</r>
       <r>   4.0042  1.0000</r>
       <r>   4.0042  1.0000</r>
       <r>   4.9684  1.0000</r>
       <r>   4.9684  1.0000</r>
       <r>   4.9684  1.0000</r>
       <r>  11.5514  0.0000</r>
       <r>  11.5514  0.0000</r>
       <r>  11.5514  0.0000</r>
       <r>  11.5514  0.0000</r>
       <r>  11.5514  0.0000</r>
       <r>  11.5514  0.0000</r>
       <r>  11.8002  0.0000</r>
       <r>  11.8002  0.0000</r>
       <r>  11.8002  0.0000</r>
      </set>
      <set comment="kpoint 2">
       <r>  -3.5410  1.0000</r>
       <r>   3.1339  1.0000</r>
       <r>   4.0573  1.0000</r>
       <r>   4.0573  1.0000</r>
       <r>   5.0247  1.0000</r>
       <r>   5.0247  1.0000</r>
       <r>   5.9394  1.0000</r>
       <r>  10.4436  0.0000</r>
       <r>  10.4436  0.0000</r>
       <r>  11.1174  0.0000</r>
       <r>  11.1174  0.0000</r>
       <r>  11.6012  0.0000</r>
       <r>  11.6012  0.0000</r>
       <r>  11.8565  0.0000</r>
       <r>  13.0135  0.0000</r>
       <r>  13.0135  0.0000</r>
      </set>
      <set comment="kpoint 3">
       <r>  -3.3696  1.0000</r>
       <r>   2.0115  1.0000</r>
       <r>   4.2166  1.0000</r>
       <r>   4.2166  1.0000</r>
       <r>   5.1933  1.0000</r>
       <r>   5.1933  1.0000</r>
       <r>   7.3633  0.0000</r>
       <r>   9.3268  0.0000</r>
       <r>   9.3268  0.0000</r>
       <r>  10.2559  0.0000</r>
       <r>  10.2559  0.0000</r>
       <r>  11.7505  0.0000</r>
       <r>  11.7505  0.0000</r>
       <r>  12.0254  0.0000</r>
       <r>  14.4465  0.0000</r>
       <r>  14.4466  0.0000</r>
      </set>
      <set comment="kpoint 4">
       <r>  -3.0842  1.0000</r>
       <r>   0.9665  1.0000</r>
       <r>   4.4823  1.0000</r>
       <r>   4.4823  1.0000</r>
       <r>   5.4733  1.0000</r>
       <r>   5.4733  1.0000</r>
       <r>   8.3147  0.0000</r>
       <r>   8.3147  0.0000</r>
       <r>   8.9092  0.0000</r>
       <r>   9.3365  0.0000</r>
       <r>   9.3365  0.0000</r>
       <r>  11.9994  0.0000</r>
       <r>  11.9994  0.0000</r>
       <r>  12.3064  0.0000</r>
       <r>  14.9058  0.0000</r>
       <r>  15.5756  0.0000</r>
      </set>
      <set comment="kpoint 5">
       <r>  -2.6856  1.0000</r>
       <r>   0.0209  1.0000</r>
       <r>   4.8544  1.0000</r>
       <r>   4.8544  1.0000</r>
       <r>   5.8633  1.0000</r>
       <r>   5.8633  1.0000</r>
       <r>   7.4091  0.0000</r>
       <r>   7.4091  0.0000</r>
       <r>   8.4627  0.0000</r>
       <r>   8.4627  0.0000</r>
       <r>  10.5522  0.0000</r>
       <r>  12.3479  0.0000</r>
       <r>  12.3479  0.0000</r>
       <r>  12.6989  0.0000</r>
       <r>  14.7343  0.0000</r>
       <r>  14.7343  0.0000</r>
      </set>
      <set comment="kpoint 6">
       <r>  -2.1744  1.0000</r>
       <r>  -0.8196  1.0000</r>
       <r>   5.3329  1.0000</r>
       <r>   5.3329  1.0000</r>
       <r>   6.3610  1.0000</r>
       <r>   6.3610  1.0000</r>
       <r>   6.6102  0.1133</r>
       <r>   6.6102  0.1133</r>
       <r>   7.6675  0.0000</r>
       <r>   7.6675  0.0000</r>
       <r>  12.2791  0.0000</r>
       <r>  12.7959  0.0000</r>
       <r>  12.7959  0.0000</r>
       <r>  13.2015  0.0000</r>
       <r>  13.9896  0.0000</r>
       <r>  13.9896  0.0000</r>
      </set>
      <set comment="kpoint 7">
       <r>  -1.5520  1.0000</r>
       <r>  -1.5520  1.0000</r>
       <r>   5.9182  1.0000</r>
       <r>   5.9182  1.0000</r>
       <r>   5.9182  1.0000</r>
       <r>   5.9182  1.0000</r>
       <r>   6.9402  0.0000</r>
       <r>   6.9402  0.0000</r>
       <r>   6.9882  0.0000</r>
       <r>   6.9882  0.0000</r>
       <r>  13.3433  0.0000</r>
       <r>  13.3433  0.0000</r>
       <r>  13.3433  0.0000</r>
       <r>  13.3433  0.0000</r>
       <r>  13.8123  0.0000</r>
       <r>  13.8123  0.0000</r>
      </set>
      <set comment="kpoint 8">
       <r>  -3.4839  1.0000</r>
       <r>   3.1884  1.0000</r>
       <r>   3.1884  1.0000</r>
       <r>   4.1104  1.0000</r>
       <r>   5.0809  1.0000</r>
       <r>   5.9942  1.0000</r>
       <r>   5.9942  1.0000</r>
       <r>   9.5808  0.0000</r>
       <r>  10.4965  0.0000</r>
       <r>  10.4965  0.0000</r>
       <r>  11.1681  0.0000</r>
       <r>  11.1681  0.0000</r>
       <r>  11.6512  0.0000</r>
       <r>  12.9212  0.0000</r>
       <r>  13.0667  0.0000</r>
       <r>  13.0667  0.0000</r>
      </set>
      <set comment="kpoint 9">
       <r>  -3.3125  1.0000</r>
       <r>   2.0666  1.0000</r>
       <r>   3.3519  1.0000</r>
       <r>   4.2698  1.0000</r>
       <r>   5.2493  1.0000</r>
       <r>   6.1585  1.0000</r>
       <r>   7.4174  0.0000</r>
       <r>   8.5042  0.0000</r>
       <r>   9.3798  0.0000</r>
       <r>  10.3077  0.0000</r>
       <r>  10.6549  0.0000</r>
       <r>  11.1137  0.0000</r>
       <r>  11.3200  0.0000</r>
       <r>  13.2263  0.0000</r>
       <r>  13.9098  0.0000</r>
       <r>  14.4993  0.0000</r>
      </set>
      <set comment="kpoint 10">
       <r>  -3.0272  1.0000</r>
       <r>   1.0221  1.0000</r>
       <r>   3.6240  1.0000</r>
       <r>   4.5354  1.0000</r>
       <r>   5.5291  1.0000</r>
       <r>   6.4317  1.0000</r>
       <r>   7.5018  0.0000</r>
       <r>   8.3678  0.0000</r>
       <r>   8.9625  0.0000</r>
       <r>   9.3893  0.0000</r>
       <r>  10.2296  0.0000</r>
       <r>  10.9186  0.0000</r>
       <r>  11.5729  0.0000</r>
       <r>  13.4921  0.0000</r>
       <r>  14.6696  0.0000</r>
       <r>  15.1464  0.0000</r>
      </set>
      <set comment="kpoint 11">
       <r>  -2.6287  1.0000</r>
       <r>   0.0768  1.0000</r>
       <r>   4.0044  1.0000</r>
       <r>   4.9075  1.0000</r>
       <r>   5.9184  1.0000</r>
       <r>   6.5951  0.8218</r>
       <r>   6.8129  0.0000</r>
       <r>   7.4622  0.0000</r>
       <r>   8.5163  0.0000</r>
       <r>   9.3685  0.0000</r>
       <r>  10.6044  0.0000</r>
       <r>  11.2874  0.0000</r>
       <r>  11.9266  0.0000</r>
       <r>  13.7942  0.0000</r>
       <r>  13.8637  0.0000</r>
       <r>  14.3182  0.0000</r>
      </set>
      <set comment="kpoint 12">
       <r>  -2.1178  1.0000</r>
       <r>  -0.7634  1.0000</r>
       <r>   4.4926  1.0000</r>
       <r>   5.3861  1.0000</r>
       <r>   5.7884  1.0000</r>
       <r>   6.4173  1.0000</r>
       <r>   6.6634  0.0000</r>
       <r>   7.3001  0.0000</r>
       <r>   7.7220  0.0000</r>
       <r>   8.5840  0.0000</r>
       <r>  11.7604  0.0000</r>
       <r>  12.3087  0.0000</r>
       <r>  12.4023  0.0000</r>
       <r>  13.0155  0.0000</r>
       <r>  13.5767  0.0000</r>
       <r>  14.3404  0.0000</r>
      </set>
      <set comment="kpoint 13">
       <r>  -1.4955  1.0000</r>
       <r>  -1.4955  1.0000</r>
       <r>   5.0877  1.0000</r>
       <r>   5.0877  1.0000</r>
       <r>   5.9713  1.0000</r>
       <r>   5.9713  1.0000</r>
       <r>   7.0189  0.0000</r>
       <r>   7.0189  0.0000</r>
       <r>   7.8926  0.0000</r>
       <r>   7.8926  0.0000</r>
       <r>  12.3369  0.0000</r>
       <r>  12.3369  0.0000</r>
       <r>  12.9281  0.0000</r>
       <r>  12.9281  0.0000</r>
       <r>  14.1264  0.0000</r>
       <r>  14.1264  0.0000</r>
      </set>
      <set comment="kpoint 14">
       <r>  -3.1413  1.0000</r>
       <r>   2.2319  1.0000</r>
       <r>   2.2319  1.0000</r>
       <r>   4.4291  1.0000</r>
       <r>   5.4173  1.0000</r>
       <r>   7.4269  0.0000</r>
       <r>   7.5793  0.0000</r>
       <r>   7.5793  0.0000</r>
       <r>   9.5390  0.0000</r>
       <r>   9.5390  0.0000</r>
       <r>  10.4631  0.0000</r>
       <r>  10.4631  0.0000</r>
       <r>  11.9504  0.0000</r>
       <r>  13.4781  0.0000</r>
       <r>  14.5743  0.0000</r>
       <r>  14.6576  0.0000</r>
      </set>
      <set comment="kpoint 15">
       <r>  -2.8564  1.0000</r>
       <r>   1.1886  1.0000</r>
       <r>   2.5070  1.0000</r>
       <r>   4.6948  1.0000</r>
       <r>   5.6958  1.0000</r>
       <r>   6.4197  1.0000</r>
       <r>   7.8486  0.0000</r>
       <r>   8.5272  0.0000</r>
       <r>   9.1222  0.0000</r>
       <r>   9.5475  0.0000</r>
       <r>   9.8040  0.0000</r>
       <r>  10.7216  0.0000</r>
       <r>  11.5123  0.0000</r>
       <r>  13.5920  0.0000</r>
       <r>  14.3199  0.0000</r>
       <r>  14.4672  0.0000</r>
      </set>
      <set comment="kpoint 16">
       <r>  -2.4583  1.0000</r>
       <r>   0.2444  1.0000</r>
       <r>   2.8916  1.0000</r>
       <r>   5.0670  1.0000</r>
       <r>   5.5041  1.0000</r>
       <r>   6.0869  1.0000</r>
       <r>   7.6217  0.0000</r>
       <r>   8.2240  0.0000</r>
       <r>   8.6769  0.0000</r>
       <r>  10.1748  0.0000</r>
       <r>  10.7225  0.0000</r>
       <r>  10.7593  0.0000</r>
       <r>  11.0847  0.0000</r>
       <r>  12.7044  0.0000</r>
       <r>  13.4977  0.0000</r>
       <r>  15.2886  0.0000</r>
      </set>
      <set comment="kpoint 17">
       <r>  -1.9479  1.0000</r>
       <r>  -0.5949  1.0000</r>
       <r>   3.3848  1.0000</r>
       <r>   4.6930  1.0000</r>
       <r>   5.5456  1.0000</r>
       <r>   6.5825  0.9966</r>
       <r>   6.8229  0.0000</r>
       <r>   7.8836  0.0000</r>
       <r>   8.7046  0.0000</r>
       <r>   9.9634  0.0000</r>
       <r>  10.6510  0.0000</r>
       <r>  11.5404  0.0000</r>
       <r>  11.9169  0.0000</r>
       <r>  12.4885  0.0000</r>
       <r>  12.7543  0.0000</r>
       <r>  15.7591  0.0000</r>
      </set>
      <set comment="kpoint 18">
       <r>  -1.3263  1.0000</r>
       <r>  -1.3263  1.0000</r>
       <r>   3.9857  1.0000</r>
       <r>   3.9857  1.0000</r>
       <r>   6.1308  1.0000</r>
       <r>   6.1308  1.0000</r>
       <r>   7.1832  0.0000</r>
       <r>   7.1832  0.0000</r>
       <r>   9.2861  0.0000</r>
       <r>   9.2861  0.0000</r>
       <r>  11.2319  0.0000</r>
       <r>  11.2319  0.0000</r>
       <r>  12.1001  0.0000</r>
       <r>  12.1001  0.0000</r>
       <r>  14.2789  0.0000</r>
       <r>  14.2789  0.0000</r>
      </set>
      <set comment="kpoint 19">
       <r>  -2.5719  1.0000</r>
       <r>   1.4658  1.0000</r>
       <r>   1.4658  1.0000</r>
       <r>   4.9606  1.0000</r>
       <r>   5.4031  1.0000</r>
       <r>   5.9764  1.0000</r>
       <r>   8.7928  0.0000</r>
       <r>   8.7928  0.0000</r>
       <r>   9.3871  0.0000</r>
       <r>   9.3871  0.0000</r>
       <r>   9.8110  0.0000</r>
       <r>   9.8110  0.0000</r>
       <r>  12.4488  0.0000</r>
       <r>  12.5993  0.0000</r>
       <r>  13.4482  0.0000</r>
       <r>  14.0864  0.0000</r>
      </set>
      <set comment="kpoint 20">
       <r>  -2.1746  1.0000</r>
       <r>   0.5233  1.0000</r>
       <r>   1.8532  1.0000</r>
       <r>   4.4847  1.0000</r>
       <r>   5.3328  1.0000</r>
       <r>   6.3629  1.0000</r>
       <r>   7.8875  0.0000</r>
       <r>   8.9429  0.0000</r>
       <r>   9.1644  0.0000</r>
       <r>   9.7578  0.0000</r>
       <r>  10.1758  0.0000</r>
       <r>  11.0235  0.0000</r>
       <r>  11.7050  0.0000</r>
       <r>  12.1255  0.0000</r>
       <r>  12.6227  0.0000</r>
       <r>  15.1455  0.0000</r>
      </set>
      <set comment="kpoint 21">
       <r>  -1.6651  1.0000</r>
       <r>  -0.3145  1.0000</r>
       <r>   2.3500  1.0000</r>
       <r>   3.6675  1.0000</r>
       <r>   5.8114  1.0000</r>
       <r>   6.8572  0.0000</r>
       <r>   7.0888  0.0000</r>
       <r>   8.1535  0.0000</r>
       <r>   9.6419  0.0000</r>
       <r>  10.2288  0.0000</r>
       <r>  10.6439  0.0000</r>
       <r>  10.9130  0.0000</r>
       <r>  11.4460  0.0000</r>
       <r>  11.8727  0.0000</r>
       <r>  12.7400  0.0000</r>
       <r>  16.3125  0.0000</r>
      </set>
      <set comment="kpoint 22">
       <r>  -1.0446  1.0000</r>
       <r>  -1.0446  1.0000</r>
       <r>   2.9552  1.0000</r>
       <r>   2.9552  1.0000</r>
       <r>   6.3967  1.0000</r>
       <r>   6.3967  1.0000</r>
       <r>   7.4557  0.0000</r>
       <r>   7.4557  0.0000</r>
       <r>  10.2249  0.0000</r>
       <r>  10.2249  0.0000</r>
       <r>  10.7962  0.0000</r>
       <r>  10.7962  0.0000</r>
       <r>  11.2108  0.0000</r>
       <r>  11.2108  0.0000</r>
       <r>  14.5189  0.0000</r>
       <r>  14.5189  0.0000</r>
      </set>
      <set comment="kpoint 23">
       <r>  -1.7782  1.0000</r>
       <r>   0.9130  1.0000</r>
       <r>   0.9130  1.0000</r>
       <r>   3.5602  1.0000</r>
       <r>   5.7050  1.0000</r>
       <r>   6.7481  0.0000</r>
       <r>   8.2595  0.0000</r>
       <r>   8.2595  0.0000</r>
       <r>   9.3144  0.0000</r>
       <r>   9.3144  0.0000</r>
       <r>  10.8065  0.0000</r>
       <r>  11.3841  0.0000</r>
       <r>  11.3841  0.0000</r>
       <r>  11.7903  0.0000</r>
       <r>  13.1457  0.0000</r>
       <r>  14.8741  0.0000</r>
      </set>
      <set comment="kpoint 24">
       <r>  -1.2700  1.0000</r>
       <r>   0.0773  1.0000</r>
       <r>   1.4128  1.0000</r>
       <r>   2.7381  1.0000</r>
       <r>   6.1837  1.0000</r>
       <r>   7.2399  0.0000</r>
       <r>   7.4610  0.0000</r>
       <r>   8.5293  0.0000</r>
       <r>   8.7377  0.0000</r>
       <r>   9.7886  0.0000</r>
       <r>  10.0117  0.0000</r>
       <r>  11.0324  0.0000</r>
       <r>  11.8407  0.0000</r>
       <r>  12.9427  0.0000</r>
       <r>  13.0863  0.0000</r>
       <r>  16.0060  0.0000</r>
      </set>
      <set comment="kpoint 25">
       <r>  -0.6511  1.0000</r>
       <r>  -0.6511  1.0000</r>
       <r>   2.0216  1.0000</r>
       <r>   2.0216  1.0000</r>
       <r>   6.7690  0.0000</r>
       <r>   6.7690  0.0000</r>
       <r>   7.8352  0.0000</r>
       <r>   7.8352  0.0000</r>
       <r>   9.3219  0.0000</r>
       <r>   9.3219  0.0000</r>
       <r>  10.3627  0.0000</r>
       <r>  10.3627  0.0000</r>
       <r>  12.3788  0.0000</r>
       <r>  12.3788  0.0000</r>
       <r>  14.8335  0.0000</r>
       <r>  14.8335  0.0000</r>
      </set>
      <set comment="kpoint 26">
       <r>  -0.7635  1.0000</r>
       <r>   0.5796  1.0000</r>
       <r>   0.5796  1.0000</r>
       <r>   1.9117  1.0000</r>
       <r>   6.6625  0.0000</r>
       <r>   7.7285  0.0000</r>
       <r>   7.9396  0.0000</r>
       <r>   7.9396  0.0000</r>
       <r>   9.0090  0.0000</r>
       <r>   9.0090  0.0000</r>
       <r>   9.2152  0.0000</r>
       <r>  10.2666  0.0000</r>
       <r>  13.5119  0.0000</r>
       <r>  13.5119  0.0000</r>
       <r>  14.0390  0.0000</r>
       <r>  15.8546  0.0000</r>
      </set>
      <set comment="kpoint 27">
       <r>  -0.1464  1.0000</r>
       <r>  -0.1464  1.0000</r>
       <r>   1.1916  1.0000</r>
       <r>   1.1916  1.0000</r>
       <r>   7.2478  0.0000</r>
       <r>   7.2478  0.0000</r>
       <r>   8.3197  0.0000</r>
       <r>   8.3197  0.0000</r>
       <r>   8.5244  0.0000</r>
       <r>   8.5244  0.0000</r>
       <r>   9.5896  0.0000</r>
       <r>   9.5896  0.0000</r>
       <r>  13.9578  0.0000</r>
       <r>  13.9578  0.0000</r>
       <r>  15.1615  0.0000</r>
       <r>  15.1615  0.0000</r>
      </set>
      <set comment="kpoint 28">
       <r>   0.4683  1.0000</r>
       <r>   0.4683  1.0000</r>
       <r>   0.4683  1.0000</r>
       <r>   0.4683  1.0000</r>
       <r>   7.8329  0.0000</r>
       <r>   7.8329  0.0000</r>
       <r>   7.8329  0.0000</r>
       <r>   7.8329  0.0000</r>
       <r>   8.9061  0.0000</r>
       <r>   8.9061  0.0000</r>
       <r>   8.9061  0.0000</r>
       <r>   8.9061  0.0000</r>
       <r>  15.1227  0.0000</r>
       <r>  15.1227  0.0000</r>
       <r>  15.1227  0.0000</r>
       <r>  15.1227  0.0000</r>
      </set>
      <set comment="kpoint 29">
       <r>  -3.4267  1.0000</r>
       <r>   3.2429  1.0000</r>
       <r>   3.2429  1.0000</r>
       <r>   3.2429  1.0000</r>
       <r>   6.0490  1.0000</r>
       <r>   6.0490  1.0000</r>
       <r>   6.0490  1.0000</r>
       <r>   9.6337  0.0000</r>
       <r>   9.6337  0.0000</r>
       <r>   9.6337  0.0000</r>
       <r>  11.7010  0.0000</r>
       <r>  11.7010  0.0000</r>
       <r>  11.7010  0.0000</r>
       <r>  12.9757  0.0000</r>
       <r>  12.9757  0.0000</r>
       <r>  12.9757  0.0000</r>
      </set>
      <set comment="kpoint 30">
       <r>  -3.2554  1.0000</r>
       <r>   2.1217  1.0000</r>
       <r>   3.4063  1.0000</r>
       <r>   3.4063  1.0000</r>
       <r>   6.2132  1.0000</r>
       <r>   6.2132  1.0000</r>
       <r>   7.4714  0.0000</r>
       <r>   8.5574  0.0000</r>
       <r>   8.5574  0.0000</r>
       <r>   9.7922  0.0000</r>
       <r>  11.1650  0.0000</r>
       <r>  11.1650  0.0000</r>
       <r>  11.8503  0.0000</r>
       <r>  13.1390  0.0000</r>
       <r>  13.9630  0.0000</r>
       <r>  13.9630  0.0000</r>
      </set>
      <set comment="kpoint 31">
       <r>  -2.9703  1.0000</r>
       <r>   1.0776  1.0000</r>
       <r>   3.6784  1.0000</r>
       <r>   3.6784  1.0000</r>
       <r>   6.4862  1.0000</r>
       <r>   6.4862  1.0000</r>
       <r>   7.5553  0.0000</r>
       <r>   7.5553  0.0000</r>
       <r>   9.0158  0.0000</r>
       <r>  10.0562  0.0000</r>
       <r>  10.2819  0.0000</r>
       <r>  10.2819  0.0000</r>
       <r>  12.0993  0.0000</r>
       <r>  13.4104  0.0000</r>
       <r>  13.7980  0.0000</r>
       <r>  15.4093  0.0000</r>
      </set>
      <set comment="kpoint 32">
       <r>  -2.5719  1.0000</r>
       <r>   0.1327  1.0000</r>
       <r>   4.0587  1.0000</r>
       <r>   4.0587  1.0000</r>
       <r>   6.6477  0.0000</r>
       <r>   6.6477  0.0000</r>
       <r>   6.8680  0.0000</r>
       <r>   6.8680  0.0000</r>
       <r>   9.4214  0.0000</r>
       <r>   9.4214  0.0000</r>
       <r>  10.4241  0.0000</r>
       <r>  10.6579  0.0000</r>
       <r>  12.4478  0.0000</r>
       <r>  12.9275  0.0000</r>
       <r>  13.7886  0.0000</r>
       <r>  14.8341  0.0000</r>
      </set>
      <set comment="kpoint 33">
       <r>  -2.0611  1.0000</r>
       <r>  -0.7072  1.0000</r>
       <r>   4.5466  1.0000</r>
       <r>   4.5466  1.0000</r>
       <r>   5.8431  1.0000</r>
       <r>   5.8431  1.0000</r>
       <r>   7.3548  0.0000</r>
       <r>   7.3548  0.0000</r>
       <r>   8.6375  0.0000</r>
       <r>   8.6375  0.0000</r>
       <r>  10.8976  0.0000</r>
       <r>  12.1512  0.0000</r>
       <r>  12.3821  0.0000</r>
       <r>  12.8959  0.0000</r>
       <r>  14.0897  0.0000</r>
       <r>  14.2726  0.0000</r>
      </set>
      <set comment="kpoint 34">
       <r>  -1.4391  1.0000</r>
       <r>  -1.4391  1.0000</r>
       <r>   5.1223  1.0000</r>
       <r>   5.1223  1.0000</r>
       <r>   5.1616  1.0000</r>
       <r>   5.1616  1.0000</r>
       <r>   7.9350  0.0000</r>
       <r>   7.9350  0.0000</r>
       <r>   7.9573  0.0000</r>
       <r>   7.9573  0.0000</r>
       <r>  11.4737  0.0000</r>
       <r>  11.4737  0.0000</r>
       <r>  13.4433  0.0000</r>
       <r>  13.4433  0.0000</r>
       <r>  14.1613  0.0000</r>
       <r>  14.1613  0.0000</r>
      </set>
      <set comment="kpoint 35">
       <r>  -3.0843  1.0000</r>
       <r>   2.2869  1.0000</r>
       <r>   2.2869  1.0000</r>
       <r>   3.5696  1.0000</r>
       <r>   6.3771  1.0000</r>
       <r>   7.4804  0.0000</r>
       <r>   7.6332  0.0000</r>
       <r>   7.6332  0.0000</r>
       <r>   8.7170  0.0000</r>
       <r>   8.7170  0.0000</r>
       <r>  11.3187  0.0000</r>
       <r>  11.3187  0.0000</r>
       <r>  12.0002  0.0000</r>
       <r>  13.5324  0.0000</r>
       <r>  13.7205  0.0000</r>
       <r>  14.1222  0.0000</r>
      </set>
      <set comment="kpoint 36">
       <r>  -2.7994  1.0000</r>
       <r>   1.2441  1.0000</r>
       <r>   2.5620  1.0000</r>
       <r>   3.8413  1.0000</r>
       <r>   6.4716  1.0000</r>
       <r>   6.6512  0.0000</r>
       <r>   7.7153  0.0000</r>
       <r>   7.9027  0.0000</r>
       <r>   8.9822  0.0000</r>
       <r>   9.1758  0.0000</r>
       <r>  10.4385  0.0000</r>
       <r>  11.5635  0.0000</r>
       <r>  11.5746  0.0000</r>
       <r>  12.7541  0.0000</r>
       <r>  14.3866  0.0000</r>
       <r>  14.5198  0.0000</r>
      </set>
      <set comment="kpoint 37">
       <r>  -2.4015  1.0000</r>
       <r>   0.3002  1.0000</r>
       <r>   2.9464  1.0000</r>
       <r>   4.2212  1.0000</r>
       <r>   5.5599  1.0000</r>
       <r>   6.8094  0.0000</r>
       <r>   7.0306  0.0000</r>
       <r>   8.2779  0.0000</r>
       <r>   9.3537  0.0000</r>
       <r>   9.5800  0.0000</r>
       <r>  10.7746  0.0000</r>
       <r>  10.8138  0.0000</r>
       <r>  11.8755  0.0000</r>
       <r>  11.9324  0.0000</r>
       <r>  14.3433  0.0000</r>
       <r>  14.7549  0.0000</r>
      </set>
      <set comment="kpoint 38">
       <r>  -1.8913  1.0000</r>
       <r>  -0.5388  1.0000</r>
       <r>   3.4394  1.0000</r>
       <r>   4.6955  1.0000</r>
       <r>   4.7616  1.0000</r>
       <r>   6.0048  1.0000</r>
       <r>   7.5171  0.0000</r>
       <r>   8.7552  0.0000</r>
       <r>   8.8001  0.0000</r>
       <r>   9.8300  0.0000</r>
       <r>  10.0161  0.0000</r>
       <r>  11.0928  0.0000</r>
       <r>  12.3790  0.0000</r>
       <r>  12.5472  0.0000</r>
       <r>  13.5978  0.0000</r>
       <r>  15.2250  0.0000</r>
      </set>
      <set comment="kpoint 39">
       <r>  -1.2699  1.0000</r>
       <r>  -1.2699  1.0000</r>
       <r>   4.0399  1.0000</r>
       <r>   4.0399  1.0000</r>
       <r>   5.3046  1.0000</r>
       <r>   5.3046  1.0000</r>
       <r>   8.1073  0.0000</r>
       <r>   8.1073  0.0000</r>
       <r>   9.3392  0.0000</r>
       <r>   9.3392  0.0000</r>
       <r>  10.4101  0.0000</r>
       <r>  10.4101  0.0000</r>
       <r>  12.9441  0.0000</r>
       <r>  12.9441  0.0000</r>
       <r>  14.3235  0.0000</r>
       <r>  14.3235  0.0000</r>
      </set>
      <set comment="kpoint 40">
       <r>  -2.5151  1.0000</r>
       <r>   1.5212  1.0000</r>
       <r>   1.5212  1.0000</r>
       <r>   4.1126  1.0000</r>
       <r>   5.4592  1.0000</r>
       <r>   6.9222  0.0000</r>
       <r>   7.9825  0.0000</r>
       <r>   7.9825  0.0000</r>
       <r>   9.4407  0.0000</r>
       <r>   9.4407  0.0000</r>
       <r>  10.6993  0.0000</r>
       <r>  10.6993  0.0000</r>
       <r>  11.7787  0.0000</r>
       <r>  12.4987  0.0000</r>
       <r>  14.1399  0.0000</r>
       <r>  14.3241  0.0000</r>
      </set>
      <set comment="kpoint 41">
       <r>  -2.1179  1.0000</r>
       <r>   0.5790  1.0000</r>
       <r>   1.9084  1.0000</r>
       <r>   4.4777  1.0000</r>
       <r>   4.5547  1.0000</r>
       <r>   7.0775  0.0000</r>
       <r>   7.3016  0.0000</r>
       <r>   8.3558  0.0000</r>
       <r>   9.8039  0.0000</r>
       <r>   9.8501  0.0000</r>
       <r>  10.8932  0.0000</r>
       <r>  11.0397  0.0000</r>
       <r>  11.0976  0.0000</r>
       <r>  12.1766  0.0000</r>
       <r>  13.5004  0.0000</r>
       <r>  15.1969  0.0000</r>
      </set>
      <set comment="kpoint 42">
       <r>  -1.6086  1.0000</r>
       <r>  -0.2585  1.0000</r>
       <r>   2.4050  1.0000</r>
       <r>   3.7216  1.0000</r>
       <r>   4.9808  1.0000</r>
       <r>   6.2738  1.0000</r>
       <r>   7.7868  0.0000</r>
       <r>   8.8346  0.0000</r>
       <r>   9.0634  0.0000</r>
       <r>  10.1051  0.0000</r>
       <r>  10.2816  0.0000</r>
       <r>  11.4978  0.0000</r>
       <r>  11.5262  0.0000</r>
       <r>  12.7509  0.0000</r>
       <r>  12.7913  0.0000</r>
       <r>  16.3457  0.0000</r>
      </set>
      <set comment="kpoint 43">
       <r>  -0.9884  1.0000</r>
       <r>  -0.9884  1.0000</r>
       <r>   3.0099  1.0000</r>
       <r>   3.0099  1.0000</r>
       <r>   5.5743  1.0000</r>
       <r>   5.5743  1.0000</r>
       <r>   8.3755  0.0000</r>
       <r>   8.3755  0.0000</r>
       <r>   9.4182  0.0000</r>
       <r>   9.4182  0.0000</r>
       <r>  10.8485  0.0000</r>
       <r>  10.8485  0.0000</r>
       <r>  12.0908  0.0000</r>
       <r>  12.0908  0.0000</r>
       <r>  14.5667  0.0000</r>
       <r>  14.5667  0.0000</r>
      </set>
      <set comment="kpoint 44">
       <r>  -1.7217  1.0000</r>
       <r>   0.9685  1.0000</r>
       <r>   0.9685  1.0000</r>
       <r>   3.6144  1.0000</r>
       <r>   4.8727  1.0000</r>
       <r>   7.4524  0.0000</r>
       <r>   7.4524  0.0000</r>
       <r>   7.6796  0.0000</r>
       <r>  10.0023  0.0000</r>
       <r>  10.2109  0.0000</r>
       <r>  10.2109  0.0000</r>
       <r>  11.4364  0.0000</r>
       <r>  11.4364  0.0000</r>
       <r>  12.6731  0.0000</r>
       <r>  13.1956  0.0000</r>
       <r>  14.9258  0.0000</r>
      </set>
      <set comment="kpoint 45">
       <r>  -1.2137  1.0000</r>
       <r>   0.1331  1.0000</r>
       <r>   1.4682  1.0000</r>
       <r>   2.7929  1.0000</r>
       <r>   5.3587  1.0000</r>
       <r>   6.6500  0.0000</r>
       <r>   7.9334  0.0000</r>
       <r>   8.1631  0.0000</r>
       <r>   9.2099  0.0000</r>
       <r>   9.4346  0.0000</r>
       <r>  10.6812  0.0000</r>
       <r>  11.8925  0.0000</r>
       <r>  11.9179  0.0000</r>
       <r>  12.9934  0.0000</r>
       <r>  13.1372  0.0000</r>
       <r>  16.0553  0.0000</r>
      </set>
      <set comment="kpoint 46">
       <r>  -0.5950  1.0000</r>
       <r>  -0.5950  1.0000</r>
       <r>   2.0767  1.0000</r>
       <r>   2.0767  1.0000</r>
       <r>   5.9516  1.0000</r>
       <r>   5.9516  1.0000</r>
       <r>   8.5196  0.0000</r>
       <r>   8.5196  0.0000</r>
       <r>   8.7494  0.0000</r>
       <r>   8.7494  0.0000</r>
       <r>  11.2515  0.0000</r>
       <r>  11.2515  0.0000</r>
       <r>  12.4301  0.0000</r>
       <r>  12.4301  0.0000</r>
       <r>  14.8819  0.0000</r>
       <r>  14.8819  0.0000</r>
      </set>
      <set comment="kpoint 47">
       <r>  -0.7073  1.0000</r>
       <r>   0.6353  1.0000</r>
       <r>   0.6353  1.0000</r>
       <r>   1.9669  1.0000</r>
       <r>   5.8440  1.0000</r>
       <r>   7.1327  0.0000</r>
       <r>   7.1327  0.0000</r>
       <r>   8.4142  0.0000</r>
       <r>   8.6441  0.0000</r>
       <r>   9.9091  0.0000</r>
       <r>   9.9091  0.0000</r>
       <r>  11.1567  0.0000</r>
       <r>  13.5624  0.0000</r>
       <r>  13.5624  0.0000</r>
       <r>  14.0888  0.0000</r>
       <r>  15.9034  0.0000</r>
      </set>
      <set comment="kpoint 48">
       <r>  -0.0905  1.0000</r>
       <r>  -0.0905  1.0000</r>
       <r>   1.2470  1.0000</r>
       <r>   1.2470  1.0000</r>
       <r>   6.4357  1.0000</r>
       <r>   6.4357  1.0000</r>
       <r>   7.7212  0.0000</r>
       <r>   7.7212  0.0000</r>
       <r>   9.2275  0.0000</r>
       <r>   9.2275  0.0000</r>
       <r>  10.4845  0.0000</r>
       <r>  10.4845  0.0000</r>
       <r>  14.0080  0.0000</r>
       <r>  14.0080  0.0000</r>
       <r>  15.2102  0.0000</r>
       <r>  15.2102  0.0000</r>
      </set>
      <set comment="kpoint 49">
       <r>   0.5240  1.0000</r>
       <r>   0.5240  1.0000</r>
       <r>   0.5240  1.0000</r>
       <r>   0.5240  1.0000</r>
       <r>   7.0259  0.0000</r>
       <r>   7.0259  0.0000</r>
       <r>   7.0259  0.0000</r>
       <r>   7.0259  0.0000</r>
       <r>   9.8073  0.0000</r>
       <r>   9.8073  0.0000</r>
       <r>   9.8073  0.0000</r>
       <r>   9.8073  0.0000</r>
       <r>  15.1718  0.0000</r>
       <r>  15.1718  0.0000</r>
       <r>  15.1718  0.0000</r>
       <r>  15.1718  0.0000</r>
      </set>
      <set comment="kpoint 50">
       <r>  -2.9133  1.0000</r>
       <r>   2.4520  1.0000</r>
       <r>   2.4520  1.0000</r>
       <r>   2.4520  1.0000</r>
       <r>   7.6405  0.0000</r>
       <r>   7.6405  0.0000</r>
       <r>   7.6405  0.0000</r>
       <r>   7.7954  0.0000</r>
       <r>   7.7954  0.0000</r>
       <r>   7.7954  0.0000</r>
       <r>  12.1496  0.0000</r>
       <r>  12.1496  0.0000</r>
       <r>  12.1496  0.0000</r>
       <r>  12.6775  0.0000</r>
       <r>  13.6951  0.0000</r>
       <r>  13.6951  0.0000</r>
      </set>
      <set comment="kpoint 51">
       <r>  -2.6288  1.0000</r>
       <r>   1.4104  1.0000</r>
       <r>   2.7267  1.0000</r>
       <r>   2.7267  1.0000</r>
       <r>   6.6344  0.0000</r>
       <r>   6.6344  0.0000</r>
       <r>   7.9082  0.0000</r>
       <r>   8.0638  0.0000</r>
       <r>   8.0638  0.0000</r>
       <r>   9.3350  0.0000</r>
       <r>  11.7035  0.0000</r>
       <r>  11.7171  0.0000</r>
       <r>  11.7171  0.0000</r>
       <r>  12.3987  0.0000</r>
       <r>  13.9646  0.0000</r>
       <r>  14.6769  0.0000</r>
      </set>
      <set comment="kpoint 52">
       <r>  -2.2313  1.0000</r>
       <r>   0.4675  1.0000</r>
       <r>   3.1106  1.0000</r>
       <r>   3.1106  1.0000</r>
       <r>   5.7223  1.0000</r>
       <r>   5.7223  1.0000</r>
       <r>   8.2818  0.0000</r>
       <r>   8.4386  0.0000</r>
       <r>   8.4386  0.0000</r>
       <r>  10.8190  0.0000</r>
       <r>  10.9309  0.0000</r>
       <r>  10.9309  0.0000</r>
       <r>  10.9705  0.0000</r>
       <r>  12.7475  0.0000</r>
       <r>  14.3388  0.0000</r>
       <r>  15.1327  0.0000</r>
      </set>
      <set comment="kpoint 53">
       <r>  -1.7217  1.0000</r>
       <r>  -0.3706  1.0000</r>
       <r>   3.6027  1.0000</r>
       <r>   3.6027  1.0000</r>
       <r>   4.9118  1.0000</r>
       <r>   4.9118  1.0000</r>
       <r>   8.7610  0.0000</r>
       <r>   8.9177  0.0000</r>
       <r>   8.9177  0.0000</r>
       <r>  10.0315  0.0000</r>
       <r>  10.1741  0.0000</r>
       <r>  10.1741  0.0000</r>
       <r>  12.6867  0.0000</r>
       <r>  13.1957  0.0000</r>
       <r>  14.3892  0.0000</r>
       <r>  14.8151  0.0000</r>
      </set>
      <set comment="kpoint 54">
       <r>  -1.1010  1.0000</r>
       <r>  -1.1010  1.0000</r>
       <r>   4.1659  1.0000</r>
       <r>   4.1659  1.0000</r>
       <r>   4.2424  1.0000</r>
       <r>   4.2424  1.0000</r>
       <r>   9.3447  0.0000</r>
       <r>   9.3447  0.0000</r>
       <r>   9.4852  0.0000</r>
       <r>   9.4852  0.0000</r>
       <r>   9.5112  0.0000</r>
       <r>   9.5112  0.0000</r>
       <r>  13.7431  0.0000</r>
       <r>  13.7431  0.0000</r>
       <r>  14.4489  0.0000</r>
       <r>  14.4489  0.0000</r>
      </set>
      <set comment="kpoint 55">
       <r>  -2.3448  1.0000</r>
       <r>   1.6871  1.0000</r>
       <r>   1.6871  1.0000</r>
       <r>   3.0009  1.0000</r>
       <r>   5.6219  1.0000</r>
       <r>   6.9033  0.0000</r>
       <r>   6.9033  0.0000</r>
       <r>   8.3319  0.0000</r>
       <r>   9.5998  0.0000</r>
       <r>   9.5998  0.0000</r>
       <r>  10.7222  0.0000</r>
       <r>  11.9727  0.0000</r>
       <r>  11.9727  0.0000</r>
       <r>  12.6482  0.0000</r>
       <r>  14.2994  0.0000</r>
       <r>  14.9373  0.0000</r>
      </set>
      <set comment="kpoint 56">
       <r>  -1.9481  1.0000</r>
       <r>   0.7460  1.0000</r>
       <r>   2.0739  1.0000</r>
       <r>   3.3837  1.0000</r>
       <r>   4.7045  1.0000</r>
       <r>   5.9925  1.0000</r>
       <r>   7.2791  0.0000</r>
       <r>   8.7058  0.0000</r>
       <r>   9.8317  0.0000</r>
       <r>   9.9685  0.0000</r>
       <r>  11.1910  0.0000</r>
       <r>  11.2298  0.0000</r>
       <r>  12.3296  0.0000</r>
       <r>  12.3301  0.0000</r>
       <r>  14.7204  0.0000</r>
       <r>  15.2983  0.0000</r>
      </set>
      <set comment="kpoint 57">
       <r>  -1.4393  1.0000</r>
       <r>  -0.0906  1.0000</r>
       <r>   2.5698  1.0000</r>
       <r>   3.8364  1.0000</r>
       <r>   3.9272  1.0000</r>
       <r>   5.1829  1.0000</r>
       <r>   7.7610  0.0000</r>
       <r>   9.0391  0.0000</r>
       <r>   9.1837  0.0000</r>
       <r>  10.4174  0.0000</r>
       <r>  10.4580  0.0000</r>
       <r>  11.6531  0.0000</r>
       <r>  12.7735  0.0000</r>
       <r>  12.9531  0.0000</r>
       <r>  13.9870  0.0000</r>
       <r>  15.7553  0.0000</r>
      </set>
      <set comment="kpoint 58">
       <r>  -0.8197  1.0000</r>
       <r>  -0.8197  1.0000</r>
       <r>   3.1735  1.0000</r>
       <r>   3.1735  1.0000</r>
       <r>   4.4781  1.0000</r>
       <r>   4.4781  1.0000</r>
       <r>   8.3482  0.0000</r>
       <r>   8.3482  0.0000</r>
       <r>   9.7624  0.0000</r>
       <r>   9.7624  0.0000</r>
       <r>  11.0054  0.0000</r>
       <r>  11.0054  0.0000</r>
       <r>  13.3379  0.0000</r>
       <r>  13.3379  0.0000</r>
       <r>  14.7050  0.0000</r>
       <r>  14.7050  0.0000</r>
      </set>
      <set comment="kpoint 59">
       <r>  -1.5523  1.0000</r>
       <r>   1.1351  1.0000</r>
       <r>   1.1351  1.0000</r>
       <r>   3.7259  1.0000</r>
       <r>   3.8216  1.0000</r>
       <r>   6.3701  1.0000</r>
       <r>   6.3701  1.0000</r>
       <r>   8.9360  0.0000</r>
       <r>   9.0784  0.0000</r>
       <r>  11.5336  0.0000</r>
       <r>  11.5336  0.0000</r>
       <r>  11.6106  0.0000</r>
       <r>  11.6106  0.0000</r>
       <r>  13.3452  0.0000</r>
       <r>  13.9604  0.0000</r>
       <r>  15.0798  0.0000</r>
      </set>
      <set comment="kpoint 60">
       <r>  -1.0448  1.0000</r>
       <r>   0.3005  1.0000</r>
       <r>   1.6341  1.0000</r>
       <r>   2.9565  1.0000</r>
       <r>   4.2608  1.0000</r>
       <r>   5.5621  1.0000</r>
       <r>   6.8545  0.0000</r>
       <r>   8.1392  0.0000</r>
       <r>   9.5546  0.0000</r>
       <r>  10.8015  0.0000</r>
       <r>  12.0142  0.0000</r>
       <r>  12.0478  0.0000</r>
       <r>  13.1454  0.0000</r>
       <r>  13.2286  0.0000</r>
       <r>  13.2895  0.0000</r>
       <r>  16.2015  0.0000</r>
      </set>
      <set comment="kpoint 61">
       <r>  -0.4268  1.0000</r>
       <r>  -0.4268  1.0000</r>
       <r>   2.2418  1.0000</r>
       <r>   2.2418  1.0000</r>
       <r>   4.8582  1.0000</r>
       <r>   4.8582  1.0000</r>
       <r>   7.4446  0.0000</r>
       <r>   7.4446  0.0000</r>
       <r>  10.1310  0.0000</r>
       <r>  10.1310  0.0000</r>
       <r>  12.5754  0.0000</r>
       <r>  12.5754  0.0000</r>
       <r>  12.5840  0.0000</r>
       <r>  12.5840  0.0000</r>
       <r>  15.0251  0.0000</r>
       <r>  15.0251  0.0000</r>
      </set>
      <set comment="kpoint 62">
       <r>  -0.5390  1.0000</r>
       <r>   0.8022  1.0000</r>
       <r>   0.8022  1.0000</r>
       <r>   2.1321  1.0000</r>
       <r>   4.7498  1.0000</r>
       <r>   6.0485  1.0000</r>
       <r>   6.0485  1.0000</r>
       <r>   7.3387  0.0000</r>
       <r>  10.0284  0.0000</r>
       <r>  11.2691  0.0000</r>
       <r>  11.2691  0.0000</r>
       <r>  12.4931  0.0000</r>
       <r>  13.7135  0.0000</r>
       <r>  13.7135  0.0000</r>
       <r>  14.2380  0.0000</r>
       <r>  16.0476  0.0000</r>
      </set>
      <set comment="kpoint 63">
       <r>   0.0772  1.0000</r>
       <r>   0.0772  1.0000</r>
       <r>   1.4132  1.0000</r>
       <r>   1.4132  1.0000</r>
       <r>   5.3462  1.0000</r>
       <r>   5.3462  1.0000</r>
       <r>   6.6411  0.0000</r>
       <r>   6.6411  0.0000</r>
       <r>  10.6020  0.0000</r>
       <r>  10.6020  0.0000</r>
       <r>  11.8350  0.0000</r>
       <r>  11.8350  0.0000</r>
       <r>  14.1580  0.0000</r>
       <r>  14.1580  0.0000</r>
       <r>  15.3549  0.0000</r>
       <r>  15.3549  0.0000</r>
      </set>
      <set comment="kpoint 64">
       <r>   0.6909  1.0000</r>
       <r>   0.6909  1.0000</r>
       <r>   0.6909  1.0000</r>
       <r>   0.6909  1.0000</r>
       <r>   5.9410  1.0000</r>
       <r>   5.9410  1.0000</r>
       <r>   5.9410  1.0000</r>
       <r>   5.9410  1.0000</r>
       <r>  11.1721  0.0000</r>
       <r>  11.1721  0.0000</r>
       <r>  11.1721  0.0000</r>
       <r>  11.1721  0.0000</r>
       <r>  15.3189  0.0000</r>
       <r>  15.3189  0.0000</r>
       <r>  15.3189  0.0000</r>
       <r>  15.3189  0.0000</r>
      </set>
      <set comment="kpoint 65">
       <r>  -2.0614  1.0000</r>
       <r>   1.9634  1.0000</r>
       <r>   1.9634  1.0000</r>
       <r>   1.9634  1.0000</r>
       <r>   5.8924  1.0000</r>
       <r>   5.8924  1.0000</r>
       <r>   5.8924  1.0000</r>
       <r>   9.7344  0.0000</r>
       <r>   9.8639  0.0000</r>
       <r>   9.8639  0.0000</r>
       <r>   9.8639  0.0000</r>
       <r>  12.8975  0.0000</r>
       <r>  12.8975  0.0000</r>
       <r>  12.8975  0.0000</r>
       <r>  14.5631  0.0000</r>
       <r>  14.5631  0.0000</r>
      </set>
      <set comment="kpoint 66">
       <r>  -1.6653  1.0000</r>
       <r>   1.0239  1.0000</r>
       <r>   2.3493  1.0000</r>
       <r>   2.3493  1.0000</r>
       <r>   4.9760  1.0000</r>
       <r>   4.9760  1.0000</r>
       <r>   6.2703  1.0000</r>
       <r>   8.8382  0.0000</r>
       <r>  10.2317  0.0000</r>
       <r>  10.2317  0.0000</r>
       <r>  11.4889  0.0000</r>
       <r>  12.5842  0.0000</r>
       <r>  12.5842  0.0000</r>
       <r>  13.2463  0.0000</r>
       <r>  14.9271  0.0000</r>
       <r>  15.6034  0.0000</r>
      </set>
      <set comment="kpoint 67">
       <r>  -1.1575  1.0000</r>
       <r>   0.1888  1.0000</r>
       <r>   2.8435  1.0000</r>
       <r>   2.8435  1.0000</r>
       <r>   4.1621  1.0000</r>
       <r>   4.1621  1.0000</r>
       <r>   6.7552  0.0000</r>
       <r>   8.0408  0.0000</r>
       <r>  10.7003  0.0000</r>
       <r>  10.7003  0.0000</r>
       <r>  11.9117  0.0000</r>
       <r>  11.9117  0.0000</r>
       <r>  13.1882  0.0000</r>
       <r>  13.6945  0.0000</r>
       <r>  14.8862  0.0000</r>
       <r>  15.3861  0.0000</r>
      </set>
      <set comment="kpoint 68">
       <r>  -0.5390  1.0000</r>
       <r>  -0.5390  1.0000</r>
       <r>   3.3940  1.0000</r>
       <r>   3.3940  1.0000</r>
       <r>   3.5048  1.0000</r>
       <r>   3.5048  1.0000</r>
       <r>   7.3458  0.0000</r>
       <r>   7.3458  0.0000</r>
       <r>  11.2361  0.0000</r>
       <r>  11.2361  0.0000</r>
       <r>  11.2947  0.0000</r>
       <r>  11.2947  0.0000</r>
       <r>  14.2415  0.0000</r>
       <r>  14.2415  0.0000</r>
       <r>  14.9146  0.0000</r>
       <r>  14.9146  0.0000</r>
      </set>
      <set comment="kpoint 69">
       <r>  -1.2703  1.0000</r>
       <r>   1.4123  1.0000</r>
       <r>   1.4123  1.0000</r>
       <r>   2.7333  1.0000</r>
       <r>   4.0555  1.0000</r>
       <r>   5.3559  1.0000</r>
       <r>   5.3559  1.0000</r>
       <r>   7.9371  0.0000</r>
       <r>  10.5982  0.0000</r>
       <r>  11.8476  0.0000</r>
       <r>  11.8476  0.0000</r>
       <r>  12.9401  0.0000</r>
       <r>  12.9401  0.0000</r>
       <r>  13.5944  0.0000</r>
       <r>  15.2552  0.0000</r>
       <r>  15.3327  0.0000</r>
      </set>
      <set comment="kpoint 70">
       <r>  -0.7637  1.0000</r>
       <r>   0.5792  1.0000</r>
       <r>   1.9101  1.0000</r>
       <r>   3.1709  1.0000</r>
       <r>   3.2926  1.0000</r>
       <r>   4.5430  1.0000</r>
       <r>   5.8432  1.0000</r>
       <r>   7.1355  0.0000</r>
       <r>  11.0651  0.0000</r>
       <r>  12.2405  0.0000</r>
       <r>  12.3334  0.0000</r>
       <r>  13.3737  0.0000</r>
       <r>  13.3981  0.0000</r>
       <r>  13.5543  0.0000</r>
       <r>  14.5717  0.0000</r>
       <r>  16.3822  0.0000</r>
      </set>
      <set comment="kpoint 71">
       <r>  -0.1468  1.0000</r>
       <r>  -0.1468  1.0000</r>
       <r>   2.5158  1.0000</r>
       <r>   2.5158  1.0000</r>
       <r>   3.8356  1.0000</r>
       <r>   3.8356  1.0000</r>
       <r>   6.4368  1.0000</r>
       <r>   6.4368  1.0000</r>
       <r>  11.6263  0.0000</r>
       <r>  11.6263  0.0000</r>
       <r>  12.8399  0.0000</r>
       <r>  12.8399  0.0000</r>
       <r>  13.9368  0.0000</r>
       <r>  13.9368  0.0000</r>
       <r>  15.2519  0.0000</r>
       <r>  15.2519  0.0000</r>
      </set>
      <set comment="kpoint 72">
       <r>  -0.2588  1.0000</r>
       <r>   1.0798  1.0000</r>
       <r>   1.0798  1.0000</r>
       <r>   2.4060  1.0000</r>
       <r>   3.7266  1.0000</r>
       <r>   5.0322  1.0000</r>
       <r>   5.0322  1.0000</r>
       <r>   6.3302  1.0000</r>
       <r>  11.5296  0.0000</r>
       <r>  12.7256  0.0000</r>
       <r>  12.7256  0.0000</r>
       <r>  13.9098  0.0000</r>
       <r>  13.9640  0.0000</r>
       <r>  13.9640  0.0000</r>
       <r>  14.4863  0.0000</r>
       <r>  16.2801  0.0000</r>
      </set>
      <set comment="kpoint 73">
       <r>   0.3562  1.0000</r>
       <r>   0.3562  1.0000</r>
       <r>   1.6895  1.0000</r>
       <r>   1.6895  1.0000</r>
       <r>   4.3258  1.0000</r>
       <r>   4.3258  1.0000</r>
       <r>   5.6285  1.0000</r>
       <r>   5.6285  1.0000</r>
       <r>  12.0881  0.0000</r>
       <r>  12.0881  0.0000</r>
       <r>  13.2777  0.0000</r>
       <r>  13.2777  0.0000</r>
       <r>  14.4068  0.0000</r>
       <r>  14.4068  0.0000</r>
       <r>  15.5906  0.0000</r>
       <r>  15.5906  0.0000</r>
      </set>
      <set comment="kpoint 74">
       <r>   0.9688  1.0000</r>
       <r>   0.9688  1.0000</r>
       <r>   0.9688  1.0000</r>
       <r>   0.9688  1.0000</r>
       <r>   4.9241  1.0000</r>
       <r>   4.9241  1.0000</r>
       <r>   4.9241  1.0000</r>
       <r>   4.9241  1.0000</r>
       <r>  12.6433  0.0000</r>
       <r>  12.6433  0.0000</r>
       <r>  12.6433  0.0000</r>
       <r>  12.6433  0.0000</r>
       <r>  15.5619  0.0000</r>
       <r>  15.5619  0.0000</r>
       <r>  15.5619  0.0000</r>
       <r>  15.5619  0.0000</r>
      </set>
      <set comment="kpoint 75">
       <r>  -0.8762  1.0000</r>
       <r>   1.7994  1.0000</r>
       <r>   1.7994  1.0000</r>
       <r>   1.7994  1.0000</r>
       <r>   4.4367  1.0000</r>
       <r>   4.4367  1.0000</r>
       <r>   4.4367  1.0000</r>
       <r>   7.0311  0.0000</r>
       <r>  12.2055  0.0000</r>
       <r>  12.2055  0.0000</r>
       <r>  12.2055  0.0000</r>
       <r>  13.9430  0.0000</r>
       <r>  13.9430  0.0000</r>
       <r>  13.9430  0.0000</r>
       <r>  15.6770  0.0000</r>
       <r>  15.6770  0.0000</r>
      </set>
      <set comment="kpoint 76">
       <r>  -0.3710  1.0000</r>
       <r>   0.9686  1.0000</r>
       <r>   2.2948  1.0000</r>
       <r>   2.2948  1.0000</r>
       <r>   3.6206  1.0000</r>
       <r>   3.6206  1.0000</r>
       <r>   4.9263  1.0000</r>
       <r>   6.2253  1.0000</r>
       <r>  12.6566  0.0000</r>
       <r>  12.6566  0.0000</r>
       <r>  13.7510  0.0000</r>
       <r>  13.7510  0.0000</r>
       <r>  13.8739  0.0000</r>
       <r>  14.3902  0.0000</r>
       <r>  15.5728  0.0000</r>
       <r>  16.0989  0.0000</r>
      </set>
      <set comment="kpoint 77">
       <r>   0.2444  1.0000</r>
       <r>   0.2444  1.0000</r>
       <r>   2.8346  1.0000</r>
       <r>   2.8346  1.0000</r>
       <r>   2.9736  1.0000</r>
       <r>   2.9736  1.0000</r>
       <r>   5.5230  1.0000</r>
       <r>   5.5230  1.0000</r>
       <r>  13.1344  0.0000</r>
       <r>  13.1344  0.0000</r>
       <r>  13.2499  0.0000</r>
       <r>  13.2499  0.0000</r>
       <r>  14.9347  0.0000</r>
       <r>  14.9347  0.0000</r>
       <r>  15.5263  0.0000</r>
       <r>  15.5263  0.0000</r>
      </set>
      <set comment="kpoint 78">
       <r>   0.1326  1.0000</r>
       <r>   1.4676  1.0000</r>
       <r>   1.4676  1.0000</r>
       <r>   2.7221  1.0000</r>
       <r>   2.8671  1.0000</r>
       <r>   4.1113  1.0000</r>
       <r>   4.1113  1.0000</r>
       <r>   5.4158  1.0000</r>
       <r>  13.1069  0.0000</r>
       <r>  14.1617  0.0000</r>
       <r>  14.1617  0.0000</r>
       <r>  14.3340  0.0000</r>
       <r>  14.3340  0.0000</r>
       <r>  14.8327  0.0000</r>
       <r>  15.3027  0.0000</r>
       <r>  16.5837  0.0000</r>
      </set>
      <set comment="kpoint 79">
       <r>   0.7460  1.0000</r>
       <r>   0.7460  1.0000</r>
       <r>   2.0743  1.0000</r>
       <r>   2.0743  1.0000</r>
       <r>   3.4025  1.0000</r>
       <r>   3.4025  1.0000</r>
       <r>   4.7104  1.0000</r>
       <r>   4.7104  1.0000</r>
       <r>  13.6349  0.0000</r>
       <r>  13.6349  0.0000</r>
       <r>  14.7211  0.0000</r>
       <r>  14.7211  0.0000</r>
       <r>  14.7519  0.0000</r>
       <r>  14.7519  0.0000</r>
       <r>  15.8968  0.0000</r>
       <r>  15.8968  0.0000</r>
      </set>
      <set comment="kpoint 80">
       <r>   1.3567  1.0000</r>
       <r>   1.3567  1.0000</r>
       <r>   1.3567  1.0000</r>
       <r>   1.3567  1.0000</r>
       <r>   4.0026  1.0000</r>
       <r>   4.0026  1.0000</r>
       <r>   4.0026  1.0000</r>
       <r>   4.0026  1.0000</r>
       <r>  14.1640  0.0000</r>
       <r>  14.1640  0.0000</r>
       <r>  14.1640  0.0000</r>
       <r>  14.1640  0.0000</r>
       <r>  15.8944  0.0000</r>
       <r>  15.8944  0.0000</r>
       <r>  15.8944  0.0000</r>
       <r>  15.8944  0.0000</r>
      </set>
      <set comment="kpoint 81">
       <r>   0.6345  1.0000</r>
       <r>   1.9635  1.0000</r>
       <r>   1.9635  1.0000</r>
       <r>   1.9635  1.0000</r>
       <r>   3.2941  1.0000</r>
       <r>   3.2941  1.0000</r>
       <r>   3.2941  1.0000</r>
       <r>   4.6027  1.0000</r>
       <r>  14.7150  0.0000</r>
       <r>  14.7150  0.0000</r>
       <r>  14.7150  0.0000</r>
       <r>  15.2746  0.0000</r>
       <r>  15.2746  0.0000</r>
       <r>  15.2746  0.0000</r>
       <r>  16.3913  0.0000</r>
       <r>  16.3913  0.0000</r>
      </set>
      <set comment="kpoint 82">
       <r>   1.2456  1.0000</r>
       <r>   1.2456  1.0000</r>
       <r>   2.4964  1.0000</r>
       <r>   2.4964  1.0000</r>
       <r>   2.6539  1.0000</r>
       <r>   2.6539  1.0000</r>
       <r>   3.8945  1.0000</r>
       <r>   3.8945  1.0000</r>
       <r>  15.0949  0.0000</r>
       <r>  15.0949  0.0000</r>
       <r>  15.2500  0.0000</r>
       <r>  15.2500  0.0000</r>
       <r>  15.8047  0.0000</r>
       <r>  15.8047  0.0000</r>
       <r>  16.1881  0.0000</r>
       <r>  16.1881  0.0000</r>
      </set>
      <set comment="kpoint 83">
       <r>   1.8528  1.0000</r>
       <r>   1.8528  1.0000</r>
       <r>   1.8528  1.0000</r>
       <r>   1.8528  1.0000</r>
       <r>   3.1850  1.0000</r>
       <r>   3.1850  1.0000</r>
       <r>   3.1850  1.0000</r>
       <r>   3.1850  1.0000</r>
       <r>  15.6343  0.0000</r>
       <r>  15.6343  0.0000</r>
       <r>  15.6343  0.0000</r>
       <r>  15.6343  0.0000</r>
       <r>  16.2897  0.0000</r>
       <r>  16.2897  0.0000</r>
       <r>  16.2897  0.0000</r>
       <r>  16.2897  0.0000</r>
      </set>
      <set comment="kpoint 84">
       <r>   2.3832  1.0000</r>
       <r>   2.3832  1.0000</r>
       <r>   2.3832  1.0000</r>
       <r>   2.3832  1.0000</r>
       <r>   2.5472  1.0000</r>
       <r>   2.5472  1.0000</r>
       <r>   2.5472  1.0000</r>
       <r>   2.5472  1.0000</r>
       <r>  16.5567  0.0000</r>
       <r>  16.5567  0.0000</r>
       <r>  16.5567  0.0000</r>
       <r>  16.5567  0.0000</r>
       <r>  16.5567  0.0000</r>
       <r>  16.5567  0.0000</r>
       <r>  16.5567  0.0000</r>
       <r>  16.5567  0.0000</r>
      </set>
     </set>
    </set>
   </array>
  </eigenvalues>
 </calculation>
 <structure name="finalpos" >
  <crystal>
   <varray name="basis" >
    <v>       4.23917169      0.00000000      0.00000000</v>
    <v>       0.00000000      4.23917169      0.00000000</v>
    <v>       0.00000000      0.00000000      4.23917169</v>
   </varray>
   <i name="volume">     76.18035955</i>
   <varray name="rec_basis" >
    <v>       0.23589514      0.00000000      0.00000000</v>
    <v>       0.00000000      0.23589514      0.00000000</v>
    <v>       0.00000000      0.00000000      0.23589514</v>
   </varray>
  </crystal>
  <varray name="positions" >
   <v>       0.50000000      0.50000000      0.00000000</v>
   <v>       0.50000000      0.00000000      0.50000000</v>
   <v>       0.00000000      0.50000000      0.50000000</v>
   <v>       0.00000000      0.00000000      0.00000000</v>
  </varray>
 </structure>
</modeling>
