 running on    4 nodes
 distr:  one band on    1 nodes,    4 groups
 vasp.4.6.28 25Jul05 complex 
 POSCAR found :  1 types and   36 ions

 ----------------------------------------------------------------------------- 
|                                                                             |
|  ADVICE TO THIS USER RUNNING 'VASP/VAMP'   (HEAR YOUR MASTER'S VOICE ...):  |
|                                                                             |
|      You have a (more or less) 'large supercell' and for larger cells       |
|      it might be more efficient to use real space projection operators      |
|      So try LREAL= Auto  in the INCAR   file.                               |
|      Mind: If you want to do an extremely accurate calculations keep the    |
|      reciprocal projection scheme          (i.e. LREAL=.FALSE.)             |
|                                                                             |
 ----------------------------------------------------------------------------- 

 LDA part: xc-table for Pade appr. of Perdew
 generate k-points for:   7   7   5
 POSCAR, INCAR and KPOINTS ok, starting setup
 WARNING: wrap around errors must be expected
 FFT: planning ...           1
 reading WAVECAR
 entering main loop
       N       E                     dE             d eps       ncg     rms          rms(c)
DAV:   1     0.497803723655E+04    0.49780E+04   -0.17206E+05 53872   0.180E+03
DAV:   2     0.894841815633E+02   -0.48886E+04   -0.48134E+04 53136   0.637E+02
DAV:   3    -0.293009455516E+03   -0.38249E+03   -0.35997E+03 77800   0.161E+02
DAV:   4    -0.324402956637E+03   -0.31394E+02   -0.30506E+02 72688   0.401E+01
DAV:   5    -0.325326064884E+03   -0.92311E+00   -0.90203E+00 69448   0.618E+00    0.360E+01
DAV:   6    -0.286054815737E+03    0.39271E+02   -0.12315E+02 58136   0.375E+01    0.907E+00
DAV:   7    -0.284182340579E+03    0.18725E+01   -0.15594E+01 69848   0.115E+01    0.360E+00
DAV:   8    -0.284292032037E+03   -0.10969E+00   -0.29526E+00 70744   0.704E+00    0.404E+00
DAV:   9    -0.284095599054E+03    0.19643E+00   -0.10727E+00 74808   0.473E+00    0.186E+00
DAV:  10    -0.284028622772E+03    0.66976E-01   -0.15369E-01 71656   0.146E+00    0.113E+00
DAV:  11    -0.283989624234E+03    0.38999E-01   -0.24131E-01 62568   0.165E+00    0.206E-01
DAV:  12    -0.283990507929E+03   -0.88369E-03   -0.11017E-02 71552   0.383E-01    0.233E-01
DAV:  13    -0.283989543465E+03    0.96446E-03   -0.30755E-03 68984   0.211E-01    0.105E-01
DAV:  14    -0.283989362072E+03    0.18139E-03   -0.67408E-04 71392   0.120E-01    0.582E-02
DAV:  15    -0.283989327660E+03    0.34412E-04   -0.15665E-04 74376   0.614E-02    0.422E-02
DAV:  16    -0.283989306500E+03    0.21160E-04   -0.53827E-05 74496   0.354E-02    0.314E-02
DAV:  17    -0.283989262072E+03    0.44428E-04   -0.52502E-05 66584   0.254E-02    0.130E-02
DAV:  18    -0.283989249608E+03    0.12464E-04   -0.81393E-06 72096   0.119E-02    0.590E-03
DAV:  19    -0.283989240324E+03    0.92841E-05   -0.23154E-06 70616   0.591E-03    0.215E-03
DAV:  20    -0.283989238421E+03    0.19034E-05   -0.37240E-07 73464   0.275E-03    0.906E-04
DAV:  21    -0.283989237501E+03    0.91959E-06   -0.13145E-07 67040   0.129E-03    0.501E-04
DAV:  22    -0.283989237614E+03   -0.11296E-06   -0.14743E-08 39440   0.744E-04    0.339E-04
DAV:  23    -0.283989237900E+03   -0.28648E-06   -0.88482E-09 35272   0.472E-04    0.128E-04
DAV:  24    -0.283989237991E+03   -0.90658E-07   -0.41304E-09 34344   0.264E-04    0.814E-05
DAV:  25    -0.283989238076E+03   -0.84641E-07   -0.24773E-09 33808   0.182E-04    0.589E-05
DAV:  26    -0.283989238093E+03   -0.17557E-07   -0.14063E-09 33432   0.107E-04    0.519E-05
DAV:  27    -0.283989238120E+03   -0.26223E-07   -0.68915E-10 33112   0.782E-05    0.533E-05
DAV:  28    -0.283989238124E+03   -0.42928E-08   -0.33974E-10 32912   0.487E-05
   1 F= -.28398924E+03 E0= -.28398791E+03  d E =-.265936E-02
