  36  36   0   0
  0.1763494E+02  0.8820702E-09  0.8820702E-09  0.9391624E-09  0.5000000E-15
  1.000000000000000E-004
  CAR 
 unknown system                          
      8.61626999    -29.38464170  301      5.78942904      1.00000000
    -29.385  0.0000E+00  0.0000E+00
    -29.258  0.0000E+00  0.0000E+00
    -29.131  0.0000E+00  0.0000E+00
    -29.005  0.0000E+00  0.0000E+00
    -28.878  0.0000E+00  0.0000E+00
    -28.751  0.0000E+00  0.0000E+00
    -28.625  0.0000E+00  0.0000E+00
    -28.498  0.0000E+00  0.0000E+00
    -28.371  0.0000E+00  0.0000E+00
    -28.245  0.0000E+00  0.0000E+00
    -28.118  0.0000E+00  0.0000E+00
    -27.991  0.0000E+00  0.0000E+00
    -27.865  0.0000E+00  0.0000E+00
    -27.738  0.0000E+00  0.0000E+00
    -27.611  0.5657E+01  0.7166E+00
    -27.485  0.1763E+03  0.2479E+02
    -27.358  0.1462E+03  0.5839E+02
    -27.231  0.1545E+03  0.8828E+02
    -27.105  0.3295E+03  0.1453E+03
    -26.978  0.2661E+03  0.2118E+03
    -26.851  0.0000E+00  0.2160E+03
    -26.725  0.0000E+00  0.2160E+03
    -26.598  0.0000E+00  0.2160E+03
    -26.471  0.0000E+00  0.2160E+03
    -26.345  0.0000E+00  0.2160E+03
    -26.218  0.0000E+00  0.2160E+03
    -26.091  0.0000E+00  0.2160E+03
    -25.965  0.0000E+00  0.2160E+03
    -25.838  0.0000E+00  0.2160E+03
    -25.711  0.0000E+00  0.2160E+03
    -25.585  0.0000E+00  0.2160E+03
    -25.458  0.0000E+00  0.2160E+03
    -25.331  0.0000E+00  0.2160E+03
    -25.205  0.0000E+00  0.2160E+03
    -25.078  0.0000E+00  0.2160E+03
    -24.951  0.0000E+00  0.2160E+03
    -24.825  0.0000E+00  0.2160E+03
    -24.698  0.0000E+00  0.2160E+03
    -24.571  0.0000E+00  0.2160E+03
    -24.445  0.0000E+00  0.2160E+03
    -24.318  0.0000E+00  0.2160E+03
    -24.191  0.0000E+00  0.2160E+03
    -24.065  0.0000E+00  0.2160E+03
    -23.938  0.0000E+00  0.2160E+03
    -23.811  0.0000E+00  0.2160E+03
    -23.685  0.0000E+00  0.2160E+03
    -23.558  0.0000E+00  0.2160E+03
    -23.431  0.0000E+00  0.2160E+03
    -23.304  0.0000E+00  0.2160E+03
    -23.178  0.0000E+00  0.2160E+03
    -23.051  0.0000E+00  0.2160E+03
    -22.924  0.0000E+00  0.2160E+03
    -22.798  0.0000E+00  0.2160E+03
    -22.671  0.0000E+00  0.2160E+03
    -22.544  0.0000E+00  0.2160E+03
    -22.418  0.0000E+00  0.2160E+03
    -22.291  0.0000E+00  0.2160E+03
    -22.164  0.0000E+00  0.2160E+03
    -22.038  0.0000E+00  0.2160E+03
    -21.911  0.0000E+00  0.2160E+03
    -21.784  0.0000E+00  0.2160E+03
    -21.658  0.0000E+00  0.2160E+03
    -21.531  0.0000E+00  0.2160E+03
    -21.404  0.0000E+00  0.2160E+03
    -21.278  0.0000E+00  0.2160E+03
    -21.151  0.0000E+00  0.2160E+03
    -21.024  0.0000E+00  0.2160E+03
    -20.898  0.0000E+00  0.2160E+03
    -20.771  0.0000E+00  0.2160E+03
    -20.644  0.0000E+00  0.2160E+03
    -20.518  0.0000E+00  0.2160E+03
    -20.391  0.0000E+00  0.2160E+03
    -20.264  0.0000E+00  0.2160E+03
    -20.138  0.0000E+00  0.2160E+03
    -20.011  0.0000E+00  0.2160E+03
    -19.884  0.0000E+00  0.2160E+03
    -19.758  0.0000E+00  0.2160E+03
    -19.631  0.0000E+00  0.2160E+03
    -19.504  0.0000E+00  0.2160E+03
    -19.378  0.0000E+00  0.2160E+03
    -19.251  0.0000E+00  0.2160E+03
    -19.124  0.0000E+00  0.2160E+03
    -18.998  0.0000E+00  0.2160E+03
    -18.871  0.0000E+00  0.2160E+03
    -18.744  0.0000E+00  0.2160E+03
    -18.618  0.0000E+00  0.2160E+03
    -18.491  0.0000E+00  0.2160E+03
    -18.364  0.0000E+00  0.2160E+03
    -18.238  0.0000E+00  0.2160E+03
    -18.111  0.0000E+00  0.2160E+03
    -17.984  0.0000E+00  0.2160E+03
    -17.858  0.0000E+00  0.2160E+03
    -17.731  0.0000E+00  0.2160E+03
    -17.604  0.0000E+00  0.2160E+03
    -17.478  0.0000E+00  0.2160E+03
    -17.351  0.0000E+00  0.2160E+03
    -17.224  0.0000E+00  0.2160E+03
    -17.098  0.0000E+00  0.2160E+03
    -16.971  0.0000E+00  0.2160E+03
    -16.844  0.0000E+00  0.2160E+03
    -16.718  0.0000E+00  0.2160E+03
    -16.591  0.0000E+00  0.2160E+03
    -16.464  0.0000E+00  0.2160E+03
    -16.338  0.0000E+00  0.2160E+03
    -16.211  0.0000E+00  0.2160E+03
    -16.084  0.0000E+00  0.2160E+03
    -15.958  0.0000E+00  0.2160E+03
    -15.831  0.0000E+00  0.2160E+03
    -15.704  0.0000E+00  0.2160E+03
    -15.578  0.0000E+00  0.2160E+03
    -15.451  0.0000E+00  0.2160E+03
    -15.324  0.0000E+00  0.2160E+03
    -15.198  0.0000E+00  0.2160E+03
    -15.071  0.0000E+00  0.2160E+03
    -14.944  0.0000E+00  0.2160E+03
    -14.818  0.0000E+00  0.2160E+03
    -14.691  0.0000E+00  0.2160E+03
    -14.564  0.0000E+00  0.2160E+03
    -14.438  0.0000E+00  0.2160E+03
    -14.311  0.0000E+00  0.2160E+03
    -14.184  0.0000E+00  0.2160E+03
    -14.058  0.0000E+00  0.2160E+03
    -13.931  0.0000E+00  0.2160E+03
    -13.804  0.0000E+00  0.2160E+03
    -13.678  0.0000E+00  0.2160E+03
    -13.551  0.0000E+00  0.2160E+03
    -13.424  0.0000E+00  0.2160E+03
    -13.298  0.0000E+00  0.2160E+03
    -13.171  0.0000E+00  0.2160E+03
    -13.044  0.0000E+00  0.2160E+03
    -12.918  0.0000E+00  0.2160E+03
    -12.791  0.0000E+00  0.2160E+03
    -12.664  0.0000E+00  0.2160E+03
    -12.538  0.0000E+00  0.2160E+03
    -12.411  0.0000E+00  0.2160E+03
    -12.284  0.0000E+00  0.2160E+03
    -12.158  0.0000E+00  0.2160E+03
    -12.031  0.0000E+00  0.2160E+03
    -11.904  0.0000E+00  0.2160E+03
    -11.778  0.0000E+00  0.2160E+03
    -11.651  0.0000E+00  0.2160E+03
    -11.524  0.0000E+00  0.2160E+03
    -11.398  0.0000E+00  0.2160E+03
    -11.271  0.0000E+00  0.2160E+03
    -11.144  0.0000E+00  0.2160E+03
    -11.018  0.0000E+00  0.2160E+03
    -10.891  0.0000E+00  0.2160E+03
    -10.764  0.0000E+00  0.2160E+03
    -10.638  0.0000E+00  0.2160E+03
    -10.511  0.0000E+00  0.2160E+03
    -10.384  0.0000E+00  0.2160E+03
    -10.258  0.0000E+00  0.2160E+03
    -10.131  0.0000E+00  0.2160E+03
    -10.004  0.0000E+00  0.2160E+03
     -9.878  0.0000E+00  0.2160E+03
     -9.751  0.0000E+00  0.2160E+03
     -9.624  0.0000E+00  0.2160E+03
     -9.497  0.0000E+00  0.2160E+03
     -9.371  0.0000E+00  0.2160E+03
     -9.244  0.0000E+00  0.2160E+03
     -9.117  0.0000E+00  0.2160E+03
     -8.991  0.0000E+00  0.2160E+03
     -8.864  0.0000E+00  0.2160E+03
     -8.737  0.0000E+00  0.2160E+03
     -8.611  0.0000E+00  0.2160E+03
     -8.484  0.0000E+00  0.2160E+03
     -8.357  0.0000E+00  0.2160E+03
     -8.231  0.0000E+00  0.2160E+03
     -8.104  0.0000E+00  0.2160E+03
     -7.977  0.0000E+00  0.2160E+03
     -7.851  0.0000E+00  0.2160E+03
     -7.724  0.0000E+00  0.2160E+03
     -7.597  0.0000E+00  0.2160E+03
     -7.471  0.0000E+00  0.2160E+03
     -7.344  0.0000E+00  0.2160E+03
     -7.217  0.0000E+00  0.2160E+03
     -7.091  0.0000E+00  0.2160E+03
     -6.964  0.0000E+00  0.2160E+03
     -6.837  0.0000E+00  0.2160E+03
     -6.711  0.0000E+00  0.2160E+03
     -6.584  0.0000E+00  0.2160E+03
     -6.457  0.0000E+00  0.2160E+03
     -6.331  0.0000E+00  0.2160E+03
     -6.204  0.0000E+00  0.2160E+03
     -6.077  0.0000E+00  0.2160E+03
     -5.951  0.0000E+00  0.2160E+03
     -5.824  0.0000E+00  0.2160E+03
     -5.697  0.0000E+00  0.2160E+03
     -5.571  0.0000E+00  0.2160E+03
     -5.444  0.0000E+00  0.2160E+03
     -5.317  0.0000E+00  0.2160E+03
     -5.191  0.0000E+00  0.2160E+03
     -5.064  0.0000E+00  0.2160E+03
     -4.937  0.0000E+00  0.2160E+03
     -4.811  0.0000E+00  0.2160E+03
     -4.684  0.0000E+00  0.2160E+03
     -4.557  0.0000E+00  0.2160E+03
     -4.431  0.0000E+00  0.2160E+03
     -4.304  0.0000E+00  0.2160E+03
     -4.177  0.0000E+00  0.2160E+03
     -4.051  0.0000E+00  0.2160E+03
     -3.924  0.0000E+00  0.2160E+03
     -3.797  0.0000E+00  0.2160E+03
     -3.671  0.0000E+00  0.2160E+03
     -3.544  0.0000E+00  0.2160E+03
     -3.417  0.0000E+00  0.2160E+03
     -3.291  0.0000E+00  0.2160E+03
     -3.164  0.0000E+00  0.2160E+03
     -3.037  0.0000E+00  0.2160E+03
     -2.911  0.0000E+00  0.2160E+03
     -2.784  0.0000E+00  0.2160E+03
     -2.657  0.0000E+00  0.2160E+03
     -2.531  0.0000E+00  0.2160E+03
     -2.404  0.0000E+00  0.2160E+03
     -2.277  0.0000E+00  0.2160E+03
     -2.151  0.0000E+00  0.2160E+03
     -2.024  0.0000E+00  0.2160E+03
     -1.897  0.0000E+00  0.2160E+03
     -1.771  0.0000E+00  0.2160E+03
     -1.644  0.0000E+00  0.2160E+03
     -1.517  0.0000E+00  0.2160E+03
     -1.391  0.0000E+00  0.2160E+03
     -1.264  0.0000E+00  0.2160E+03
     -1.137  0.0000E+00  0.2160E+03
     -1.011  0.0000E+00  0.2160E+03
     -0.884  0.0000E+00  0.2160E+03
     -0.757  0.0000E+00  0.2160E+03
     -0.631  0.0000E+00  0.2160E+03
     -0.504  0.0000E+00  0.2160E+03
     -0.377  0.2216E-10  0.2160E+03
     -0.251  0.4522E+00  0.2161E+03
     -0.124  0.1159E+01  0.2162E+03
      0.003  0.1463E+01  0.2165E+03
      0.129  0.1547E+01  0.2167E+03
      0.256  0.3221E+01  0.2171E+03
      0.383  0.3243E+00  0.2172E+03
      0.509  0.2326E+01  0.2178E+03
      0.636  0.1858E+01  0.2183E+03
      0.763  0.2873E+01  0.2187E+03
      0.889  0.1719E+01  0.2192E+03
      1.016  0.2320E+01  0.2198E+03
      1.143  0.4252E+01  0.2205E+03
      1.269  0.1563E+01  0.2210E+03
      1.396  0.3065E+01  0.2218E+03
      1.523  0.4144E+01  0.2226E+03
      1.649  0.2260E+01  0.2232E+03
      1.776  0.2902E+01  0.2240E+03
      1.903  0.7209E+01  0.2252E+03
      2.029  0.5170E+01  0.2262E+03
      2.156  0.4951E+01  0.2271E+03
      2.283  0.8031E+01  0.2283E+03
      2.409  0.6833E+01  0.2297E+03
      2.536  0.5212E+01  0.2309E+03
      2.663  0.6889E+01  0.2322E+03
      2.789  0.6964E+01  0.2341E+03
      2.916  0.6079E+01  0.2356E+03
      3.043  0.1555E+02  0.2390E+03
      3.169  0.1102E+02  0.2410E+03
      3.296  0.2831E+02  0.2464E+03
      3.423  0.1271E+02  0.2499E+03
      3.549  0.2075E+02  0.2546E+03
      3.676  0.2059E+02  0.2582E+03
      3.803  0.2910E+02  0.2645E+03
      3.929  0.2190E+02  0.2695E+03
      4.056  0.2892E+02  0.2756E+03
      4.183  0.4719E+02  0.2835E+03
      4.310  0.2420E+02  0.2893E+03
      4.436  0.2636E+02  0.2939E+03
      4.563  0.2498E+02  0.2991E+03
      4.690  0.3283E+02  0.3053E+03
      4.816  0.2708E+02  0.3111E+03
      4.943  0.3939E+02  0.3189E+03
      5.070  0.4213E+02  0.3278E+03
      5.196  0.4383E+02  0.3370E+03
      5.323  0.3540E+02  0.3453E+03
      5.450  0.1502E+02  0.3495E+03
      5.576  0.2350E+02  0.3539E+03
      5.703  0.1632E+02  0.3570E+03
      5.830  0.2575E+02  0.3615E+03
      5.956  0.4118E+02  0.3684E+03
      6.083  0.5110E+02  0.3786E+03
      6.210  0.5111E+02  0.3888E+03
      6.336  0.3953E+02  0.3979E+03
      6.463  0.5297E+02  0.4080E+03
      6.590  0.5724E+02  0.4192E+03
      6.716  0.4443E+02  0.4283E+03
      6.843  0.9794E+01  0.4319E+03
      6.970  0.0000E+00  0.4320E+03
      7.096  0.0000E+00  0.4320E+03
      7.223  0.0000E+00  0.4320E+03
      7.350  0.0000E+00  0.4320E+03
      7.476  0.0000E+00  0.4320E+03
      7.603  0.0000E+00  0.4320E+03
      7.730  0.0000E+00  0.4320E+03
      7.856  0.0000E+00  0.4320E+03
      7.983  0.0000E+00  0.4320E+03
      8.110  0.0000E+00  0.4320E+03
      8.236  0.0000E+00  0.4320E+03
      8.363  0.0000E+00  0.4320E+03
      8.490  0.0000E+00  0.4320E+03
      8.616  0.0000E+00  0.4320E+03
