   36   36    1    1
  0.1763494E+02  0.8820702E-09  0.8820702E-09  0.9391624E-09  0.5000000E-15
  1.000000000000000E-004
  CAR 
 unknown system                          
  360  123  216
 
  0.0000000E+00  0.0000000E+00  0.0000000E+00  0.4081633E-02
   1      -27.6573
   2      -27.4746
   3      -27.4744
   4      -27.4744
   5      -27.4743
   6      -27.4703
   7      -27.4703
   8      -27.4702
   9      -27.4702
  10      -27.4701
  11      -27.4700
  12      -27.4699
  13      -27.4699
  14      -27.4682
  15      -27.4679
  16      -27.4678
  17      -27.4677
  18      -27.4676
  19      -27.4676
  20      -27.4675
  21      -27.4675
  22      -27.4674
  23      -27.4672
  24      -27.4053
  25      -27.4048
  26      -27.3797
  27      -27.3795
  28      -27.3785
  29      -27.3784
  30      -27.3783
  31      -27.3782
  32      -27.3337
  33      -27.3331
  34      -27.3046
  35      -27.3043
  36      -27.3029
  37      -27.3026
  38      -27.3008
  39      -27.3004
  40      -27.3004
  41      -27.3000
  42      -27.2773
  43      -27.2771
  44      -27.2770
  45      -27.2770
  46      -27.2767
  47      -27.2766
  48      -27.2563
  49      -27.2558
  50      -27.2524
  51      -27.2522
  52      -27.1939
  53      -27.1935
  54      -27.1472
  55      -27.1471
  56      -27.1379
  57      -27.1376
  58      -27.1375
  59      -27.1373
  60      -27.1373
  61      -27.1372
  62      -27.1372
  63      -27.1370
  64      -27.1361
  65      -27.1361
  66      -27.1357
  67      -27.1357
  68      -27.1357
  69      -27.1355
  70      -27.1354
  71      -27.1350
  72      -27.0900
  73      -27.0896
  74      -27.0895
  75      -27.0891
  76      -27.0868
  77      -27.0864
  78      -27.0791
  79      -27.0790
  80      -27.0790
  81      -27.0789
  82      -27.0744
  83      -27.0742
  84      -27.0741
  85      -27.0740
  86      -27.0659
  87      -27.0659
  88      -27.0658
  89      -27.0657
  90      -27.0656
  91      -27.0656
  92      -27.0655
  93      -27.0652
  94      -27.0409
  95      -27.0320
  96      -27.0004
  97      -27.0003
  98      -26.9940
  99      -26.9936
 100      -26.9935
 101      -26.9934
 102      -26.9932
 103      -26.9932
 104      -26.9931
 105      -26.9868
 106      -26.9867
 107      -26.9457
 108      -26.9413
 109       -0.3337
 110        1.4835
 111        1.4838
 112        2.2118
 113        2.2121
 114        2.2122
 115        2.2125
 116        2.2290
 117        2.2294
 118        3.0939
 119        3.0942
 120        3.0944
 121        3.0945
 122        3.0946
 123        3.0948
 124        3.0949
 125        3.0951
 126        3.1081
 127        3.1086
 128        3.1087
 129        3.1088
 130        3.1445
 131        4.0943
 132        4.0949
 133        4.1008
 134        4.1012
 135        4.1014
 136        4.1019
 137        4.1478
 138        4.1495
 139        4.3557
 140        4.3567
 141        4.3763
 142        4.3775
 143        4.3776
 144        4.3779
 145        4.4243
 146        4.4245
 147        4.4365
 148        4.4367
 149        4.5269
 150        4.5270
 151        4.5707
 152        4.5717
 153        4.5724
 154        4.5734
 155        4.7323
 156        4.7336
 157        4.7336
 158        4.7349
 159        5.1116
 160        5.1139
 161        5.1144
 162        5.1144
 163        5.1145
 164        5.1149
 165        5.1150
 166        5.1155
 167        5.1171
 168        5.1173
 169        5.1175
 170        5.1197
 171        5.1966
 172        5.1973
 173        5.1974
 174        5.1983
 175        5.2240
 176        5.2255
 177        5.5648
 178        5.5650
 179        5.5650
 180        5.5652
 181        5.8352
 182        5.8378
 183        5.9709
 184        5.9719
 185        6.0224
 186        6.0240
 187        6.3403
 188        6.3407
 189        6.3412
 190        6.3415
 191        6.3417
 192        6.3423
 193        6.3424
 194        6.3434
 195        6.3798
 196        6.3810
 197        6.3815
 198        6.3825
 199        6.4345
 200        6.4346
 201        6.4687
 202        6.4722
 203        6.4731
 204        6.4962
 205        6.4971
 206        6.5061
 207        6.5229
 208        6.5241
 209        6.5267
 210        6.5299
 211        6.5336
 212        6.5347
 213        6.5383
 214        6.5428
 215        6.5678
 216        6.5738
 
  0.1428571E+00  0.0000000E+00  0.0000000E+00  0.8163265E-02
   1      -27.6526
   2      -27.5097
   3      -27.5084
   4      -27.5083
   5      -27.4886
   6      -27.4886
   7      -27.4867
   8      -27.4866
   9      -27.4861
  10      -27.4859
  11      -27.4806
  12      -27.4805
  13      -27.4805
  14      -27.4804
  15      -27.4497
  16      -27.4495
  17      -27.4469
  18      -27.4468
  19      -27.4448
  20      -27.4442
  21      -27.4316
  22      -27.4289
  23      -27.4287
  24      -27.4269
  25      -27.4130
  26      -27.4101
  27      -27.4065
  28      -27.4039
  29      -27.3473
  30      -27.3469
  31      -27.3348
  32      -27.3342
  33      -27.3254
  34      -27.3166
  35      -27.3150
  36      -27.3135
  37      -27.3040
  38      -27.3026
  39      -27.2897
  40      -27.2895
  41      -27.2893
  42      -27.2890
  43      -27.2885
  44      -27.2875
  45      -27.2872
  46      -27.2857
  47      -27.2541
  48      -27.2530
  49      -27.2245
  50      -27.2208
  51      -27.2185
  52      -27.1780
  53      -27.1776
  54      -27.1583
  55      -27.1523
  56      -27.1491
  57      -27.1447
  58      -27.1446
  59      -27.1417
  60      -27.1416
  61      -27.1398
  62      -27.1396
  63      -27.1387
  64      -27.1365
  65      -27.1363
  66      -27.1350
  67      -27.1348
  68      -27.1296
  69      -27.1263
  70      -27.1261
  71      -27.1190
  72      -27.1155
  73      -27.1044
  74      -27.1008
  75      -27.0810
  76      -27.0808
  77      -27.0798
  78      -27.0797
  79      -27.0793
  80      -27.0792
  81      -27.0782
  82      -27.0776
  83      -27.0774
  84      -27.0760
  85      -27.0733
  86      -27.0731
  87      -27.0682
  88      -27.0680
  89      -27.0649
  90      -27.0607
  91      -27.0605
  92      -27.0516
  93      -27.0514
  94      -27.0497
  95      -27.0364
  96      -27.0111
  97      -27.0042
  98      -27.0019
  99      -27.0006
 100      -27.0001
 101      -26.9999
 102      -26.9960
 103      -26.9941
 104      -26.9900
 105      -26.9899
 106      -26.9831
 107      -26.9554
 108      -26.9435
 109       -0.2704
 110        1.5375
 111        1.5378
 112        1.6561
 113        1.9786
 114        1.9919
 115        2.5156
 116        2.5349
 117        2.7300
 118        2.8784
 119        2.8785
 120        3.0318
 121        3.0320
 122        3.0437
 123        3.0439
 124        3.1950
 125        3.2003
 126        3.2005
 127        3.2146
 128        3.2148
 129        3.2167
 130        3.2170
 131        3.9845
 132        4.0710
 133        4.0788
 134        4.1393
 135        4.1403
 136        4.1475
 137        4.1637
 138        4.1710
 139        4.1828
 140        4.2533
 141        4.2730
 142        4.2771
 143        4.2843
 144        4.3349
 145        4.3355
 146        4.3368
 147        4.3374
 148        4.4352
 149        4.4640
 150        4.4738
 151        4.4910
 152        4.5624
 153        4.5834
 154        4.6306
 155        4.9626
 156        4.9633
 157        4.9694
 158        4.9701
 159        5.0499
 160        5.0510
 161        5.0930
 162        5.0936
 163        5.0941
 164        5.0950
 165        5.1450
 166        5.1603
 167        5.1605
 168        5.1615
 169        5.1641
 170        5.1653
 171        5.1695
 172        5.1887
 173        5.1919
 174        5.1931
 175        5.2166
 176        5.2717
 177        5.5534
 178        5.5537
 179        5.5561
 180        5.5563
 181        5.7948
 182        5.7972
 183        5.9278
 184        5.9713
 185        6.0672
 186        6.1137
 187        6.1952
 188        6.1958
 189        6.2001
 190        6.2006
 191        6.2325
 192        6.2330
 193        6.3455
 194        6.3506
 195        6.3692
 196        6.3779
 197        6.3785
 198        6.3792
 199        6.4147
 200        6.4189
 201        6.4194
 202        6.4320
 203        6.4321
 204        6.4475
 205        6.4561
 206        6.4648
 207        6.4690
 208        6.4790
 209        6.5214
 210        6.5230
 211        6.5234
 212        6.5707
 213        6.5980
 214        6.5985
 215        6.6032
 216        6.6181
 
  0.2857143E+00 -0.2775558E-16  0.0000000E+00  0.8163265E-02
   1      -27.6386
   2      -27.5499
   3      -27.5374
   4      -27.5374
   5      -27.5015
   6      -27.5014
   7      -27.5004
   8      -27.5003
   9      -27.4988
  10      -27.4986
  11      -27.4931
  12      -27.4930
  13      -27.4929
  14      -27.4929
  15      -27.4699
  16      -27.4316
  17      -27.4314
  18      -27.4293
  19      -27.4291
  20      -27.4259
  21      -27.4253
  22      -27.4215
  23      -27.4214
  24      -27.4176
  25      -27.4167
  26      -27.3923
  27      -27.3918
  28      -27.3915
  29      -27.3599
  30      -27.3387
  31      -27.3382
  32      -27.3324
  33      -27.3283
  34      -27.3264
  35      -27.3236
  36      -27.3219
  37      -27.3196
  38      -27.3137
  39      -27.3122
  40      -27.2622
  41      -27.2611
  42      -27.2610
  43      -27.2608
  44      -27.2572
  45      -27.2570
  46      -27.2472
  47      -27.2445
  48      -27.2442
  49      -27.1951
  50      -27.1911
  51      -27.1761
  52      -27.1686
  53      -27.1630
  54      -27.1623
  55      -27.1621
  56      -27.1577
  57      -27.1575
  58      -27.1544
  59      -27.1430
  60      -27.1415
  61      -27.1410
  62      -27.1409
  63      -27.1395
  64      -27.1374
  65      -27.1372
  66      -27.1362
  67      -27.1360
  68      -27.1260
  69      -27.1225
  70      -27.1203
  71      -27.1186
  72      -27.1084
  73      -27.1083
  74      -27.0992
  75      -27.0861
  76      -27.0859
  77      -27.0848
  78      -27.0847
  79      -27.0813
  80      -27.0813
  81      -27.0803
  82      -27.0802
  83      -27.0794
  84      -27.0793
  85      -27.0778
  86      -27.0705
  87      -27.0691
  88      -27.0644
  89      -27.0643
  90      -27.0593
  91      -27.0592
  92      -27.0466
  93      -27.0434
  94      -27.0363
  95      -27.0362
  96      -27.0330
  97      -27.0270
  98      -27.0203
  99      -27.0202
 100      -27.0092
 101      -27.0082
 102      -27.0043
 103      -27.0019
 104      -26.9973
 105      -26.9972
 106      -26.9854
 107      -26.9726
 108      -26.9476
 109       -0.0833
 110        1.1140
 111        1.6950
 112        1.6953
 113        1.8214
 114        1.8299
 115        2.5810
 116        2.5812
 117        2.8762
 118        2.8964
 119        3.0030
 120        3.0032
 121        3.0111
 122        3.0112
 123        3.1526
 124        3.2699
 125        3.2702
 126        3.3404
 127        3.3527
 128        3.3530
 129        3.3656
 130        3.3659
 131        3.8483
 132        4.0205
 133        4.0369
 134        4.0372
 135        4.0495
 136        4.0501
 137        4.0512
 138        4.0522
 139        4.0527
 140        4.0929
 141        4.1034
 142        4.1257
 143        4.1406
 144        4.1778
 145        4.2022
 146        4.2635
 147        4.2712
 148        4.3364
 149        4.3623
 150        4.5832
 151        4.5946
 152        4.6777
 153        4.6955
 154        4.9372
 155        5.0023
 156        5.0035
 157        5.0487
 158        5.0697
 159        5.1053
 160        5.1062
 161        5.1092
 162        5.1102
 163        5.1236
 164        5.1465
 165        5.1526
 166        5.1858
 167        5.1867
 168        5.1880
 169        5.1891
 170        5.2115
 171        5.2123
 172        5.2141
 173        5.2152
 174        5.2901
 175        5.2914
 176        5.4174
 177        5.5825
 178        5.5831
 179        5.5908
 180        5.5912
 181        5.6900
 182        5.6922
 183        5.9330
 184        5.9718
 185        6.0417
 186        6.0497
 187        6.0502
 188        6.0716
 189        6.0721
 190        6.1493
 191        6.1756
 192        6.1761
 193        6.1925
 194        6.2039
 195        6.2290
 196        6.2365
 197        6.2665
 198        6.2670
 199        6.3028
 200        6.3033
 201        6.3397
 202        6.3827
 203        6.3869
 204        6.3932
 205        6.3988
 206        6.3990
 207        6.4579
 208        6.4693
 209        6.4902
 210        6.5381
 211        6.5685
 212        6.6171
 213        6.6172
 214        6.7054
 215        6.7444
 216        6.7506
 
  0.4285714E+00 -0.5551115E-16  0.0000000E+00  0.8163265E-02
   1      -27.6161
   2      -27.5860
   3      -27.5530
   4      -27.5530
   5      -27.5066
   6      -27.5066
   7      -27.5061
   8      -27.5061
   9      -27.5052
  10      -27.5051
  11      -27.5033
  12      -27.5032
  13      -27.5031
  14      -27.5031
  15      -27.4900
  16      -27.4347
  17      -27.4344
  18      -27.4301
  19      -27.4295
  20      -27.4204
  21      -27.4202
  22      -27.4195
  23      -27.4193
  24      -27.3874
  25      -27.3861
  26      -27.3778
  27      -27.3710
  28      -27.3644
  29      -27.3640
  30      -27.3552
  31      -27.3534
  32      -27.3475
  33      -27.3470
  34      -27.3414
  35      -27.3396
  36      -27.3371
  37      -27.3356
  38      -27.2821
  39      -27.2800
  40      -27.2553
  41      -27.2537
  42      -27.2309
  43      -27.2276
  44      -27.2254
  45      -27.2252
  46      -27.2203
  47      -27.2201
  48      -27.2010
  49      -27.1955
  50      -27.1905
  51      -27.1904
  52      -27.1851
  53      -27.1850
  54      -27.1813
  55      -27.1686
  56      -27.1681
  57      -27.1639
  58      -27.1553
  59      -27.1438
  60      -27.1412
  61      -27.1411
  62      -27.1397
  63      -27.1382
  64      -27.1380
  65      -27.1375
  66      -27.1373
  67      -27.1231
  68      -27.1114
  69      -27.1097
  70      -27.1027
  71      -27.0996
  72      -27.0905
  73      -27.0904
  74      -27.0903
  75      -27.0851
  76      -27.0850
  77      -27.0834
  78      -27.0833
  79      -27.0819
  80      -27.0818
  81      -27.0815
  82      -27.0815
  83      -27.0814
  84      -27.0813
  85      -27.0794
  86      -27.0664
  87      -27.0658
  88      -27.0645
  89      -27.0621
  90      -27.0620
  91      -27.0614
  92      -27.0602
  93      -27.0601
  94      -27.0598
  95      -27.0498
  96      -27.0498
  97      -27.0320
  98      -27.0256
  99      -27.0213
 100      -27.0212
 101      -27.0186
 102      -27.0166
 103      -27.0117
 104      -27.0115
 105      -27.0080
 106      -27.0078
 107      -26.9626
 108      -26.9540
 109        0.2199
 110        0.6258
 111        1.7437
 112        1.7466
 113        1.9415
 114        1.9418
 115        2.2507
 116        2.2509
 117        2.9951
 118        2.9953
 119        2.9980
 120        2.9981
 121        3.2726
 122        3.2869
 123        3.2872
 124        3.2924
 125        3.4361
 126        3.5492
 127        3.5495
 128        3.5594
 129        3.5598
 130        3.5606
 131        3.6705
 132        3.6891
 133        3.7144
 134        3.7839
 135        3.7843
 136        3.7906
 137        3.7910
 138        3.8156
 139        3.9848
 140        4.1196
 141        4.1341
 142        4.1397
 143        4.1518
 144        4.1573
 145        4.1669
 146        4.2364
 147        4.2571
 148        4.3510
 149        4.3551
 150        4.6532
 151        4.6574
 152        4.8012
 153        4.8188
 154        4.9285
 155        4.9471
 156        4.9768
 157        4.9780
 158        5.0540
 159        5.0638
 160        5.1510
 161        5.1519
 162        5.1595
 163        5.1602
 164        5.1614
 165        5.2075
 166        5.2085
 167        5.2183
 168        5.2193
 169        5.2438
 170        5.2444
 171        5.2451
 172        5.2463
 173        5.2880
 174        5.4133
 175        5.4149
 176        5.5533
 177        5.5552
 178        5.6389
 179        5.6669
 180        5.7797
 181        5.7799
 182        5.8028
 183        5.8030
 184        5.8966
 185        5.9635
 186        5.9639
 187        5.9716
 188        5.9720
 189        5.9849
 190        6.0180
 191        6.0448
 192        6.0453
 193        6.0751
 194        6.0754
 195        6.0778
 196        6.1058
 197        6.2384
 198        6.2388
 199        6.3011
 200        6.3271
 201        6.3274
 202        6.3283
 203        6.3297
 204        6.3304
 205        6.3564
 206        6.3693
 207        6.4533
 208        6.4651
 209        6.4776
 210        6.4874
 211        6.5791
 212        6.7238
 213        6.7701
 214        6.7705
 215        6.8180
 216        6.8490
 
 -0.1626303E-18  0.1428571E+00  0.0000000E+00  0.8163265E-02
   1      -27.6526
   2      -27.5096
   3      -27.5085
   4      -27.5084
   5      -27.4886
   6      -27.4885
   7      -27.4867
   8      -27.4866
   9      -27.4861
  10      -27.4860
  11      -27.4806
  12      -27.4805
  13      -27.4805
  14      -27.4803
  15      -27.4496
  16      -27.4495
  17      -27.4469
  18      -27.4467
  19      -27.4448
  20      -27.4443
  21      -27.4316
  22      -27.4289
  23      -27.4288
  24      -27.4268
  25      -27.4130
  26      -27.4101
  27      -27.4065
  28      -27.4038
  29      -27.3473
  30      -27.3469
  31      -27.3348
  32      -27.3342
  33      -27.3254
  34      -27.3166
  35      -27.3150
  36      -27.3135
  37      -27.3040
  38      -27.3026
  39      -27.2897
  40      -27.2896
  41      -27.2893
  42      -27.2890
  43      -27.2884
  44      -27.2875
  45      -27.2872
  46      -27.2858
  47      -27.2541
  48      -27.2529
  49      -27.2244
  50      -27.2208
  51      -27.2185
  52      -27.1780
  53      -27.1776
  54      -27.1583
  55      -27.1522
  56      -27.1491
  57      -27.1447
  58      -27.1446
  59      -27.1418
  60      -27.1417
  61      -27.1397
  62      -27.1396
  63      -27.1387
  64      -27.1365
  65      -27.1364
  66      -27.1350
  67      -27.1349
  68      -27.1297
  69      -27.1262
  70      -27.1261
  71      -27.1190
  72      -27.1156
  73      -27.1043
  74      -27.1008
  75      -27.0810
  76      -27.0808
  77      -27.0798
  78      -27.0797
  79      -27.0793
  80      -27.0793
  81      -27.0782
  82      -27.0776
  83      -27.0774
  84      -27.0760
  85      -27.0733
  86      -27.0731
  87      -27.0682
  88      -27.0680
  89      -27.0650
  90      -27.0607
  91      -27.0605
  92      -27.0516
  93      -27.0514
  94      -27.0497
  95      -27.0364
  96      -27.0111
  97      -27.0042
  98      -27.0019
  99      -27.0006
 100      -27.0001
 101      -26.9999
 102      -26.9960
 103      -26.9941
 104      -26.9900
 105      -26.9899
 106      -26.9832
 107      -26.9553
 108      -26.9435
 109       -0.2704
 110        1.5375
 111        1.5378
 112        1.6561
 113        1.9785
 114        1.9919
 115        2.5155
 116        2.5349
 117        2.7301
 118        2.8783
 119        2.8785
 120        3.0318
 121        3.0320
 122        3.0437
 123        3.0439
 124        3.1950
 125        3.2003
 126        3.2006
 127        3.2146
 128        3.2148
 129        3.2166
 130        3.2169
 131        3.9846
 132        4.0710
 133        4.0786
 134        4.1394
 135        4.1404
 136        4.1475
 137        4.1637
 138        4.1708
 139        4.1832
 140        4.2533
 141        4.2729
 142        4.2767
 143        4.2843
 144        4.3347
 145        4.3354
 146        4.3370
 147        4.3377
 148        4.4352
 149        4.4640
 150        4.4737
 151        4.4906
 152        4.5624
 153        4.5835
 154        4.6309
 155        4.9626
 156        4.9633
 157        4.9693
 158        4.9700
 159        5.0501
 160        5.0512
 161        5.0927
 162        5.0937
 163        5.0939
 164        5.0949
 165        5.1450
 166        5.1599
 167        5.1609
 168        5.1612
 169        5.1642
 170        5.1653
 171        5.1695
 172        5.1888
 173        5.1920
 174        5.1931
 175        5.2166
 176        5.2716
 177        5.5535
 178        5.5538
 179        5.5560
 180        5.5562
 181        5.7947
 182        5.7972
 183        5.9279
 184        5.9711
 185        6.0675
 186        6.1135
 187        6.1950
 188        6.1956
 189        6.2003
 190        6.2009
 191        6.2325
 192        6.2331
 193        6.3455
 194        6.3504
 195        6.3691
 196        6.3780
 197        6.3786
 198        6.3794
 199        6.4149
 200        6.4189
 201        6.4194
 202        6.4321
 203        6.4322
 204        6.4473
 205        6.4564
 206        6.4639
 207        6.4694
 208        6.4792
 209        6.5212
 210        6.5229
 211        6.5232
 212        6.5699
 213        6.5978
 214        6.5985
 215        6.6057
 216        6.6191
 
  0.1428571E+00  0.1428571E+00  0.0000000E+00  0.8163265E-02
   1      -27.6433
   2      -27.5274
   3      -27.5272
   4      -27.5220
   5      -27.5220
   6      -27.5219
   7      -27.5218
   8      -27.4937
   9      -27.4937
  10      -27.4849
  11      -27.4848
  12      -27.4664
  13      -27.4662
  14      -27.4661
  15      -27.4660
  16      -27.4577
  17      -27.4574
  18      -27.4498
  19      -27.4498
  20      -27.4311
  21      -27.4105
  22      -27.4103
  23      -27.4103
  24      -27.4100
  25      -27.4080
  26      -27.4059
  27      -27.4057
  28      -27.3738
  29      -27.3736
  30      -27.3426
  31      -27.3426
  32      -27.3374
  33      -27.3368
  34      -27.3321
  35      -27.3208
  36      -27.3158
  37      -27.3077
  38      -27.2890
  39      -27.2889
  40      -27.2818
  41      -27.2817
  42      -27.2809
  43      -27.2687
  44      -27.2684
  45      -27.2682
  46      -27.2680
  47      -27.2596
  48      -27.2032
  49      -27.1982
  50      -27.1963
  51      -27.1962
  52      -27.1634
  53      -27.1632
  54      -27.1585
  55      -27.1537
  56      -27.1537
  57      -27.1520
  58      -27.1518
  59      -27.1517
  60      -27.1515
  61      -27.1486
  62      -27.1460
  63      -27.1458
  64      -27.1457
  65      -27.1455
  66      -27.1302
  67      -27.1298
  68      -27.1213
  69      -27.1211
  70      -27.1210
  71      -27.1208
  72      -27.1079
  73      -27.1078
  74      -27.0933
  75      -27.0929
  76      -27.0825
  77      -27.0824
  78      -27.0823
  79      -27.0822
  80      -27.0812
  81      -27.0812
  82      -27.0798
  83      -27.0797
  84      -27.0766
  85      -27.0764
  86      -27.0763
  87      -27.0762
  88      -27.0687
  89      -27.0552
  90      -27.0548
  91      -27.0465
  92      -27.0464
  93      -27.0463
  94      -27.0461
  95      -27.0434
  96      -27.0222
  97      -27.0221
  98      -27.0143
  99      -27.0142
 100      -27.0121
 101      -27.0120
 102      -26.9999
 103      -26.9941
 104      -26.9939
 105      -26.9833
 106      -26.9831
 107      -26.9747
 108      -26.9463
 109       -0.1458
 110        1.4243
 111        1.4247
 112        1.6428
 113        1.6431
 114        2.3832
 115        2.3835
 116        2.7702
 117        2.7705
 118        2.7708
 119        2.7708
 120        2.9918
 121        2.9922
 122        3.2339
 123        3.2344
 124        3.2345
 125        3.2345
 126        3.2854
 127        3.2858
 128        3.2859
 129        3.2860
 130        3.2927
 131        3.9478
 132        3.9480
 133        4.0631
 134        4.0962
 135        4.0967
 136        4.1131
 137        4.1164
 138        4.1171
 139        4.1421
 140        4.1425
 141        4.1456
 142        4.1583
 143        4.1604
 144        4.1609
 145        4.2172
 146        4.2179
 147        4.3031
 148        4.3540
 149        4.3549
 150        4.4800
 151        4.5763
 152        4.7127
 153        4.7630
 154        4.7638
 155        5.0406
 156        5.0415
 157        5.0421
 158        5.0425
 159        5.0842
 160        5.0855
 161        5.1006
 162        5.1016
 163        5.1270
 164        5.1272
 165        5.1536
 166        5.1537
 167        5.1541
 168        5.1557
 169        5.1746
 170        5.1758
 171        5.2405
 172        5.2417
 173        5.2419
 174        5.2430
 175        5.2953
 176        5.2962
 177        5.5654
 178        5.5661
 179        5.5704
 180        5.5705
 181        5.7207
 182        5.7229
 183        5.9397
 184        5.9514
 185        6.1364
 186        6.1382
 187        6.1386
 188        6.1388
 189        6.1394
 190        6.1505
 191        6.1514
 192        6.1519
 193        6.1527
 194        6.1745
 195        6.1868
 196        6.1993
 197        6.2730
 198        6.2741
 199        6.3170
 200        6.3176
 201        6.4013
 202        6.4014
 203        6.4448
 204        6.4457
 205        6.4501
 206        6.4509
 207        6.5860
 208        6.5872
 209        6.5969
 210        6.5970
 211        6.6026
 212        6.6039
 213        6.6173
 214        6.6176
 215        6.6179
 216        6.6182
 
  0.2857143E+00  0.1428571E+00  0.0000000E+00  0.8163265E-02
   1      -27.6250
   2      -27.5655
   3      -27.5442
   4      -27.5441
   5      -27.5381
   6      -27.5273
   7      -27.5273
   8      -27.5105
   9      -27.5105
  10      -27.4890
  11      -27.4890
  12      -27.4809
  13      -27.4809
  14      -27.4792
  15      -27.4654
  16      -27.4583
  17      -27.4507
  18      -27.4505
  19      -27.4497
  20      -27.4251
  21      -27.4049
  22      -27.3972
  23      -27.3969
  24      -27.3931
  25      -27.3818
  26      -27.3780
  27      -27.3777
  28      -27.3767
  29      -27.3681
  30      -27.3521
  31      -27.3514
  32      -27.3438
  33      -27.3433
  34      -27.3400
  35      -27.3396
  36      -27.3393
  37      -27.3324
  38      -27.3189
  39      -27.2908
  40      -27.2501
  41      -27.2497
  42      -27.2377
  43      -27.2375
  44      -27.2350
  45      -27.2348
  46      -27.2287
  47      -27.2150
  48      -27.1946
  49      -27.1833
  50      -27.1820
  51      -27.1762
  52      -27.1760
  53      -27.1747
  54      -27.1721
  55      -27.1690
  56      -27.1644
  57      -27.1643
  58      -27.1583
  59      -27.1581
  60      -27.1510
  61      -27.1479
  62      -27.1478
  63      -27.1470
  64      -27.1433
  65      -27.1376
  66      -27.1255
  67      -27.1174
  68      -27.1173
  69      -27.1139
  70      -27.1098
  71      -27.1033
  72      -27.0987
  73      -27.0987
  74      -27.0922
  75      -27.0887
  76      -27.0879
  77      -27.0877
  78      -27.0843
  79      -27.0843
  80      -27.0837
  81      -27.0836
  82      -27.0830
  83      -27.0810
  84      -27.0810
  85      -27.0805
  86      -27.0804
  87      -27.0736
  88      -27.0735
  89      -27.0609
  90      -27.0526
  91      -27.0489
  92      -27.0456
  93      -27.0454
  94      -27.0386
  95      -27.0385
  96      -27.0370
  97      -27.0353
  98      -27.0343
  99      -27.0315
 100      -27.0314
 101      -27.0170
 102      -27.0082
 103      -27.0079
 104      -27.0034
 105      -27.0033
 106      -26.9914
 107      -26.9723
 108      -26.9531
 109        0.0990
 110        0.9063
 111        1.2845
 112        1.8450
 113        1.8453
 114        2.2914
 115        2.4508
 116        2.4509
 117        2.7078
 118        2.7079
 119        2.8271
 120        3.2648
 121        3.2649
 122        3.2959
 123        3.3184
 124        3.3188
 125        3.3492
 126        3.4130
 127        3.4133
 128        3.4530
 129        3.4532
 130        3.4763
 131        3.7075
 132        3.8129
 133        3.8359
 134        3.8363
 135        3.9226
 136        3.9268
 137        3.9272
 138        3.9686
 139        3.9707
 140        4.0189
 141        4.0790
 142        4.0819
 143        4.1488
 144        4.1591
 145        4.1808
 146        4.2624
 147        4.2887
 148        4.3910
 149        4.4374
 150        4.4460
 151        4.6518
 152        4.8461
 153        4.8651
 154        4.9325
 155        4.9482
 156        5.0067
 157        5.0078
 158        5.0500
 159        5.0757
 160        5.0768
 161        5.0827
 162        5.1308
 163        5.1737
 164        5.1744
 165        5.2040
 166        5.2046
 167        5.2109
 168        5.2117
 169        5.2121
 170        5.2131
 171        5.2833
 172        5.2850
 173        5.2861
 174        5.3459
 175        5.3473
 176        5.4883
 177        5.6014
 178        5.6034
 179        5.6296
 180        5.6302
 181        5.7880
 182        5.7883
 183        5.8089
 184        5.9500
 185        5.9504
 186        5.9524
 187        5.9746
 188        6.0004
 189        6.0007
 190        6.0044
 191        6.0786
 192        6.0790
 193        6.1147
 194        6.1793
 195        6.1797
 196        6.1980
 197        6.2095
 198        6.2673
 199        6.2884
 200        6.3382
 201        6.3433
 202        6.3435
 203        6.3670
 204        6.4070
 205        6.4151
 206        6.4156
 207        6.4731
 208        6.5166
 209        6.5326
 210        6.5412
 211        6.6368
 212        6.6835
 213        6.7230
 214        6.7264
 215        6.7986
 216        6.8039
 
  0.4285714E+00  0.1428571E+00  0.0000000E+00  0.8163265E-02
   1      -27.5987
   2      -27.5986
   3      -27.5520
   4      -27.5520
   5      -27.5418
   6      -27.5235
   7      -27.5234
   8      -27.5226
   9      -27.5226
  10      -27.4895
  11      -27.4890
  12      -27.4889
  13      -27.4885
  14      -27.4885
  15      -27.4680
  16      -27.4610
  17      -27.4567
  18      -27.4454
  19      -27.4452
  20      -27.4049
  21      -27.3994
  22      -27.3918
  23      -27.3916
  24      -27.3899
  25      -27.3889
  26      -27.3772
  27      -27.3653
  28      -27.3583
  29      -27.3566
  30      -27.3562