 vasp.4.6.28 25Jul05 complex 
 executed on             LinuxIFC date 2016.11.25  11:40:55
 running on    4 nodes
 distr:  one band on    1 nodes,    4 groups


--------------------------------------------------------------------------------------------------------


 INCAR:
 POTCAR:   PAW_PBE Ti_pv 07Sep2000                
 POTCAR:   PAW_PBE Ti_pv 07Sep2000                
   VRHFIN =Ti: d3 s1                                                            
   LEXCH  = PE                                                                  
   EATOM  =  1042.3781 eV,   76.6126 Ry                                         
                                                                                
   TITEL  = PAW_PBE Ti_pv 07Sep2000                                             
   LULTRA =        F    use ultrasoft PP ?                                      
   IUNSCR =        1    unscreen: 0-lin 1-nonlin 2-no                           
   RPACOR =    2.200    partial core radius                                     
   POMASS =   47.880; ZVAL   =   10.000    mass and valenz                      
   RCORE  =    2.500    outmost cutoff radius                                   
   RWIGS  =    2.500; RWIGS  =    1.323    wigner-seitz radius (au A)           
   ENMAX  =  222.338; ENMIN  =  166.753 eV                                      
   RCLOC  =    1.701    cutoff for local pot                                    
   LCOR   =        T    correct aug charges                                     
   LPAW   =        T    paw PP                                                  
   EAUG   =  482.848                                                            
   DEXC   =    -.008                                                            
   RMAX   =    3.092    core radius for proj-oper                               
   RAUG   =    1.300    factor for augmentation sphere                          
   RDEP   =    2.538    radius for radial grids                                 
   QCUT   =   -4.042; QGAM   =    8.085    optimization parameters              
                                                                                
   Description                                                                  
     l     E      TYP  RCUT    TYP  RCUT                                        
     1   .000     23  2.300                                                     
     1  -.100     23  2.300                                                     
     2   .000     23  2.500                                                     
     2   .000     23  2.500                                                     
     0   .000     23  2.500                                                     
     0  1.500     23  2.500                                                     
     3   .000      7   .000                                                     
  local pseudopotential read in
  partial core-charges read in
  atomic valenz-charges read in
  non local Contribution for L=           1  read in
    real space projection operators read in
  non local Contribution for L=           1  read in
    real space projection operators read in
  non local Contribution for L=           2  read in
    real space projection operators read in
  non local Contribution for L=           2  read in
    real space projection operators read in
  non local Contribution for L=           0  read in
    real space projection operators read in
  non local Contribution for L=           0  read in
    real space projection operators read in
    PAW grid and wavefunctions read in
 
   number of l-projection  operators is LMAX  =           6
   number of lm-projection operators is LMMAX =          18
 

 ----------------------------------------------------------------------------- 
|                                                                             |
|  ADVICE TO THIS USER RUNNING 'VASP/VAMP'   (HEAR YOUR MASTER'S VOICE ...):  |
|                                                                             |
|      You have a (more or less) 'large supercell' and for larger cells       |
|      it might be more efficient to use real space projection operators      |
|      So try LREAL= Auto  in the INCAR   file.                               |
|      Mind: If you want to do an extremely accurate calculations keep the    |
|      reciprocal projection scheme          (i.e. LREAL=.FALSE.)             |
|                                                                             |
 ----------------------------------------------------------------------------- 

 PAW_PBE Ti_pv 07Sep2000                :
 energy of atom  1       EATOM=-1042.3781
 kinetic energy error for atom=    0.0024 (will be added to EATOM!!)
 
 EXHCAR: internal setup
 exchange correlation table for  LEXCH =        8
   RHO(1)=    0.500       N(1)  =     2000
   RHO(2)=  100.500       N(2)  =     4000
 
 POSCAR: Ti                                      
  positions in direct lattice
  No initial velocities read in
 


--------------------------------------------------------------------------------------------------------


 ion  position               nearest neighbor table
   1  0.112  0.223  0.126-  22 2.89  19 2.89  21 2.89  31 2.90  28 2.90  30 2.91   2 2.93   7 2.94
                             4 2.94   3 2.95   5 2.95   9 2.96
   2  0.444  0.223  0.125-  19 2.90  28 2.90  23 2.90  32 2.90  29 2.90  20 2.90   1 2.93   3 2.94
                             8 2.94   5 2.94   7 2.95   6 2.95
   3  0.777  0.223  0.125-  20 2.90  29 2.90  24 2.90  33 2.90  30 2.90  21 2.90   2 2.94   9 2.94
                             6 2.94   1 2.95   8 2.95   4 2.95
   4  0.111  0.556  0.125-  24 2.90  33 2.90  25 2.90  34 2.90  22 2.90  31 2.90   6 2.94   5 2.94
                             7 2.94   1 2.94   3 2.95   8 2.95
   5  0.444  0.556  0.125-  22 2.90  31 2.90  26 2.90  35 2.90  32 2.90  23 2.90   4 2.94   6 2.94
                             2 2.94   8 2.94   1 2.95   9 2.95
   6  0.777  0.556  0.125-  23 2.90  32 2.90  27 2.90  36 2.90  33 2.90  24 2.90   4 2.94   5 2.94
                             3 2.94   9 2.94   7 2.95   2 2.95
   7  0.111  0.889  0.125-  27 2.90  36 2.90  28 2.90  19 2.90  34 2.90  25 2.90   1 2.94   9 2.94
                             8 2.94   4 2.94   2 2.95   6 2.95
   8  0.444  0.889  0.125-  25 2.90  34 2.90  29 2.90  20 2.90  26 2.90  35 2.90   7 2.94   9 2.94
                             2 2.94   5 2.94   3 2.95   4 2.95
   9  0.777  0.889  0.125-  26 2.90  35 2.90  30 2.90  21 2.90  27 2.90  36 2.90   7 2.94   8 2.94
                             3 2.94   6 2.94   5 2.95   1 2.96
  10  0.111  0.223  0.625-  21 2.90  30 2.90  22 2.90  31 2.90  19 2.90  28 2.90  12 2.94  11 2.94
                            16 2.94  13 2.94  18 2.95  14 2.95
  11  0.444  0.223  0.625-  19 2.90  28 2.90  23 2.90  32 2.90  29 2.90  20 2.90  10 2.94  12 2.94
                            17 2.94  14 2.94  16 2.95  15 2.95
  12  0.777  0.223  0.625-  20 2.90  29 2.90  24 2.90  33 2.90  30 2.90  21 2.90  10 2.94  11 2.94
                            18 2.94  15 2.94  17 2.95  13 2.95
  13  0.111  0.556  0.625-  24 2.90  33 2.90  25 2.90  34 2.90  22 2.90  31 2.90  15 2.94  14 2.94
                            10 2.94  16 2.94  12 2.95  17 2.95
  14  0.444  0.556  0.625-  22 2.90  31 2.90  26 2.90  35 2.90  32 2.90  23 2.90  13 2.94  15 2.94
                            11 2.94  17 2.94  10 2.95  18 2.95
  15  0.777  0.556  0.625-  23 2.90  32 2.90  27 2.90  36 2.90  33 2.90  24 2.90  13 2.94  14 2.94
                            12 2.94  18 2.94  16 2.95  11 2.95
  16  0.111  0.889  0.625-  27 2.90  36 2.90  28 2.90  19 2.90  34 2.90  25 2.90  18 2.94  17 2.94
                            10 2.94  13 2.94  11 2.95  15 2.95
  17  0.444  0.889  0.625-  25 2.90  34 2.90  29 2.90  20 2.90  26 2.90  35 2.90  16 2.94  18 2.94
                            11 2.94  14 2.94  12 2.95  13 2.95
  18  0.777  0.889  0.625-  26 2.90  35 2.90  30 2.90  21 2.90  27 2.90  36 2.90  16 2.94  17 2.94
                            12 2.94  15 2.94  10 2.95  14 2.95
  19  0.223  0.111  0.375-   1 2.89   2 2.90  11 2.90   7 2.90  16 2.90  10 2.90  21 2.94  20 2.94
                            25 2.94  22 2.94  27 2.95  23 2.95
  20  0.556  0.111  0.375-   3 2.90  12 2.90   8 2.90  17 2.90   2 2.90  11 2.90  19 2.94  21 2.94
                            26 2.94  23 2.94  25 2.95  24 2.95
  21  0.889  0.111  0.375-   1 2.89  10 2.90   9 2.90  18 2.90  12 2.90   3 2.90  19 2.94  20 2.94
                            27 2.94  24 2.94  26 2.95  22 2.95
  22  0.223  0.444  0.375-   1 2.89   5 2.90  14 2.90  10 2.90  13 2.90   4 2.90  24 2.94  23 2.94
                            19 2.94  25 2.94  21 2.95  26 2.95
  23  0.556  0.444  0.375-   6 2.90  15 2.90  11 2.90   2 2.90  14 2.90   5 2.90  22 2.94  24 2.94
                            20 2.94  26 2.94  19 2.95  27 2.95
  24  0.889  0.444  0.375-   4 2.90  13 2.90  12 2.90   3 2.90   6 2.90  15 2.90  22 2.94  23 2.94
                            21 2.94  27 2.94  25 2.95  20 2.95
  25  0.223  0.777  0.375-   8 2.90  17 2.90  13 2.90   4 2.90  16 2.90   7 2.90  27 2.94  26 2.94
                            19 2.94  22 2.94  20 2.95  24 2.95
  26  0.556  0.777  0.375-   9 2.90  18 2.90  14 2.90   5 2.90  17 2.90   8 2.90  25 2.94  27 2.94
                            20 2.94  23 2.94  21 2.95  22 2.95
  27  0.889  0.777  0.375-   7 2.90  16 2.90  15 2.90   6 2.90   9 2.90  18 2.90  25 2.94  26 2.94
                            21 2.94  24 2.94  19 2.95  23 2.95
  28  0.223  0.111  0.875-   2 2.90  11 2.90   7 2.90  16 2.90  10 2.90   1 2.90  30 2.94  29 2.94
                            34 2.94  31 2.94  36 2.95  32 2.95
  29  0.556  0.111  0.875-   3 2.90  12 2.90   8 2.90  17 2.90   2 2.90  11 2.90  28 2.94  30 2.94
                            35 2.94  32 2.94  34 2.95  33 2.95
  30  0.889  0.111  0.875-  10 2.90   9 2.90  18 2.90  12 2.90   3 2.90   1 2.91  28 2.94  29 2.94
                            36 2.94  33 2.94  35 2.95  31 2.95
  31  0.223  0.444  0.875-   5 2.90  14 2.90  10 2.90  13 2.90   4 2.90   1 2.90  33 2.94  32 2.94
                            28 2.94  34 2.94  30 2.95  35 2.95
  32  0.556  0.444  0.875-   6 2.90  15 2.90  11 2.90   2 2.90  14 2.90   5 2.90  31 2.94  33 2.94
                            29 2.94  35 2.94  28 2.95  36 2.95
  33  0.889  0.444  0.875-   4 2.90  13 2.90  12 2.90   3 2.90   6 2.90  15 2.90  31 2.94  32 2.94
                            30 2.94  36 2.94  34 2.95  29 2.95
  34  0.223  0.777  0.875-   8 2.90  17 2.90  13 2.90   4 2.90  16 2.90   7 2.90  36 2.94  35 2.94
                            28 2.94  31 2.94  29 2.95  33 2.95
  35  0.556  0.777  0.875-   9 2.90  18 2.90  14 2.90   5 2.90  17 2.90   8 2.90  34 2.94  36 2.94
                            29 2.94  32 2.94  30 2.95  31 2.95
  36  0.889  0.777  0.875-   7 2.90  16 2.90  15 2.90   6 2.90   9 2.90  18 2.90  34 2.94  35 2.94
                            30 2.94  33 2.94  28 2.95  32 2.95
 
  LATTYP: Found a base centered orthorhombic cell.
 ALAT       =     8.8635622795
 B/A-ratio  =     1.7208744689
 C/A-ratio  =     1.0595766871
  
  Lattice vectors:
  
 A1 = (   8.8206670999,   0.0247654402,   0.0000000000)
 A2 = (  -4.3888858705,   7.6513046101,   0.0000000000)
 A3 = (   0.0000000000,   0.0000000000,   9.3916239560)
 Subroutine PRICEL returns:
 Original cell was already a primitive cell.
 

Analysis of symmetry for initial positions (statically):

 Routine SETGRP: Setting up the symmetry group for a 
 base centered orthorhombic supercell.


 Subroutine GETGRP returns: Found  1 space group operations
 (whereof  1 operations were pure point group operations)
 out of a pool of  8 trial point group operations.


The static configuration has the point symmetry C_1 .

Analysis of symmetry for dynamics (positions and initial velocities):

 Subroutine DYNSYM returns: Found  1 space group operations
 (whereof  1 operations were pure point group operations)
 out of a pool of  1 trial space group operations
 (whereof  1 operations were pure point group operations)
 and found also     1 'primitive' translations


The dynamic configuration has the point symmetry C_1 .
 
 
 KPOINTS: Automatic mesh                          

Automatic generation of k-mesh.
 generate k-points for:   7   7   5
 
 Subroutine IBZKPT returns following result:
 ===========================================
 
 Found    123 irreducible k-points:
 
 Following reciprocal coordinates:
            Coordinates               Weight
  0.000000  0.000000  0.000000      1.000000
  0.142857  0.000000  0.000000      2.000000
  0.285714 -0.000000  0.000000      2.000000
  0.428571 -0.000000  0.000000      2.000000
 -0.000000  0.142857  0.000000      2.000000
  0.142857  0.142857  0.000000      2.000000
  0.285714  0.142857  0.000000      2.000000
  0.428571  0.142857  0.000000      2.000000
 -0.428571  0.142857  0.000000      2.000000
 -0.285714  0.142857  0.000000      2.000000
 -0.142857  0.142857  0.000000      2.000000
  0.000000  0.285714  0.000000      2.000000
  0.142857  0.285714  0.000000      2.000000
  0.285714  0.285714  0.000000      2.000000
  0.428571  0.285714  0.000000      2.000000
 -0.428571  0.285714  0.000000      2.000000
 -0.285714  0.285714  0.000000      2.000000
 -0.142857  0.285714  0.000000      2.000000
  0.000000  0.428571  0.000000      2.000000
  0.142857  0.428571  0.000000      2.000000
  0.285714  0.428571  0.000000      2.000000
  0.428571  0.428571  0.000000      2.000000
 -0.428571  0.428571  0.000000      2.000000
 -0.285714  0.428571  0.000000      2.000000
 -0.142857  0.428571  0.000000      2.000000
  0.000000  0.000000  0.200000      2.000000
  0.142857  0.000000  0.200000      2.000000
  0.285714 -0.000000  0.200000      2.000000
  0.428571 -0.000000  0.200000      2.000000
 -0.428571  0.000000  0.200000      2.000000
 -0.285714  0.000000  0.200000      2.000000
 -0.142857  0.000000  0.200000      2.000000
 -0.000000  0.142857  0.200000      2.000000
  0.142857  0.142857  0.200000      2.000000
  0.285714  0.142857  0.200000      2.000000
  0.428571  0.142857  0.200000      2.000000
 -0.428571  0.142857  0.200000      2.000000
 -0.285714  0.142857  0.200000      2.000000
 -0.142857  0.142857  0.200000      2.000000
  0.000000  0.285714  0.200000      2.000000
  0.142857  0.285714  0.200000      2.000000
  0.285714  0.285714  0.200000      2.000000
  0.428571  0.285714  0.200000      2.000000
 -0.428571  0.285714  0.200000      2.000000
 -0.285714  0.285714  0.200000      2.000000
 -0.142857  0.285714  0.200000      2.000000
  0.000000  0.428571  0.200000      2.000000
  0.142857  0.428571  0.200000      2.000000
  0.285714  0.428571  0.200000      2.000000
  0.428571  0.428571  0.200000      2.000000
 -0.428571  0.428571  0.200000      2.000000
 -0.285714  0.428571  0.200000      2.000000
 -0.142857  0.428571  0.200000      2.000000
  0.000000 -0.428571  0.200000      2.000000
  0.142857 -0.428571  0.200000      2.000000
  0.285714 -0.428571  0.200000      2.000000
  0.428571 -0.428571  0.200000      2.000000
 -0.428571 -0.428571  0.200000      2.000000
 -0.285714 -0.428571  0.200000      2.000000
 -0.142857 -0.428571  0.200000      2.000000
  0.000000 -0.285714  0.200000      2.000000
  0.142857 -0.285714  0.200000      2.000000
  0.285714 -0.285714  0.200000      2.000000
  0.428571 -0.285714  0.200000      2.000000
 -0.428571 -0.285714  0.200000      2.000000
 -0.285714 -0.285714  0.200000      2.000000
 -0.142857 -0.285714  0.200000      2.000000
  0.000000 -0.142857  0.200000      2.000000
  0.142857 -0.142857  0.200000      2.000000
  0.285714 -0.142857  0.200000      2.000000
  0.428571 -0.142857  0.200000      2.000000
 -0.428571 -0.142857  0.200000      2.000000
 -0.285714 -0.142857  0.200000      2.000000
 -0.142857 -0.142857  0.200000      2.000000
  0.000000  0.000000  0.400000      2.000000
  0.142857  0.000000  0.400000      2.000000
  0.285714 -0.000000  0.400000      2.000000
  0.428571 -0.000000  0.400000      2.000000
 -0.428571  0.000000  0.400000      2.000000
 -0.285714  0.000000  0.400000      2.000000
 -0.142857  0.000000  0.400000      2.000000
 -0.000000  0.142857  0.400000      2.000000
  0.142857  0.142857  0.400000      2.000000
  0.285714  0.142857  0.400000      2.000000
  0.428571  0.142857  0.400000      2.000000
 -0.428571  0.142857  0.400000      2.000000
 -0.285714  0.142857  0.400000      2.000000
 -0.142857  0.142857  0.400000      2.000000
  0.000000  0.285714  0.400000      2.000000
  0.142857  0.285714  0.400000      2.000000
  0.285714  0.285714  0.400000      2.000000
  0.428571  0.285714  0.400000      2.000000
 -0.428571  0.285714  0.400000      2.000000
 -0.285714  0.285714  0.400000      2.000000
 -0.142857  0.285714  0.400000      2.000000
  0.000000  0.428571  0.400000      2.000000
  0.142857  0.428571  0.400000      2.000000
  0.285714  0.428571  0.400000      2.000000
  0.428571  0.428571  0.400000      2.000000
 -0.428571  0.428571  0.400000      2.000000
 -0.285714  0.428571  0.400000      2.000000
 -0.142857  0.428571  0.400000      2.000000
  0.000000 -0.428571  0.400000      2.000000
  0.142857 -0.428571  0.400000      2.000000
  0.285714 -0.428571  0.400000      2.000000
  0.428571 -0.428571  0.400000      2.000000
 -0.428571 -0.428571  0.400000      2.000000
 -0.285714 -0.428571  0.400000      2.000000
 -0.142857 -0.428571  0.400000      2.000000
  0.000000 -0.285714  0.400000      2.000000
  0.142857 -0.285714  0.400000      2.000000
  0.285714 -0.285714  0.400000      2.000000
  0.428571 -0.285714  0.400000      2.000000
 -0.428571 -0.285714  0.400000      2.000000
 -0.285714 -0.285714  0.400000      2.000000
 -0.142857 -0.285714  0.400000      2.000000
  0.000000 -0.142857  0.400000      2.000000
  0.142857 -0.142857  0.400000      2.000000
  0.285714 -0.142857  0.400000      2.000000
  0.428571 -0.142857  0.400000      2.000000
 -0.428571 -0.142857  0.400000      2.000000
 -0.285714 -0.142857  0.400000      2.000000
 -0.142857 -0.142857  0.400000      2.000000
 
 Following cartesian coordinates:
            Coordinates               Weight
  0.000000  0.000000  0.000000      1.000000
  0.016170  0.009275  0.000000      2.000000
  0.032339  0.018550  0.000000      2.000000
  0.048509  0.027825  0.000000      2.000000
 -0.000052  0.018641  0.000000      2.000000
  0.016117  0.027916  0.000000      2.000000
  0.032287  0.037191  0.000000      2.000000
  0.048457  0.046466  0.000000      2.000000
 -0.048561 -0.009184  0.000000      2.000000
 -0.032392  0.000091  0.000000      2.000000
 -0.016222  0.009366  0.000000      2.000000
 -0.000105  0.037282  0.000000      2.000000
  0.016065  0.046557  0.000000      2.000000
  0.032235  0.055832  0.000000      2.000000
  0.048404  0.065107  0.000000      2.000000
 -0.048614  0.009456  0.000000      2.000000
 -0.032444  0.018732  0.000000      2.000000
 -0.016274  0.028007  0.000000      2.000000
 -0.000157  0.055923  0.000000      2.000000
  0.016013  0.065198  0.000000      2.000000
  0.032182  0.074473  0.000000      2.000000
  0.048352  0.083748  0.000000      2.000000
 -0.048666  0.028097  0.000000      2.000000
 -0.032496  0.037373  0.000000      2.000000
 -0.016327  0.046648  0.000000      2.000000
  0.000000  0.000000  0.021296      2.000000
  0.016170  0.009275  0.021296      2.000000
  0.032339  0.018550  0.021296      2.000000
  0.048509  0.027825  0.021296      2.000000
 -0.048509 -0.027825  0.021296      2.000000
 -0.032339 -0.018550  0.021296      2.000000
 -0.016170 -0.009275  0.021296      2.000000
 -0.000052  0.018641  0.021296      2.000000
  0.016117  0.027916  0.021296      2.000000
  0.032287  0.037191  0.021296      2.000000
  0.048457  0.046466  0.021296      2.000000
 -0.048561 -0.009184  0.021296      2.000000
 -0.032392  0.000091  0.021296      2.000000
 -0.016222  0.009366  0.021296      2.000000
 -0.000105  0.037282  0.021296      2.000000
  0.016065  0.046557  0.021296      2.000000
  0.032235  0.055832  0.021296      2.000000
  0.048404  0.065107  0.021296      2.000000
 -0.048614  0.009456  0.021296      2.000000
 -0.032444  0.018732  0.021296      2.000000
 -0.016274  0.028007  0.021296      2.000000
 -0.000157  0.055923  0.021296      2.000000
  0.016013  0.065198  0.021296      2.000000
  0.032182  0.074473  0.021296      2.000000
  0.048352  0.083748  0.021296      2.000000
 -0.048666  0.028097  0.021296      2.000000
 -0.032496  0.037373  0.021296      2.000000
 -0.016327  0.046648  0.021296      2.000000
  0.000157 -0.055923  0.021296      2.000000
  0.016327 -0.046648  0.021296      2.000000
  0.032496 -0.037373  0.021296      2.000000
  0.048666 -0.028097  0.021296      2.000000
 -0.048352 -0.083748  0.021296      2.000000
 -0.032182 -0.074473  0.021296      2.000000
 -0.016013 -0.065198  0.021296      2.000000
  0.000105 -0.037282  0.021296      2.000000
  0.016274 -0.028007  0.021296      2.000000
  0.032444 -0.018732  0.021296      2.000000
  0.048614 -0.009456  0.021296      2.000000
 -0.048404 -0.065107  0.021296      2.000000
 -0.032235 -0.055832  0.021296      2.000000
 -0.016065 -0.046557  0.021296      2.000000
  0.000052 -0.018641  0.021296      2.000000
  0.016222 -0.009366  0.021296      2.000000
  0.032392 -0.000091  0.021296      2.000000
  0.048561  0.009184  0.021296      2.000000
 -0.048457 -0.046466  0.021296      2.000000
 -0.032287 -0.037191  0.021296      2.000000
 -0.016117 -0.027916  0.021296      2.000000
  0.000000  0.000000  0.042591      2.000000
  0.016170  0.009275  0.042591      2.000000
  0.032339  0.018550  0.042591      2.000000
  0.048509  0.027825  0.042591      2.000000
 -0.048509 -0.027825  0.042591      2.000000
 -0.032339 -0.018550  0.042591      2.000000
 -0.016170 -0.009275  0.042591      2.000000
 -0.000052  0.018641  0.042591      2.000000
  0.016117  0.027916  0.042591      2.000000
  0.032287  0.037191  0.042591      2.000000
  0.048457  0.046466  0.042591      2.000000
 -0.048561 -0.009184  0.042591      2.000000
 -0.032392  0.000091  0.042591      2.000000
 -0.016222  0.009366  0.042591      2.000000
 -0.000105  0.037282  0.042591      2.000000
  0.016065  0.046557  0.042591      2.000000
  0.032235  0.055832  0.042591      2.000000
  0.048404  0.065107  0.042591      2.000000
 -0.048614  0.009456  0.042591      2.000000
 -0.032444  0.018732  0.042591      2.000000
 -0.016274  0.028007  0.042591      2.000000
 -0.000157  0.055923  0.042591      2.000000
  0.016013  0.065198  0.042591      2.000000
  0.032182  0.074473  0.042591      2.000000
  0.048352  0.083748  0.042591      2.000000
 -0.048666  0.028097  0.042591      2.000000
 -0.032496  0.037373  0.042591      2.000000
 -0.016327  0.046648  0.042591      2.000000
  0.000157 -0.055923  0.042591      2.000000
  0.016327 -0.046648  0.042591      2.000000
  0.032496 -0.037373  0.042591      2.000000
  0.048666 -0.028097  0.042591      2.000000
 -0.048352 -0.083748  0.042591      2.000000
 -0.032182 -0.074473  0.042591      2.000000
 -0.016013 -0.065198  0.042591      2.000000
  0.000105 -0.037282  0.042591      2.000000
  0.016274 -0.028007  0.042591      2.000000
  0.032444 -0.018732  0.042591      2.000000
  0.048614 -0.009456  0.042591      2.000000
 -0.048404 -0.065107  0.042591      2.000000
 -0.032235 -0.055832  0.042591      2.000000
 -0.016065 -0.046557  0.042591      2.000000
  0.000052 -0.018641  0.042591      2.000000
  0.016222 -0.009366  0.042591      2.000000
  0.032392 -0.000091  0.042591      2.000000
  0.048561  0.009184  0.042591      2.000000
 -0.048457 -0.046466  0.042591      2.000000
 -0.032287 -0.037191  0.042591      2.000000
 -0.016117 -0.027916  0.042591      2.000000
 


--------------------------------------------------------------------------------------------------------




 Dimension of arrays:
   k-Points           NKPTS =    123   number of bands    NBANDS=    216
   number of dos      NEDOS =    301   number of ions     NIONS =     36
   non local maximal  LDIM  =      6   non local SUM 2l+1 LMDIM =     18
   total plane-waves  NPLWV = 286720
   max r-space proj   IRMAX =      1   max aug-charges    IRDMAX=  17732
   dimension x,y,z NGX =    64 NGY =   64 NGZ =   70
   dimension x,y,z NGXF=   128 NGYF=  128 NGZF=  140
   support grid    NGXF=   128 NGYF=  128 NGZF=  140
   ions per type =              36
 NGX,Y,Z   is equivalent  to a cutoff of  12.06, 12.06, 12.39 a.u.
 NGXF,Y,Z  is equivalent  to a cutoff of  24.12, 24.12, 24.78 a.u.


 I would recommend the setting:
   dimension x,y,z NGX =    64 NGY =   64 NGZ =   68
 SYSTEM =  unknown system                          
 POSCAR =  Ti                                      

 Startparameter for this run:
   NWRITE =      2    write-flag & timer
   PREC   = accura    medium, high low
   ISTART =      0    job   : 0-new  1-cont  2-samecut
   ICHARG =      2    charge: 1-file 2-atom 10-const
   ISPIN  =      1    spin polarized calculation?
   LNONCOLLINEAR =      F non collinear calculations
   LSORBIT =      F    spin-orbit coupling
   INIWAV =      1    electr: 0-lowe 1-rand  2-diag
   LASPH  =      F    aspherical Exc in radial PAW
   METAGGA=      F    non-selfconsistent MetaGGA calc.

 Electronic Relaxation 1
   ENCUT  =  500.0 eV  36.75 Ry    6.06 a.u.  16.08 16.08 17.12*2*pi/ulx,y,z
   ENINI  =  500.0     initial cutoff
   ENAUG  =  482.8 eV  augmentation charge cutoff
   NELM   =     60;   NELMIN=  2; NELMDL= -5     # of ELM steps 
   EDIFF  = 0.1E-07   stopping-criterion for ELM
   LREAL  =      F    real-space projection
   LCOMPAT=      F    compatible to vasp.4.4
   LREAL_COMPAT= F    compatible to vasp.4.5.1-3
   GGA_COMPAT  = T    GGA compatible to vasp.4.4-vasp.4.6
   LMAXPAW     = -100 max onsite density
   LMAXMIX     =    2 max onsite mixed and CHGCAR
   VOSKOWN=      0    Vosko Wilk Nusair interpolation
   ROPT   =    0.00000
 Ionic relaxation
   EDIFFG = 0.1E-06   stopping-criterion for IOM
   NSW    =      0    number of steps for IOM
   NBLOCK =      1;   KBLOCK =      1    inner block; outer block 
   IBRION =     -1    ionic relax: 0-MD 1-quasi-New 2-CG
   NFREE  =      0    steps in history (QN), initial steepest desc. (CG)
   ISIF   =      2    stress and relaxation
   IWAVPR =     10    prediction:  0-non 1-charg 2-wave 3-comb
   ISYM   =      2    0-nonsym 1-usesym 2-fastsym
   LCORR  =      T    Harris-Foulkes like correction to forces

   POTIM  =   0.50    time-step for ionic-motion
   TEIN   =    0.0    initial temperature
   TEBEG  =    0.0;   TEEND  =   0.0 temperature during run
   SMASS  =  -3.00    Nose mass-parameter (am)
   estimated Nose-frequenzy (Omega)   =  0.10E-29 period in steps =****** mass=  -0.178E-26a.u.
   NPACO  =    256;   APACO  = 16.0  distance and # of slots for P.C.
   PSTRESS=    0.0 pullay stress

  Mass of Ions in am
   POMASS =  47.88
  Ionic Valenz
   ZVAL   =  10.00
  Atomic Wigner-Seitz radii
   RWIGS  =  -1.00
   NELECT =     360.0000    total number of electrons
   NUPDOWN=      -1.0000    fix difference up-down

 DOS related values:
   EMIN   =  10.00;   EMAX   =-10.00  energy-range for DOS
   ISMEAR =     0;   SIGMA  =   0.01  broadening in eV -4-tet -1-fermi 0-gaus

 Electronic relaxation 2 (details)
   IALGO  =     38    algorithm
   LDIAG  =      T    sub-space diagonalisation
   IMIX   =      4    mixing-type and parameters
     AMIX     =   0.40;   BMIX     =  1.00
     AMIX_MAG =   1.60;   BMIX_MAG =  1.00
     AMIN     =   0.10
     WC   =   100.;   INIMIX=   1;  MIXPRE=   1

 Intra band minimization:
   WEIMIN = 0.0000     energy-eigenvalue tresh-hold
   EBREAK =  0.12E-10  absolut break condition
   DEPER  =   0.30     relativ break condition  

   TIME   =   0.10     timestep for ELM

  volume/ion in A,a.u.               =      17.63       119.01
  Fermi-wavevector in a.u.,eV,Ry     =   1.355034 24.981887  1.836117

 Second variation
   LSECVAR=     F    do a second variation
 
 Write flags
   LWAVE  =      F    write WAVECAR
   LCHARG =      F    write CHGCAR
   LVTOT  =      F    write LOCPOT, local potential
   LELF   =      F    write electronic localiz. function (ELF)
   LORBIT =      0    0 simple, 1 ext, 2 COOP (PROOUT)


 Dipole corrections
   IDIPOL =      0    1-x, 2-y, 3-z
   LDIPOL =      F    correct potential



--------------------------------------------------------------------------------------------------------


 Static calculation
 charge density will be updated during run
 non-spin polarized calculation
 Variant of blocked Davidson
 Davidson routine will perform the subspace rotation
 performe sub-space diagonalisation
    after iterative eigenvector-optimisation
 modified Broyden-mixing scheme, WC =      100.0
 initial mixing is a Kerker type mixing with AMIX =  0.4000 and BMIX =      1.0000
 Hartree-type preconditioning will be used
 using additional bands           36
 reciprocal scheme for non local part
 use partial core corrections
 calculate Harris-corrections to forces 
   (improved forces if not selfconsistent)
 use gradient corrections 
 use of overlap-Matrix (Vanderbilt PP)
 Gauss-broadening in eV      SIGMA  =   0.01


--------------------------------------------------------------------------------------------------------


  energy-cutoff  :      500.00
  volume of cell :      634.86
      direct lattice vectors                 reciprocal lattice vectors
     8.820667100  0.024765440  0.000000000     0.113187820  0.064925977  0.000000000
    -4.388885871  7.651304610  0.000000000    -0.000366362  0.130486516  0.000000000
     0.000000000  0.000000000  9.391623956     0.000000000  0.000000000  0.106477858

  length of vectors
     8.820701866  8.820701867  9.391623956     0.130487030  0.130487030  0.106477858


 
 k-points in units of 2pi/SCALE and weight: Automatic mesh                          
   0.00000000  0.00000000  0.00000000       0.004
   0.01616969  0.00927514  0.00000000       0.008
   0.03233938  0.01855028  0.00000000       0.008
   0.04850907  0.02782542  0.00000000       0.008
  -0.00005234  0.01864093  0.00000000       0.008
   0.01611735  0.02791607  0.00000000       0.008
   0.03228704  0.03719121  0.00000000       0.008
   0.04845673  0.04646635  0.00000000       0.008
  -0.04856140 -0.00918449  0.00000000       0.008
  -0.03239171  0.00009065  0.00000000       0.008
  -0.01622203  0.00936579  0.00000000       0.008
  -0.00010467  0.03728186  0.00000000       0.008
   0.01606501  0.04655700  0.00000000       0.008
   0.03223470  0.05583214  0.00000000       0.008
   0.04840439  0.06510728  0.00000000       0.008
  -0.04861374  0.00945644  0.00000000       0.008
  -0.03244405  0.01873158  0.00000000       0.008
  -0.01627436  0.02800672  0.00000000       0.008
  -0.00015701  0.05592279  0.00000000       0.008
   0.01601268  0.06519793  0.00000000       0.008
   0.03218236  0.07447307  0.00000000       0.008
   0.04835205  0.08374821  0.00000000       0.008
  -0.04866608  0.02809737  0.00000000       0.008
  -0.03249639  0.03737251  0.00000000       0.008
  -0.01632670  0.04664765  0.00000000       0.008
   0.00000000  0.00000000  0.02129557       0.008
   0.01616969  0.00927514  0.02129557       0.008
   0.03233938  0.01855028  0.02129557       0.008
   0.04850907  0.02782542  0.02129557       0.008
  -0.04850907 -0.02782542  0.02129557       0.008
  -0.03233938 -0.01855028  0.02129557       0.008
  -0.01616969 -0.00927514  0.02129557       0.008
  -0.00005234  0.01864093  0.02129557       0.008
   0.01611735  0.02791607  0.02129557       0.008
   0.03228704  0.03719121  0.02129557       0.008
   0.04845673  0.04646635  0.02129557       0.008
  -0.04856140 -0.00918449  0.02129557       0.008
  -0.03239171  0.00009065  0.02129557       0.008
  -0.01622203  0.00936579  0.02129557       0.008
  -0.00010467  0.03728186  0.02129557       0.008
   0.01606501  0.04655700  0.02129557       0.008
   0.03223470  0.05583214  0.02129557       0.008
   0.04840439  0.06510728  0.02129557       0.008
  -0.04861374  0.00945644  0.02129557       0.008
  -0.03244405  0.01873158  0.02129557       0.008
  -0.01627436  0.02800672  0.02129557       0.008
  -0.00015701  0.05592279  0.02129557       0.008
   0.01601268  0.06519793  0.02129557       0.008
   0.03218236  0.07447307  0.02129557       0.008
   0.04835205  0.08374821  0.02129557       0.008
  -0.04866608  0.02809737  0.02129557       0.008
  -0.03249639  0.03737251  0.02129557       0.008
  -0.01632670  0.04664765  0.02129557       0.008
   0.00015701 -0.05592279  0.02129557       0.008
   0.01632670 -0.04664765  0.02129557       0.008
   0.03249639 -0.03737251  0.02129557       0.008
   0.04866608 -0.02809737  0.02129557       0.008
  -0.04835205 -0.08374821  0.02129557       0.008
  -0.03218236 -0.07447307  0.02129557       0.008
  -0.01601268 -0.06519793  0.02129557       0.008
   0.00010467 -0.03728186  0.02129557       0.008
   0.01627436 -0.02800672  0.02129557       0.008
   0.03244405 -0.01873158  0.02129557       0.008
   0.04861374 -0.00945644  0.02129557       0.008
  -0.04840439 -0.06510728  0.02129557       0.008
  -0.03223470 -0.05583214  0.02129557       0.008
  -0.01606501 -0.04655700  0.02129557       0.008
   0.00005234 -0.01864093  0.02129557       0.008
   0.01622203 -0.00936579  0.02129557       0.008
   0.03239171 -0.00009065  0.02129557       0.008
   0.04856140  0.00918449  0.02129557       0.008
  -0.04845673 -0.04646635  0.02129557       0.008
  -0.03228704 -0.03719121  0.02129557       0.008
  -0.01611735 -0.02791607  0.02129557       0.008
   0.00000000  0.00000000  0.04259114       0.008
   0.01616969  0.00927514  0.04259114       0.008
   0.03233938  0.01855028  0.04259114       0.008
   0.04850907  0.02782542  0.04259114       0.008
  -0.04850907 -0.02782542  0.04259114       0.008
  -0.03233938 -0.01855028  0.04259114       0.008
  -0.01616969 -0.00927514  0.04259114       0.008
  -0.00005234  0.01864093  0.04259114       0.008
   0.01611735  0.02791607  0.04259114       0.008
   0.03228704  0.03719121  0.04259114       0.008
   0.04845673  0.04646635  0.04259114       0.008
  -0.04856140 -0.00918449  0.04259114       0.008
  -0.03239171  0.00009065  0.04259114       0.008
  -0.01622203  0.00936579  0.04259114       0.008
  -0.00010467  0.03728186  0.04259114       0.008
   0.01606501  0.04655700  0.04259114       0.008
   0.03223470  0.05583214  0.04259114       0.008
   0.04840439  0.06510728  0.04259114       0.008
  -0.04861374  0.00945644  0.04259114       0.008
  -0.03244405  0.01873158  0.04259114       0.008
  -0.01627436  0.02800672  0.04259114       0.008
  -0.00015701  0.05592279  0.04259114       0.008
   0.01601268  0.06519793  0.04259114       0.008
   0.03218236  0.07447307  0.04259114       0.008
   0.04835205  0.08374821  0.04259114       0.008
  -0.04866608  0.02809737  0.04259114       0.008
  -0.03249639  0.03737251  0.04259114       0.008
  -0.01632670  0.04664765  0.04259114       0.008
   0.00015701 -0.05592279  0.04259114       0.008
   0.01632670 -0.04664765  0.04259114       0.008
   0.03249639 -0.03737251  0.04259114       0.008
   0.04866608 -0.02809737  0.04259114       0.008
  -0.04835205 -0.08374821  0.04259114       0.008
  -0.03218236 -0.07447307  0.04259114       0.008
  -0.01601268 -0.06519793  0.04259114       0.008
   0.00010467 -0.03728186  0.04259114       0.008
   0.01627436 -0.02800672  0.04259114       0.008
   0.03244405 -0.01873158  0.04259114       0.008
   0.04861374 -0.00945644  0.04259114       0.008
  -0.04840439 -0.06510728  0.04259114       0.008
  -0.03223470 -0.05583214  0.04259114       0.008
  -0.01606501 -0.04655700  0.04259114       0.008
   0.00005234 -0.01864093  0.04259114       0.008
   0.01622203 -0.00936579  0.04259114       0.008
   0.03239171 -0.00009065  0.04259114       0.008
   0.04856140  0.00918449  0.04259114       0.008
  -0.04845673 -0.04646635  0.04259114       0.008
  -0.03228704 -0.03719121  0.04259114       0.008
  -0.01611735 -0.02791607  0.04259114       0.008
 
 k-points in reciprocal lattice and weights: Automatic mesh                          
   0.00000000  0.00000000  0.00000000       0.004
   0.14285714  0.00000000  0.00000000       0.008
   0.28571429 -0.00000000  0.00000000       0.008
   0.42857143 -0.00000000  0.00000000       0.008
  -0.00000000  0.14285714  0.00000000       0.008
   0.14285714  0.14285714  0.00000000       0.008
   0.28571429  0.14285714  0.00000000       0.008
   0.42857143  0.14285714  0.00000000       0.008
  -0.42857143  0.14285714  0.00000000       0.008
  -0.28571429  0.14285714  0.00000000       0.008
  -0.14285714  0.14285714  0.00000000       0.008
   0.00000000  0.28571429  0.00000000       0.008
   0.14285714  0.28571429  0.00000000       0.008
   0.28571429  0.28571429  0.00000000       0.008
   0.42857143  0.28571429  0.00000000       0.008
  -0.42857143  0.28571429  0.00000000       0.008
  -0.28571429  0.28571429  0.00000000       0.008
  -0.14285714  0.28571429  0.00000000       0.008
   0.00000000  0.42857143  0.00000000       0.008
   0.14285714  0.42857143  0.00000000       0.008
   0.28571429  0.42857143  0.00000000       0.008
   0.42857143  0.42857143  0.00000000       0.008
  -0.42857143  0.42857143  0.00000000       0.008
  -0.28571429  0.42857143  0.00000000       0.008
  -0.14285714  0.42857143  0.00000000       0.008
   0.00000000  0.00000000  0.20000000       0.008
   0.14285714  0.00000000  0.20000000       0.008
   0.28571429 -0.00000000  0.20000000       0.008
   0.42857143 -0.00000000  0.20000000       0.008
  -0.42857143  0.00000000  0.20000000       0.008
  -0.28571429  0.00000000  0.20000000       0.008
  -0.14285714  0.00000000  0.20000000       0.008
  -0.00000000  0.14285714  0.20000000       0.008
   0.14285714  0.14285714  0.20000000       0.008
   0.28571429  0.14285714  0.20000000       0.008
   0.42857143  0.14285714  0.20000000       0.008
  -0.42857143  0.14285714  0.20000000       0.008
  -0.28571429  0.14285714  0.20000000       0.008
  -0.14285714  0.14285714  0.20000000       0.008
   0.00000000  0.28571429  0.20000000       0.008
   0.14285714  0.28571429  0.20000000       0.008
   0.28571429  0.28571429  0.20000000       0.008
   0.42857143  0.28571429  0.20000000       0.008
  -0.42857143  0.28571429  0.20000000       0.008
  -0.28571429  0.28571429  0.20000000       0.008
  -0.14285714  0.28571429  0.20000000       0.008
   0.00000000  0.42857143  0.20000000       0.008
   0.14285714  0.42857143  0.20000000       0.008
   0.28571429  0.42857143  0.20000000       0.008
   0.42857143  0.42857143  0.20000000       0.008
  -0.42857143  0.42857143  0.20000000       0.008
  -0.28571429  0.42857143  0.20000000       0.008
  -0.14285714  0.42857143  0.20000000       0.008
   0.00000000 -0.42857143  0.20000000       0.008
   0.14285714 -0.42857143  0.20000000       0.008
   0.28571429 -0.42857143  0.20000000       0.008
   0.42857143 -0.42857143  0.20000000       0.008
  -0.42857143 -0.42857143  0.20000000       0.008
  -0.28571429 -0.42857143  0.20000000       0.008
  -0.14285714 -0.42857143  0.20000000       0.008
   0.00000000 -0.28571429  0.20000000       0.008
   0.14285714 -0.28571429  0.20000000       0.008
   0.28571429 -0.28571429  0.20000000       0.008
   0.42857143 -0.28571429  0.20000000       0.008
  -0.42857143 -0.28571429  0.20000000       0.008
  -0.28571429 -0.28571429  0.20000000       0.008
  -0.14285714 -0.28571429  0.20000000       0.008
   0.00000000 -0.14285714  0.20000000       0.008
   0.14285714 -0.14285714  0.20000000       0.008
   0.28571429 -0.14285714  0.20000000       0.008
   0.42857143 -0.14285714  0.20000000       0.008
  -0.42857143 -0.14285714  0.20000000       0.008
  -0.28571429 -0.14285714  0.20000000       0.008
  -0.14285714 -0.14285714  0.20000000       0.008
   0.00000000  0.00000000  0.40000000       0.008
   0.14285714  0.00000000  0.40000000       0.008
   0.28571429 -0.00000000  0.40000000       0.008
   0.42857143 -0.00000000  0.40000000       0.008
  -0.42857143  0.00000000  0.40000000       0.008
  -0.28571429  0.00000000  0.40000000       0.008
  -0.14285714  0.00000000  0.40000000       0.008
  -0.00000000  0.14285714  0.40000000       0.008
   0.14285714  0.14285714  0.40000000       0.008
   0.28571429  0.14285714  0.40000000       0.008
   0.42857143  0.14285714  0.40000000       0.008
  -0.42857143  0.14285714  0.40000000       0.008
  -0.28571429  0.14285714  0.40000000       0.008
  -0.14285714  0.14285714  0.40000000       0.008
   0.00000000  0.28571429  0.40000000       0.008
   0.14285714  0.28571429  0.40000000       0.008
   0.28571429  0.28571429  0.40000000       0.008
   0.42857143  0.28571429  0.40000000       0.008
  -0.42857143  0.28571429  0.40000000       0.008
  -0.28571429  0.28571429  0.40000000       0.008
  -0.14285714  0.28571429  0.40000000       0.008
   0.00000000  0.42857143  0.40000000       0.008
   0.14285714  0.42857143  0.40000000       0.008
   0.28571429  0.42857143  0.40000000       0.008
   0.42857143  0.42857143  0.40000000       0.008
  -0.42857143  0.42857143  0.40000000       0.008
  -0.28571429  0.42857143  0.40000000       0.008
  -0.14285714  0.42857143  0.40000000       0.008
   0.00000000 -0.42857143  0.40000000       0.008
   0.14285714 -0.42857143  0.40000000       0.008
   0.28571429 -0.42857143  0.40000000       0.008
   0.42857143 -0.42857143  0.40000000       0.008
  -0.42857143 -0.42857143  0.40000000       0.008
  -0.28571429 -0.42857143  0.40000000       0.008
  -0.14285714 -0.42857143  0.40000000       0.008
   0.00000000 -0.28571429  0.40000000       0.008
   0.14285714 -0.28571429  0.40000000       0.008
   0.28571429 -0.28571429  0.40000000       0.008
   0.42857143 -0.28571429  0.40000000       0.008
  -0.42857143 -0.28571429  0.40000000       0.008
  -0.28571429 -0.28571429  0.40000000       0.008
  -0.14285714 -0.28571429  0.40000000       0.008
   0.00000000 -0.14285714  0.40000000       0.008
   0.14285714 -0.14285714  0.40000000       0.008
   0.28571429 -0.14285714  0.40000000       0.008
   0.42857143 -0.14285714  0.40000000       0.008
  -0.42857143 -0.14285714  0.40000000       0.008
  -0.28571429 -0.14285714  0.40000000       0.008
  -0.14285714 -0.14285714  0.40000000       0.008
 
 position of ions in fractional coordinates (direct lattice) 
   0.11151953  0.22258994  0.12577613
   0.44407673  0.22258994  0.12500000
   0.77741006  0.22258994  0.12500000
   0.11074339  0.55592327  0.12500000
   0.44407673  0.55592327  0.12500000
   0.77741006  0.55592327  0.12500000
   0.11074339  0.88925661  0.12500000
   0.44407673  0.88925661  0.12500000
   0.77741006  0.88925661  0.12500000
   0.11074339  0.22258994  0.62500000
   0.44407673  0.22258994  0.62500000
   0.77741006  0.22258994  0.62500000
   0.11074339  0.55592327  0.62500000
   0.44407673  0.55592327  0.62500000
   0.77741006  0.55592327  0.62500000
   0.11074339  0.88925661  0.62500000
   0.44407673  0.88925661  0.62500000
   0.77741006  0.88925661  0.62500000
   0.22258994  0.11074339  0.37500000
   0.55592327  0.11074339  0.37500000
   0.88925661  0.11074339  0.37500000
   0.22258994  0.44407673  0.37500000
   0.55592327  0.44407673  0.37500000
   0.88925661  0.44407673  0.37500000
   0.22258994  0.77741006  0.37500000
   0.55592327  0.77741006  0.37500000
   0.88925661  0.77741006  0.37500000
   0.22258994  0.11074339  0.87500000
   0.55592327  0.11074339  0.87500000
   0.88925661  0.11074339  0.87500000
   0.22258994  0.44407673  0.87500000
   0.55592327  0.44407673  0.87500000
   0.88925661  0.44407673  0.87500000
   0.22258994  0.77741006  0.87500000
   0.55592327  0.77741006  0.87500000
   0.88925661  0.77741006  0.87500000
 
 position of ions in cartesian coordinates  (Angst):
   0.00675480  1.70586525  1.18124215
   2.94013115  1.71410118  1.17395299
   5.88035352  1.72235633  1.17395299
  -1.46305318  4.25628090  1.17395299
   1.47716919  4.26453605  1.17395299
   4.41739156  4.27279120  1.17395299
  -2.92601513  6.80671577  1.17395299
   0.01420723  6.81497092  1.17395299
   2.95442960  6.82322607  1.17395299
  -0.00009122  1.70584603  5.86976497
   2.94013115  1.71410118  5.86976497
   5.88035352  1.72235633  5.86976497
  -1.46305318  4.25628090  5.86976497
   1.47716919  4.26453605  5.86976497
   4.41739156  4.27279120  5.86976497
  -2.92601513  6.80671577  5.86976497
   0.01420723  6.81497092  5.86976497
   2.95442960  6.82322607  5.86976497
   1.47735163  0.85284398  3.52185898
   4.41757399  0.86109913  3.52185898
   7.35779636  0.86935428  3.52185898
   0.01438967  3.40327885  3.52185898
   2.95461204  3.41153400  3.52185898
   5.89483440  3.41978915  3.52185898
  -1.44857229  5.95371372  3.52185898
   1.49165008  5.96196887  3.52185898
   4.43187245  5.97022402  3.52185898
   1.47735163  0.85284398  8.21767096
   4.41757399  0.86109913  8.21767096
   7.35779636  0.86935428  8.21767096
   0.01438967  3.40327885  8.21767096
   2.95461204  3.41153400  8.21767096
   5.89483440  3.41978915  8.21767096
  -1.44857229  5.95371372  8.21767096
   1.49165008  5.96196887  8.21767096
   4.43187245  5.97022402  8.21767096
 


--------------------------------------------------------------------------------------------------------


 k-point  1 :  0.00000.00000.0000  plane waves:  16113
 k-point  2 :  0.14290.00000.0000  plane waves:  16105
 k-point  3 :  0.2857-.00000.0000  plane waves:  16117
 k-point  4 :  0.4286-.00000.0000  plane waves:  16106
 k-point  5 :  -.00000.14290.0000  plane waves:  16105
 k-point  6 :  0.14290.14290.0000  plane waves:  16132
 k-point  7 :  0.28570.14290.0000  plane waves:  16116
 k-point  8 :  0.42860.14290.0000  plane waves:  16122
 k-point  9 :  -.42860.14290.0000  plane waves:  16118
 k-point 10 :  -.28570.14290.0000  plane waves:  16092
 k-point 11 :  -.14290.14290.0000  plane waves:  16096
 k-point 12 :  0.00000.28570.0000  plane waves:  16117
 k-point 13 :  0.14290.28570.0000  plane waves:  16116
 k-point 14 :  0.28570.28570.0000  plane waves:  16120
 k-point 15 :  0.42860.28570.0000  plane waves:  16105
 k-point 16 :  -.42860.28570.0000  plane waves:  16123
 k-point 17 :  -.28570.28570.0000  plane waves:  16120
 k-point 18 :  -.14290.28570.0000  plane waves:  16092
 k-point 19 :  0.00000.42860.0000  plane waves:  16106
 k-point 20 :  0.14290.42860.0000  plane waves:  16122
 k-point 21 :  0.28570.42860.0000  plane waves:  16105
 k-point 22 :  0.42860.42860.0000  plane waves:  16116
 k-point 23 :  -.42860.42860.0000  plane waves:  16148
 k-point 24 :  -.28570.42860.0000  plane waves:  16123
 k-point 25 :  -.14290.42860.0000  plane waves:  16118
 k-point 26 :  0.00000.00000.2000  plane waves:  16100
 k-point 27 :  0.14290.00000.2000  plane waves:  16111
 k-point 28 :  0.2857-.00000.2000  plane waves:  16111
 k-point 29 :  0.4286-.00000.2000  plane waves:  16123
 k-point 30 :  -.42860.00000.2000  plane waves:  16123
 k-point 31 :  -.28570.00000.2000  plane waves:  16111
 k-point 32 :  -.14290.00000.2000  plane waves:  16111
 k-point 33 :  -.00000.14290.2000  plane waves:  16111
 k-point 34 :  0.14290.14290.2000  plane waves:  16111
 k-point 35 :  0.28570.14290.2000  plane waves:  16113
 k-point 36 :  0.42860.14290.2000  plane waves:  16112
 k-point 37 :  -.42860.14290.2000  plane waves:  16113
 k-point 38 :  -.28570.14290.2000  plane waves:  16115
 k-point 39 :  -.14290.14290.2000  plane waves:  16102
 k-point 40 :  0.00000.28570.2000  plane waves:  16111
 k-point 41 :  0.14290.28570.2000  plane waves:  16113
 k-point 42 :  0.28570.28570.2000  plane waves:  16122
 k-point 43 :  0.42860.28570.2000  plane waves:  16106
 k-point 44 :  -.42860.28570.2000  plane waves:  16114
 k-point 45 :  -.28570.28570.2000  plane waves:  16114
 k-point 46 :  -.14290.28570.2000  plane waves:  16115
 k-point 47 :  0.00000.42860.2000  plane waves:  16123
 k-point 48 :  0.14290.42860.2000  plane waves:  16112
 k-point 49 :  0.28570.42860.2000  plane waves:  16106
 k-point 50 :  0.42860.42860.2000  plane waves:  16126
 k-point 51 :  -.42860.42860.2000  plane waves:  16152
 k-point 52 :  -.28570.42860.2000  plane waves:  16114
 k-point 53 :  -.14290.42860.2000  plane waves:  16113
 k-point 54 :  0.0000-.42860.2000  plane waves:  16123
 k-point 55 :  0.1429-.42860.2000  plane waves:  16113
 k-point 56 :  0.2857-.42860.2000  plane waves:  16114
 k-point 57 :  0.4286-.42860.2000  plane waves:  16152
 k-point 58 :  -.4286-.42860.2000  plane waves:  16126
 k-point 59 :  -.2857-.42860.2000  plane waves:  16106
 k-point 60 :  -.1429-.42860.2000  plane waves:  16112
 k-point 61 :  0.0000-.28570.2000  plane waves:  16111
 k-point 62 :  0.1429-.28570.2000  plane waves:  16115
 k-point 63 :  0.2857-.28570.2000  plane waves:  16114
 k-point 64 :  0.4286-.28570.2000  plane waves:  16114
 k-point 65 :  -.4286-.28570.2000  plane waves:  16106
 k-point 66 :  -.2857-.28570.2000  plane waves:  16122
 k-point 67 :  -.1429-.28570.2000  plane waves:  16113
 k-point 68 :  0.0000-.14290.2000  plane waves:  16111
 k-point 69 :  0.1429-.14290.2000  plane waves:  16102
 k-point 70 :  0.2857-.14290.2000  plane waves:  16115
 k-point 71 :  0.4286-.14290.2000  plane waves:  16113
 k-point 72 :  -.4286-.14290.2000  plane waves:  16112
 k-point 73 :  -.2857-.14290.2000  plane waves:  16113
 k-point 74 :  -.1429-.14290.2000  plane waves:  16111
 k-point 75 :  0.00000.00000.4000  plane waves:  16060
 k-point 76 :  0.14290.00000.4000  plane waves:  16076
 k-point 77 :  0.2857-.00000.4000  plane waves:  16119
 k-point 78 :  0.4286-.00000.4000  plane waves:  16125
 k-point 79 :  -.42860.00000.4000  plane waves:  16125
 k-point 80 :  -.28570.00000.4000  plane waves:  16119
 k-point 81 :  -.14290.00000.4000  plane waves:  16076
 k-point 82 :  -.00000.14290.4000  plane waves:  16076
 k-point 83 :  0.14290.14290.4000  plane waves:  16109
 k-point 84 :  0.28570.14290.4000  plane waves:  16135
 k-point 85 :  0.42860.14290.4000  plane waves:  16133
 k-point 86 :  -.42860.14290.4000  plane waves:  16144
 k-point 87 :  -.28570.14290.4000  plane waves:  16108
 k-point 88 :  -.14290.14290.4000  plane waves:  16097
 k-point 89 :  0.00000.28570.4000  plane waves:  16119
 k-point 90 :  0.14290.28570.4000  plane waves:  16135
 k-point 91 :  0.28570.28570.4000  plane waves:  16140
 k-point 92 :  0.42860.28570.4000  plane waves:  16133
 k-point 93 :  -.42860.28570.4000  plane waves:  16150
 k-point 94 :  -.28570.28570.4000  plane waves:  16129
 k-point 95 :  -.14290.28570.4000  plane waves:  16108
 k-point 96 :  0.00000.42860.4000  plane waves:  16125
 k-point 97 :  0.14290.42860.4000  plane waves:  16133
 k-point 98 :  0.28570.42860.4000  plane waves:  16133
 k-point 99 :  0.42860.42860.4000  plane waves:  16146
 k-point ** :  -.42860.42860.4000  plane waves:  16118
 k-point ** :  -.28570.42860.4000  plane waves:  16150
 k-point ** :  -.14290.42860.4000  plane waves:  16144
 k-point ** :  0.0000-.42860.4000  plane waves:  16125
 k-point ** :  0.1429-.42860.4000  plane waves:  16144
 k-point ** :  0.2857-.42860.4000  plane waves:  16150
 k-point ** :  0.4286-.42860.4000  plane waves:  16118
 k-point ** :  -.4286-.42860.4000  plane waves:  16146
 k-point ** :  -.2857-.42860.4000  plane waves:  16133
 k-point ** :  -.1429-.42860.4000  plane waves:  16133
 k-point ** :  0.0000-.28570.4000  plane waves:  16119
 k-point ** :  0.1429-.28570.4000  plane waves:  16108
 k-point ** :  0.2857-.28570.4000  plane waves:  16129
 k-point ** :  0.4286-.28570.4000  plane waves:  16150
 k-point ** :  -.4286-.28570.4000  plane waves:  16133
 k-point ** :  -.2857-.28570.4000  plane waves:  16140
 k-point ** :  -.1429-.28570.4000  plane waves:  16135
 k-point ** :  0.0000-.14290.4000  plane waves:  16076
 k-point ** :  0.1429-.14290.4000  plane waves:  16097
 k-point ** :  0.2857-.14290.4000  plane waves:  16108
 k-point ** :  0.4286-.14290.4000  plane waves:  16144
 k-point ** :  -.4286-.14290.4000  plane waves:  16133
 k-point ** :  -.2857-.14290.4000  plane waves:  16135
 k-point ** :  -.1429-.14290.4000  plane waves:  16109

 maximum and minimum number of plane-waves per node :  16152 16060

 maximum number of plane-waves:  16152
 maximal index in each direction: 
   IXMAX= 16   IYMAX= 16   IZMAX= 17
   IXMIN=-16   IYMIN=-16   IZMIN=-17

 WARNING: wrap around error must be expected set NGX to  66
 WARNING: wrap around error must be expected set NGY to  66
 NGZ is ok and might be reduce to  70

 parallel 3dFFT wavefunction:
    minimum data exchange during FFTs selected (reduces bandwidth)
 parallel 3dFFT charge:
    minimum data exchange during FFTs selected (reduces bandwidth)

 For storing wavefunctions 6851.55 MBYTES are necessary
 For predicting wavefunctions  121.86 MBYTES are necessary
Broyden mixing: mesh for mixing (old mesh)
   NGX = 33   NGY = 33   NGZ = 35
  (NGX  =128   NGY  =128   NGZ  =140)
 gives a total of  38115 points
 initial charge density was supplied:
 charge density of overlapping atoms calculated
 number of electron  360.0000000 magnetization 
 keeping initial charge density in first step


--------------------------------------------------------------------------------------------------------


 Maximum index for augmentation-charges         4272 (set IRDMAX)


--------------------------------------------------------------------------------------------------------


 First call to EWALD:  gamma=   0.206
 Maximum number of real-space cells 3x 3x 3
 Maximum number of reciprocal cells 3x 3x 3

    FEWALD:  VPU time    0.01: CPU time    0.01


----------------------------------------- Iteration    1(   1)  ---------------------------------------


    POTLOK:  VPU time    1.32: CPU time    1.33
    SETDIJ:  VPU time    0.06: CPU time    0.06
    EDDAV :  VPU time 3817.66: CPU time 3822.58
    DOS   :  VPU time    0.00: CPU time   -0.00
    ------------------------------------------
      LOOP:  VPU time 3819.38: CPU time 3824.31

 eigenvalue-minimisations  : 53872
 total energy-change (2. order) : 0.4978037E+04  (-0.1720628E+05)
 number of electron  360.0000000 magnetization 
 augmentation part   360.0000000 magnetization 

 Free energy of the ion-electron system (eV)
  ---------------------------------------------------
  alpha Z        PSCENC =      2225.99217093
  Ewald energy   TEWEN  =    -28757.68526894
  -1/2 Hartree   DENC   =     -8057.08725217
  -V(xc)+E(xc)   XCENC  =      1291.25587677
  PAW double counting   =     25711.31321228   -25685.71707589
  entropy T*S    EENTRO =        -0.00093580
  eigenvalues    EBANDS =       724.44227151
  atomic energy  EATOM  =     37525.52423787
  ---------------------------------------------------
  free energy    TOTEN  =      4978.03723655 eV

  energy without entropy =     4978.03817235  energy(sigma->0) =     4978.03770445


--------------------------------------------------------------------------------------------------------




----------------------------------------- Iteration    1(   2)  ---------------------------------------


    EDDAV :  VPU time 3638.32: CPU time 3645.84
    DOS   :  VPU time    0.00: CPU time   -0.00
    ------------------------------------------
      LOOP:  VPU time 3638.66: CPU time 3646.18

 eigenvalue-minimisations  : 53136
 total energy-change (2. order) :-0.4888553E+04  (-0.4813421E+04)
 number of electron  360.0000000 magnetization 
 augmentation part   360.0000000 magnetization 

 Free energy of the ion-electron system (eV)
  ---------------------------------------------------
  alpha Z        PSCENC =      2225.99217093
  Ewald energy   TEWEN  =    -28757.68526894
  -1/2 Hartree   DENC   =     -8057.08725217
  -V(xc)+E(xc)   XCENC  =      1291.25587677
  PAW double counting   =     25711.31321228   -25685.71707589
  entropy T*S    EENTRO =        -0.00134400
  eigenvalues    EBANDS =     -4164.11037528
  atomic energy  EATOM  =     37525.52423787
  ---------------------------------------------------
  free energy    TOTEN  =        89.48418156 eV

  energy without entropy =       89.48552557  energy(sigma->0) =       89.48485356


--------------------------------------------------------------------------------------------------------




----------------------------------------- Iteration    1(   3)  ---------------------------------------


    EDDAV :  VPU time 4805.15: CPU time 4810.55
    DOS   :  VPU time    0.00: CPU time   -0.00
    ------------------------------------------
      LOOP:  VPU time 4805.49: CPU time 4810.90

 eigenvalue-minimisations  : 77800
 total energy-change (2. order) :-0.3824936E+03  (-0.3599680E+03)
 number of electron  360.0000000 magnetization 
 augmentation part   360.0000000 magnetization 

 Free energy of the ion-electron system (eV)
  ---------------------------------------------------
  alpha Z        PSCENC =      2225.99217093
  Ewald energy   TEWEN  =    -28757.68526894
  -1/2 Hartree   DENC   =     -8057.08725217
  -V(xc)+E(xc)   XCENC  =      1291.25587677
  PAW double counting   =     25711.31321228   -25685.71707589
  entropy T*S    EENTRO =        -0.00126818
  eigenvalues    EBANDS =     -4546.60408818
  atomic energy  EATOM  =     37525.52423787
  ---------------------------------------------------
  free energy    TOTEN  =      -293.00945552 eV

  energy without entropy =     -293.00818733  energy(sigma->0) =     -293.00882142


--------------------------------------------------------------------------------------------------------




----------------------------------------- Iteration    1(   4)  ---------------------------------------


    EDDAV :  VPU time 4489.81: CPU time 4497.47
    DOS   :  VPU time    0.00: CPU time   -0.00
    ------------------------------------------
      LOOP:  VPU time 4490.15: CPU time 4497.82

 eigenvalue-minimisations  : 72688
 total energy-change (2. order) :-0.3139350E+02  (-0.3050617E+02)
 number of electron  360.0000000 magnetization 
 augmentation part   360.0000000 magnetization 

 Free energy of the ion-electron system (eV)
  ---------------------------------------------------
  alpha Z        PSCENC =      2225.99217093
  Ewald energy   TEWEN  =    -28757.68526894
  -1/2 Hartree   DENC   =     -8057.08725217
  -V(xc)+E(xc)   XCENC  =      1291.25587677
  PAW double counting   =     25711.31321228   -25685.71707589
  entropy T*S    EENTRO =        -0.00062297
  eigenvalues    EBANDS =     -4577.99823451
  atomic energy  EATOM  =     37525.52423787
  ---------------------------------------------------
  free energy    TOTEN  =      -324.40295664 eV

  energy without entropy =     -324.40233366  energy(sigma->0) =     -324.40264515


--------------------------------------------------------------------------------------------------------




----------------------------------------- Iteration    1(   5)  ---------------------------------------


    EDDAV :  VPU time 4314.93: CPU time 4326.05
    DOS   :  VPU time    0.00: CPU time   -0.00
    CHARGE:  VPU time  219.39: CPU time  220.12
    MIXING:  VPU time    0.05: CPU time    0.05
    ------------------------------------------
      LOOP:  VPU time 4534.71: CPU time 4546.56

 eigenvalue-minimisations  : 69448
 total energy-change (2. order) :-0.9231082E+00  (-0.9020284E+00)
 number of electron  360.0000010 magnetization 
 augmentation part   157.0510111 magnetization 

 Broyden mixing:
  rms(total) = 0.36015E+01    rms(broyden)= 0.36015E+01
  rms(prec ) = 0.50955E+01
  weight for this iteration     100.00

 Free energy of the ion-electron system (eV)
  ---------------------------------------------------
  alpha Z        PSCENC =      2225.99217093
  Ewald energy   TEWEN  =    -28757.68526894
  -1/2 Hartree   DENC   =     -8057.08725217
  -V(xc)+E(xc)   XCENC  =      1291.25587677
  PAW double counting   =     25711.31321228   -25685.71707589
  entropy T*S    EENTRO =        -0.00093446
  eigenvalues    EBANDS =     -4578.92103127
  atomic energy  EATOM  =     37525.52423787
  ---------------------------------------------------
  free energy    TOTEN  =      -325.32606488 eV

  energy without entropy =     -325.32513042  energy(sigma->0) =     -325.32559765


--------------------------------------------------------------------------------------------------------




----------------------------------------- Iteration    1(   6)  ---------------------------------------


    POTLOK:  VPU time    2.13: CPU time    2.14
    SETDIJ:  VPU time    0.08: CPU time    0.08
    EDDAV :  VPU time 3731.50: CPU time 3735.55
    DOS   :  VPU time    0.00: CPU time   -0.00
    CHARGE:  VPU time  221.18: CPU time  221.44
    MIXING:  VPU time    0.05: CPU time    0.05
    ------------------------------------------
      LOOP:  VPU time 3955.28: CPU time 3959.60

 eigenvalue-minimisations  : 58136
 total energy-change (2. order) : 0.3927125E+02  (-0.1231529E+02)
 number of electron  360.0000010 magnetization 
 augmentation part   166.5636607 magnetization 

 Broyden mixing:
  rms(total) = 0.90711E+00    rms(broyden)= 0.90706E+00
  rms(prec ) = 0.13000E+01
  weight for this iteration     100.00

 eigenvalues of (default mixing * dielectric matrix)
  average eigenvalue GAMMA=   1.2592
  1.2592

 Free energy of the ion-electron system (eV)
  ---------------------------------------------------
  alpha Z        PSCENC =      2225.99217093
  Ewald energy   TEWEN  =    -28757.68526894
  -1/2 Hartree   DENC   =     -7338.19653966
  -V(xc)+E(xc)   XCENC  =      1253.22731144
  PAW double counting   =     24865.79719864   -24908.09160343
  entropy T*S    EENTRO =        -0.00167134
  eigenvalues    EBANDS =     -5152.62065125
  atomic energy  EATOM  =     37525.52423787
  ---------------------------------------------------
  free energy    TOTEN  =      -286.05481574 eV

  energy without entropy =     -286.05314440  energy(sigma->0) =     -286.05398007


--------------------------------------------------------------------------------------------------------




----------------------------------------- Iteration    1(   7)  ---------------------------------------


    POTLOK:  VPU time    1.71: CPU time    1.71
    SETDIJ:  VPU time    0.07: CPU time    0.07
    EDDAV :  VPU time 4319.65: CPU time 4323.53
    DOS   :  VPU time   -0.00: CPU time   -0.00
    CHARGE:  VPU time  219.07: CPU time  219.36
    MIXING:  VPU time    0.05: CPU time    0.05
    ------------------------------------------
      LOOP:  VPU time 4540.90: CPU time 4545.07

 eigenvalue-minimisations  : 69848
 total energy-change (2. order) : 0.1872475E+01  (-0.1559406E+01)
 number of electron  360.0000011 magnetization 
 augmentation part   169.9642742 magnetization 

 Broyden mixing:
  rms(total) = 0.35959E+00    rms(broyden)= 0.35957E+00
  rms(prec ) = 0.42939E+00
  weight for this iteration     100.00

 eigenvalues of (default mixing * dielectric matrix)
  average eigenvalue GAMMA=   1.8410
  1.4088  2.2732

 Free energy of the ion-electron system (eV)
  ---------------------------------------------------
  alpha Z        PSCENC =      2225.99217093
  Ewald energy   TEWEN  =    -28757.68526894
  -1/2 Hartree   DENC   =     -7128.24689745
  -V(xc)+E(xc)   XCENC  =      1242.87936883
  PAW double counting   =     24977.23892015   -25058.18697408
  entropy T*S    EENTRO =        -0.00247299
  eigenvalues    EBANDS =     -5311.69542489
  atomic energy  EATOM  =     37525.52423787
  ---------------------------------------------------
  free energy    TOTEN  =      -284.18234058 eV

  energy without entropy =     -284.17986759  energy(sigma->0) =     -284.18110408


--------------------------------------------------------------------------------------------------------




----------------------------------------- Iteration    1(   8)  ---------------------------------------


    POTLOK:  VPU time    1.70: CPU time    1.70
    SETDIJ:  VPU time    0.07: CPU time    0.07
    EDDAV :  VPU time 4332.11: CPU time 4334.88
    DOS   :  VPU time    0.00: CPU time   -0.00
    CHARGE:  VPU time  217.66: CPU time  217.75
    MIXING:  VPU time    0.05: CPU time    0.05
    ------------------------------------------
      LOOP:  VPU time 4551.93: CPU time 4554.79

 eigenvalue-minimisations  : 70744
 total energy-change (2. order) :-0.1096915E+00  (-0.2952574E+00)
 number of electron  360.0000011 magnetization 
 augmentation part   168.9778994 magnetization 

 Broyden mixing:
  rms(total) = 0.40405E+00    rms(broyden)= 0.40405E+00
  rms(prec ) = 0.89847E+00
  weight for this iteration     100.00

 eigenvalues of (default mixing * dielectric matrix)
  average eigenvalue GAMMA=   1.3681
  2.5034  1.3654  0.2356

 Free energy of the ion-electron system (eV)
  ---------------------------------------------------
  alpha Z        PSCENC =      2225.99217093
  Ewald energy   TEWEN  =    -28757.68526894
  -1/2 Hartree   DENC   =     -7167.98186963
  -V(xc)+E(xc)   XCENC  =      1245.99602687
  PAW double counting   =     25473.03618710   -25569.67339214
  entropy T*S    EENTRO =        -0.00224718
  eigenvalues    EBANDS =     -5259.49787692
  atomic energy  EATOM  =     37525.52423787
  ---------------------------------------------------
  free energy    TOTEN  =      -284.29203204 eV

  energy without entropy =     -284.28978486  energy(sigma->0) =     -284.29090845


--------------------------------------------------------------------------------------------------------




----------------------------------------- Iteration    1(   9)  ---------------------------------------


    POTLOK:  VPU time    1.71: CPU time    1.71
    SETDIJ:  VPU time    0.07: CPU time    0.07
    EDDAV :  VPU time 4518.33: CPU time 4519.78
    DOS   :  VPU time   -0.00: CPU time   -0.00
    CHARGE:  VPU time  219.28: CPU time  219.37
    MIXING:  VPU time    0.07: CPU time    0.07
    ------------------------------------------
      LOOP:  VPU time 4739.80: CPU time 4741.33

 eigenvalue-minimisations  : 74808
 total energy-change (2. order) : 0.1964330E+00  (-0.1072745E+00)
 number of electron  360.0000011 magnetization 
 augmentation part   168.8775961 magnetization 

 Broyden mixing:
  rms(total) = 0.18584E+00    rms(broyden)= 0.18583E+00
  rms(prec ) = 0.26886E+00
  weight for this iteration     100.00

 eigenvalues of (default mixing * dielectric matrix)
  average eigenvalue GAMMA=   1.1421
  2.5489  1.3040  0.4956  0.2198

 Free energy of the ion-electron system (eV)
  ---------------------------------------------------
  alpha Z        PSCENC =      2225.99217093
  Ewald energy   TEWEN  =    -28757.68526894
  -1/2 Hartree   DENC   =     -7167.45756964
  -V(xc)+E(xc)   XCENC  =      1246.29644808
  PAW double counting   =     25604.42185805   -25706.55181751
  entropy T*S    EENTRO =        -0.00218827
  eigenvalues    EBANDS =     -5254.63346962
  atomic energy  EATOM  =     37525.52423787
  ---------------------------------------------------
  free energy    TOTEN  =      -284.09559905 eV

  energy without entropy =     -284.09341078  energy(sigma->0) =     -284.09450492


--------------------------------------------------------------------------------------------------------




----------------------------------------- Iteration    1(  10)  ---------------------------------------


    POTLOK:  VPU time    1.71: CPU time    1.72
    SETDIJ:  VPU time    0.07: CPU time    0.07
    EDDAV :  VPU time 4374.45: CPU time 4380.58
    DOS   :  VPU time   -0.00: CPU time   -0.00
    CHARGE:  VPU time  219.35: CPU time  219.45
    MIXING:  VPU time    0.05: CPU time    0.05
    ------------------------------------------
      LOOP:  VPU time 4595.99: CPU time 4602.21

 eigenvalue-minimisations  : 71656
 total energy-change (2. order) : 0.6697628E-01  (-0.1536903E-01)
 number of electron  360.0000011 magnetization 
 augmentation part   169.1145727 magnetization 

 Broyden mixing:
  rms(total) = 0.11347E+00    rms(broyden)= 0.11347E+00
  rms(prec ) = 0.16107E+00
  weight for this iteration     100.00

 eigenvalues of (default mixing * dielectric matrix)
  average eigenvalue GAMMA=   1.0716
  2.5936  1.1508  1.1508  0.2315  0.2315

 Free energy of the ion-electron system (eV)
  ---------------------------------------------------
  alpha Z        PSCENC =      2225.99217093
  Ewald energy   TEWEN  =    -28757.68526894
  -1/2 Hartree   DENC   =     -7151.43866777
  -V(xc)+E(xc)   XCENC  =      1245.44528713
  PAW double counting   =     25578.02736989   -25680.79769588
  entropy T*S    EENTRO =        -0.00247605
  eigenvalues    EBANDS =     -5269.09357995
  atomic energy  EATOM  =     37525.52423787
  ---------------------------------------------------
  free energy    TOTEN  =      -284.02862277 eV

  energy without entropy =     -284.02614673  energy(sigma->0) =     -284.02738475


--------------------------------------------------------------------------------------------------------




----------------------------------------- Iteration    1(  11)  ---------------------------------------


    POTLOK:  VPU time    1.69: CPU time    1.69
    SETDIJ:  VPU time    0.08: CPU time    0.08
    EDDAV :  VPU time 3917.52: CPU time 3919.15
    DOS   :  VPU time   -0.00: CPU time   -0.00
    CHARGE:  VPU time  221.23: CPU time  221.31
    MIXING:  VPU time    0.06: CPU time    0.06
    ------------------------------------------
      LOOP:  VPU time 4140.92: CPU time 4142.62

 eigenvalue-minimisations  : 62568
 total energy-change (2. order) : 0.3899854E-01  (-0.2413113E-01)
 number of electron  360.0000011 magnetization 
 augmentation part   169.5668916 magnetization 

 Broyden mixing:
  rms(total) = 0.20617E-01    rms(broyden)= 0.20612E-01
  rms(prec ) = 0.33211E-01
  weight for this iteration     100.00

 eigenvalues of (default mixing * dielectric matrix)
  average eigenvalue GAMMA=   0.9884
  2.5902  1.2258  1.2258  0.4201  0.2174  0.2510

 Free energy of the ion-electron system (eV)
  ---------------------------------------------------
  alpha Z        PSCENC =      2225.99217093
  Ewald energy   TEWEN  =    -28757.68526894
  -1/2 Hartree   DENC   =     -7126.67483823
  -V(xc)+E(xc)   XCENC  =      1244.10969797
  PAW double counting   =     25530.36735336   -25633.48866547
  entropy T*S    EENTRO =        -0.00266646
  eigenvalues    EBANDS =     -5292.13164526
  atomic energy  EATOM  =     37525.52423787
  ---------------------------------------------------
  free energy    TOTEN  =      -283.98962423 eV

  energy without entropy =     -283.98695778  energy(sigma->0) =     -283.98829101


--------------------------------------------------------------------------------------------------------




----------------------------------------- Iteration    1(  12)  ---------------------------------------


    POTLOK:  VPU time    1.69: CPU time    1.69
    SETDIJ:  VPU time    0.07: CPU time    0.07
    EDDAV :  VPU time 4376.39: CPU time 4377.75
    DOS   :  VPU time    0.00: CPU time   -0.00
    CHARGE:  VPU time  218.68: CPU time  218.76
    MIXING:  VPU time    0.06: CPU time    0.06
    ------------------------------------------
      LOOP:  VPU time 4597.23: CPU time 4598.68

 eigenvalue-minimisations  : 71552
 total energy-change (2. order) :-0.8836948E-03  (-0.1101705E-02)
 number of electron  360.0000011 magnetization 
 augmentation part   169.6047694 magnetization 

 Broyden mixing:
  rms(total) = 0.23345E-01    rms(broyden)= 0.23344E-01
  rms(prec ) = 0.32606E-01
  weight for this iteration     100.00

 eigenvalues of (default mixing * dielectric matrix)
  average eigenvalue GAMMA=   1.0218
  2.5537  1.7721  1.1879  0.9039  0.2152  0.2599  0.2599

 Free energy of the ion-electron system (eV)
  ---------------------------------------------------
  alpha Z        PSCENC =      2225.99217093
  Ewald energy   TEWEN  =    -28757.68526894
  -1/2 Hartree   DENC   =     -7125.56523007
  -V(xc)+E(xc)   XCENC  =      1244.04810208
  PAW double counting   =     25527.85805402   -25630.50682233
  entropy T*S    EENTRO =        -0.00265463
  eigenvalues    EBANDS =     -5293.65309685
  atomic energy  EATOM  =     37525.52423787
  ---------------------------------------------------
  free energy    TOTEN  =      -283.99050793 eV

  energy without entropy =     -283.98785330  energy(sigma->0) =     -283.98918062


--------------------------------------------------------------------------------------------------------




----------------------------------------- Iteration    1(  13)  ---------------------------------------


    POTLOK:  VPU time    1.69: CPU time    1.70
    SETDIJ:  VPU time    0.08: CPU time    0.08
    EDDAV :  VPU time 4236.83: CPU time 4238.14
    DOS   :  VPU time    0.00: CPU time   -0.00
    CHARGE:  VPU time  221.97: CPU time  222.04
    MIXING:  VPU time    0.05: CPU time    0.05
    ------------------------------------------
      LOOP:  VPU time 4460.96: CPU time 4462.35

 eigenvalue-minimisations  : 68984
 total energy-change (2. order) : 0.9644641E-03  (-0.3075491E-03)
 number of electron  360.0000011 magnetization 
 augmentation part   169.5657955 magnetization 

 Broyden mixing:
  rms(total) = 0.10518E-01    rms(broyden)= 0.10518E-01
  rms(prec ) = 0.16546E-01
  weight for this iteration     100.00

 eigenvalues of (default mixing * dielectric matrix)
  average eigenvalue GAMMA=   0.9745
  2.5519  2.0149  1.1460  0.9308  0.4326  0.2161  0.2520  0.2520

 Free energy of the ion-electron system (eV)
  ---------------------------------------------------
  alpha Z        PSCENC =      2225.99217093
  Ewald energy   TEWEN  =    -28757.68526894
  -1/2 Hartree   DENC   =     -7129.09589121
  -V(xc)+E(xc)   XCENC  =      1244.23641158
  PAW double counting   =     25534.08346577   -25635.37686247
  entropy T*S    EENTRO =        -0.00265385
  eigenvalues    EBANDS =     -5291.66515314
  atomic energy  EATOM  =     37525.52423787
  ---------------------------------------------------
  free energy    TOTEN  =      -283.98954346 eV

  energy without entropy =     -283.98688962  energy(sigma->0) =     -283.98821654


--------------------------------------------------------------------------------------------------------




----------------------------------------- Iteration    1(  14)  ---------------------------------------


    POTLOK:  VPU time    1.70: CPU time    1.70
    SETDIJ:  VPU time    0.07: CPU time    0.07
    EDDAV :  VPU time 4355.38: CPU time 4356.73
    DOS   :  VPU time    0.00: CPU time   -0.00
    CHARGE:  VPU time  218.90: CPU time  218.99
    MIXING:  VPU time    0.06: CPU time    0.06
    ------------------------------------------
      LOOP:  VPU time 4576.45: CPU time 4577.90

 eigenvalue-minimisations  : 71392
 total energy-change (2. order) : 0.1813928E-03  (-0.6740808E-04)
 number of electron  360.0000011 magnetization 
 augmentation part   169.5539586 magnetization 

 Broyden mixing:
  rms(total) = 0.58155E-02    rms(broyden)= 0.58153E-02
  rms(prec ) = 0.93164E-02
  weight for this iteration     100.00

 eigenvalues of (default mixing * dielectric matrix)
  average eigenvalue GAMMA=   0.9771
  2.6165  1.9919  1.2839  0.9618  0.9618  0.2598  0.2598  0.2154  0.2433

 Free energy of the ion-electron system (eV)
  ---------------------------------------------------
  alpha Z        PSCENC =      2225.99217093
  Ewald energy   TEWEN  =    -28757.68526894
  -1/2 Hartree   DENC   =     -7130.18510169
  -V(xc)+E(xc)   XCENC  =      1244.29631981
  PAW double counting   =     25536.49171612   -25637.32489927
  entropy T*S    EENTRO =        -0.00265454
  eigenvalues    EBANDS =     -5291.09588235
  atomic energy  EATOM  =     37525.52423787
  ---------------------------------------------------
  free energy    TOTEN  =      -283.98936207 eV

  energy without entropy =     -283.98670753  energy(sigma->0) =     -283.98803480


--------------------------------------------------------------------------------------------------------




----------------------------------------- Iteration    1(  15)  ---------------------------------------


    POTLOK:  VPU time    1.70: CPU time    1.70
    SETDIJ:  VPU time    0.07: CPU time    0.07
    EDDAV :  VPU time 4494.66: CPU time 4496.10
    DOS   :  VPU time   -0.00: CPU time   -0.00
    CHARGE:  VPU time  220.32: CPU time  220.41
    MIXING:  VPU time    0.06: CPU time    0.06
    ------------------------------------------
      LOOP:  VPU time 4717.14: CPU time 4718.68

 eigenvalue-minimisations  : 74376
 total energy-change (2. order) : 0.3441201E-04  (-0.1566515E-04)
 number of electron  360.0000011 magnetization 
 augmentation part   169.5532149 magnetization 

 Broyden mixing:
  rms(total) = 0.42226E-02    rms(broyden)= 0.42225E-02
  rms(prec ) = 0.70505E-02
  weight for this iteration     100.00

 eigenvalues of (default mixing * dielectric matrix)
  average eigenvalue GAMMA=   0.9167
  2.6250  1.9860  1.3275  0.9982  0.9982  0.2793  0.2793  0.2147  0.2294  0.2294

 Free energy of the ion-electron system (eV)
  ---------------------------------------------------
  alpha Z        PSCENC =      2225.99217093
  Ewald energy   TEWEN  =    -28757.68526894
  -1/2 Hartree   DENC   =     -7130.38834750
  -V(xc)+E(xc)   XCENC  =      1244.31076982
  PAW double counting   =     25537.76600528   -25638.40266326
  entropy T*S    EENTRO =        -0.00265510
  eigenvalues    EBANDS =     -5291.10357675
  atomic energy  EATOM  =     37525.52423787
  ---------------------------------------------------
  free energy    TOTEN  =      -283.98932766 eV

  energy without entropy =     -283.98667256  energy(sigma->0) =     -283.98800011


--------------------------------------------------------------------------------------------------------




----------------------------------------- Iteration    1(  16)  ---------------------------------------


    POTLOK:  VPU time    1.68: CPU time    1.68
    SETDIJ:  VPU time    0.07: CPU time    0.07
    EDDAV :  VPU time 4522.33: CPU time 4523.74
    DOS   :  VPU time    0.00: CPU time   -0.00
    CHARGE:  VPU time  221.94: CPU time  222.02
    MIXING:  VPU time    0.06: CPU time    0.06
    ------------------------------------------
      LOOP:  VPU time 4746.42: CPU time 4747.92

 eigenvalue-minimisations  : 74496
 total energy-change (2. order) : 0.2116031E-04  (-0.5382703E-05)
 number of electron  360.0000011 magnetization 
 augmentation part   169.5521528 magnetization 

 Broyden mixing:
  rms(total) = 0.31370E-02    rms(broyden)= 0.31370E-02
  rms(prec ) = 0.44112E-02
  weight for this iteration     100.00

 eigenvalues of (default mixing * dielectric matrix)
  average eigenvalue GAMMA=   0.9569
  2.6303  2.0713  1.6318  1.1063  1.1063  0.7866  0.2681  0.2519  0.2519  0.2148
  0.2062

 Free energy of the ion-electron system (eV)
  ---------------------------------------------------
  alpha Z        PSCENC =      2225.99217093
  Ewald energy   TEWEN  =    -28757.68526894
  -1/2 Hartree   DENC   =     -7130.49924581
  -V(xc)+E(xc)   XCENC  =      1244.31767330
  PAW double counting   =     25538.13168719   -25638.70182191
  entropy T*S    EENTRO =        -0.00265578
  eigenvalues    EBANDS =     -5291.06608335
  atomic energy  EATOM  =     37525.52423787
  ---------------------------------------------------
  free energy    TOTEN  =      -283.98930650 eV

  energy without entropy =     -283.98665072  energy(sigma->0) =     -283.98797861


--------------------------------------------------------------------------------------------------------




----------------------------------------- Iteration    1(  17)  ---------------------------------------


    POTLOK:  VPU time    1.69: CPU time    1.69
    SETDIJ:  VPU time    0.07: CPU time    0.07
    EDDAV :  VPU time 4120.13: CPU time 4121.41
    DOS   :  VPU time    0.00: CPU time   -0.00
    CHARGE:  VPU time  220.64: CPU time  220.73
    MIXING:  VPU time    0.08: CPU time    0.08
    ------------------------------------------
      LOOP:  VPU time 4342.95: CPU time 4344.33

 eigenvalue-minimisations  : 66584
 total energy-change (2. order) : 0.4442786E-04  (-0.5250173E-05)
 number of electron  360.0000011 magnetization 
 augmentation part   169.5460089 magnetization 

 Broyden mixing:
[...]
     97     -27.0320      2.00000
     98     -27.0256      2.00000
     99     -27.0255      2.00000
    100     -27.0233      2.00000
    101     -27.0096      2.00000
    102     -27.0094      2.00000
    103     -26.9955      2.00000
    104     -26.9953      2.00000
    105     -26.9826      2.00000
    106     -26.9734      2.00000
    107     -26.9662      2.00000
    108     -26.9555      2.00000
    109       0.1744      2.00000
    110       0.5579      2.00000
    111       1.6633      2.00000
    112       1.6637      2.00000
    113       1.9497      2.00000
    114       1.9501      2.00000
    115       2.5313      2.00000
    116       2.5315      2.00000
    117       2.7106      2.00000
    118       2.7108      2.00000
    119       2.7526      2.00000
    120       2.9827      2.00000
    121       2.9829      2.00000
    122       3.0224      2.00000
    123       3.0225      2.00000
    124       3.0919      2.00000
    125       3.6930      2.00000
    126       3.6934      2.00000
    127       3.6938      2.00000
    128       3.6940      2.00000
    129       3.8347      2.00000
    130       3.8354      2.00000
    131       3.8376      2.00000
    132       3.8384      2.00000
    133       3.9346      2.00000
    134       3.9348      2.00000
    135       4.0245      2.00000
    136       4.0249      2.00000
    137       4.0731      2.00000
    138       4.0739      2.00000
    139       4.0962      2.00000
    140       4.1220      2.00000
    141       4.1536      2.00000
    142       4.1600      2.00000
    143       4.3443      2.00000
    144       4.3794      2.00000
    145       4.4096      2.00000
    146       4.4100      2.00000
    147       4.4639      2.00000
    148       4.4642      2.00000
    149       4.5691      2.00000
    150       4.5756      2.00000
    151       4.6123      2.00000
    152       4.6126      2.00000
    153       4.6493      2.00000
    154       4.6499      2.00000
    155       4.6603      2.00000
    156       4.6609      2.00000
    157       4.6743      2.00000
    158       4.6968      2.00000
    159       4.7602      2.00000
    160       4.7609      2.00000
    161       4.7614      2.00000
    162       4.7925      2.00000
    163       4.8684      2.00000
    164       5.0100      2.00000
    165       5.0525      2.00000
    166       5.0533      2.00000
    167       5.1243      2.00000
    168       5.1255      2.00000
    169       5.1940      2.00000
    170       5.1954      2.00000
    171       5.2928      2.00000
    172       5.2943      2.00000
    173       5.3962      2.00000
    174       5.3970      2.00000
    175       5.4805      2.00000
    176       5.4813      2.00000
    177       5.5612      2.00000
    178       5.6904      2.00000
    179       5.7129      2.00000
    180       5.7384      2.00000
    181       5.8542      0.00000
    182       5.8760      0.00000
    183       5.9310      0.00000
    184       5.9341      0.00000
    185       5.9610      0.00000
    186       6.0335      0.00000
    187       6.0348      0.00000
    188       6.0643      0.00000
    189       6.0647      0.00000
    190       6.0763      0.00000
    191       6.1628      0.00000
    192       6.1635      0.00000
    193       6.1968      0.00000
    194       6.2014      0.00000
    195       6.2025      0.00000
    196       6.2216      0.00000
    197       6.2281      0.00000
    198       6.3728      0.00000
    199       6.3731      0.00000
    200       6.3998      0.00000
    201       6.4004      0.00000
    202       6.4869      0.00000
    203       6.5135      0.00000
    204       6.5142      0.00000
    205       6.5290      0.00000
    206       6.5626      0.00000
    207       6.5634      0.00000
    208       6.5841      0.00000
    209       6.6310      0.00000
    210       6.6321      0.00000
    211       6.6371      0.00000
    212       6.6376      0.00000
    213       6.6852      0.00000
    214       6.6869      0.00000
    215       6.7117      0.00000
    216       6.7166      0.00000


--------------------------------------------------------------------------------------------------------


 soft charge-density along one line, spin component           1
         0         1         2         3         4         5         6         7         8         9
 total charge-density along one line
 
 pseudopotential strength for first ion, spin component:           1
-29.113  -0.000  -0.001  13.035   0.000   0.001   0.000  -0.001
 -0.000 -29.164   0.000   0.000  13.073  -0.000  -0.000  -0.000
 -0.001   0.000 -29.113   0.001  -0.000  13.034   0.004  -0.000
 13.035   0.000   0.001  -0.889  -0.000  -0.000   0.000   0.001
  0.000  13.073  -0.000  -0.000  -0.913   0.000   0.000   0.000
  0.001  -0.000  13.034  -0.000   0.000  -0.888  -0.002   0.000
  0.000  -0.000   0.004   0.000   0.000  -0.002  -2.940   0.000
 -0.001  -0.000  -0.000   0.001   0.000   0.000   0.000  -2.965
  0.000  -0.001   0.000  -0.000   0.001  -0.000   0.000  -0.000
 -0.000   0.000  -0.001   0.000   0.000   0.001   0.000  -0.000
  0.005   0.000   0.000  -0.003  -0.000   0.000  -0.000   0.000
 -0.000  -0.000   0.001   0.000   0.000  -0.001   0.512   0.000
 -0.000  -0.000  -0.000   0.000   0.000   0.000   0.000   0.507
  0.000  -0.000   0.000  -0.000   0.000  -0.000   0.000  -0.000
 -0.000  -0.000  -0.000   0.000   0.000   0.000   0.000  -0.000
  0.001   0.000  -0.000  -0.001  -0.000   0.000  -0.000   0.000
  0.000   0.000   0.000  -0.000  -0.000  -0.000   0.000   0.000
 -0.000  -0.000   0.000   0.000   0.000  -0.000  -0.000  -0.000
 total augmentation occupancy for first ion, spin component:           1
  1.976   0.000  -0.000   0.002   0.000  -0.000   0.000   0.000  -0.000   0.000  -0.016  -0.000  -0.000  -0.000  -0.000   0.006
  0.000   1.975   0.000   0.000  -0.000  -0.000  -0.000   0.000   0.000   0.000   0.000  -0.000   0.000  -0.000  -0.000   0.000
 -0.000   0.000   1.976  -0.000  -0.000   0.002  -0.016   0.000  -0.000   0.000   0.000   0.006  -0.000   0.000  -0.000  -0.000
  0.002   0.000  -0.000   0.184   0.000   0.000   0.001   0.001  -0.000  -0.000  -0.068  -0.001  -0.001   0.000   0.000   0.019
  0.000  -0.000  -0.000   0.000   0.171  -0.000  -0.000  -0.000   0.001   0.001   0.000   0.000  -0.000  -0.001  -0.001  -0.000
 -0.000  -0.000   0.002   0.000  -0.000   0.184  -0.068  -0.000   0.000   0.001   0.001   0.019   0.000   0.000  -0.001  -0.000
  0.000  -0.000  -0.016   0.001  -0.000  -0.068   0.592   0.000   0.001   0.000  -0.000  -0.265  -0.000  -0.000  -0.000   0.001
  0.000   0.000   0.000   0.001  -0.000  -0.000   0.000   0.471  -0.000  -0.002   0.000  -0.000  -0.235   0.000   0.001  -0.000
 -0.000   0.000  -0.000  -0.000   0.001   0.000   0.001  -0.000   0.640   0.000  -0.000  -0.000   0.000  -0.273   0.000  -0.000
  0.000   0.000   0.000  -0.000   0.001   0.001   0.000  -0.002   0.000   0.473   0.000  -0.000   0.001   0.000  -0.237  -0.000
 -0.016   0.000   0.000  -0.068   0.000   0.001  -0.000   0.000  -0.000   0.000   0.592   0.001  -0.000  -0.000  -0.000  -0.264
 -0.000  -0.000   0.006  -0.001   0.000   0.019  -0.265  -0.000  -0.000  -0.000   0.001   0.138   0.000   0.000   0.000  -0.001
 -0.000   0.000  -0.000  -0.001  -0.000   0.000  -0.000  -0.235   0.000   0.001  -0.000   0.000   0.134  -0.000  -0.000   0.000
 -0.000  -0.000   0.000   0.000  -0.001   0.000  -0.000   0.000  -0.273   0.000  -0.000   0.000  -0.000   0.136  -0.000   0.000
 -0.000  -0.000  -0.000   0.000  -0.001  -0.001  -0.000   0.001   0.000  -0.237  -0.000   0.000  -0.000  -0.000   0.134   0.000
  0.006   0.000  -0.000   0.019  -0.000  -0.000   0.001  -0.000  -0.000  -0.000  -0.264  -0.001   0.000   0.000   0.000   0.137
 -0.000   0.001   0.001  -0.001   0.002   0.004  -0.003  -0.000   0.037   0.000   0.001   0.001   0.000  -0.018   0.000  -0.000
  0.000   0.001  -0.000  -0.000  -0.000  -0.000   0.000   0.000   0.012  -0.000  -0.000  -0.000  -0.000  -0.005   0.000   0.000


------------------------ aborting loop because EDIFF is reached ----------------------------------------




--------------------------------------------------------------------------------------------------------


    CHARGE:  VPU time  217.46: CPU time  218.18
    FORLOC:  VPU time    0.25: CPU time    0.25
    FORNL :  VPU time  561.73: CPU time  562.79
    STRESS:  VPU time 2481.44: CPU time 2487.54
    FORCOR:  VPU time    0.98: CPU time    0.98
    FORHAR:  VPU time    0.36: CPU time    0.36
    MIXING:  VPU time    0.04: CPU time    0.04


--------------------------------------------------------------------------------------------------------



  FREE ENERGIE OF THE ION-ELECTRON SYSTEM (eV)
  ---------------------------------------------------
  free  energy   TOTEN  =      -283.989238 eV

  energy  without entropy=     -283.986579  energy(sigma->0) =     -283.987908
 

  FORCE on cell =-STRESS in cart. coord.  units (eV/reduce length):
  Direction    X        Y        Z        XY       YZ       ZX
  --------------------------------------------------------------------------------------
  Alpha Z   2225.99   2225.99   2225.99
  Ewald    -9677.77  -9691.14  -9388.87    -12.03     -0.00     -0.01
  Hartree   2340.32   2334.12   2456.78     -5.60     -0.00     -0.00
  E(xc)    -1693.35  -1693.35  -1692.95     -0.00     -0.00     -0.00
  Local     2475.33   2494.77   2119.78     17.51      0.00      0.01
  n-local   -864.20   -863.96   -847.95      0.20     -0.00      0.00
  augment   1840.41   1840.11   1814.49     -0.26     -0.00      0.00
  Kinetic   3347.96   3347.29   3303.58     -0.58     -0.00      0.00
  -------------------------------------------------------------------------------------
  Total       -5.31     -6.16     -9.15     -0.75     -0.00      0.00
  in kB      -13.41    -15.55    -23.08     -1.90     -0.00      0.00
  external pressure =      -17.35 kB  Pullay stress =        0.00 kB


 VOLUME and BASIS-vectors are now :
 -----------------------------------------------------------------------------
  energy-cutoff  :      500.00
  volume of cell :      634.86
      direct lattice vectors                 reciprocal lattice vectors
     8.820667100  0.024765440  0.000000000     0.113187820  0.064925977  0.000000000
    -4.388885871  7.651304610  0.000000000    -0.000366362  0.130486516  0.000000000
     0.000000000  0.000000000  9.391623956     0.000000000  0.000000000  0.106477858

  length of vectors
     8.820701866  8.820701867  9.391623956     0.130487030  0.130487030  0.106477858


 FORCES acting on ions
    electron-ion (+dipol)            ewald-force                    non-local-force                 convergence-correction
 -----------------------------------------------------------------------------------------------
   0.235E+01 -.878E-01 0.248E+01   -.235E+01 0.642E-01 -.252E+01   -.459E-01 0.235E-01 0.136E-02   0.901E-04 -.677E-05 0.374E-04
   -.737E+00 -.970E-01 0.410E+00   0.782E+00 0.678E-01 -.407E+00   -.354E-01 0.249E-01 -.704E-05   -.509E-04 -.142E-04 -.613E-07
   -.736E+00 -.871E-01 0.405E+00   0.780E+00 0.677E-01 -.402E+00   -.348E-01 0.224E-01 -.190E-03   -.400E-04 0.150E-04 -.106E-04
   0.173E+00 0.431E+00 0.406E+00   -.131E+00 -.458E+00 -.403E+00   -.384E-01 0.190E-01 -.193E-03   0.563E-05 0.259E-04 -.403E-05
   0.168E+00 -.603E+00 0.402E+00   -.126E+00 0.582E+00 -.400E+00   -.380E-01 0.279E-01 -.210E-03   0.138E-04 -.453E-04 0.690E-07
   -.106E-01 -.897E-01 0.145E+00   0.542E-01 0.654E-01 -.147E+00   -.406E-01 0.237E-01 0.383E-02   -.197E-04 -.148E-05 -.242E-04
   0.180E+00 0.433E+00 0.408E+00   -.135E+00 -.456E+00 -.406E+00   -.415E-01 0.225E-01 0.871E-05   0.175E-04 0.464E-04 -.882E-06
   -.102E-01 -.886E-01 0.146E+00   0.542E-01 0.643E-01 -.147E+00   -.408E-01 0.239E-01 0.187E-02   -.521E-04 0.903E-05 -.235E-04
   0.168E+00 -.610E+00 0.400E+00   -.123E+00 0.584E+00 -.397E+00   -.411E-01 0.251E-01 -.191E-03   0.340E-04 -.277E-04 -.692E-05
   0.263E+00 -.889E-01 -.429E+00   -.223E+00 0.646E-01 0.443E+00   -.407E-01 0.235E-01 -.234E-03   0.419E-04 -.856E-05 -.369E-04
   0.102E+00 -.880E-01 -.198E+00   -.585E-01 0.653E-01 0.199E+00   -.410E-01 0.231E-01 -.508E-03   -.292E-04 -.102E-04 0.380E-07
   0.102E+00 -.910E-01 -.196E+00   -.587E-01 0.653E-01 0.198E+00   -.411E-01 0.242E-01 -.590E-03   -.131E-04 0.136E-04 0.107E-04
   0.176E+00 -.458E-01 -.197E+00   -.133E+00 0.226E-01 0.198E+00   -.412E-01 0.229E-01 -.605E-03   -.524E-05 0.812E-05 0.441E-05
   0.174E+00 -.133E+00 -.196E+00   -.132E+00 0.108E+00 0.197E+00   -.411E-01 0.243E-01 -.718E-03   0.544E-05 -.186E-04 -.119E-06
   0.113E+00 -.895E-01 -.126E+00   -.725E-01 0.653E-01 0.122E+00   -.401E-01 0.236E-01 0.325E-02   -.637E-06 0.682E-05 0.243E-04
   0.176E+00 -.483E-01 -.197E+00   -.133E+00 0.222E-01 0.198E+00   -.412E-01 0.242E-01 -.509E-03   -.140E-05 0.214E-04 0.103E-05
   0.113E+00 -.892E-01 -.122E+00   -.725E-01 0.651E-01 0.122E+00   -.402E-01 0.237E-01 -.815E-04   -.233E-04 0.237E-05 0.236E-04
   0.174E+00 -.130E+00 -.195E+00   -.132E+00 0.107E+00 0.196E+00   -.411E-01 0.232E-01 -.712E-03   0.242E-04 -.139E-04 0.703E-05
   -.629E+00 0.563E+00 -.967E+00   0.594E+00 -.543E+00 0.967E+00   0.446E-01 -.254E-01 0.100E-01   0.376E-05 0.155E-04 -.266E-04
   -.366E+00 0.108E+00 -.191E-01   0.324E+00 -.842E-01 0.194E-01   0.399E-01 -.234E-01 -.126E-02   -.666E-04 0.615E-05 -.956E-05
   0.382E+00 0.204E+00 -.120E-01   -.424E+00 -.180E+00 0.137E-01   0.395E-01 -.248E-01 -.404E-02   0.634E-04 0.902E-05 0.136E-04
   0.186E+00 -.498E+00 -.497E+00   -.228E+00 0.527E+00 0.498E+00   0.415E-01 -.208E-01 0.277E-02   0.379E-04 -.358E-04 -.493E-05
   -.429E+00 -.102E+00 -.170E+00   0.389E+00 0.127E+00 0.175E+00   0.361E-01 -.255E-01 -.701E-02   -.374E-04 -.390E-04 -.209E-04
   -.154E+00 0.123E+00 0.793E-01   0.114E+00 -.997E-01 -.806E-01   0.388E-01 -.228E-01 0.124E-02   0.515E-06 0.161E-04 0.106E-04
   -.197E+00 0.185E+00 -.345E-01   0.155E+00 -.161E+00 0.358E-01   0.407E-01 -.233E-01 -.217E-02   -.238E-04 0.298E-04 -.750E-05
   -.166E+00 -.259E-01 -.442E-02   0.124E+00 0.506E-01 0.378E-02   0.416E-01 -.245E-01 -.123E-03   -.390E-05 -.293E-04 0.833E-06
   -.977E-01 0.245E+00 -.450E-01   0.560E-01 -.221E+00 0.467E-01   0.395E-01 -.223E-01 -.289E-02   0.278E-04 0.269E-04 -.440E-06
   0.379E+00 -.210E-01 -.144E-01   -.421E+00 0.450E-01 0.156E-01   0.392E-01 -.223E-01 -.367E-02   0.412E-04 -.120E-04 0.265E-04
   -.365E+00 0.685E-01 -.199E-01   0.324E+00 -.440E-01 0.204E-01   0.399E-01 -.241E-01 -.128E-02   -.559E-04 0.361E-05 0.965E-05
   -.621E+00 -.384E+00 -.965E+00   0.586E+00 0.413E+00 0.964E+00   0.445E-01 -.218E-01 0.100E-01   0.152E-04 -.130E-04 -.139E-04
   0.192E+00 0.668E+00 -.487E+00   -.234E+00 -.647E+00 0.487E+00   0.415E-01 -.266E-01 0.316E-02   0.278E-04 0.100E-04 0.467E-05
   -.159E+00 0.558E-01 0.763E-01   0.119E+00 -.306E-01 -.777E-01   0.384E-01 -.242E-01 0.123E-02   0.727E-05 -.161E-04 0.212E-04
   -.431E+00 0.283E+00 -.176E+00   0.391E+00 -.259E+00 0.181E+00   0.369E-01 -.217E-01 -.651E-02   -.348E-04 0.321E-04 -.109E-04
   -.163E+00 0.205E+00 -.457E-02   0.121E+00 -.181E+00 0.408E-02   0.414E-01 -.229E-01 -.395E-03   -.215E-04 0.290E-04 0.743E-05
   -.198E+00 -.663E-02 -.341E-01   0.157E+00 0.309E-01 0.351E-01   0.407E-01 -.240E-01 -.190E-02   -.505E-05 -.189E-04 -.923E-06
   -.993E-01 -.657E-01 -.479E-01   0.576E-01 0.901E-01 0.497E-01   0.395E-01 -.250E-01 -.288E-02   0.269E-04 -.153E-04 0.301E-06
 -----------------------------------------------------------------------------------------------
   0.904E-04 -.165E-03 0.341E-04   -.870E-13 0.550E-12 0.200E-12   -.187E-03 0.151E-03 -.728E-04   -.343E-06 0.648E-06 0.323E-06
 
 
 POSITION                                       TOTAL-FORCE (eV/Angst)
 -----------------------------------------------------------------------------------
      0.00675      1.70587      1.18124        -0.041753     -0.000031     -0.042732
      2.94013      1.71410      1.17395         0.009756     -0.004330      0.002450
      5.88035      1.72236      1.17395         0.009615      0.003099      0.002459
     -1.46305      4.25628      1.17395         0.003705     -0.007887      0.002451
      1.47717      4.26454      1.17395         0.003811      0.006448      0.002329
      4.41739      4.27279      1.17395         0.002968     -0.000608      0.001589
     -2.92602      6.80672      1.17395         0.003707     -0.000162      0.002442
      0.01421      6.81497      1.17395         0.003100     -0.000427      0.001586
      2.95443      6.82323      1.17395         0.003731     -0.001206      0.002329
     -0.00009      1.70585      5.86976        -0.001196     -0.000761      0.013696
      2.94013      1.71410      5.86976         0.002111      0.000364      0.000540
      5.88035      1.72236      5.86976         0.002159     -0.001508      0.000554
     -1.46305      4.25628      5.86976         0.001161     -0.000338      0.000545
      1.47717      4.26454      5.86976         0.001319     -0.000906      0.000513
      4.41739      4.27279      5.86976         0.000287     -0.000674     -0.000508
     -2.92602      6.80672      5.86976         0.001199     -0.001919      0.000542
      0.01421      6.81497      5.86976         0.000408     -0.000467     -0.000510
      2.95443      6.82323      5.86976         0.001226      0.000973      0.000520
      1.47735      0.85284      3.52186         0.009889     -0.005568      0.009459
      4.41757      0.86110      3.52186        -0.001431      0.000257     -0.000884
      7.35780      0.86935      3.52186        -0.002581     -0.000646     -0.002323
      0.01439      3.40328      3.52186        -0.000635      0.007836      0.003661
      2.95461      3.41153      3.52186        -0.003658     -0.000157     -0.002132
      5.89483      3.41979      3.52186        -0.001355      0.000471     -0.000048
     -1.44857      5.95371      3.52186        -0.000766      0.000935     -0.000823
      1.49165      5.96197      3.52186        -0.000685      0.000236     -0.000763
      4.43187      5.97022      3.52186        -0.002194      0.001740     -0.001167
      1.47735      0.85284      8.21767        -0.002732      0.001741     -0.002427
      4.41757      0.86110      8.21767        -0.001336      0.000404     -0.000794
      7.35780      0.86935      8.21767         0.009667      0.006377      0.009156
      0.01439      3.40328      8.21767        -0.000576     -0.006455      0.003451
      2.95461      3.41153      8.21767        -0.001624      0.000998     -0.000220
      5.89483      3.41979      8.21767        -0.003468      0.001690     -0.002033
     -1.44857      5.95371      8.21767        -0.000837      0.000775     -0.000872
      1.49165      5.96197      8.21767        -0.000812      0.000303     -0.000866
      4.43187      5.97022      8.21767        -0.002181     -0.000596     -0.001171
 -----------------------------------------------------------------------------------
    total drift:                               -0.000097     -0.000013     -0.000038


--------------------------------------------------------------------------------------------------------



 mean value of Nose-termostat <S>:     1.000 mean value of <T> :     0.000
 mean temperature <T/S>/<1/S>  :     0.000

     LOOP+:  VPU time********: CPU time********
  
  
 General timing and accounting informations for this job:
 ========================================================
  
                  Total CPU time used (sec):   117858.269
                            User time (sec):   113584.475
                          System time (sec):     4273.794
                         Elapsed time (sec):   118125.285
  
                   Maximum memory used (kb):    11814620.
                   Average memory used (kb):           0.
  
                          Minor page faults:      2469436
                          Major page faults:            1
                 Voluntary context switches:         1275
