32   
1    

1    
  0.0100000000000000   0.0000000000000000   0.0000000000000000
  -0.0449081900    0.0000000000   -0.0000000000
   0.0011495200   -0.0000000000    0.0000000000
  -0.0003294400    0.0000000000   -0.0000000000
  -0.0004309600   -0.0000000000   -0.0000000000
  -0.0003294400    0.0000000000    0.0000000000
  -0.0004309600   -0.0000000000    0.0000000000
  -0.0000750400    0.0000000000   -0.0000000000
  -0.0001649000   -0.0000000000    0.0000000000
   0.0058010900    0.0068232700   -0.0000000000
   0.0056175300   -0.0065672900    0.0000000000
   0.0058010900   -0.0068232700   -0.0000000000
   0.0056175300    0.0065672900   -0.0000000000
   0.0002254500    0.0000810400   -0.0000000000
   0.0002248000   -0.0000761400   -0.0000000000
   0.0002254500   -0.0000810400   -0.0000000000
   0.0002248000    0.0000761400   -0.0000000000
   0.0058010900    0.0000000000    0.0068232700
   0.0056175300    0.0000000000   -0.0065672900
   0.0002254500    0.0000000000    0.0000810400
   0.0002248000    0.0000000000   -0.0000761400
   0.0058010900    0.0000000000   -0.0068232700
   0.0056175300    0.0000000000    0.0065672900
   0.0002254500    0.0000000000   -0.0000810400
   0.0002248000    0.0000000000    0.0000761400
  -0.0010637300   -0.0000091900   -0.0000091900
   0.0005747100    0.0000026200    0.0000026200
  -0.0010637300    0.0000091900   -0.0000091900
   0.0005747100   -0.0000026200    0.0000026200
  -0.0010637300   -0.0000091900    0.0000091900
   0.0005747100    0.0000026200   -0.0000026200
  -0.0010637300    0.0000091900    0.0000091900
   0.0005747100   -0.0000026200   -0.0000026200
