mesh: [    48,    48,    48 ]
nqpoint: 2600   
reciprocal_lattice:
- [   0.24019842,   0.00000000,   0.00000000 ] # a*
- [   0.00000000,   0.24019842,   0.00000000 ] # b*
- [   0.00000000,   0.00000000,   0.24019842 ] # c*
natom:   4      
lattice:
- [     4.163224781616441,     0.000000000000000,     0.000000000000000 ] # a
- [     0.000000000000000,     4.163224781616441,     0.000000000000000 ] # b
- [     0.000000000000000,     0.000000000000000,     4.163224781616441 ] # c
points:
- symbol: Ag # 1
  coordinates: [  0.000000000000000,  0.000000000000000,  0.000000000000000 ]
  mass: 107.868200
- symbol: Ag # 2
  coordinates: [  0.500000000000000,  0.500000000000000,  0.000000000000000 ]
  mass: 107.868200
- symbol: Ag # 3
  coordinates: [  0.500000000000000,  0.000000000000000,  0.500000000000000 ]
  mass: 107.868200
- symbol: Ag # 4
  coordinates: [  0.000000000000000,  0.500000000000000,  0.500000000000000 ]
  mass: 107.868200
phonon:
- q-position: [    0.0104167,    0.0104167,    0.0104167 ]
  weight: 8    
  band:
  - # 1
    frequency:     0.0744879002
  - # 2
    frequency:     0.0744879002
  - # 3
    frequency:     0.1589477630
  - # 4
    frequency:     3.1404060627
  - # 5
    frequency:     3.1404060627
  - # 6
    frequency:     3.1404060627
  - # 7
    frequency:     3.1424969007
  - # 8
    frequency:     3.1424969007
  - # 9
    frequency:     3.1424969007
  - # 10
    frequency:     4.6368813554
  - # 11
    frequency:     4.6368813554
  - # 12
    frequency:     4.6368813554

- q-position: [    0.0312500,    0.0104167,    0.0104167 ]
  weight: 24   
  band:
  - # 1
    frequency:     0.1492341988
  - # 2
    frequency:     0.1620816369
  - # 3
    frequency:     0.2909259493
  - # 4
    frequency:     3.1369833864
  - # 5
    frequency:     3.1384239125
  - # 6
    frequency:     3.1384239125
  - # 7
    frequency:     3.1390666376
  - # 8
    frequency:     3.1459284873
  - # 9
    frequency:     3.1459284873
  - # 10
    frequency:     4.6329350656
  - # 11
    frequency:     4.6334059770
  - # 12
    frequency:     4.6334059770

- q-position: [    0.0520833,    0.0104167,    0.0104167 ]
  weight: 24   
  band:
  - # 1
    frequency:     0.2495029138
  - # 2
    frequency:     0.2600589137
  - # 3
    frequency:     0.4431791786
  - # 4
    frequency:     3.1301422847
  - # 5
    frequency:     3.1322104052
  - # 6
    frequency:     3.1355483809
  - # 7
    frequency:     3.1355483809
  - # 8
    frequency:     3.1517197327
  - # 9
    frequency:     3.1517197327
  - # 10
    frequency:     4.6250362955
  - # 11
    frequency:     4.6264724761
  - # 12
    frequency:     4.6264724761

- q-position: [    0.0729167,    0.0104167,    0.0104167 ]
  weight: 24   
  band:
  - # 1
    frequency:     0.3515565772
  - # 2
    frequency:     0.3598077144
  - # 3
    frequency:     0.6013274333
  - # 4
    frequency:     3.1198912498
  - # 5
    frequency:     3.1219367799
  - # 6
    frequency:     3.1315290518
  - # 7
    frequency:     3.1315290518
  - # 8
    frequency:     3.1601542667
  - # 9
    frequency:     3.1601542667
  - # 10
    frequency:     4.6131727913
  - # 11
    frequency:     4.6161152771
  - # 12
    frequency:     4.6161152771

- q-position: [    0.0937500,    0.0104167,    0.0104167 ]
  weight: 24   
  band:
  - # 1
    frequency:     0.4533012891
  - # 2
    frequency:     0.4599053192
  - # 3
    frequency:     0.7613806274
  - # 4
    frequency:     3.1062429948
  - # 5
    frequency:     3.1082585990
  - # 6
    frequency:     3.1263436487
  - # 7
    frequency:     3.1263436487
  - # 8
    frequency:     3.1713030246
  - # 9
    frequency:     3.1713030246
  - # 10
    frequency:     4.5973264895
  - # 11
    frequency:     4.6023857961
  - # 12
    frequency:     4.6023857961

- q-position: [    0.1145833,    0.0104167,    0.0104167 ]
  weight: 24   
  band:
  - # 1
    frequency:     0.5544484530
  - # 2
    frequency:     0.5598678187
  - # 3
    frequency:     0.9216874467
  - # 4
    frequency:     3.0892144237
  - # 5
    frequency:     3.0911929273
  - # 6
    frequency:     3.1200474935
  - # 7
    frequency:     3.1200474935
  - # 8
    frequency:     3.1851734198
  - # 9
    frequency:     3.1851734198
  - # 10
    frequency:     4.5774738910
  - # 11
    frequency:     4.5853521783
  - # 12
    frequency:     4.5853521783

- q-position: [    0.1354167,    0.0104167,    0.0104167 ]
  weight: 24   
  band:
  - # 1
    frequency:     0.6549093418
  - # 2
    frequency:     0.6594430427
  - # 3
    frequency:     1.0813723216
  - # 4
    frequency:     3.0688265926
  - # 5
    frequency:     3.0707610142
  - # 6
    frequency:     3.1127313804
  - # 7
    frequency:     3.1127313804
  - # 8
    frequency:     3.2017496859
  - # 9
    frequency:     3.2017496859
  - # 10
    frequency:     4.5535865521
  - # 11
    frequency:     4.5650989469
  - # 12
    frequency:     4.5650989469

- q-position: [    0.1562500,    0.0104167,    0.0104167 ]
  weight: 24   
  band:
  - # 1
    frequency:     0.7546126741
  - # 2
    frequency:     0.7584582899
  - # 3
    frequency:     1.2398719732
  - # 4
    frequency:     3.0451046600
  - # 5
    frequency:     3.0469882399
  - # 6
    frequency:     3.1045091313
  - # 7
    frequency:     3.1045091313
  - # 8
    frequency:     3.2210031561
  - # 9
    frequency:     3.2210031561
  - # 10
    frequency:     4.5256316834
  - # 11
    frequency:     4.5417265652
  - # 12
    frequency:     4.5417265652

- q-position: [    0.1770833,    0.0104167,    0.0104167 ]
  weight: 24   
  band:
  - # 1
    frequency:     0.8534813684
  - # 2
    frequency:     0.8567742429
  - # 3
    frequency:     1.3967691411
  - # 4
    frequency:     3.0180778292
  - # 5
    frequency:     3.0199040520
  - # 6
    frequency:     3.0955125322
  - # 7
    frequency:     3.0955125322
  - # 8
    frequency:     3.2428948187
  - # 9
    frequency:     3.2428948187
  - # 10
    frequency:     4.4935728483
  - # 11
    frequency:     4.5153509133
  - # 12
    frequency:     4.5153509133

- q-position: [    0.1979167,    0.0104167,    0.0104167 ]
  weight: 24   
  band:
  - # 1
    frequency:     0.9514316611
  - # 2
    frequency:     0.9542677689
  - # 3
    frequency:     1.5517242984
  - # 4
    frequency:     2.9877792815
  - # 5
    frequency:     2.9895418937
  - # 6
    frequency:     3.0858882266
  - # 7
    frequency:     3.0858882266
  - # 8
    frequency:     3.2673756197
  - # 9
    frequency:     3.2673756197
  - # 10
    frequency:     4.4573707512
  - # 11
    frequency:     4.4861026782
  - # 12
    frequency:     4.4861026782

- q-position: [    0.2187500,    0.0104167,    0.0104167 ]
  weight: 24   
  band:
  - # 1
    frequency:     1.0483750320
  - # 2
    frequency:     1.0508245214
  - # 3
    frequency:     1.7044446212
  - # 4
    frequency:     2.9542461009
  - # 5
    frequency:     2.9559391215
  - # 6
    frequency:     3.0757950889
  - # 7
    frequency:     3.0757950889
  - # 8
    frequency:     3.2943860361
  - # 9
    frequency:     3.2943860361
  - # 10
    frequency:     4.4169841029
  - # 11
    frequency:     4.4541266604
  - # 12
    frequency:     4.4541266604

- q-position: [    0.2395833,    0.0104167,    0.0104167 ]
  weight: 24   
  band:
  - # 1
    frequency:     1.1442199353
  - # 2
    frequency:     1.1463354197
  - # 3
    frequency:     1.8546687831
  - # 4
    frequency:     2.9175191912
  - # 5
    frequency:     2.9191369170
  - # 6
    frequency:     3.0654016233
  - # 7
    frequency:     3.0654016233
  - # 8
    frequency:     3.3238554296
  - # 9
    frequency:     3.3238554296
  - # 10
    frequency:     4.3723705520
  - # 11
    frequency:     4.4195809965
  - # 12
    frequency:     4.4195809965

- q-position: [    0.2604167,    0.0104167,    0.0104167 ]
  weight: 24   
  band:
  - # 1
    frequency:     1.2388730300
  - # 2
    frequency:     1.2406948488
  - # 3
    frequency:     2.0021590854
  - # 4
    frequency:     2.8776431856
  - # 5
    frequency:     2.8791801893
  - # 6
    frequency:     3.0548832391
  - # 7
    frequency:     3.0548832391
  - # 8
    frequency:     3.3557013837
  - # 9
    frequency:     3.3557013837
  - # 10
    frequency:     4.3234876693
  - # 11
    frequency:     4.3826363009
  - # 12
    frequency:     4.3826363009

- q-position: [    0.2812500,    0.0104167,    0.0104167 ]
  weight: 24   
  band:
  - # 1
    frequency:     1.3322400248
  - # 2
    frequency:     1.3337996942
  - # 3
    frequency:     2.1466972282
  - # 4
    frequency:     2.8346663495
  - # 5
    frequency:     2.8361174720
  - # 6
    frequency:     3.0444193606
  - # 7
    frequency:     3.0444193606
  - # 8
    frequency:     3.3898291254
  - # 9
    frequency:     3.3898291254
  - # 10
    frequency:     4.2702939710
  - # 11
    frequency:     4.3434747273
  - # 12
    frequency:     4.3434747273

- q-position: [    0.3020833,    0.0104167,    0.0104167 ]
  weight: 24   
  band:
  - # 1
    frequency:     1.4242262644
  - # 2
    frequency:     1.4255488123
  - # 3
    frequency:     2.2880819864
  - # 4
    frequency:     2.7886404772
  - # 5
    frequency:     2.7900008126
  - # 6
    frequency:     3.0341903794
  - # 7
    frequency:     3.0341903794
  - # 8
    frequency:     3.4261310861
  - # 9
    frequency:     3.4261310861
  - # 10
    frequency:     4.2127499691
  - # 11
    frequency:     4.3022889531
  - # 12
    frequency:     4.3022889531

- q-position: [    0.3229167,    0.0104167,    0.0104167 ]
  weight: 24   
  band:
  - # 1
    frequency:     1.5147371528
  - # 2
    frequency:     1.5158427420
  - # 3
    frequency:     2.4261279167
  - # 4
    frequency:     2.7396207825
  - # 5
    frequency:     2.7408856577
  - # 6
    frequency:     3.0243744764
  - # 7
    frequency:     3.0243744764
  - # 8
    frequency:     3.4644866360
  - # 9
    frequency:     3.4644866360
  - # 10
    frequency:     4.1508192337
  - # 11
    frequency:     4.2592810900
  - # 12
    frequency:     4.2592810900

- q-position: [    0.3437500,    0.0104167,    0.0104167 ]
  weight: 24   
  band:
  - # 1
    frequency:     1.6036784731
  - # 2
    frequency:     1.6045835583
  - # 3
    frequency:     2.5606646320
  - # 4
    frequency:     2.6876657853
  - # 5
    frequency:     2.6888307326
  - # 6
    frequency:     3.0151443639
  - # 7
    frequency:     3.0151443639
  - # 8
    frequency:     3.5047620120
  - # 9
    frequency:     3.5047620120
  - # 10
    frequency:     4.0844694564
  - # 11
    frequency:     4.2146615254
  - # 12
    frequency:     4.2146615254

- q-position: [    0.3645833,    0.0104167,    0.0104167 ]
  weight: 24   
  band:
  - # 1
    frequency:     1.6909566404
  - # 2
    frequency:     1.6916748122
  - # 3
    frequency:     2.6328371930
  - # 4
    frequency:     2.6338979164
  - # 5
    frequency:     2.6915363868
  - # 6
    frequency:     3.0066640096
  - # 7
    frequency:     3.0066640096
  - # 8
    frequency:     3.5468104453
  - # 9
    frequency:     3.5468104453
  - # 10
    frequency:     4.0136734998
  - # 11
    frequency:     4.1686477000
  - # 12
    frequency:     4.1686477000

- q-position: [    0.3854167,    0.0104167,    0.0104167 ]
  weight: 24   
  band:
  - # 1
    frequency:     1.7764789136
  - # 2
    frequency:     1.7770215265
  - # 3
    frequency:     2.5751997788
  - # 4
    frequency:     2.5761521140
  - # 5
    frequency:     2.8186018214
  - # 6
    frequency:     2.9990854134
  - # 7
    frequency:     2.9990854134
  - # 8
    frequency:     3.5904724849
  - # 9
    frequency:     3.5904724849
  - # 10
    frequency:     3.9384104244
  - # 11
    frequency:     4.1214628330
  - # 12
    frequency:     4.1214628330

- q-position: [    0.4062500,    0.0104167,    0.0104167 ]
  weight: 24   
  band:
  - # 1
    frequency:     1.8601535790
  - # 2
    frequency:     1.8605302292
  - # 3
    frequency:     2.5148212576
  - # 4
    frequency:     2.5156611246
  - # 5
    frequency:     2.9417337748
  - # 6
    frequency:     2.9925455212
  - # 7
    frequency:     2.9925455212
  - # 8
    frequency:     3.6355764988
  - # 9
    frequency:     3.6355764988
  - # 10
    frequency:     3.8586664789
  - # 11
    frequency:     4.0733346125
  - # 12
    frequency:     4.0733346125

- q-position: [    0.4270833,    0.0104167,    0.0104167 ]
  weight: 24   
  band:
  - # 1
    frequency:     1.9418901183
  - # 2
    frequency:     1.9421090123
  - # 3
    frequency:     2.4517721589
  - # 4
    frequency:     2.4524955082
  - # 5
    frequency:     2.9871633606
  - # 6
    frequency:     2.9871633606
  - # 7
    frequency:     3.0608191112
  - # 8
    frequency:     3.6819392966
  - # 9
    frequency:     3.6819392966
  - # 10
    frequency:     3.7744360462
  - # 11
    frequency:     4.0244939025
  - # 12
    frequency:     4.0244939025

- q-position: [    0.4479167,    0.0104167,    0.0104167 ]
  weight: 24   
  band:
  - # 1
    frequency:     2.0215993642
  - # 2
    frequency:     2.0216676092
  - # 3
    frequency:     2.3861256994
  - # 4
    frequency:     2.3867284498
  - # 5
    frequency:     2.9830374852
  - # 6
    frequency:     2.9830374852
  - # 7
    frequency:     3.1757585215
  - # 8
    frequency:     3.6857225347
  - # 9
    frequency:     3.7293666838
  - # 10
    frequency:     3.7293666838
  - # 11
    frequency:     3.9751736497
  - # 12
    frequency:     3.9751736497

- q-position: [    0.4687500,    0.0104167,    0.0104167 ]
  weight: 24   
  band:
  - # 1
    frequency:     2.0991174866
  - # 2
    frequency:     2.0991936500
  - # 3
    frequency:     2.3179576551
  - # 4
    frequency:     2.3184356218
  - # 5
    frequency:     2.9802438130
  - # 6
    frequency:     2.9802438130
  - # 7
    frequency:     3.2864662800
  - # 8
    frequency:     3.5925392083
  - # 9
    frequency:     3.7776528152
  - # 10
    frequency:     3.7776528152
  - # 11
    frequency:     3.9256091138
  - # 12
    frequency:     3.9256091138

- q-position: [    0.4895833,    0.0104167,    0.0104167 ]
  weight: 24   
  band:
  - # 1
    frequency:     2.1743719459
  - # 2
    frequency:     2.1745869547
  - # 3
    frequency:     2.2473462332
  - # 4
    frequency:     2.2476950461
  - # 5
    frequency:     2.9788339314
  - # 6
    frequency:     2.9788339314
  - # 7
    frequency:     3.3928699381
  - # 8
    frequency:     3.4949099477
  - # 9
    frequency:     3.8265594918
  - # 10
    frequency:     3.8265594918
  - # 11
    frequency:     3.8760582673
  - # 12
    frequency:     3.8760582673

- q-position: [    0.0312500,    0.0312500,    0.0104167 ]
  weight: 24   
  band:
  - # 1
    frequency:     0.1706646706
  - # 2
    frequency:     0.2142376652
  - # 3
    frequency:     0.3933736856
  - # 4
    frequency:     3.1335124548
  - # 5
    frequency:     3.1349973626
  - # 6
    frequency:     3.1349973626
  - # 7
    frequency:     3.1424927407
  - # 8
    frequency:     3.1424927407
  - # 9
    frequency:     3.1522676149
  - # 10
    frequency:     4.6294947517
  - # 11
    frequency:     4.6294947517
  - # 12
    frequency:     4.6299338504

- q-position: [    0.0520833,    0.0312500,    0.0104167 ]
  weight: 48   
  band:
  - # 1
    frequency:     0.2440381144
  - # 2
    frequency:     0.2952449697
  - # 3
    frequency:     0.5250659803
  - # 4
    frequency:     3.1281484176
  - # 5
    frequency:     3.1282123429
  - # 6
    frequency:     3.1320995974
  - # 7
    frequency:     3.1356257635
  - # 8
    frequency:     3.1482873154
  - # 9
    frequency:     3.1604400935
  - # 10
    frequency:     4.6216659881
  - # 11
    frequency:     4.6226312982
  - # 12
    frequency:     4.6230068147

- q-position: [    0.0729167,    0.0312500,    0.0104167 ]
  weight: 48   
  band:
  - # 1
    frequency:     0.3385064123
  - # 2
    frequency:     0.3859494277
  - # 3
    frequency:     0.6682405680
  - # 4
    frequency:     3.1178853768
  - # 5
    frequency:     3.1224916920
  - # 6
    frequency:     3.1253365739
  - # 7
    frequency:     3.1280416105
  - # 8
    frequency:     3.1567316806
  - # 9
    frequency:     3.1705113904
  - # 10
    frequency:     4.6099071917
  - # 11
    frequency:     4.6123789652
  - # 12
    frequency:     4.6126592172

- q-position: [    0.0937500,    0.0312500,    0.0104167 ]
  weight: 48   
  band:
  - # 1
    frequency:     0.4387105188
  - # 2
    frequency:     0.4805917605
  - # 3
    frequency:     0.8171823120
  - # 4
    frequency:     3.1042206622
  - # 5
    frequency:     3.1116386643
  - # 6
    frequency:     3.1161635637
  - # 7
    frequency:     3.1228023083
  - # 8
    frequency:     3.1678950407
  - # 9
    frequency:     3.1827176482
  - # 10
    frequency:     4.5941999487
  - # 11
    frequency:     4.5987889224
  - # 12
    frequency:     4.5989423597

- q-position: [    0.1145833,    0.0312500,    0.0104167 ]
  weight: 48   
  band:
  - # 1
    frequency:     0.5401988231
  - # 2
    frequency:     0.5769442808
  - # 3
    frequency:     0.9690628340
  - # 4
    frequency:     3.0871707878
  - # 5
    frequency:     3.0945499610
  - # 6
    frequency:     3.1091204756
  - # 7
    frequency:     3.1164372856
  - # 8
    frequency:     3.1817838311
  - # 9
    frequency:     3.1972297972
  - # 10
    frequency:     4.5745203135
  - # 11
    frequency:     4.5819242371
  - # 12
    frequency:     4.5819289849

- q-position: [    0.1354167,    0.0312500,    0.0104167 ]
  weight: 48   
  band:
  - # 1
    frequency:     0.6415626406
  - # 2
    frequency:     0.6739664526
  - # 3
    frequency:     1.1222012997
  - # 4
    frequency:     3.0667563180
  - # 5
    frequency:     3.0740927695
  - # 6
    frequency:     3.1013343723
  - # 7
    frequency:     3.1090371941
  - # 8
    frequency:     3.1983815876
  - # 9
    frequency:     3.2141517874
  - # 10
    frequency:     4.5508393156
  - # 11
    frequency:     4.5616891875
  - # 12
    frequency:     4.5618832611

- q-position: [    0.1562500,    0.0312500,    0.0104167 ]
  weight: 48   
  band:
  - # 1
    frequency:     0.7422834140
  - # 2
    frequency:     0.7710859525
  - # 3
    frequency:     1.2754925113
  - # 4
    frequency:     3.0430018184
  - # 5
    frequency:     3.0502937075
  - # 6
    frequency:     3.0928384485
  - # 7
    frequency:     3.1007155267
  - # 8
    frequency:     3.2176590232
  - # 9
    frequency:     3.2335365839
  - # 10
    frequency:     4.5231235790
  - # 11
    frequency:     4.5383374573
  - # 12
    frequency:     4.5387517137

- q-position: [    0.1770833,    0.0312500,    0.0104167 ]
  weight: 48   
  band:
  - # 1
    frequency:     0.8421302295
  - # 2
    frequency:     0.8679415383
  - # 3
    frequency:     1.4281535400
  - # 4
    frequency:     3.0159357977
  - # 5
    frequency:     3.0231836256
  - # 6
    frequency:     3.0837106971
  - # 7
    frequency:     3.0916036545
  - # 8
    frequency:     3.2395765148
  - # 9
    frequency:     3.2554000905
  - # 10
    frequency:     4.4913360430
  - # 11
    frequency:     4.5119846798
  - # 12
    frequency:     4.5126496344

- q-position: [    0.1979167,    0.0312500,    0.0104167 ]
  weight: 48   
  band:
  - # 1
    frequency:     0.9409711159
  - # 2
    frequency:     0.9642777144
  - # 3
    frequency:     1.5795945704
  - # 4
    frequency:     2.9855906429
  - # 5
    frequency:     2.9927975158
  - # 6
    frequency:     3.0740616305
  - # 7
    frequency:     3.0818477735
  - # 8
    frequency:     3.2640843843
  - # 9
    frequency:     3.2797306011
  - # 10
    frequency:     4.4554367754
  - # 11
    frequency:     4.4827612701
  - # 12
    frequency:     4.4837070328

- q-position: [    0.2187500,    0.0312500,    0.0104167 ]
  weight: 48   
  band:
  - # 1
    frequency:     1.0387085361
  - # 2
    frequency:     1.0598966076
  - # 3
    frequency:     1.7293481365
  - # 4
    frequency:     2.9520025493
  - # 5
    frequency:     2.9591744082
  - # 6
    frequency:     3.0640253889
  - # 7
    frequency:     3.0716063179
  - # 8
    frequency:     3.2911224718
  - # 9
    frequency:     3.3064946112
  - # 10
    frequency:     4.4153838653
  - # 11
    frequency:     4.4508117352
  - # 12
    frequency:     4.4520679413

- q-position: [    0.2395833,    0.0312500,    0.0104167 ]
  weight: 48   
  band:
  - # 1
    frequency:     1.1352561166
  - # 2
    frequency:     1.1546339905
  - # 3
    frequency:     1.8770285197
  - # 4
    frequency:     2.9152114448
  - # 5
    frequency:     2.9223572569
  - # 6
    frequency:     3.0537530857
  - # 7
    frequency:     3.0610473911
  - # 8
    frequency:     3.3206194933
  - # 9
    frequency:     3.3356401948
  - # 10
    frequency:     4.3711343827
  - # 11
    frequency:     4.4162939029
  - # 12
    frequency:     4.4178896360

- q-position: [    0.2604167,    0.0312500,    0.0104167 ]
  weight: 48   
  band:
  - # 1
    frequency:     1.2305301307
  - # 2
    frequency:     1.2483464781
  - # 3
    frequency:     2.0223076181
  - # 4
    frequency:     2.8752609121
  - # 5
    frequency:     2.8823928153
  - # 6
    frequency:     3.0434075030
  - # 7
    frequency:     3.0503460729
  - # 8
    frequency:     3.3524923857
  - # 9
    frequency:     3.3670988897
  - # 10
    frequency:     4.3226453928
  - # 11
    frequency:     4.3793780711
  - # 12
    frequency:     4.3813417781

- q-position: [    0.2812500,    0.0312500,    0.0104167 ]
  weight: 48   
  band:
  - # 1
    frequency:     1.3244465299
  - # 2
    frequency:     1.3409042988
  - # 3
    frequency:     2.1649001773
  - # 4
    frequency:     2.8321981063
  - # 5
    frequency:     2.8393315015
  - # 6
    frequency:     3.0331585576
  - # 7
    frequency:     3.0396815619
  - # 8
    frequency:     3.3866457332
  - # 9
    frequency:     3.4007867283
  - # 10
    frequency:     4.2698750101
  - # 11
    frequency:     4.3402460794
  - # 12
    frequency:     4.3426054763

- q-position: [    0.3020833,    0.0312500,    0.0104167 ]
  weight: 48   
  band:
  - # 1
    frequency:     1.4169201134
  - # 2
    frequency:     1.4321870250
  - # 3
    frequency:     2.3045545175
  - # 4
    frequency:     2.7860736707
  - # 5
    frequency:     2.7932272562
  - # 6
    frequency:     3.0231791974
  - # 7
    frequency:     3.0292341568
  - # 8
    frequency:     3.4229713303
  - # 9
    frequency:     3.4366048154
  - # 10
    frequency:     4.2127834809
  - # 11
    frequency:     4.2990903087
  - # 12
    frequency:     4.3018722752

- q-position: [    0.3229167,    0.0312500,    0.0104167 ]
  weight: 48   
  band:
  - # 1
    frequency:     1.5078645151
  - # 2
    frequency:     1.5220809601
  - # 3
    frequency:     2.4410465749
  - # 4
    frequency:     2.7369416484
  - # 5
    frequency:     2.7441373955
  - # 6
    frequency:     3.0136415398
  - # 7
    frequency:     3.0191821092
  - # 8
    frequency:     3.4613479102
  - # 9
    frequency:     3.4744397051
  - # 10
    frequency:     4.1513342786
  - # 11
    frequency:     4.2561126147
  - # 12
    frequency:     4.2593430766

- q-position: [    0.3437500,    0.0312500,    0.0104167 ]
  weight: 48   
  band:
  - # 1
    frequency:     1.5971924819
  - # 2
    frequency:     1.6104774945
  - # 3
    frequency:     2.5741759842
  - # 4
    frequency:     2.6848593880
  - # 5
    frequency:     2.6921224600
  - # 6
    frequency:     3.0047131664
  - # 7
    frequency:     3.0096983927
  - # 8
    frequency:     3.5016410525
  - # 9
    frequency:     3.5141637218
  - # 10
    frequency:     4.0854952024
  - # 11
    frequency:     4.2115232066
  - # 12
    frequency:     4.2152270033

- q-position: [    0.3645833,    0.0312500,    0.0104167 ]
  weight: 48   
  band:
  - # 1
    frequency:     1.6848162346
  - # 2
    frequency:     1.6972720520
  - # 3
    frequency:     2.6298874432
  - # 4
    frequency:     2.6372460670
  - # 5
    frequency:     2.7037634406
  - # 6
    frequency:     2.9965535528
  - # 7
    frequency:     3.0009474516
  - # 8
    frequency:     3.5437032616
  - # 9
    frequency:     3.5556353023
  - # 10
    frequency:     4.0152394638
  - # 11
    frequency:     4.1655394944
  - # 12
    frequency:     4.1697402260

- q-position: [    0.3854167,    0.0312500,    0.0104167 ]
  weight: 48   
  band:
  - # 1
    frequency:     1.7706478309
  - # 2
    frequency:     1.7823634053
  - # 3
    frequency:     2.5720894606
  - # 4
    frequency:     2.5795747661
  - # 5
    frequency:     2.8296488693
  - # 6
    frequency:     2.9893106553
  - # 7
    frequency:     2.9930819979
  - # 8
    frequency:     3.5873741810
  - # 9
    frequency:     3.5986993685
  - # 10
    frequency:     3.9405467543
  - # 11
    frequency:     4.1183849528
  - # 12
    frequency:     4.1231047964

- q-position: [    0.4062500,    0.0312500,    0.0104167 ]
  weight: 48   
  band:
  - # 1
    frequency:     1.8545995041
  - # 2
    frequency:     1.8656532321
  - # 3
    frequency:     2.5115320558
  - # 4
    frequency:     2.5191779057
  - # 5
    frequency:     2.9516901060
  - # 6
    frequency:     2.9831177012
  - # 7
    frequency:     2.9862399411
  - # 8
    frequency:     3.6324808303
  - # 9
    frequency:     3.6431876319
  - # 10
    frequency:     3.8614042801
  - # 11
    frequency:     4.0702881336
  - # 12
    frequency:     4.0755475975

- q-position: [    0.4270833,    0.0312500,    0.0104167 ]
  weight: 48   
  band:
  - # 1
    frequency:     1.9365839718
  - # 2
    frequency:     1.9470458289
  - # 3
    frequency:     2.4482846748
  - # 4
    frequency:     2.4561275111
  - # 5
    frequency:     2.9780902500
  - # 6
    frequency:     2.9805415328
  - # 7
    frequency:     3.0697618941
  - # 8
    frequency:     3.6788375177
  - # 9
    frequency:     3.6889184277
  - # 10
    frequency:     3.7778077598
  - # 11
    frequency:     4.0214822474
  - # 12
    frequency:     4.0272997548

- q-position: [    0.4479167,    0.0312500,    0.0104167 ]
  weight: 48   
  band:
  - # 1
    frequency:     2.0165147166
  - # 2
    frequency:     2.0264479329
  - # 3
    frequency:     2.3824194396
  - # 4
    frequency:     2.3904981773
  - # 5
    frequency:     2.9743235965
  - # 6
    frequency:     2.9760868157
  - # 7
    frequency:     3.1837550753
  - # 8
    frequency:     3.6897623746
  - # 9
    frequency:     3.7262440350
  - # 10
    frequency:     3.7356942934
  - # 11
    frequency:     3.9722071052
  - # 12
    frequency:     3.9785978946

- q-position: [    0.4687500,    0.0312500,    0.0104167 ]
  weight: 48   
  band:
  - # 1
    frequency:     2.0943062457
  - # 2
    frequency:     2.1037686158
  - # 3
    frequency:     2.3140109795
  - # 4
    frequency:     2.3223669780
  - # 5
    frequency:     2.9718905909
  - # 6
    frequency:     2.9729534588
  - # 7
    frequency:     3.2935758854
  - # 8
    frequency:     3.5972836680
  - # 9
    frequency:     3.7744737970
  - # 10
    frequency:     3.7832855131
  - # 11
    frequency:     3.9227251998
  - # 12
    frequency:     3.9296955787

- q-position: [    0.4895833,    0.0312500,    0.0104167 ]
  weight: 48   
  band:
  - # 1
    frequency:     2.1698743330
  - # 2
    frequency:     2.1789192299
  - # 3
    frequency:     2.2431362488
  - # 4
    frequency:     2.2518133894
  - # 5
    frequency:     2.9708399411
  - # 6
    frequency:     2.9711950547
  - # 7
    frequency:     3.3991453006
  - # 8
    frequency:     3.5003983925
  - # 9
    frequency:     3.8231309627
  - # 10
    frequency:     3.8311698673
  - # 11
    frequency:     3.8735816843
  - # 12
    frequency:     3.8810058688

- q-position: [    0.0520833,    0.0520833,    0.0104167 ]
  weight: 24   
  band:
  - # 1
    frequency:     0.2758027771
  - # 2
    frequency:     0.3583350808
  - # 3
    frequency:     0.6400632666
  - # 4
    frequency:     3.1198425489
  - # 5
    frequency:     3.1252061641
  - # 6
    frequency:     3.1252061641
  - # 7
    frequency:     3.1414272879
  - # 8
    frequency:     3.1414272879
  - # 9
    frequency:     3.1715959214
  - # 10
    frequency:     4.6149423679
  - # 11
    frequency:     4.6149423679
  - # 12
    frequency:     4.6160926324

- q-position: [    0.0729167,    0.0520833,    0.0104167 ]
  weight: 48   
  band:
  - # 1
    frequency:     0.3439146212
  - # 2
    frequency:     0.4360652135
  - # 3
    frequency:     0.7694278946
  - # 4
    frequency:     3.1112613062
  - # 5
    frequency:     3.1148763466
  - # 6
    frequency:     3.1210710830
  - # 7
    frequency:     3.1311492350
  - # 8
    frequency:     3.1498915447
  - # 9
    frequency:     3.1843992084
  - # 10
    frequency:     4.6033926774
  - # 11
    frequency:     4.6048993346
  - # 12
    frequency:     4.6057641235

- q-position: [    0.0937500,    0.0520833,    0.0104167 ]
  weight: 48   
  band:
  - # 1
    frequency:     0.4309127958
  - # 2
    frequency:     0.5216482864
  - # 3
    frequency:     0.9066173215
  - # 4
    frequency:     3.1011225363
  - # 5
    frequency:     3.1024757640
  - # 6
    frequency:     3.1157244787
  - # 7
    frequency:     3.1174674618
  - # 8
    frequency:     3.1610842986
  - # 9
    frequency:     3.1988930709
  - # 10
    frequency:     4.5879630658
  - # 11
    frequency:     4.5915875157
  - # 12
    frequency:     4.5920723625

- q-position: [    0.1145833,    0.0520833,    0.0104167 ]
  weight: 48   
  band:
  - # 1
    frequency:     0.5261680875
  - # 2
    frequency:     0.6115190268
  - # 3
    frequency:     1.0484359546
  - # 4
    frequency:     3.0839612425
  - # 5
    frequency:     3.0934162348
  - # 6
    frequency:     3.1004009098
  - # 7
    frequency:     3.1092225371
  - # 8
    frequency:     3.1750100580
  - # 9
    frequency:     3.2152120326
  - # 10
    frequency:     4.5686286324
  - # 11
    frequency:     4.5750739988
  - # 12
    frequency:     4.5750850448

- q-position: [    0.1354167,    0.0520833,    0.0104167 ]
  weight: 48   
  band:
  - # 1
    frequency:     0.6247828387