phonopy:
  version: 1.11.2
  configuration:
    dim: "2 2 2"
    atom_name: "Ag"
    mp: "48 48 48"
    tprop: ".true."
    tmax: "2000"

supercell_matrix:
- [   2,   0,   0 ]
- [   0,   2,   0 ]
- [   0,   0,   2 ]

primitive_cell:
  lattice:
  - [     4.163224781616441,     0.000000000000000,     0.000000000000000 ] # a
  - [     0.000000000000000,     4.163224781616441,     0.000000000000000 ] # b
  - [     0.000000000000000,     0.000000000000000,     4.163224781616441 ] # c
  points:
  - symbol: Ag # 1
    coordinates: [  0.000000000000000,  0.000000000000000,  0.000000000000000 ]
    mass: 107.868200
  - symbol: Ag # 2
    coordinates: [  0.500000000000000,  0.500000000000000,  0.000000000000000 ]
    mass: 107.868200
  - symbol: Ag # 3
    coordinates: [  0.500000000000000,  0.000000000000000,  0.500000000000000 ]
    mass: 107.868200
  - symbol: Ag # 4
    coordinates: [  0.000000000000000,  0.500000000000000,  0.500000000000000 ]
    mass: 107.868200
  reciprocal_lattice: # without 2pi
  - [     0.240198416481306,     0.000000000000000,     0.000000000000000 ] # a*
  - [     0.000000000000000,     0.240198416481306,     0.000000000000000 ] # b*
  - [     0.000000000000000,     0.000000000000000,     0.240198416481306 ] # c*

unit_cell:
  lattice:
  - [     4.163224781616441,     0.000000000000000,     0.000000000000000 ] # a
  - [    -0.000000000000000,     4.163224781616441,     0.000000000000000 ] # b
  - [     0.000000000000000,    -0.000000000000000,     4.163224781616441 ] # c
  points:
  - symbol: Ag # 1
    coordinates: [ -0.000000000000000,  0.000000000000000,  0.000000000000000 ]
    mass: 107.868200
    reduced_to: 1
  - symbol: Ag # 2
    coordinates: [  0.500000000000000,  0.500000000000000,  0.000000000000000 ]
    mass: 107.868200
    reduced_to: 2
  - symbol: Ag # 3
    coordinates: [  0.500000000000000,  0.000000000000000,  0.500000000000000 ]
    mass: 107.868200
    reduced_to: 3
  - symbol: Ag # 4
    coordinates: [ -0.000000000000000,  0.500000000000000,  0.500000000000000 ]
    mass: 107.868200
    reduced_to: 4

supercell:
  lattice:
  - [     8.326449563232883,     0.000000000000000,     0.000000000000000 ] # a
  - [     0.000000000000000,     8.326449563232883,     0.000000000000000 ] # b
  - [     0.000000000000000,     0.000000000000000,     8.326449563232883 ] # c
  points:
  - symbol: Ag # 1
    coordinates: [  0.000000000000000,  0.000000000000000,  0.000000000000000 ]
    mass: 107.868200
    reduced_to: 1
  - symbol: Ag # 2
    coordinates: [  0.500000000000000,  0.000000000000000,  0.000000000000000 ]
    mass: 107.868200
    reduced_to: 1
  - symbol: Ag # 3
    coordinates: [  0.000000000000000,  0.500000000000000,  0.000000000000000 ]
    mass: 107.868200
    reduced_to: 1
  - symbol: Ag # 4
    coordinates: [  0.500000000000000,  0.500000000000000,  0.000000000000000 ]
    mass: 107.868200
    reduced_to: 1
  - symbol: Ag # 5
    coordinates: [  0.000000000000000,  0.000000000000000,  0.500000000000000 ]
    mass: 107.868200
    reduced_to: 1
  - symbol: Ag # 6
    coordinates: [  0.500000000000000,  0.000000000000000,  0.500000000000000 ]
    mass: 107.868200
    reduced_to: 1
  - symbol: Ag # 7
    coordinates: [  0.000000000000000,  0.500000000000000,  0.500000000000000 ]
    mass: 107.868200
    reduced_to: 1
  - symbol: Ag # 8
    coordinates: [  0.500000000000000,  0.500000000000000,  0.500000000000000 ]
    mass: 107.868200
    reduced_to: 1
  - symbol: Ag # 9
    coordinates: [  0.250000000000000,  0.250000000000000,  0.000000000000000 ]
    mass: 107.868200
    reduced_to: 9
  - symbol: Ag # 10
    coordinates: [  0.750000000000000,  0.250000000000000,  0.000000000000000 ]
    mass: 107.868200
    reduced_to: 9
  - symbol: Ag # 11
    coordinates: [  0.250000000000000,  0.750000000000000,  0.000000000000000 ]
    mass: 107.868200
    reduced_to: 9
  - symbol: Ag # 12
    coordinates: [  0.750000000000000,  0.750000000000000,  0.000000000000000 ]
    mass: 107.868200
    reduced_to: 9
  - symbol: Ag # 13
    coordinates: [  0.250000000000000,  0.250000000000000,  0.500000000000000 ]
    mass: 107.868200
    reduced_to: 9
  - symbol: Ag # 14
    coordinates: [  0.750000000000000,  0.250000000000000,  0.500000000000000 ]
    mass: 107.868200
    reduced_to: 9
  - symbol: Ag # 15
    coordinates: [  0.250000000000000,  0.750000000000000,  0.500000000000000 ]
    mass: 107.868200
    reduced_to: 9
  - symbol: Ag # 16
    coordinates: [  0.750000000000000,  0.750000000000000,  0.500000000000000 ]
    mass: 107.868200
    reduced_to: 9
  - symbol: Ag # 17
    coordinates: [  0.250000000000000,  0.000000000000000,  0.250000000000000 ]
    mass: 107.868200
    reduced_to: 17
  - symbol: Ag # 18
    coordinates: [  0.750000000000000,  0.000000000000000,  0.250000000000000 ]
    mass: 107.868200
    reduced_to: 17
  - symbol: Ag # 19
    coordinates: [  0.250000000000000,  0.500000000000000,  0.250000000000000 ]
    mass: 107.868200
    reduced_to: 17
  - symbol: Ag # 20
    coordinates: [  0.750000000000000,  0.500000000000000,  0.250000000000000 ]
    mass: 107.868200
    reduced_to: 17
  - symbol: Ag # 21
    coordinates: [  0.250000000000000,  0.000000000000000,  0.750000000000000 ]
    mass: 107.868200
    reduced_to: 17
  - symbol: Ag # 22
    coordinates: [  0.750000000000000,  0.000000000000000,  0.750000000000000 ]
    mass: 107.868200
    reduced_to: 17
  - symbol: Ag # 23
    coordinates: [  0.250000000000000,  0.500000000000000,  0.750000000000000 ]
    mass: 107.868200
    reduced_to: 17
  - symbol: Ag # 24
    coordinates: [  0.750000000000000,  0.500000000000000,  0.750000000000000 ]
    mass: 107.868200
    reduced_to: 17
  - symbol: Ag # 25
    coordinates: [  0.000000000000000,  0.250000000000000,  0.250000000000000 ]
    mass: 107.868200
    reduced_to: 25
  - symbol: Ag # 26
    coordinates: [  0.500000000000000,  0.250000000000000,  0.250000000000000 ]
    mass: 107.868200
    reduced_to: 25
  - symbol: Ag # 27
    coordinates: [  0.000000000000000,  0.750000000000000,  0.250000000000000 ]
    mass: 107.868200
    reduced_to: 25
  - symbol: Ag # 28
    coordinates: [  0.500000000000000,  0.750000000000000,  0.250000000000000 ]
    mass: 107.868200
    reduced_to: 25
  - symbol: Ag # 29
    coordinates: [  0.000000000000000,  0.250000000000000,  0.750000000000000 ]
    mass: 107.868200
    reduced_to: 25
  - symbol: Ag # 30
    coordinates: [  0.500000000000000,  0.250000000000000,  0.750000000000000 ]
    mass: 107.868200
    reduced_to: 25
  - symbol: Ag # 31
    coordinates: [  0.000000000000000,  0.750000000000000,  0.750000000000000 ]
    mass: 107.868200
    reduced_to: 25
  - symbol: Ag # 32
    coordinates: [  0.500000000000000,  0.750000000000000,  0.750000000000000 ]
    mass: 107.868200
    reduced_to: 25
