 running on    4 nodes
 distr:  one band on    1 nodes,    4 groups
 vasp.4.6.28 25Jul05 complex 
 POSCAR found :  1 types and   32 ions

 ----------------------------------------------------------------------------- 
|                                                                             |
|  ADVICE TO THIS USER RUNNING 'VASP/VAMP'   (HEAR YOUR MASTER'S VOICE ...):  |
|                                                                             |
|      You have a (more or less) 'large supercell' and for larger cells       |
|      it might be more efficient to use real space projection operators      |
|      So try LREAL= Auto  in the INCAR   file.                               |
|      Mind: If you want to do an extremely accurate calculations keep the    |
|      reciprocal projection scheme          (i.e. LREAL=.FALSE.)             |
|                                                                             |
 ----------------------------------------------------------------------------- 

 LDA part: xc-table for Pade appr. of Perdew
 POSCAR, INCAR and KPOINTS ok, starting setup
 FFT: planning ...           1
 reading WAVECAR
 WARNING: random wavefunctions but no delay for mixing, default for NELMDL
 entering main loop
       N       E                     dE             d eps       ncg     rms          rms(c)
DAV:   1     0.173864265004E+03    0.17386E+03   -0.41749E+04 26656   0.152E+03
DAV:   2    -0.102473490254E+03   -0.27634E+03   -0.25869E+03 31120   0.164E+02
DAV:   3    -0.119722954908E+03   -0.17249E+02   -0.16266E+02 33352   0.312E+01
DAV:   4    -0.120144393388E+03   -0.42144E+00   -0.41565E+00 31568   0.489E+00
DAV:   5    -0.120149746189E+03   -0.53528E-02   -0.53433E-02 31812   0.669E-01    0.516E+00
DAV:   6    -0.119746136390E+03    0.40361E+00   -0.59708E-02 30844   0.808E-01    0.320E+00
DAV:   7    -0.119452720047E+03    0.29342E+00   -0.17430E-01 29656   0.130E+00    0.135E-01
DAV:   8    -0.119452734844E+03   -0.14796E-04   -0.13701E-03 31808   0.141E-01    0.444E-02
DAV:   9    -0.119452756794E+03   -0.21950E-04   -0.51087E-05 31436   0.216E-02    0.363E-03
DAV:  10    -0.119452756738E+03    0.55898E-07   -0.25726E-06 31928   0.512E-03    0.192E-03
DAV:  11    -0.119452753441E+03    0.32967E-05   -0.19428E-07 31364   0.132E-03    0.709E-04
DAV:  12    -0.119452752317E+03    0.11244E-05   -0.24112E-08 21664   0.485E-04    0.106E-04
DAV:  13    -0.119452752191E+03    0.12613E-06   -0.31273E-09 17628   0.201E-04    0.339E-05
DAV:  14    -0.119452752192E+03   -0.10286E-08   -0.50823E-10 17132   0.791E-05
   1 F= -.11945275E+03 E0= -.11945236E+03  d E =-.786259E-03
