  32  32   0   0
  0.1745885E+02  0.8236105E-09  0.8236105E-09  0.8236105E-09  0.5000000E-15
  1.000000000000000E-004
  CAR 
 unknown system                          
     11.64531258     -4.03974967  301      7.43219273      1.00000000
     -4.040  0.0000E+00  0.0000E+00
     -3.987  0.0000E+00  0.0000E+00
     -3.935  0.0000E+00  0.0000E+00
     -3.883  0.0000E+00  0.0000E+00
     -3.831  0.0000E+00  0.0000E+00
     -3.778  0.0000E+00  0.0000E+00
     -3.726  0.0000E+00  0.0000E+00
     -3.674  0.0000E+00  0.0000E+00
     -3.621  0.0000E+00  0.0000E+00
     -3.569  0.0000E+00  0.0000E+00
     -3.517  0.0000E+00  0.0000E+00
     -3.465  0.0000E+00  0.0000E+00
     -3.412  0.0000E+00  0.0000E+00
     -3.360  0.2806E-07  0.1467E-08
     -3.308  0.1307E+00  0.6835E-02
     -3.255  0.7326E+00  0.4514E-01
     -3.203  0.1121E+01  0.1037E+00
     -3.151  0.1786E+01  0.1971E+00
     -3.099  0.1777E+01  0.2900E+00
     -3.046  0.1975E+01  0.3933E+00
     -2.994  0.2386E+01  0.5180E+00
     -2.942  0.1553E+01  0.5992E+00
     -2.890  0.2901E+01  0.7509E+00
     -2.837  0.2291E+01  0.8707E+00
     -2.785  0.3347E+01  0.1046E+01
     -2.733  0.2630E+01  0.1183E+01
     -2.680  0.3785E+01  0.1381E+01
     -2.628  0.3262E+01  0.1552E+01
     -2.576  0.2091E+01  0.1661E+01
     -2.524  0.4141E+01  0.1877E+01
     -2.471  0.3845E+01  0.2079E+01
     -2.419  0.3103E+01  0.2241E+01
     -2.367  0.3719E+01  0.2435E+01
     -2.314  0.4621E+01  0.2677E+01
     -2.262  0.4361E+01  0.2905E+01
     -2.210  0.3264E+01  0.3076E+01
     -2.158  0.5062E+01  0.3340E+01
     -2.105  0.2810E+01  0.3487E+01
     -2.053  0.4895E+01  0.3743E+01
     -2.001  0.4069E+01  0.3956E+01
     -1.948  0.6951E+01  0.4319E+01
     -1.896  0.3357E+01  0.4495E+01
     -1.844  0.3591E+01  0.4683E+01
     -1.792  0.6645E+01  0.5030E+01
     -1.739  0.4114E+01  0.5245E+01
     -1.687  0.4856E+01  0.5499E+01
     -1.635  0.4423E+01  0.5730E+01
     -1.582  0.5622E+01  0.6024E+01
     -1.530  0.5459E+01  0.6310E+01
     -1.478  0.5542E+01  0.6599E+01
     -1.426  0.6270E+01  0.6927E+01
     -1.373  0.4576E+01  0.7166E+01
     -1.321  0.5581E+01  0.7458E+01
     -1.269  0.5461E+01  0.7744E+01
     -1.216  0.6131E+01  0.8064E+01
     -1.164  0.3635E+01  0.8254E+01
     -1.112  0.7688E+01  0.8656E+01
     -1.060  0.7134E+01  0.9029E+01
     -1.007  0.6479E+01  0.9368E+01
     -0.955  0.4811E+01  0.9619E+01
     -0.903  0.5187E+01  0.9891E+01
     -0.850  0.6757E+01  0.1024E+02
     -0.798  0.5135E+01  0.1051E+02
     -0.746  0.7819E+01  0.1092E+02
     -0.694  0.7438E+01  0.1131E+02
     -0.641  0.4440E+01  0.1154E+02
     -0.589  0.8465E+01  0.1198E+02
     -0.537  0.7082E+01  0.1236E+02
     -0.484  0.6607E+01  0.1270E+02
     -0.432  0.2668E+01  0.1284E+02
     -0.380  0.9224E+01  0.1332E+02
     -0.328  0.6128E+01  0.1364E+02
     -0.275  0.7677E+01  0.1404E+02
     -0.223  0.8682E+01  0.1450E+02
     -0.171  0.7898E+01  0.1491E+02
     -0.118  0.6237E+01  0.1524E+02
     -0.066  0.5153E+01  0.1551E+02
     -0.014  0.6990E+01  0.1587E+02
      0.038  0.6690E+01  0.1622E+02
      0.091  0.8315E+01  0.1666E+02
      0.143  0.8523E+01  0.1710E+02
      0.195  0.9077E+01  0.1758E+02
      0.248  0.7102E+01  0.1795E+02
      0.300  0.5385E+01  0.1823E+02
      0.352  0.9166E+01  0.1871E+02
      0.404  0.7098E+01  0.1908E+02
      0.457  0.8032E+01  0.1950E+02
      0.509  0.5422E+01  0.1978E+02
      0.561  0.9020E+01  0.2025E+02
      0.613  0.7900E+01  0.2067E+02
      0.666  0.9660E+01  0.2117E+02
      0.718  0.1068E+02  0.2173E+02
      0.770  0.5601E+01  0.2202E+02
      0.823  0.8382E+01  0.2246E+02
      0.875  0.7618E+01  0.2286E+02
      0.927  0.6747E+01  0.2321E+02
      0.979  0.7007E+01  0.2358E+02
      1.032  0.1010E+02  0.2411E+02
      1.084  0.9511E+01  0.2461E+02
      1.136  0.1012E+02  0.2513E+02
      1.189  0.8402E+01  0.2557E+02
      1.241  0.8184E+01  0.2600E+02
      1.293  0.9457E+01  0.2650E+02
      1.345  0.4600E+01  0.2674E+02
      1.398  0.1143E+02  0.2733E+02
      1.450  0.5889E+01  0.2764E+02
      1.502  0.1013E+02  0.2817E+02
      1.555  0.1121E+02  0.2876E+02
      1.607  0.1006E+02  0.2928E+02
      1.659  0.8040E+01  0.2970E+02
      1.711  0.5897E+01  0.3001E+02
      1.764  0.1399E+02  0.3074E+02
      1.816  0.8242E+01  0.3118E+02
      1.868  0.7544E+01  0.3157E+02
      1.921  0.8373E+01  0.3201E+02
      1.973  0.1174E+02  0.3262E+02
      2.025  0.5873E+01  0.3293E+02
      2.077  0.1134E+02  0.3352E+02
      2.130  0.9963E+01  0.3404E+02
      2.182  0.9582E+01  0.3454E+02
      2.234  0.1186E+02  0.3516E+02
      2.287  0.1043E+02  0.3571E+02
      2.339  0.8641E+01  0.3616E+02
      2.391  0.5561E+01  0.3645E+02
      2.443  0.1064E+02  0.3701E+02
      2.496  0.1102E+02  0.3758E+02
      2.548  0.1083E+02  0.3815E+02
      2.600  0.9059E+01  0.3862E+02
      2.653  0.1017E+02  0.3916E+02
      2.705  0.1279E+02  0.3982E+02
      2.757  0.8500E+01  0.4027E+02
      2.809  0.1088E+02  0.4084E+02
      2.862  0.8820E+01  0.4130E+02
      2.914  0.1053E+02  0.4185E+02
      2.966  0.7770E+01  0.4225E+02
      3.019  0.1464E+02  0.4302E+02
      3.071  0.8521E+01  0.4347E+02
      3.123  0.1090E+02  0.4404E+02
      3.175  0.1013E+02  0.4457E+02
      3.228  0.1116E+02  0.4515E+02
      3.280  0.9711E+01  0.4566E+02
      3.332  0.1198E+02  0.4628E+02
      3.385  0.1093E+02  0.4685E+02
      3.437  0.8537E+01  0.4730E+02
      3.489  0.1310E+02  0.4799E+02
      3.541  0.1165E+02  0.4859E+02
      3.594  0.1032E+02  0.4913E+02
      3.646  0.1106E+02  0.4971E+02
      3.698  0.9975E+01  0.5023E+02
      3.750  0.9507E+01  0.5073E+02
      3.803  0.9660E+01  0.5124E+02
      3.855  0.1502E+02  0.5202E+02
      3.907  0.1045E+02  0.5257E+02
      3.960  0.1509E+02  0.5336E+02
      4.012  0.7760E+01  0.5376E+02
      4.064  0.1320E+02  0.5445E+02
      4.116  0.9868E+01  0.5497E+02
      4.169  0.1222E+02  0.5561E+02
      4.221  0.1023E+02  0.5614E+02
      4.273  0.1185E+02  0.5676E+02
      4.326  0.1064E+02  0.5732E+02
      4.378  0.1381E+02  0.5804E+02
      4.430  0.1559E+02  0.5886E+02
      4.482  0.9451E+01  0.5935E+02
      4.535  0.1285E+02  0.6002E+02
      4.587  0.1095E+02  0.6059E+02
      4.639  0.1091E+02  0.6117E+02
      4.692  0.1219E+02  0.6180E+02
      4.744  0.1640E+02  0.6266E+02
      4.796  0.1329E+02  0.6335E+02
      4.848  0.1214E+02  0.6399E+02
      4.901  0.1078E+02  0.6455E+02
      4.953  0.1222E+02  0.6519E+02
      5.005  0.1302E+02  0.6587E+02
      5.058  0.1559E+02  0.6669E+02
      5.110  0.1119E+02  0.6727E+02
      5.162  0.9328E+01  0.6776E+02
      5.214  0.1078E+02  0.6832E+02
      5.267  0.1456E+02  0.6909E+02
      5.319  0.1474E+02  0.6986E+02
      5.371  0.8822E+01  0.7032E+02
      5.424  0.1286E+02  0.7099E+02
      5.476  0.1142E+02  0.7159E+02
      5.528  0.1083E+02  0.7215E+02
      5.580  0.1510E+02  0.7294E+02
      5.633  0.1009E+02  0.7347E+02
      5.685  0.8151E+01  0.7390E+02
      5.737  0.1060E+02  0.7445E+02
      5.790  0.1313E+02  0.7514E+02
      5.842  0.1420E+02  0.7588E+02
      5.894  0.1273E+02  0.7655E+02
      5.946  0.1054E+02  0.7710E+02
      5.999  0.1218E+02  0.7773E+02
      6.051  0.1025E+02  0.7827E+02
      6.103  0.1177E+02  0.7888E+02
      6.156  0.9982E+01  0.7941E+02
      6.208  0.1554E+02  0.8022E+02
      6.260  0.1402E+02  0.8095E+02
      6.312  0.9435E+01  0.8145E+02
      6.365  0.1548E+02  0.8225E+02
      6.417  0.1543E+02  0.8306E+02
      6.469  0.1353E+02  0.8377E+02
      6.522  0.6895E+01  0.8413E+02
      6.574  0.1454E+02  0.8489E+02
      6.626  0.1049E+02  0.8544E+02
      6.678  0.1364E+02  0.8615E+02
      6.731  0.1418E+02  0.8689E+02
      6.783  0.1462E+02  0.8766E+02
      6.835  0.9954E+01  0.8818E+02
      6.888  0.1347E+02  0.8888E+02
      6.940  0.1625E+02  0.8973E+02
      6.992  0.1260E+02  0.9039E+02
      7.044  0.9661E+01  0.9089E+02
      7.097  0.1361E+02  0.9161E+02
      7.149  0.1305E+02  0.9229E+02
      7.201  0.1386E+02  0.9301E+02
      7.253  0.1085E+02  0.9358E+02
      7.306  0.1351E+02  0.9429E+02
      7.358  0.1751E+02  0.9520E+02
      7.410  0.9237E+01  0.9568E+02
      7.463  0.1556E+02  0.9650E+02
      7.515  0.1310E+02  0.9718E+02
      7.567  0.1363E+02  0.9790E+02
      7.619  0.1466E+02  0.9866E+02
      7.672  0.1286E+02  0.9933E+02
      7.724  0.1388E+02  0.1001E+03
      7.776  0.1325E+02  0.1008E+03
      7.829  0.1124E+02  0.1013E+03
      7.881  0.1743E+02  0.1023E+03
      7.933  0.1647E+02  0.1031E+03
      7.985  0.1416E+02  0.1039E+03
      8.038  0.1559E+02  0.1047E+03
      8.090  0.1135E+02  0.1053E+03
      8.142  0.1271E+02  0.1059E+03
      8.195  0.9589E+01  0.1064E+03
      8.247  0.1423E+02  0.1072E+03
      8.299  0.1419E+02  0.1079E+03
      8.351  0.1204E+02  0.1085E+03
      8.404  0.1621E+02  0.1094E+03
      8.456  0.1805E+02  0.1103E+03
      8.508  0.1876E+02  0.1113E+03
      8.561  0.1181E+02  0.1119E+03
      8.613  0.1238E+02  0.1126E+03
      8.665  0.1470E+02  0.1133E+03
      8.717  0.1453E+02  0.1141E+03
      8.770  0.1149E+02  0.1147E+03
      8.822  0.1526E+02  0.1155E+03
      8.874  0.1038E+02  0.1161E+03
      8.927  0.1806E+02  0.1170E+03
      8.979  0.1773E+02  0.1179E+03
      9.031  0.1155E+02  0.1185E+03
      9.083  0.1409E+02  0.1193E+03
      9.136  0.1480E+02  0.1200E+03
      9.188  0.1857E+02  0.1210E+03
      9.240  0.1543E+02  0.1218E+03
      9.293  0.8875E+01  0.1223E+03
      9.345  0.1564E+02  0.1231E+03
      9.397  0.1554E+02  0.1239E+03
      9.449  0.1298E+02  0.1246E+03
      9.502  0.1673E+02  0.1255E+03
      9.554  0.1321E+02  0.1262E+03
      9.606  0.1657E+02  0.1270E+03
      9.659  0.1152E+02  0.1276E+03
      9.711  0.1264E+02  0.1283E+03
      9.763  0.9482E+01  0.1288E+03
      9.815  0.1960E+02  0.1298E+03
      9.868  0.8746E+01  0.1303E+03
      9.920  0.1599E+02  0.1311E+03
      9.972  0.9832E+01  0.1316E+03
     10.025  0.1294E+02  0.1323E+03
     10.077  0.1015E+02  0.1328E+03
     10.129  0.1417E+02  0.1336E+03
     10.181  0.7560E+01  0.1340E+03
     10.234  0.5742E+01  0.1343E+03
     10.286  0.8321E+01  0.1347E+03
     10.338  0.1085E+02  0.1353E+03
     10.391  0.4913E+01  0.1355E+03
     10.443  0.2959E+01  0.1357E+03
     10.495  0.2202E+01  0.1358E+03
     10.547  0.1276E+01  0.1358E+03
     10.600  0.8126E+00  0.1359E+03
     10.652  0.8921E+00  0.1359E+03
     10.704  0.3630E+00  0.1360E+03
     10.756  0.1901E+00  0.1360E+03
     10.809  0.5515E+00  0.1360E+03
     10.861  0.0000E+00  0.1360E+03
     10.913  0.5569E-03  0.1360E+03
     10.966  0.8799E-01  0.1360E+03
     11.018  0.0000E+00  0.1360E+03
     11.070  0.0000E+00  0.1360E+03
     11.122  0.0000E+00  0.1360E+03
     11.175  0.0000E+00  0.1360E+03
     11.227  0.0000E+00  0.1360E+03
     11.279  0.0000E+00  0.1360E+03
     11.332  0.0000E+00  0.1360E+03
     11.384  0.0000E+00  0.1360E+03
     11.436  0.0000E+00  0.1360E+03
     11.488  0.0000E+00  0.1360E+03
     11.541  0.0000E+00  0.1360E+03
     11.593  0.0000E+00  0.1360E+03
     11.645  0.0000E+00  0.1360E+03
