   32   32    1    1
  0.1745885E+02  0.8236105E-09  0.8236105E-09  0.8236105E-09  0.5000000E-15
  1.000000000000000E-004
  CAR 
 unknown system                          
   96  196   68
 
  0.0000000E+00  0.0000000E+00  0.0000000E+00  0.5787037E-03
   1       -3.3268
   2       -1.1635
   3       -1.1599
   4       -1.1599
   5       -1.1599
   6       -1.1599
   7       -1.1563
   8        0.9701
   9        0.9746
  10        0.9746
  11        0.9762
  12        0.9763
  13        0.9763
  14        0.9763
  15        0.9763
  16        0.9765
  17        0.9780
  18        0.9780
  19        0.9825
  20        3.0533
  21        3.0534
  22        3.0534
  23        3.0534
  24        3.1173
  25        3.1173
  26        3.1173
  27        3.1174
  28        4.6358
  29        4.6358
  30        4.6358
  31        5.8260
  32        5.8260
  33        5.8260
  34        6.6444
  35        6.6444
  36        6.6486
  37        6.6486
  38        6.6487
  39        6.6487
  40        6.6487
  41        6.6487
  42        6.6488
  43        6.6488
  44        6.6530
  45        6.6530
  46        7.6857
  47        7.6897
  48        7.6897
  49        7.6897
  50        7.6897
  51        7.6937
  52        8.2223
  53        8.2233
  54        8.2233
  55        8.2233
  56        8.2233
  57        8.2242
  58        8.6615
  59        8.6615
  60        8.6636
  61        8.6654
  62        8.6655
  63        8.6655
  64        8.6655
  65        8.6656
  66        8.6672
  67        8.6692
  68        8.6695
 
  0.8333333E-01  0.0000000E+00  0.0000000E+00  0.1157407E-02
   1       -3.3116
   2       -1.5039
   3       -1.1450
   4       -1.1449
   5       -1.1449
   6       -1.1449
   7       -0.7870
   8        0.6371
   9        0.6371
  10        0.6371
  11        0.6372
  12        0.9910
  13        0.9910
  14        0.9910
  15        0.9910
  16        1.3440
  17        1.3440
  18        1.3440
  19        1.3441
  20        2.7489
  21        2.7489
  22        2.7489
  23        2.7489
  24        3.4500
  25        3.4500
  26        3.4500
  27        3.4500
  28        4.3286
  29        4.6497
  30        4.6497
  31        5.8408
  32        5.8408
  33        6.1597
  34        6.3267
  35        6.3267
  36        6.3601
  37        6.3601
  38        6.3601
  39        6.3601
  40        6.6627
  41        6.6627
  42        6.6627
  43        6.6627
  44        6.9988
  45        6.9988
  46        7.5326
  47        7.5326
  48        7.8356
  49        7.8356
  50        7.8356
  51        7.8356
  52        8.3430
  53        8.3430
  54        8.3431
  55        8.3431
  56        8.3939
  57        8.3942
  58        8.3942
  59        8.3942
  60        8.4056
  61        8.4058
  62        8.4064
  63        8.4064
  64        8.4072
  65        8.4076
  66        9.0159
  67        9.0159
  68        9.0159
 
  0.1666667E+00  0.0000000E+00  0.0000000E+00  0.1157407E-02
   1       -3.2662
   2       -1.8186
   3       -1.1002
   4       -1.1001
   5       -1.1001
   6       -1.1001
   7       -0.3854
   8        0.3268
   9        0.3268
  10        0.3268
  11        0.3268
  12        1.0352
  13        1.0352
  14        1.0352
  15        1.0352
  16        1.7400
  17        1.7400
  18        1.7400
  19        1.7400
  20        2.4432
  21        2.4432
  22        2.4432
  23        2.4432
  24        3.7707
  25        3.8405
  26        3.8405
  27        3.8405
  28        3.8405
  29        4.6916
  30        4.6916
  31        5.8233
  32        5.8233
  33        5.8233
  34        5.8234
  35        5.8853
  36        5.8854
  37        6.0329
  38        6.0329
  39        6.7046
  40        6.7046
  41        6.7046
  42        6.7046
  43        6.7970
  44        7.2678
  45        7.2678
  46        7.3770
  47        7.3770
  48        7.8720
  49        7.8720
  50        7.8720
  51        7.8720
  52        7.9646
  53        7.9646
  54        7.9646
  55        7.9646
  56        8.0489
  57        8.0489
  58        8.0489
  59        8.0489
  60        8.7501
  61        8.7501
  62        8.9350
  63        8.9350
  64        8.9350
  65        8.9350
  66        9.3847
  67        9.3892
  68        9.3920
 
  0.2500000E+00  0.0000000E+00  0.0000000E+00  0.1157407E-02
   1       -3.1904
   2       -2.1040
   3       -1.0255
   4       -1.0255
   5       -1.0255
   6       -1.0255
   7        0.0424
   8        0.0454
   9        0.0454
  10        0.0454
  11        0.0475
  12        1.1089
  13        1.1089
  14        1.1089
  15        1.1089
  16        2.1614
  17        2.1633
  18        2.1633
  19        2.1639
  20        2.1656
  21        2.1663
  22        2.1663
  23        2.1682
  24        3.1806
  25        4.2591
  26        4.2591
  27        4.2591
  28        4.2591
  29        4.7614
  30        4.7614
  31        5.2486
  32        5.2486
  33        5.2486
  34        5.2486
  35        5.7672
  36        5.7672
  37        5.9594
  38        5.9594
  39        6.7746
  40        6.7746
  41        6.7746
  42        6.7746
  43        7.0053
  44        7.0053
  45        7.3065
  46        7.3065
  47        7.3065
  48        7.3065
  49        7.5194
  50        7.7808
  51        7.7808
  52        7.7827
  53        7.7827
  54        7.7854
  55        7.7854
  56        8.0615
  57        8.0615
  58        8.0615
  59        8.0615
  60        9.1143
  61        9.1143
  62        9.1144
  63        9.1144
  64        9.1430
  65        9.1430
  66        9.6139
  67        9.6139
  68        9.6141
 
  0.3333333E+00  0.0000000E+00  0.0000000E+00  0.1157407E-02
   1       -3.0845
   2       -2.3598
   3       -0.9211
   4       -0.9211
   5       -0.9211
   6       -0.9211
   7       -0.2068
   8       -0.2068
   9       -0.2068
  10       -0.2068
  11        0.5025
  12        1.2119
  13        1.2119
  14        1.2119
  15        1.2119
  16        1.9167
  17        1.9168
  18        1.9168
  19        1.9168
  20        2.5994
  21        2.6154
  22        2.6154
  23        2.6154
  24        2.6155
  25        4.6791
  26        4.6791
  27        4.6791
  28        4.6792
  29        4.7051
  30        4.7051
  31        4.7051
  32        4.7052
  33        4.8591
  34        4.8591
  35        5.5296
  36        5.5296
  37        6.0629
  38        6.0629
  39        6.7443
  40        6.7444
  41        6.7444
  42        6.7445
  43        6.7632
  44        6.7634
  45        6.8726
  46        6.8726
  47        6.8726
  48        6.8726
  49        7.5446
  50        7.5446
  51        7.5446
  52        7.5446
  53        8.1720
  54        8.1720
  55        8.1720
  56        8.1720
  57        8.2183
  58        8.2183
  59        8.2858
  60        8.8712
  61        8.8712
  62        8.8712
  63        8.8712
  64        9.5660
  65        9.5660
  66       10.2356
  67       10.2367
  68       10.2389
 
  0.4166667E+00  0.0000000E+00  0.0000000E+00  0.1157407E-02
   1       -2.9483
   2       -2.5859
   3       -0.7869
   4       -0.7869
   5       -0.7869
   6       -0.7869
   7       -0.4296
   8       -0.4296
   9       -0.4296
  10       -0.4296
  11        0.9879
  12        1.3443
  13        1.3443
  14        1.3443
  15        1.3443
  16        1.6968
  17        1.6968
  18        1.6968
  19        1.6968
  20        2.0379
  21        3.0937
  22        3.0937
  23        3.0937
  24        3.0938
  25        4.1274
  26        4.1274
  27        4.1274
  28        4.1275
  29        4.9847
  30        4.9847
  31        5.1778
  32        5.1778
  33        5.1778
  34        5.1778
  35        5.3200
  36        5.3200
  37        6.1948
  38        6.1955
  39        6.1994
  40        6.1994
  41        6.1994
  42        6.2000
  43        6.5464
  44        6.5465
  45        6.9985
  46        6.9985
  47        6.9986
  48        6.9986
  49        7.3346
  50        7.3346
  51        7.3346
  52        7.3346
  53        8.3063
  54        8.3063
  55        8.3063
  56        8.3063
  57        8.6554
  58        8.6554
  59        8.6554
  60        8.6554
  61        8.6813
  62        8.6813
  63        9.0852
  64        9.6919
  65        9.6919
  66       10.0125
  67       10.0125
  68       10.6985
 
  0.5000000E+00  0.0000000E+00  0.0000000E+00  0.5787037E-03
   1       -2.7835
   2       -2.7807
   3       -0.6269
   4       -0.6239
   5       -0.6239
   6       -0.6231
   7       -0.6229
   8       -0.6222
   9       -0.6222
  10       -0.6192
  11        1.4977
  12        1.5002
  13        1.5045
  14        1.5047
  15        1.5047
  16        1.5056
  17        1.5064
  18        1.5072
  19        1.5072
  20        1.5096
  21        3.5971
  22        3.5974
  23        3.5974
  24        3.5981
  25        3.5983
  26        3.5990
  27        3.5990
  28        3.5993
  29        5.1369
  30        5.1369
  31        5.1398
  32        5.1398
  33        5.6753
  34        5.6753
  35        5.6759
  36        5.6761
  37        5.6766
  38        5.6769
  39        5.6775
  40        5.6775
  41        6.3551
  42        6.3560
  43        6.3578
  44        6.3587
  45        7.1503
  46        7.1503
  47        7.1512
  48        7.1525
  49        7.1526
  50        7.1539
  51        7.1548
  52        7.1548
  53        8.4650
  54        8.4660
  55        8.4660
  56        8.4662
  57        8.4682
  58        8.4683
  59        8.4683
  60        8.4694
  61        9.1713
  62        9.1713
  63        9.1736
  64        9.1736
  65        9.9127
  66        9.9142
  67       10.4770
  68       10.4776
 
  0.0000000E+00  0.8333333E-01  0.0000000E+00  0.2314815E-02
   1       -3.3116
   2       -1.5039
   3       -1.1477
   4       -1.1449
   5       -1.1449
   6       -1.1422
   7       -0.7870
   8        0.6343
   9        0.6371
  10        0.6372
  11        0.6399
  12        0.9889
  13        0.9899
  14        0.9921
  15        0.9932
  16        1.3412
  17        1.3440
  18        1.3440
  19        1.3468
  20        2.7468
  21        2.7478
  22        2.7500
  23        2.7511
  24        3.4479
  25        3.4489
  26        3.4511
  27        3.4522
  28        4.3285
  29        4.6497
  30        4.6497
  31        5.8408
  32        5.8409
  33        6.1597
  34        6.3266
  35        6.3267
  36        6.3571
  37        6.3601
  38        6.3601
  39        6.3632
  40        6.6600
  41        6.6627
  42        6.6627
  43        6.6653
  44        6.9988
  45        6.9988
  46        7.5326
  47        7.5326
  48        7.8330
  49        7.8356
  50        7.8356
  51        7.8381
  52        8.3404
  53        8.3431
  54        8.3431
  55        8.3458
  56        8.3915
  57        8.3931
  58        8.3952
  59        8.3967
  60        8.4050
  61        8.4063
  62        8.4064
  63        8.4066
  64        8.4068
  65        8.4078
  66        9.0134
  67        9.0159
  68        9.0181
 
  0.8333333E-01  0.8333333E-01  0.0000000E+00  0.4629630E-02
   1       -3.2965
   2       -1.4900
   3       -1.4877
   4       -1.1300
   5       -1.1300
   6       -0.7732
   7       -0.7709
   8        0.2972
   9        0.6503
  10        0.6512
  11        0.6526
  12        0.6535
  13        1.0051
  14        1.0062
  15        1.3571
  16        1.3580
  17        1.3594
  18        1.3603
  19        1.7109
  20        2.4140
  21        2.4140
  22        3.0815
  23        3.0815
  24        3.1471
  25        3.1471
  26        3.8117
  27        3.8117
  28        4.3423
  29        4.3431
  30        4.6637
  31        5.8557
  32        6.0361
  33        6.0384
  34        6.1739
  35        6.1747
  36        6.3384
  37        6.3393
  38        6.3401
  39        6.3422
  40        6.4125
  41        6.4126
  42        6.7073
  43        6.7089
  44        7.0115
  45        7.0140
  46        7.5890
  47        7.5910
  48        7.8161
  49        7.8183
  50        8.0208
  51        8.0555
  52        8.0556
  53        8.0691
  54        8.0700
  55        8.0714
  56        8.0723
  57        8.4515
  58        8.4523
  59        8.5115
  60        8.5115
  61        8.6792
  62        8.6810
  63        8.6926
  64        8.6945
  65        8.7443
  66        8.7453
  67        8.7457
  68        8.7467
 
  0.1666667E+00  0.8333333E-01  0.0000000E+00  0.4629630E-02
   1       -3.2510
   2       -1.8036
   3       -1.4440
   4       -1.0852
   5       -1.0852
   6       -0.7274
   7       -0.3705
   8       -0.0138
   9        0.3416
  10        0.3416
  11        0.6955
  12        0.6962
  13        0.6968
  14        1.4020
  15        1.4028
  16        1.4034
  17        1.7547
  18        1.7547
  19        2.1057
  20        2.1072
  21        2.1074
  22        2.8069
  23        2.8069
  24        3.5079
  25        3.5079
  26        3.7850
  27        4.2018
  28        4.2018
  29        4.3852
  30        4.7055
  31        5.4977
  32        5.7416
  33        5.8356
  34        5.8356
  35        5.9002
  36        6.0469
  37        6.1751
  38        6.2182
  39        6.3827
  40        6.4236
  41        6.4236
  42        6.8114
  43        7.0547
  44        7.0591
  45        7.3366
  46        7.3910
  47        7.5470
  48        7.5470
  49        7.5783
  50        7.6596
  51        7.7266
  52        7.7751
  53        7.7751
  54        8.2197
  55        8.2248
  56        8.2253
  57        8.2577
  58        8.2578
  59        8.3993
  60        8.7095
  61        8.7713
  62        8.9650
  63        8.9650
  64        9.0392
  65        9.0591
  66        9.0721
  67        9.1246
  68        9.1246
 
  0.2500000E+00  0.8333333E-01  0.0000000E+00  0.4629630E-02
   1       -3.1753
   2       -2.0890
   3       -1.3692
   4       -1.0106
   5       -1.0106
   6       -0.6529
   7       -0.2958
   8        0.0580
   9        0.0602
  10        0.0616
  11        0.4154
  12        0.7700
  13        0.7700
  14        1.4763
  15        1.4763
  16        1.8263
  17        1.8290
  18        1.8302
  19        2.1786
  20        2.1786
  21        2.5276
  22        2.5304
  23        2.5316
  24        3.1951
  25        3.9268
  26        3.9268
  27        4.4560
  28        4.6197
  29        4.6197
  30        4.7753
  31        4.9204
  32        5.2623
  33        5.2623
  34        5.4737
  35        5.6037
  36        5.7812
  37        5.9742
  38        6.2912
  39        6.4526
  40        6.4931
  41        6.4931
  42        6.9800
  43        6.9800
  44        7.0088
  45        7.1247
  46        7.3225
  47        7.4605
  48        7.5074
  49        7.5076
  50        7.5273
  51        7.5337
  52        7.6606
  53        7.6606
  54        7.7412
  55        7.7975
  56        8.1331
  57        8.3657
  58        8.3657
  59        8.3945
  60        8.7878
  61        9.1597
  62        9.3142
  63        9.4149
  64        9.4150
  65        9.4358
  66        9.4672
  67        9.4801
  68        9.5315
 
  0.3333333E+00  0.8333333E-01  0.0000000E+00  0.4629630E-02
   1       -3.0693
   2       -2.3447
   3       -1.2645
   4       -0.9062
   5       -0.9061
   6       -0.5492
   7       -0.5481
   8       -0.1919
   9       -0.1919
  10        0.1638
  11        0.5173
  12        0.8733
  13        0.8733
  14        1.5785
  15        1.5789
  16        1.5798
  17        1.5801
  18        2.2798
  19        2.2823
  20        2.2824
  21        2.6139
  22        2.6300
  23        2.6300
  24        2.9791
  25        4.3490
  26        4.3736
  27        4.3736
  28        4.5551
  29        4.6933
  30        4.6933
  31        4.8730
  32        5.0368
  33        5.0648
  34        5.0648
  35        5.2337
  36        5.5436
  37        6.0776
  38        6.3932
  39        6.4168
  40        6.4168
  41        6.5506
  42        6.5915
  43        6.5915
  44        6.7752
  45        7.0841
  46        7.0998
  47        7.1000
  48        7.2218
  49        7.2234
  50        7.2681
  51        7.2681
  52        7.8466
  53        7.8949
  54        7.9521
  55        8.2323
  56        8.2999
  57        8.4777
  58        8.4777
  59        8.5196
  60        8.5439
  61        9.1733
  62        9.1733
  63        9.2242
  64        9.5813
  65        9.8598
  66        9.9213
  67        9.9625
  68        9.9655
 
  0.4166667E+00  0.8333333E-01  0.0000000E+00  0.4629630E-02
   1       -2.9332
   2       -2.5708
   3       -1.1300
   4       -0.7733
   5       -0.7720
   6       -0.7706
   7       -0.4162
   8       -0.4148
   9       -0.4135
  10       -0.0585
  11        1.0021
  12        1.0059
  13        1.0064
  14        1.3592
  15        1.3592
  16        1.7112
  17        1.7112
  18        2.0523
  19        2.0629
  20        2.0631
  21        2.7594
  22        3.1083
  23        3.1083
  24        3.4562
  25        3.7957
  26        4.1418
  27        4.1418
  28        4.4870
  29        4.6824
  30        4.8471
  31        4.8471
  32        4.9987
  33        5.0218
  34        5.3339
  35        5.5366
  36        5.5366
  37        5.8707
  38        5.8707
  39        6.2100
  40        6.5240
  41        6.5558
  42        6.5560
  43        6.5604
  44        6.6765
  45        6.7184
  46        6.7184
  47        6.8704
  48        7.0124
  49        7.0567
  50        7.0567
  51        7.3488
  52        7.6849
  53        7.9790
  54        8.3276
  55        8.4124
  56        8.6118
  57        8.6118
  58        8.6582
  59        8.6952
  60        8.9588
  61        8.9588
  62        9.0089
  63        9.0992
  64        9.4175
  65        9.7060
  66       10.0272
  67       10.3064
  68       10.3794
 
  0.5000000E+00  0.8333333E-01  0.0000000E+00  0.2314815E-02
   1       -2.7684
   2       -2.7656
   3       -0.9672
   4       -0.9644
   5       -0.6101
   6       -0.6090
   7       -0.6074
   8       -0.6062
   9       -0.2529
  10       -0.2501
  11        1.1659
  12        1.1671
  13        1.1687
  14        1.1699
  15        1.5140
  16        1.5154
  17        1.8705
  18        1.8717
  19        1.8733
  20        1.8745
  21        3.2644
  22        3.2658
  23        3.6119
  24        3.6121
  25        3.6133
  26        3.6134
  27        3.9586
  28        3.9600
  29        4.8365
  30        4.8394
  31        5.1508
  32        5.1538
  33        5.3459
  34        5.3460
  35        5.3473
  36        5.3474
  37        6.0333
  38        6.0334
  39        6.0347
  40        6.0349
  41        6.3698
  42        6.3725
  43        6.6819
  44        6.6847
  45        6.8289
  46        6.8319
  47        6.8713
  48        6.8727
  49        6.8742
  50        6.8756
  51        7.5013
  52        7.5043
  53        8.1379
  54        8.1406
  55        8.7700
  56        8.7707
  57        8.7728
  58        8.7735
  59        8.8191
  60        8.8218
  61        8.9004
  62        8.9024
  63        9.1853
  64        9.1876
  65        9.9265
  66        9.9280
  67       10.4915
  68       10.4921
 
  0.0000000E+00  0.1666667E+00  0.0000000E+00  0.2314815E-02
   1       -3.2662
   2       -1.8186
   3       -1.1029
   4       -1.1001
   5       -1.1001
   6       -1.0974
   7       -0.3854
   8        0.3240
   9        0.3268
  10        0.3268
  11        0.3296
  12        1.0331
  13        1.0341
  14        1.0363
  15        1.0374
  16        1.7372
  17        1.7400
  18        1.7400
  19        1.7428
  20        2.4410
  21        2.4420
  22        2.4443
  23        2.4453
  24        3.7706
  25        3.8383
  26        3.8394
  27        3.8416
  28        3.8427
  29        4.6916
  30        4.6916
  31        5.8203
  32        5.8234
  33        5.8234
  34        5.8263
  35        5.8853
  36        5.8854
  37        6.0329
  38        6.0330
  39        6.7020
  40        6.7046
  41        6.7047
  42        6.7073
  43        6.7970
  44        7.2678
  45        7.2678
  46        7.3770
  47        7.3771
  48        7.8696
  49        7.8709
  50        7.8731
  51        7.8745
  52        7.9623
  53        7.9646
  54        7.9646
  55        7.9668
  56        8.0462
  57        8.0489
  58        8.0490
  59        8.0516
  60        8.7500
  61        8.7501
  62        8.9328
  63        8.9349
  64        8.9350
  65        8.9371
  66        9.3836
  67        9.3882
  68        9.3939
 
  0.8333333E-01  0.1666667E+00  0.0000000E+00  0.4629630E-02
   1       -3.2510
   2       -1.8036
   3       -1.4440
   4       -1.0852
   5       -1.0852
   6       -0.7274
   7       -0.3705
   8       -0.0138
   9        0.3416
  10        0.3416
  11        0.6947
  12        0.6962
  13        0.6976
  14        1.4013
  15        1.4028
  16        1.4041
  17        1.7547
  18        1.7547
  19        2.1057
  20        2.1072
  21        2.1074
  22        2.8069
  23        2.8069
  24        3.5079
  25        3.5079
  26        3.7850
  27        4.2018
  28        4.2018
  29        4.3852
  30        4.7055
  31        5.4977
  32        5.7416
  33        5.8356
  34        5.8356
  35        5.9002
  36        6.0469
  37        6.1751
  38        6.2182
  39        6.3826
  40        6.4236
  41        6.4236
  42        6.8114
  43        7.0548
  44        7.0591
  45        7.3366
  46        7.3910
  47        7.5470
  48        7.5470
  49        7.5783
  50        7.6596
  51        7.7266
  52        7.7752
  53        7.7752
  54        8.2202
  55        8.2248
  56        8.2248
  57        8.2577
  58        8.2577
  59        8.3993
  60        8.7095
  61        8.7713
  62        8.9650
  63        8.9650
  64        9.0392
  65        9.0591
  66        9.0721
  67        9.1246
  68        9.1246
 
  0.1666667E+00  0.1666667E+00  0.0000000E+00  0.4629630E-02
   1       -3.2056
   2       -1.7597
   3       -1.7575
   4       -1.0404
   5       -1.0404
   6       -0.3276
   7       -0.3258
   8       -0.3240
   9        0.3844
  10        0.3853
  11        0.3866
  12        0.3876
  13        1.0932
  14        1.0943
  15        1.7965
  16        1.7977
  17        1.7990
  18        1.7991
  19        1.8004
  20        1.8015
  21        2.4999
  22        3.1660
  23        3.1660
  24        3.2364
  25        3.2364
  26        3.8275
  27        3.8285
  28        4.5912
  29        4.5912
  30        4.7474
  31        5.1982
  32        5.2005
  33        5.8220
  34        5.8220
  35        5.9440
  36        5.9457
  37        5.9462
  38        6.0876
  39        6.0901
  40        6.5478
  41        6.5494
  42        6.8542
  43        6.8552
  44        7.2482
  45        7.2491
  46        7.2505
  47        7.2515
  48        7.3728
  49        7.3745
  50        7.4306
  51        7.4328
  52        7.4351
  53        8.1622
  54        8.1643
  55        8.6040
  56        8.6050
  57        8.6052
  58        8.6062
  59        8.7424
  60        8.7424
  61        8.7599
  62        8.7769
  63        8.7788
  64        8.8494
  65        8.8503
  66        9.1345
  67        9.1345
  68        9.6326
 
  0.2500000E+00  0.1666667E+00  0.0000000E+00  0.4629630E-02
   1       -3.1299
   2       -2.0439
   3       -1.6836
   4       -0.9658
   5       -0.9658
   6       -0.6081
   7       -0.2517
   8        0.1024
   9        0.1047
  10        0.1061
  11        0.4599
  12        0.4599
  13        0.8138
  14        1.5183
  15        1.5209
  16        1.5221
  17        1.8720
  18        1.8720
  19        2.2224
  20        2.2225
  21        2.9203
  22        2.9227
  23        2.9240
  24        3.2384
  25        3.6236
  26        3.6236
  27        3.8997
  28        4.6199
  29        4.8172
  30        4.9288
  31        5.0082
  32        5.0082
  33        5.3021
  34        5.3021
  35        5.8231
  36        5.9624
  37        5.9624
  38        5.9844
  39        6.0184
  40        6.1588
  41        6.6816
  42        6.6816
  43        6.8898
  44        6.9267
  45        6.9807
  46        6.9807
  47        7.1664
  48        7.1703
  49        7.4455
  50        7.5031
  51        7.5764
  52        7.8396
  53        7.9360
  54        8.0422
  55        8.0422
  56        8.4877
  57        8.5116
  58        8.6684
  59        8.9580
  60        8.9580
  61        9.0127
  62        9.0127
  63        9.1260
  64        9.1845
  65        9.2123
  66        9.6931
  67        9.6931
  68        9.8438
 
  0.3333333E+00  0.1666667E+00  0.0000000E+00  0.4629630E-02
   1       -3.0239
   2       -2.2996
   3       -1.5787
   4       -0.8627
   5       -0.8614
   6       -0.8601
   7       -0.1489
   8       -0.1474
   9       -0.1463
  10        0.5603
  11        0.5629
  12        0.5634
  13        0.5646
  14        1.2710
  15        1.2710
  16        1.9727
  17        1.9745
  18        1.9747
  19        2.6574
  20        2.6728
  21        2.6733
  22        2.6760
  23        2.6767
  24        3.3707
  25        3.9999
  26        4.0469
  27        4.0705
  28        4.0705
  29        4.6864
  30        4.7356
  31        4.7356
  32        4.9149
  33        5.4212
  34        5.4523
  35        5.4523
  36        5.5855
  37        6.0592
  38        6.0592
  39        6.1171
  40        6.1172
  41        6.1217
  42        6.2567
  43        6.7396
  44        6.7396
  45        6.8047
  46        6.9284
  47        7.0273
  48        7.4467
  49        7.4828
  50        7.4828
  51        7.5473
  52        7.6011
  53        7.7062
  54        8.2431
  55        8.2722
  56        8.2755
  57        8.3422
  58        8.8786
  59        9.0830
  60        9.0830
  61        9.4345
  62        9.4472
  63        9.4473
  64        9.6020
  65        9.6193
  66        9.6279
  67        9.7718
  68        9.7783
 
  0.4166667E+00  0.1666667E+00  0.0000000E+00  0.4629630E-02
   1       -2.8879
   2       -2.5256
   3       -1.4440
   4       -1.0852
   5       -0.7273
   6       -0.7273
   7       -0.3702
   8       -0.3702
   9       -0.0143
  10        0.3411
  11        0.6963
  12        0.6963
  13        1.0463
  14        1.0502
  15        1.0507
  16        2.0961
  17        2.1063
  18        2.1064
  19        2.4533
  20        2.4570
  21        2.4571
  22        3.1518
  23        3.1518
  24        3.4921
  25        3.8465
  26        4.1289
  27        4.1848
  28        4.1848
  29        4.4721
  30        4.5447
  31        4.5447
  32        4.8738
  33        5.0406
  34        5.3758
  35        5.5700
  36        5.5700
  37        5.9230
  38        5.9230
  39        6.1864
  40        6.1864
  41        6.2535
  42        6.3826
  43        6.5268
  44        6.5268
  45        6.6001
  46        6.7184
  47        6.9401
  48        6.9402
  49        7.1562
  50        7.4969
  51        7.6782
  52        7.7271
  53        7.8967
  54        8.0264
  55        8.0633
  56        8.7373
  57        8.8966
  58        9.0313
  59        9.1409
  60        9.2193
  61        9.2193
  62        9.3868
  63        9.5653
  64        9.5653
  65        9.7480
  66        9.9082
  67        9.9083
  68       10.0739
 
  0.5000000E+00  0.1666667E+00  0.0000000E+00  0.2314815E-02
   1       -2.7231
   2       -2.7203
   3       -1.2808
   4       -1.2780
   5       -0.5655
   6       -0.5643
   7       -0.5627
   8       -0.5616
   9        0.1473
  10        0.1501
  11        0.8566
  12        0.8578
  13        0.8594
  14        0.8606
  15        1.5580
  16        1.5594
  17        2.2651
  18        2.2663
  19        2.2679
  20        2.2691
  21        2.9595
  22        2.9609
  23        3.6552
  24        3.6554
  25        3.6566
  26        3.6568
  27        4.2849
  28        4.2877
  29        4.3473
  30        4.3487
  31        5.0442
  32        5.0444
  33        5.0457
  34        5.0458
  35        5.1928
  36        5.1957
  37        6.3403
  38        6.3415
  39        6.3432
  40        6.3444
  41        6.4120
  42        6.4147
  43        6.4186
  44        6.4190
  45        6.4202
  46        6.4204
  47        6.5350
  48        6.5380
  49        7.3116
  50        7.3144
  51        7.8367
  52        7.8393
  53        7.8797
  54        7.8827
  55        8.3820
  56        8.3838
  57        9.1959
  58        9.1987
  59        9.2274
  60        9.2296
  61        9.3774
  62        9.3782
  63        9.3802
  64        9.3811
  65        9.9676
  66        9.9691
  67       10.3945
  68       10.3962
 
  0.0000000E+00  0.2500000E+00  0.0000000E+00  0.2314815E-02
   1       -3.1904
   2       -2.1040
   3       -1.0283
   4       -1.0255
   5       -1.0255
   6       -1.0227
   7        0.0425
   8        0.0446
   9        0.0454
  10        0.0454
  11        0.0483
  12        1.1067
  13        1.1078
  14        1.1100
  15        1.1110
  16        2.1608
  17        2.1636
  18        2.1637
  19        2.1640
  20        2.1647
  21        2.1663
  22        2.1668
  23        2.1683
  24        3.1806
  25        4.2570
  26        4.2580
  27        4.2603
  28        4.2613
  29        4.7614
  30        4.7614
  31        5.2456
  32        5.2485
  33        5.2486
  34        5.2515
  35        5.7672
  36        5.7672
  37        5.9594
  38        5.9594
  39        6.7720
  40        6.7746
  41        6.7746
  42        6.7772
  43        7.0053
  44        7.0053
  45        7.3041
  46        7.3053
  47        7.3076
  48        7.3088
  49        7.5194
  50        7.7798
  51        7.7827
  52        7.7827
  53        7.7833
  54        7.7835
  55        7.7859
  56        8.0593
  57        8.0615
  58        8.0615
  59        8.0637
  60        9.1123
  61        9.1143
  62        9.1144
  63        9.1164
  64        9.1430
  65        9.1430
  66        9.6125
  67        9.6140
  68        9.6164
 