 vasp.4.6.28 25Jul05 complex 
 executed on             LinuxIFC date 2016.11.11  17:42:32
 running on    4 nodes
 distr:  one band on    1 nodes,    4 groups


--------------------------------------------------------------------------------------------------------


 INCAR:
 POTCAR:   PAW_PBE Al 04Jan2001                   
 POTCAR:   PAW_PBE Al 04Jan2001                   
   VRHFIN =Al: s2p1                                                             
   LEXCH  = PE                                                                  
   EATOM  =    53.5387 eV,    3.9350 Ry                                         
                                                                                
   TITEL  = PAW_PBE Al 04Jan2001                                                
   LULTRA =        F    use ultrasoft PP ?                                      
   IUNSCR =        1    unscreen: 0-lin 1-nonlin 2-no                           
   RPACOR =    1.500    partial core radius                                     
   POMASS =   26.982; ZVAL   =    3.000    mass and valenz                      
   RCORE  =    1.900    outmost cutoff radius                                   
   RWIGS  =    2.650; RWIGS  =    1.402    wigner-seitz radius (au A)           
   ENMAX  =  240.300; ENMIN  =  180.225 eV                                      
   ICORE  =        2    local potential                                         
   LCOR   =        T    correct aug charges                                     
   LPAW   =        T    paw PP                                                  
   EAUG   =  291.052                                                            
   DEXC   =    -.041                                                            
   RMAX   =    2.974    core radius for proj-oper                               
   RAUG   =    1.300    factor for augmentation sphere                          
   RDEP   =    1.966    radius for radial grids                                 
   QCUT   =   -4.203; QGAM   =    8.405    optimization parameters              
                                                                                
   Description                                                                  
     l     E      TYP  RCUT    TYP  RCUT                                        
     0   .000     23  1.900                                                     
     0   .000     23  1.900                                                     
     1   .000     23  1.900                                                     
     1  1.000     23  1.900                                                     
     2   .000      7  1.900                                                     
  local pseudopotential read in
  partial core-charges read in
  atomic valenz-charges read in
  non local Contribution for L=           0  read in
    real space projection operators read in
  non local Contribution for L=           0  read in
    real space projection operators read in
  non local Contribution for L=           1  read in
    real space projection operators read in
  non local Contribution for L=           1  read in
    real space projection operators read in
    PAW grid and wavefunctions read in
 
   number of l-projection  operators is LMAX  =           4
   number of lm-projection operators is LMMAX =           8
 

 ----------------------------------------------------------------------------- 
|                                                                             |
|  ADVICE TO THIS USER RUNNING 'VASP/VAMP'   (HEAR YOUR MASTER'S VOICE ...):  |
|                                                                             |
|      You have a (more or less) 'large supercell' and for larger cells       |
|      it might be more efficient to use real space projection operators      |
|      So try LREAL= Auto  in the INCAR   file.                               |
|      Mind: If you want to do an extremely accurate calculations keep the    |
|      reciprocal projection scheme          (i.e. LREAL=.FALSE.)             |
|                                                                             |
 ----------------------------------------------------------------------------- 

 PAW_PBE Al 04Jan2001                   :
 energy of atom  1       EATOM=  -53.5387
 kinetic energy error for atom=    0.0001 (will be added to EATOM!!)
 
 EXHCAR: internal setup
 exchange correlation table for  LEXCH =        8
   RHO(1)=    0.500       N(1)  =     2000
   RHO(2)=  100.500       N(2)  =     4000
 
 POSCAR: Al                                      
  positions in direct lattice
  No initial velocities read in
 


--------------------------------------------------------------------------------------------------------


 ion  position               nearest neighbor table
   1  0.251  0.250  0.000-  18 2.90  22 2.90  26 2.90  28 2.90   9 2.91  11 2.91  13 2.91  15 2.91
                            25 2.92  21 2.92  27 2.92  17 2.92
   2  0.750  0.250  0.000-  10 2.91  12 2.91  14 2.91  16 2.91  17 2.91  18 2.91  21 2.91  22 2.91
                            25 2.91  26 2.91  27 2.91  28 2.91
   3  0.250  0.750  0.000-   9 2.91  11 2.91  13 2.91  15 2.91  19 2.91  20 2.91  23 2.91  24 2.91
                            25 2.91  26 2.91  27 2.91  28 2.91
   4  0.750  0.750  0.000-  10 2.91  12 2.91  14 2.91  16 2.91  19 2.91  20 2.91  23 2.91  24 2.91
                            25 2.91  26 2.91  27 2.91  28 2.91
   5  0.250  0.250  0.500-   9 2.91  11 2.91  13 2.91  15 2.91  17 2.91  18 2.91  21 2.91  22 2.91
                            29 2.91  30 2.91  31 2.91  32 2.91
   6  0.750  0.250  0.500-  10 2.91  12 2.91  14 2.91  16 2.91  17 2.91  18 2.91  21 2.91  22 2.91
                            29 2.91  30 2.91  31 2.91  32 2.91
   7  0.250  0.750  0.500-   9 2.91  11 2.91  13 2.91  15 2.91  19 2.91  20 2.91  23 2.91  24 2.91
                            29 2.91  30 2.91  31 2.91  32 2.91
   8  0.750  0.750  0.500-  10 2.91  12 2.91  14 2.91  16 2.91  19 2.91  20 2.91  23 2.91  24 2.91
                            29 2.91  30 2.91  31 2.91  32 2.91
   9  0.250  0.000  0.250-   3 2.91   5 2.91   7 2.91  17 2.91  18 2.91  19 2.91  20 2.91  25 2.91
                            26 2.91  29 2.91  30 2.91   1 2.91
  10  0.750  0.000  0.250-   2 2.91   4 2.91   6 2.91   8 2.91  17 2.91  18 2.91  19 2.91  20 2.91
                            25 2.91  26 2.91  29 2.91  30 2.91
  11  0.250  0.500  0.250-   3 2.91   5 2.91   7 2.91  17 2.91  18 2.91  19 2.91  20 2.91  27 2.91
                            28 2.91  31 2.91  32 2.91   1 2.91
  12  0.750  0.500  0.250-   2 2.91   4 2.91   6 2.91   8 2.91  17 2.91  18 2.91  19 2.91  20 2.91
                            27 2.91  28 2.91  31 2.91  32 2.91
  13  0.250  0.000  0.750-   3 2.91   5 2.91   7 2.91  21 2.91  22 2.91  23 2.91  24 2.91  25 2.91
                            26 2.91  29 2.91  30 2.91   1 2.91
  14  0.750  0.000  0.750-   2 2.91   4 2.91   6 2.91   8 2.91  21 2.91  22 2.91  23 2.91  24 2.91
                            25 2.91  26 2.91  29 2.91  30 2.91
  15  0.250  0.500  0.750-   3 2.91   5 2.91   7 2.91  21 2.91  22 2.91  23 2.91  24 2.91  27 2.91
                            28 2.91  31 2.91  32 2.91   1 2.91
  16  0.750  0.500  0.750-   2 2.91   4 2.91   6 2.91   8 2.91  21 2.91  22 2.91  23 2.91  24 2.91
                            27 2.91  28 2.91  31 2.91  32 2.91
  17  0.000  0.250  0.250-   2 2.91   5 2.91   6 2.91   9 2.91  10 2.91  11 2.91  12 2.91  25 2.91
                            27 2.91  29 2.91  31 2.91   1 2.92
  18  0.500  0.250  0.250-   1 2.90   2 2.91   5 2.91   6 2.91   9 2.91  10 2.91  11 2.91  12 2.91
                            26 2.91  28 2.91  30 2.91  32 2.91
  19  0.000  0.750  0.250-   3 2.91   4 2.91   7 2.91   8 2.91   9 2.91  10 2.91  11 2.91  12 2.91
                            25 2.91  27 2.91  29 2.91  31 2.91
  20  0.500  0.750  0.250-   3 2.91   4 2.91   7 2.91   8 2.91   9 2.91  10 2.91  11 2.91  12 2.91
                            26 2.91  28 2.91  30 2.91  32 2.91
  21  0.000  0.250  0.750-   2 2.91   5 2.91   6 2.91  13 2.91  14 2.91  15 2.91  16 2.91  25 2.91
                            27 2.91  29 2.91  31 2.91   1 2.92
  22  0.500  0.250  0.750-   1 2.90   2 2.91   5 2.91   6 2.91  13 2.91  14 2.91  15 2.91  16 2.91
                            26 2.91  28 2.91  30 2.91  32 2.91
  23  0.000  0.750  0.750-   3 2.91   4 2.91   7 2.91   8 2.91  13 2.91  14 2.91  15 2.91  16 2.91
                            25 2.91  27 2.91  29 2.91  31 2.91
  24  0.500  0.750  0.750-   3 2.91   4 2.91   7 2.91   8 2.91  13 2.91  14 2.91  15 2.91  16 2.91
                            26 2.91  28 2.91  30 2.91  32 2.91
  25  0.000  0.000  0.000-   2 2.91   3 2.91   4 2.91   9 2.91  10 2.91  13 2.91  14 2.91  17 2.91
                            19 2.91  21 2.91  23 2.91   1 2.92
  26  0.500  0.000  0.000-   1 2.90   2 2.91   3 2.91   4 2.91   9 2.91  10 2.91  13 2.91  14 2.91
                            18 2.91  20 2.91  22 2.91  24 2.91
  27  0.000  0.500  0.000-   2 2.91   3 2.91   4 2.91  11 2.91  12 2.91  15 2.91  16 2.91  17 2.91
                            19 2.91  21 2.91  23 2.91   1 2.92
  28  0.500  0.500  0.000-   1 2.90   2 2.91   3 2.91   4 2.91  11 2.91  12 2.91  15 2.91  16 2.91
                            18 2.91  20 2.91  22 2.91  24 2.91
  29  0.000  0.000  0.500-   5 2.91   6 2.91   7 2.91   8 2.91   9 2.91  10 2.91  13 2.91  14 2.91
                            17 2.91  19 2.91  21 2.91  23 2.91
  30  0.500  0.000  0.500-   5 2.91   6 2.91   7 2.91   8 2.91   9 2.91  10 2.91  13 2.91  14 2.91
                            18 2.91  20 2.91  22 2.91  24 2.91
  31  0.000  0.500  0.500-   5 2.91   6 2.91   7 2.91   8 2.91  11 2.91  12 2.91  15 2.91  16 2.91
                            17 2.91  19 2.91  21 2.91  23 2.91
  32  0.500  0.500  0.500-   5 2.91   6 2.91   7 2.91   8 2.91  11 2.91  12 2.91  15 2.91  16 2.91
                            18 2.91  20 2.91  22 2.91  24 2.91
 
  LATTYP: Found a simple cubic cell.
 ALAT       =     8.2361049941
  
  Lattice vectors:
  
 A1 = (   8.2361049941,   0.0000000000,   0.0000000000)
 A2 = (   0.0000000000,   8.2361049941,   0.0000000000)
 A3 = (   0.0000000000,   0.0000000000,   8.2361049941)
 Subroutine PRICEL returns:
 Original cell was already a primitive cell.
 

Analysis of symmetry for initial positions (statically):

 Routine SETGRP: Setting up the symmetry group for a 
 simple cubic supercell.


 Subroutine GETGRP returns: Found  8 space group operations
 (whereof  2 operations were pure point group operations)
 out of a pool of 48 trial point group operations.


The static configuration has the point symmetry C_1h.
 The point group associated with its full space group is C_4v.

Analysis of symmetry for dynamics (positions and initial velocities):

 Subroutine DYNSYM returns: Found  8 space group operations
 (whereof  2 operations were pure point group operations)
 out of a pool of  8 trial space group operations
 (whereof  2 operations were pure point group operations)
 and found also     1 'primitive' translations


The dynamic configuration has the point symmetry C_1h.
 The point group associated with its full space group is C_4v.
 
 
 KPOINTS: Automatic mesh                          

Automatic generation of k-mesh.
 
 Subroutine IBZKPT returns following result:
 ===========================================
 
 Found    196 irreducible k-points:
 
 Following reciprocal coordinates:
            Coordinates               Weight
  0.000000  0.000000  0.000000      1.000000
  0.083333  0.000000  0.000000      2.000000
  0.166667  0.000000  0.000000      2.000000
  0.250000  0.000000  0.000000      2.000000
  0.333333  0.000000  0.000000      2.000000
  0.416667  0.000000  0.000000      2.000000
  0.500000  0.000000  0.000000      1.000000
  0.000000  0.083333  0.000000      4.000000
  0.083333  0.083333  0.000000      8.000000
  0.166667  0.083333  0.000000      8.000000
  0.250000  0.083333  0.000000      8.000000
  0.333333  0.083333  0.000000      8.000000
  0.416667  0.083333  0.000000      8.000000
  0.500000  0.083333  0.000000      4.000000
  0.000000  0.166667  0.000000      4.000000
  0.083333  0.166667  0.000000      8.000000
  0.166667  0.166667  0.000000      8.000000
  0.250000  0.166667  0.000000      8.000000
  0.333333  0.166667  0.000000      8.000000
  0.416667  0.166667  0.000000      8.000000
  0.500000  0.166667  0.000000      4.000000
  0.000000  0.250000  0.000000      4.000000
  0.083333  0.250000  0.000000      8.000000
  0.166667  0.250000  0.000000      8.000000
  0.250000  0.250000  0.000000      8.000000
  0.333333  0.250000  0.000000      8.000000
  0.416667  0.250000  0.000000      8.000000
  0.500000  0.250000  0.000000      4.000000
  0.000000  0.333333  0.000000      4.000000
  0.083333  0.333333  0.000000      8.000000
  0.166667  0.333333  0.000000      8.000000
  0.250000  0.333333  0.000000      8.000000
  0.333333  0.333333  0.000000      8.000000
  0.416667  0.333333  0.000000      8.000000
  0.500000  0.333333  0.000000      4.000000
  0.000000  0.416667  0.000000      4.000000
  0.083333  0.416667  0.000000      8.000000
  0.166667  0.416667  0.000000      8.000000
  0.250000  0.416667  0.000000      8.000000
  0.333333  0.416667  0.000000      8.000000
  0.416667  0.416667  0.000000      8.000000
  0.500000  0.416667  0.000000      4.000000
  0.000000  0.500000  0.000000      2.000000
  0.083333  0.500000  0.000000      4.000000
  0.166667  0.500000  0.000000      4.000000
  0.250000  0.500000  0.000000      4.000000
  0.333333  0.500000  0.000000      4.000000
  0.416667  0.500000  0.000000      4.000000
  0.500000  0.500000  0.000000      2.000000
  0.000000  0.083333  0.083333      4.000000
  0.083333  0.083333  0.083333      8.000000
  0.166667  0.083333  0.083333      8.000000
  0.250000  0.083333  0.083333      8.000000
  0.333333  0.083333  0.083333      8.000000
  0.416667  0.083333  0.083333      8.000000
  0.500000  0.083333  0.083333      4.000000
  0.000000  0.166667  0.083333      8.000000
  0.083333  0.166667  0.083333     16.000000
  0.166667  0.166667  0.083333     16.000000
  0.250000  0.166667  0.083333     16.000000
  0.333333  0.166667  0.083333     16.000000
  0.416667  0.166667  0.083333     16.000000
  0.500000  0.166667  0.083333      8.000000
  0.000000  0.250000  0.083333      8.000000
  0.083333  0.250000  0.083333     16.000000
  0.166667  0.250000  0.083333     16.000000
  0.250000  0.250000  0.083333     16.000000
  0.333333  0.250000  0.083333     16.000000
  0.416667  0.250000  0.083333     16.000000
  0.500000  0.250000  0.083333      8.000000
  0.000000  0.333333  0.083333      8.000000
  0.083333  0.333333  0.083333     16.000000
  0.166667  0.333333  0.083333     16.000000
  0.250000  0.333333  0.083333     16.000000
  0.333333  0.333333  0.083333     16.000000
  0.416667  0.333333  0.083333     16.000000
  0.500000  0.333333  0.083333      8.000000
  0.000000  0.416667  0.083333      8.000000
  0.083333  0.416667  0.083333     16.000000
  0.166667  0.416667  0.083333     16.000000
  0.250000  0.416667  0.083333     16.000000
  0.333333  0.416667  0.083333     16.000000
  0.416667  0.416667  0.083333     16.000000
  0.500000  0.416667  0.083333      8.000000
  0.000000  0.500000  0.083333      4.000000
  0.083333  0.500000  0.083333      8.000000
  0.166667  0.500000  0.083333      8.000000
  0.250000  0.500000  0.083333      8.000000
  0.333333  0.500000  0.083333      8.000000
  0.416667  0.500000  0.083333      8.000000
  0.500000  0.500000  0.083333      4.000000
  0.000000  0.166667  0.166667      4.000000
  0.083333  0.166667  0.166667      8.000000
  0.166667  0.166667  0.166667      8.000000
  0.250000  0.166667  0.166667      8.000000
  0.333333  0.166667  0.166667      8.000000
  0.416667  0.166667  0.166667      8.000000
  0.500000  0.166667  0.166667      4.000000
  0.000000  0.250000  0.166667      8.000000
  0.083333  0.250000  0.166667     16.000000
  0.166667  0.250000  0.166667     16.000000
  0.250000  0.250000  0.166667     16.000000
  0.333333  0.250000  0.166667     16.000000
  0.416667  0.250000  0.166667     16.000000
  0.500000  0.250000  0.166667      8.000000
  0.000000  0.333333  0.166667      8.000000
  0.083333  0.333333  0.166667     16.000000
  0.166667  0.333333  0.166667     16.000000
  0.250000  0.333333  0.166667     16.000000
  0.333333  0.333333  0.166667     16.000000
  0.416667  0.333333  0.166667     16.000000
  0.500000  0.333333  0.166667      8.000000
  0.000000  0.416667  0.166667      8.000000
  0.083333  0.416667  0.166667     16.000000
  0.166667  0.416667  0.166667     16.000000
  0.250000  0.416667  0.166667     16.000000
  0.333333  0.416667  0.166667     16.000000
  0.416667  0.416667  0.166667     16.000000
  0.500000  0.416667  0.166667      8.000000
  0.000000  0.500000  0.166667      4.000000
  0.083333  0.500000  0.166667      8.000000
  0.166667  0.500000  0.166667      8.000000
  0.250000  0.500000  0.166667      8.000000
  0.333333  0.500000  0.166667      8.000000
  0.416667  0.500000  0.166667      8.000000
  0.500000  0.500000  0.166667      4.000000
  0.000000  0.250000  0.250000      4.000000
  0.083333  0.250000  0.250000      8.000000
  0.166667  0.250000  0.250000      8.000000
  0.250000  0.250000  0.250000      8.000000
  0.333333  0.250000  0.250000      8.000000
  0.416667  0.250000  0.250000      8.000000
  0.500000  0.250000  0.250000      4.000000
  0.000000  0.333333  0.250000      8.000000
  0.083333  0.333333  0.250000     16.000000
  0.166667  0.333333  0.250000     16.000000
  0.250000  0.333333  0.250000     16.000000
  0.333333  0.333333  0.250000     16.000000
  0.416667  0.333333  0.250000     16.000000
  0.500000  0.333333  0.250000      8.000000
  0.000000  0.416667  0.250000      8.000000
  0.083333  0.416667  0.250000     16.000000
  0.166667  0.416667  0.250000     16.000000
  0.250000  0.416667  0.250000     16.000000
  0.333333  0.416667  0.250000     16.000000
  0.416667  0.416667  0.250000     16.000000
  0.500000  0.416667  0.250000      8.000000
  0.000000  0.500000  0.250000      4.000000
  0.083333  0.500000  0.250000      8.000000
  0.166667  0.500000  0.250000      8.000000
  0.250000  0.500000  0.250000      8.000000
  0.333333  0.500000  0.250000      8.000000
  0.416667  0.500000  0.250000      8.000000
  0.500000  0.500000  0.250000      4.000000
  0.000000  0.333333  0.333333      4.000000
  0.083333  0.333333  0.333333      8.000000
  0.166667  0.333333  0.333333      8.000000
  0.250000  0.333333  0.333333      8.000000
  0.333333  0.333333  0.333333      8.000000
  0.416667  0.333333  0.333333      8.000000
  0.500000  0.333333  0.333333      4.000000
  0.000000  0.416667  0.333333      8.000000
  0.083333  0.416667  0.333333     16.000000
  0.166667  0.416667  0.333333     16.000000
  0.250000  0.416667  0.333333     16.000000
  0.333333  0.416667  0.333333     16.000000
  0.416667  0.416667  0.333333     16.000000
  0.500000  0.416667  0.333333      8.000000
  0.000000  0.500000  0.333333      4.000000
  0.083333  0.500000  0.333333      8.000000
  0.166667  0.500000  0.333333      8.000000
  0.250000  0.500000  0.333333      8.000000
  0.333333  0.500000  0.333333      8.000000
  0.416667  0.500000  0.333333      8.000000
  0.500000  0.500000  0.333333      4.000000
  0.000000  0.416667  0.416667      4.000000
  0.083333  0.416667  0.416667      8.000000
  0.166667  0.416667  0.416667      8.000000
  0.250000  0.416667  0.416667      8.000000
  0.333333  0.416667  0.416667      8.000000
  0.416667  0.416667  0.416667      8.000000
  0.500000  0.416667  0.416667      4.000000
  0.000000  0.500000  0.416667      4.000000
  0.083333  0.500000  0.416667      8.000000
  0.166667  0.500000  0.416667      8.000000
  0.250000  0.500000  0.416667      8.000000
  0.333333  0.500000  0.416667      8.000000
  0.416667  0.500000  0.416667      8.000000
  0.500000  0.500000  0.416667      4.000000
  0.000000  0.500000  0.500000      1.000000
  0.083333  0.500000  0.500000      2.000000
  0.166667  0.500000  0.500000      2.000000
  0.250000  0.500000  0.500000      2.000000
  0.333333  0.500000  0.500000      2.000000
  0.416667  0.500000  0.500000      2.000000
  0.500000  0.500000  0.500000      1.000000
 
 Following cartesian coordinates:
            Coordinates               Weight
  0.000000  0.000000  0.000000      1.000000
  0.010118  0.000000  0.000000      2.000000
  0.020236  0.000000  0.000000      2.000000
  0.030354  0.000000  0.000000      2.000000
  0.040472  0.000000  0.000000      2.000000
  0.050590  0.000000  0.000000      2.000000
  0.060708  0.000000  0.000000      1.000000
  0.000000  0.010118  0.000000      4.000000
  0.010118  0.010118  0.000000      8.000000
  0.020236  0.010118  0.000000      8.000000
  0.030354  0.010118  0.000000      8.000000
  0.040472  0.010118  0.000000      8.000000
  0.050590  0.010118  0.000000      8.000000
  0.060708  0.010118  0.000000      4.000000
  0.000000  0.020236  0.000000      4.000000
  0.010118  0.020236  0.000000      8.000000
  0.020236  0.020236  0.000000      8.000000
  0.030354  0.020236  0.000000      8.000000
  0.040472  0.020236  0.000000      8.000000
  0.050590  0.020236  0.000000      8.000000
  0.060708  0.020236  0.000000      4.000000
  0.000000  0.030354  0.000000      4.000000
  0.010118  0.030354  0.000000      8.000000
  0.020236  0.030354  0.000000      8.000000
  0.030354  0.030354  0.000000      8.000000
  0.040472  0.030354  0.000000      8.000000
  0.050590  0.030354  0.000000      8.000000
  0.060708  0.030354  0.000000      4.000000
  0.000000  0.040472  0.000000      4.000000
  0.010118  0.040472  0.000000      8.000000
  0.020236  0.040472  0.000000      8.000000
  0.030354  0.040472  0.000000      8.000000
  0.040472  0.040472  0.000000      8.000000
  0.050590  0.040472  0.000000      8.000000
  0.060708  0.040472  0.000000      4.000000
  0.000000  0.050590  0.000000      4.000000
  0.010118  0.050590  0.000000      8.000000
  0.020236  0.050590  0.000000      8.000000
  0.030354  0.050590  0.000000      8.000000
  0.040472  0.050590  0.000000      8.000000
  0.050590  0.050590  0.000000      8.000000
  0.060708  0.050590  0.000000      4.000000
  0.000000  0.060708  0.000000      2.000000
  0.010118  0.060708  0.000000      4.000000
  0.020236  0.060708  0.000000      4.000000
  0.030354  0.060708  0.000000      4.000000
  0.040472  0.060708  0.000000      4.000000
  0.050590  0.060708  0.000000      4.000000
  0.060708  0.060708  0.000000      2.000000
  0.000000  0.010118  0.010118      4.000000
  0.010118  0.010118  0.010118      8.000000
  0.020236  0.010118  0.010118      8.000000
  0.030354  0.010118  0.010118      8.000000
  0.040472  0.010118  0.010118      8.000000
  0.050590  0.010118  0.010118      8.000000
  0.060708  0.010118  0.010118      4.000000
  0.000000  0.020236  0.010118      8.000000
  0.010118  0.020236  0.010118     16.000000
  0.020236  0.020236  0.010118     16.000000
  0.030354  0.020236  0.010118     16.000000
  0.040472  0.020236  0.010118     16.000000
  0.050590  0.020236  0.010118     16.000000
  0.060708  0.020236  0.010118      8.000000
  0.000000  0.030354  0.010118      8.000000
  0.010118  0.030354  0.010118     16.000000
  0.020236  0.030354  0.010118     16.000000
  0.030354  0.030354  0.010118     16.000000
  0.040472  0.030354  0.010118     16.000000
  0.050590  0.030354  0.010118     16.000000
  0.060708  0.030354  0.010118      8.000000
  0.000000  0.040472  0.010118      8.000000
  0.010118  0.040472  0.010118     16.000000
  0.020236  0.040472  0.010118     16.000000
  0.030354  0.040472  0.010118     16.000000
  0.040472  0.040472  0.010118     16.000000
  0.050590  0.040472  0.010118     16.000000
  0.060708  0.040472  0.010118      8.000000
  0.000000  0.050590  0.010118      8.000000
  0.010118  0.050590  0.010118     16.000000
  0.020236  0.050590  0.010118     16.000000
  0.030354  0.050590  0.010118     16.000000
  0.040472  0.050590  0.010118     16.000000
  0.050590  0.050590  0.010118     16.000000
  0.060708  0.050590  0.010118      8.000000
  0.000000  0.060708  0.010118      4.000000
  0.010118  0.060708  0.010118      8.000000
  0.020236  0.060708  0.010118      8.000000
  0.030354  0.060708  0.010118      8.000000
  0.040472  0.060708  0.010118      8.000000
  0.050590  0.060708  0.010118      8.000000
  0.060708  0.060708  0.010118      4.000000
  0.000000  0.020236  0.020236      4.000000
  0.010118  0.020236  0.020236      8.000000
  0.020236  0.020236  0.020236      8.000000
  0.030354  0.020236  0.020236      8.000000
  0.040472  0.020236  0.020236      8.000000
  0.050590  0.020236  0.020236      8.000000
  0.060708  0.020236  0.020236      4.000000
  0.000000  0.030354  0.020236      8.000000
  0.010118  0.030354  0.020236     16.000000
  0.020236  0.030354  0.020236     16.000000
  0.030354  0.030354  0.020236     16.000000
  0.040472  0.030354  0.020236     16.000000
  0.050590  0.030354  0.020236     16.000000
  0.060708  0.030354  0.020236      8.000000
  0.000000  0.040472  0.020236      8.000000
  0.010118  0.040472  0.020236     16.000000
  0.020236  0.040472  0.020236     16.000000
  0.030354  0.040472  0.020236     16.000000
  0.040472  0.040472  0.020236     16.000000
  0.050590  0.040472  0.020236     16.000000
  0.060708  0.040472  0.020236      8.000000
  0.000000  0.050590  0.020236      8.000000
  0.010118  0.050590  0.020236     16.000000
  0.020236  0.050590  0.020236     16.000000
  0.030354  0.050590  0.020236     16.000000
  0.040472  0.050590  0.020236     16.000000
  0.050590  0.050590  0.020236     16.000000
  0.060708  0.050590  0.020236      8.000000
  0.000000  0.060708  0.020236      4.000000
  0.010118  0.060708  0.020236      8.000000
  0.020236  0.060708  0.020236      8.000000
  0.030354  0.060708  0.020236      8.000000
  0.040472  0.060708  0.020236      8.000000
  0.050590  0.060708  0.020236      8.000000
  0.060708  0.060708  0.020236      4.000000
  0.000000  0.030354  0.030354      4.000000
  0.010118  0.030354  0.030354      8.000000
  0.020236  0.030354  0.030354      8.000000
  0.030354  0.030354  0.030354      8.000000
  0.040472  0.030354  0.030354      8.000000
  0.050590  0.030354  0.030354      8.000000
  0.060708  0.030354  0.030354      4.000000
  0.000000  0.040472  0.030354      8.000000
  0.010118  0.040472  0.030354     16.000000
  0.020236  0.040472  0.030354     16.000000
  0.030354  0.040472  0.030354     16.000000
  0.040472  0.040472  0.030354     16.000000
  0.050590  0.040472  0.030354     16.000000
  0.060708  0.040472  0.030354      8.000000
  0.000000  0.050590  0.030354      8.000000
  0.010118  0.050590  0.030354     16.000000
  0.020236  0.050590  0.030354     16.000000
  0.030354  0.050590  0.030354     16.000000
  0.040472  0.050590  0.030354     16.000000
  0.050590  0.050590  0.030354     16.000000
  0.060708  0.050590  0.030354      8.000000
  0.000000  0.060708  0.030354      4.000000
  0.010118  0.060708  0.030354      8.000000
  0.020236  0.060708  0.030354      8.000000
  0.030354  0.060708  0.030354      8.000000
  0.040472  0.060708  0.030354      8.000000
  0.050590  0.060708  0.030354      8.000000
  0.060708  0.060708  0.030354      4.000000
  0.000000  0.040472  0.040472      4.000000
  0.010118  0.040472  0.040472      8.000000
  0.020236  0.040472  0.040472      8.000000
  0.030354  0.040472  0.040472      8.000000
  0.040472  0.040472  0.040472      8.000000
  0.050590  0.040472  0.040472      8.000000
  0.060708  0.040472  0.040472      4.000000
  0.000000  0.050590  0.040472      8.000000
  0.010118  0.050590  0.040472     16.000000
  0.020236  0.050590  0.040472     16.000000
  0.030354  0.050590  0.040472     16.000000
  0.040472  0.050590  0.040472     16.000000
  0.050590  0.050590  0.040472     16.000000
  0.060708  0.050590  0.040472      8.000000
  0.000000  0.060708  0.040472      4.000000
  0.010118  0.060708  0.040472      8.000000
  0.020236  0.060708  0.040472      8.000000
  0.030354  0.060708  0.040472      8.000000
  0.040472  0.060708  0.040472      8.000000
  0.050590  0.060708  0.040472      8.000000
  0.060708  0.060708  0.040472      4.000000
  0.000000  0.050590  0.050590      4.000000
  0.010118  0.050590  0.050590      8.000000
  0.020236  0.050590  0.050590      8.000000
  0.030354  0.050590  0.050590      8.000000
  0.040472  0.050590  0.050590      8.000000
  0.050590  0.050590  0.050590      8.000000
  0.060708  0.050590  0.050590      4.000000
  0.000000  0.060708  0.050590      4.000000
  0.010118  0.060708  0.050590      8.000000
  0.020236  0.060708  0.050590      8.000000
  0.030354  0.060708  0.050590      8.000000
  0.040472  0.060708  0.050590      8.000000
  0.050590  0.060708  0.050590      8.000000
  0.060708  0.060708  0.050590      4.000000
  0.000000  0.060708  0.060708      1.000000
  0.010118  0.060708  0.060708      2.000000
  0.020236  0.060708  0.060708      2.000000
  0.030354  0.060708  0.060708      2.000000
  0.040472  0.060708  0.060708      2.000000
  0.050590  0.060708  0.060708      2.000000
  0.060708  0.060708  0.060708      1.000000
 


--------------------------------------------------------------------------------------------------------




 Dimension of arrays:
   k-Points           NKPTS =    196   number of bands    NBANDS=     68
   number of dos      NEDOS =    301   number of ions     NIONS =     32
   non local maximal  LDIM  =      4   non local SUM 2l+1 LMDIM =      8
   total plane-waves  NPLWV = 512000
   max r-space proj   IRMAX =      1   max aug-charges    IRDMAX= 285507
   dimension x,y,z NGX =    80 NGY =   80 NGZ =   80
   dimension x,y,z NGXF=   160 NGYF=  160 NGZF=  160
   support grid    NGXF=   320 NGYF=  320 NGZF=  320
   ions per type =              32
 NGX,Y,Z   is equivalent  to a cutoff of  16.15, 16.15, 16.15 a.u.
 NGXF,Y,Z  is equivalent  to a cutoff of  32.30, 32.30, 32.30 a.u.


 I would recommend the setting:
   dimension x,y,z NGX =    74 NGY =   74 NGZ =   74
 SYSTEM =  unknown system                          
 POSCAR =  Al                                      

 Startparameter for this run:
   NWRITE =      2    write-flag & timer
   PREC   = accura    medium, high low
   ISTART =      0    job   : 0-new  1-cont  2-samecut
   ICHARG =      2    charge: 1-file 2-atom 10-const
   ISPIN  =      1    spin polarized calculation?
   LNONCOLLINEAR =      F non collinear calculations
   LSORBIT =      F    spin-orbit coupling
   INIWAV =      1    electr: 0-lowe 1-rand  2-diag
   LASPH  =      F    aspherical Exc in radial PAW
   METAGGA=      F    non-selfconsistent MetaGGA calc.

 Electronic Relaxation 1
   ENCUT  =  750.0 eV  55.12 Ry    7.42 a.u.  18.39 18.39 18.39*2*pi/ulx,y,z
   ENINI  =  750.0     initial cutoff
   ENAUG  =  291.1 eV  augmentation charge cutoff
   NELM   =     60;   NELMIN=  2; NELMDL=  0     # of ELM steps 
   EDIFF  = 0.1E-07   stopping-criterion for ELM
   LREAL  =      F    real-space projection
   LCOMPAT=      F    compatible to vasp.4.4
   LREAL_COMPAT= F    compatible to vasp.4.5.1-3
   GGA_COMPAT  = T    GGA compatible to vasp.4.4-vasp.4.6
   LMAXPAW     = -100 max onsite density
   LMAXMIX     =    2 max onsite mixed and CHGCAR
   VOSKOWN=      0    Vosko Wilk Nusair interpolation
   ROPT   =    0.00000
 Ionic relaxation
   EDIFFG = 0.1E-06   stopping-criterion for IOM
   NSW    =      0    number of steps for IOM
   NBLOCK =      1;   KBLOCK =      1    inner block; outer block 
   IBRION =     -1    ionic relax: 0-MD 1-quasi-New 2-CG
   NFREE  =      0    steps in history (QN), initial steepest desc. (CG)
   ISIF   =      2    stress and relaxation
   IWAVPR =     10    prediction:  0-non 1-charg 2-wave 3-comb
   ISYM   =      2    0-nonsym 1-usesym 2-fastsym
   LCORR  =      T    Harris-Foulkes like correction to forces

   POTIM  =   0.50    time-step for ionic-motion
   TEIN   =    0.0    initial temperature
   TEBEG  =    0.0;   TEEND  =   0.0 temperature during run
   SMASS  =  -3.00    Nose mass-parameter (am)
   estimated Nose-frequenzy (Omega)   =  0.10E-29 period in steps =****** mass=  -0.155E-26a.u.
   NPACO  =    256;   APACO  = 16.0  distance and # of slots for P.C.
   PSTRESS=    0.0 pullay stress

  Mass of Ions in am
   POMASS =  26.98
  Ionic Valenz
   ZVAL   =   3.00
  Atomic Wigner-Seitz radii
   RWIGS  =  -1.00
   NELECT =      96.0000    total number of electrons
   NUPDOWN=      -1.0000    fix difference up-down

 DOS related values:
   EMIN   =  10.00;   EMAX   =-10.00  energy-range for DOS
   ISMEAR =     0;   SIGMA  =   0.01  broadening in eV -4-tet -1-fermi 0-gaus

 Electronic relaxation 2 (details)
   IALGO  =     38    algorithm
   LDIAG  =      T    sub-space diagonalisation
   IMIX   =      4    mixing-type and parameters
     AMIX     =   0.40;   BMIX     =  1.00
     AMIX_MAG =   1.60;   BMIX_MAG =  1.00
     AMIN     =   0.10
     WC   =   100.;   INIMIX=   1;  MIXPRE=   1

 Intra band minimization:
   WEIMIN = 0.0000     energy-eigenvalue tresh-hold
   EBREAK =  0.38E-10  absolut break condition
   DEPER  =   0.30     relativ break condition  

   TIME   =   0.10     timestep for ELM

  volume/ion in A,a.u.               =      17.46       117.82
  Fermi-wavevector in a.u.,eV,Ry     =   0.910144 11.270547  0.828362

 Second variation
   LSECVAR=     F    do a second variation
 
 Write flags
   LWAVE  =      F    write WAVECAR
   LCHARG =      F    write CHGCAR
   LVTOT  =      F    write LOCPOT, local potential
   LELF   =      F    write electronic localiz. function (ELF)
   LORBIT =      0    0 simple, 1 ext, 2 COOP (PROOUT)


 Dipole corrections
   IDIPOL =      0    1-x, 2-y, 3-z
   LDIPOL =      F    correct potential



--------------------------------------------------------------------------------------------------------


 Static calculation
 charge density will be updated during run
 non-spin polarized calculation
 Variant of blocked Davidson
 Davidson routine will perform the subspace rotation
 performe sub-space diagonalisation
    after iterative eigenvector-optimisation
 modified Broyden-mixing scheme, WC =      100.0
 initial mixing is a Kerker type mixing with AMIX =  0.4000 and BMIX =      1.0000
 Hartree-type preconditioning will be used
 using additional bands           20
 reciprocal scheme for non local part
 use partial core corrections
 calculate Harris-corrections to forces 
   (improved forces if not selfconsistent)
 use gradient corrections 
 use of overlap-Matrix (Vanderbilt PP)
 Gauss-broadening in eV      SIGMA  =   0.01


--------------------------------------------------------------------------------------------------------


  energy-cutoff  :      750.00
  volume of cell :      558.68
      direct lattice vectors                 reciprocal lattice vectors
     8.236104994  0.000000000  0.000000000     0.121416616  0.000000000  0.000000000
     0.000000000  8.236104994  0.000000000     0.000000000  0.121416616  0.000000000
     0.000000000  0.000000000  8.236104994     0.000000000  0.000000000  0.121416616

  length of vectors
     8.236104994  8.236104994  8.236104994     0.121416616  0.121416616  0.121416616


 
 k-points in units of 2pi/SCALE and weight: Automatic mesh                          
   0.00000000  0.00000000  0.00000000       0.001
   0.01011805  0.00000000  0.00000000       0.001
   0.02023610  0.00000000  0.00000000       0.001
   0.03035415  0.00000000  0.00000000       0.001
   0.04047221  0.00000000  0.00000000       0.001
   0.05059026  0.00000000  0.00000000       0.001
   0.06070831  0.00000000  0.00000000       0.001
   0.00000000  0.01011805  0.00000000       0.002
   0.01011805  0.01011805  0.00000000       0.005
   0.02023610  0.01011805  0.00000000       0.005
   0.03035415  0.01011805  0.00000000       0.005
   0.04047221  0.01011805  0.00000000       0.005
   0.05059026  0.01011805  0.00000000       0.005
   0.06070831  0.01011805  0.00000000       0.002
   0.00000000  0.02023610  0.00000000       0.002
   0.01011805  0.02023610  0.00000000       0.005
   0.02023610  0.02023610  0.00000000       0.005
   0.03035415  0.02023610  0.00000000       0.005
   0.04047221  0.02023610  0.00000000       0.005
   0.05059026  0.02023610  0.00000000       0.005
   0.06070831  0.02023610  0.00000000       0.002
   0.00000000  0.03035415  0.00000000       0.002
   0.01011805  0.03035415  0.00000000       0.005
   0.02023610  0.03035415  0.00000000       0.005
   0.03035415  0.03035415  0.00000000       0.005
   0.04047221  0.03035415  0.00000000       0.005
   0.05059026  0.03035415  0.00000000       0.005
   0.06070831  0.03035415  0.00000000       0.002
   0.00000000  0.04047221  0.00000000       0.002
   0.01011805  0.04047221  0.00000000       0.005
   0.02023610  0.04047221  0.00000000       0.005
   0.03035415  0.04047221  0.00000000       0.005
   0.04047221  0.04047221  0.00000000       0.005
   0.05059026  0.04047221  0.00000000       0.005
   0.06070831  0.04047221  0.00000000       0.002
   0.00000000  0.05059026  0.00000000       0.002
   0.01011805  0.05059026  0.00000000       0.005
   0.02023610  0.05059026  0.00000000       0.005
   0.03035415  0.05059026  0.00000000       0.005
   0.04047221  0.05059026  0.00000000       0.005
   0.05059026  0.05059026  0.00000000       0.005
   0.06070831  0.05059026  0.00000000       0.002
   0.00000000  0.06070831  0.00000000       0.001
   0.01011805  0.06070831  0.00000000       0.002
   0.02023610  0.06070831  0.00000000       0.002
   0.03035415  0.06070831  0.00000000       0.002
   0.04047221  0.06070831  0.00000000       0.002
   0.05059026  0.06070831  0.00000000       0.002
   0.06070831  0.06070831  0.00000000       0.001
   0.00000000  0.01011805  0.01011805       0.002
   0.01011805  0.01011805  0.01011805       0.005
   0.02023610  0.01011805  0.01011805       0.005
   0.03035415  0.01011805  0.01011805       0.005
   0.04047221  0.01011805  0.01011805       0.005
   0.05059026  0.01011805  0.01011805       0.005
   0.06070831  0.01011805  0.01011805       0.002
   0.00000000  0.02023610  0.01011805       0.005
   0.01011805  0.02023610  0.01011805       0.009
   0.02023610  0.02023610  0.01011805       0.009
   0.03035415  0.02023610  0.01011805       0.009
   0.04047221  0.02023610  0.01011805       0.009
   0.05059026  0.02023610  0.01011805       0.009
   0.06070831  0.02023610  0.01011805       0.005
   0.00000000  0.03035415  0.01011805       0.005
   0.01011805  0.03035415  0.01011805       0.009
   0.02023610  0.03035415  0.01011805       0.009
   0.03035415  0.03035415  0.01011805       0.009
   0.04047221  0.03035415  0.01011805       0.009
   0.05059026  0.03035415  0.01011805       0.009
   0.06070831  0.03035415  0.01011805       0.005
   0.00000000  0.04047221  0.01011805       0.005
   0.01011805  0.04047221  0.01011805       0.009
   0.02023610  0.04047221  0.01011805       0.009
   0.03035415  0.04047221  0.01011805       0.009
   0.04047221  0.04047221  0.01011805       0.009
   0.05059026  0.04047221  0.01011805       0.009
   0.06070831  0.04047221  0.01011805       0.005
   0.00000000  0.05059026  0.01011805       0.005
   0.01011805  0.05059026  0.01011805       0.009
   0.02023610  0.05059026  0.01011805       0.009
   0.03035415  0.05059026  0.01011805       0.009
   0.04047221  0.05059026  0.01011805       0.009
   0.05059026  0.05059026  0.01011805       0.009
   0.06070831  0.05059026  0.01011805       0.005
   0.00000000  0.06070831  0.01011805       0.002
   0.01011805  0.06070831  0.01011805       0.005
   0.02023610  0.06070831  0.01011805       0.005
   0.03035415  0.06070831  0.01011805       0.005
   0.04047221  0.06070831  0.01011805       0.005
   0.05059026  0.06070831  0.01011805       0.005
   0.06070831  0.06070831  0.01011805       0.002
   0.00000000  0.02023610  0.02023610       0.002
   0.01011805  0.02023610  0.02023610       0.005
   0.02023610  0.02023610  0.02023610       0.005
   0.03035415  0.02023610  0.02023610       0.005
   0.04047221  0.02023610  0.02023610       0.005
   0.05059026  0.02023610  0.02023610       0.005
   0.06070831  0.02023610  0.02023610       0.002
   0.00000000  0.03035415  0.02023610       0.005
   0.01011805  0.03035415  0.02023610       0.009
   0.02023610  0.03035415  0.02023610       0.009
   0.03035415  0.03035415  0.02023610       0.009
   0.04047221  0.03035415  0.02023610       0.009
   0.05059026  0.03035415  0.02023610       0.009
   0.06070831  0.03035415  0.02023610       0.005
   0.00000000  0.04047221  0.02023610       0.005
   0.01011805  0.04047221  0.02023610       0.009
   0.02023610  0.04047221  0.02023610       0.009
   0.03035415  0.04047221  0.02023610       0.009
   0.04047221  0.04047221  0.02023610       0.009
   0.05059026  0.04047221  0.02023610       0.009
   0.06070831  0.04047221  0.02023610       0.005
   0.00000000  0.05059026  0.02023610       0.005
   0.01011805  0.05059026  0.02023610       0.009
   0.02023610  0.05059026  0.02023610       0.009
   0.03035415  0.05059026  0.02023610       0.009
   0.04047221  0.05059026  0.02023610       0.009
   0.05059026  0.05059026  0.02023610       0.009
   0.06070831  0.05059026  0.02023610       0.005
   0.00000000  0.06070831  0.02023610       0.002
   0.01011805  0.06070831  0.02023610       0.005
   0.02023610  0.06070831  0.02023610       0.005
   0.03035415  0.06070831  0.02023610       0.005
   0.04047221  0.06070831  0.02023610       0.005
   0.05059026  0.06070831  0.02023610       0.005
   0.06070831  0.06070831  0.02023610       0.002
   0.00000000  0.03035415  0.03035415       0.002
   0.01011805  0.03035415  0.03035415       0.005
   0.02023610  0.03035415  0.03035415       0.005
   0.03035415  0.03035415  0.03035415       0.005
   0.04047221  0.03035415  0.03035415       0.005
   0.05059026  0.03035415  0.03035415       0.005
   0.06070831  0.03035415  0.03035415       0.002
   0.00000000  0.04047221  0.03035415       0.005
   0.01011805  0.04047221  0.03035415       0.009
   0.02023610  0.04047221  0.03035415       0.009
   0.03035415  0.04047221  0.03035415       0.009
   0.04047221  0.04047221  0.03035415       0.009
   0.05059026  0.04047221  0.03035415       0.009
   0.06070831  0.04047221  0.03035415       0.005
   0.00000000  0.05059026  0.03035415       0.005
   0.01011805  0.05059026  0.03035415       0.009
   0.02023610  0.05059026  0.03035415       0.009
   0.03035415  0.05059026  0.03035415       0.009
   0.04047221  0.05059026  0.03035415       0.009
   0.05059026  0.05059026  0.03035415       0.009
   0.06070831  0.05059026  0.03035415       0.005
   0.00000000  0.06070831  0.03035415       0.002
   0.01011805  0.06070831  0.03035415       0.005
   0.02023610  0.06070831  0.03035415       0.005
   0.03035415  0.06070831  0.03035415       0.005
   0.04047221  0.06070831  0.03035415       0.005
   0.05059026  0.06070831  0.03035415       0.005
   0.06070831  0.06070831  0.03035415       0.002
   0.00000000  0.04047221  0.04047221       0.002
   0.01011805  0.04047221  0.04047221       0.005
   0.02023610  0.04047221  0.04047221       0.005
   0.03035415  0.04047221  0.04047221       0.005
   0.04047221  0.04047221  0.04047221       0.005
   0.05059026  0.04047221  0.04047221       0.005
   0.06070831  0.04047221  0.04047221       0.002
   0.00000000  0.05059026  0.04047221       0.005
   0.01011805  0.05059026  0.04047221       0.009
   0.02023610  0.05059026  0.04047221       0.009
   0.03035415  0.05059026  0.04047221       0.009
   0.04047221  0.05059026  0.04047221       0.009
   0.05059026  0.05059026  0.04047221       0.009
   0.06070831  0.05059026  0.04047221       0.005
   0.00000000  0.06070831  0.04047221       0.002
   0.01011805  0.06070831  0.04047221       0.005
   0.02023610  0.06070831  0.04047221       0.005
   0.03035415  0.06070831  0.04047221       0.005
   0.04047221  0.06070831  0.04047221       0.005
   0.05059026  0.06070831  0.04047221       0.005
   0.06070831  0.06070831  0.04047221       0.002
   0.00000000  0.05059026  0.05059026       0.002
   0.01011805  0.05059026  0.05059026       0.005
   0.02023610  0.05059026  0.05059026       0.005
   0.03035415  0.05059026  0.05059026       0.005
   0.04047221  0.05059026  0.05059026       0.005
   0.05059026  0.05059026  0.05059026       0.005
   0.06070831  0.05059026  0.05059026       0.002
   0.00000000  0.06070831  0.05059026       0.002
   0.01011805  0.06070831  0.05059026       0.005
   0.02023610  0.06070831  0.05059026       0.005
   0.03035415  0.06070831  0.05059026       0.005
   0.04047221  0.06070831  0.05059026       0.005
   0.05059026  0.06070831  0.05059026       0.005
   0.06070831  0.06070831  0.05059026       0.002
   0.00000000  0.06070831  0.06070831       0.001
   0.01011805  0.06070831  0.06070831       0.001
   0.02023610  0.06070831  0.06070831       0.001
   0.03035415  0.06070831  0.06070831       0.001
   0.04047221  0.06070831  0.06070831       0.001
   0.05059026  0.06070831  0.06070831       0.001
   0.06070831  0.06070831  0.06070831       0.001
 
 k-points in reciprocal lattice and weights: Automatic mesh                          
   0.00000000  0.00000000  0.00000000       0.001
   0.08333333  0.00000000  0.00000000       0.001
   0.16666667  0.00000000  0.00000000       0.001
   0.25000000  0.00000000  0.00000000       0.001
   0.33333333  0.00000000  0.00000000       0.001
   0.41666667  0.00000000  0.00000000       0.001
   0.50000000  0.00000000  0.00000000       0.001
   0.00000000  0.08333333  0.00000000       0.002
   0.08333333  0.08333333  0.00000000       0.005
   0.16666667  0.08333333  0.00000000       0.005
   0.25000000  0.08333333  0.00000000       0.005
   0.33333333  0.08333333  0.00000000       0.005
   0.41666667  0.08333333  0.00000000       0.005
   0.50000000  0.08333333  0.00000000       0.002
   0.00000000  0.16666667  0.00000000       0.002
   0.08333333  0.16666667  0.00000000       0.005
   0.16666667  0.16666667  0.00000000       0.005
   0.25000000  0.16666667  0.00000000       0.005
   0.33333333  0.16666667  0.00000000       0.005
   0.41666667  0.16666667  0.00000000       0.005
   0.50000000  0.16666667  0.00000000       0.002
   0.00000000  0.25000000  0.00000000       0.002
   0.08333333  0.25000000  0.00000000       0.005
   0.16666667  0.25000000  0.00000000       0.005
   0.25000000  0.25000000  0.00000000       0.005
   0.33333333  0.25000000  0.00000000       0.005
   0.41666667  0.25000000  0.00000000       0.005
   0.50000000  0.25000000  0.00000000       0.002
   0.00000000  0.33333333  0.00000000       0.002
   0.08333333  0.33333333  0.00000000       0.005
   0.16666667  0.33333333  0.00000000       0.005
   0.25000000  0.33333333  0.00000000       0.005
   0.33333333  0.33333333  0.00000000       0.005
   0.41666667  0.33333333  0.00000000       0.005
   0.50000000  0.33333333  0.00000000       0.002
   0.00000000  0.41666667  0.00000000       0.002
   0.08333333  0.41666667  0.00000000       0.005
   0.16666667  0.41666667  0.00000000       0.005
   0.25000000  0.41666667  0.00000000       0.005
   0.33333333  0.41666667  0.00000000       0.005
   0.41666667  0.41666667  0.00000000       0.005
   0.50000000  0.41666667  0.00000000       0.002
   0.00000000  0.50000000  0.00000000       0.001
   0.08333333  0.50000000  0.00000000       0.002
   0.16666667  0.50000000  0.00000000       0.002
   0.25000000  0.50000000  0.00000000       0.002
   0.33333333  0.50000000  0.00000000       0.002
   0.41666667  0.50000000  0.00000000       0.002
   0.50000000  0.50000000  0.00000000       0.001
   0.00000000  0.08333333  0.08333333       0.002
   0.08333333  0.08333333  0.08333333       0.005
   0.16666667  0.08333333  0.08333333       0.005
   0.25000000  0.08333333  0.08333333       0.005
   0.33333333  0.08333333  0.08333333       0.005
   0.41666667  0.08333333  0.08333333       0.005
   0.50000000  0.08333333  0.08333333       0.002
   0.00000000  0.16666667  0.08333333       0.005
   0.08333333  0.16666667  0.08333333       0.009
   0.16666667  0.16666667  0.08333333       0.009
   0.25000000  0.16666667  0.08333333       0.009
   0.33333333  0.16666667  0.08333333       0.009
   0.41666667  0.16666667  0.08333333       0.009
   0.50000000  0.16666667  0.08333333       0.005
   0.00000000  0.25000000  0.08333333       0.005
   0.08333333  0.25000000  0.08333333       0.009
   0.16666667  0.25000000  0.08333333       0.009
   0.25000000  0.25000000  0.08333333       0.009
   0.33333333  0.25000000  0.08333333       0.009
   0.41666667  0.25000000  0.08333333       0.009
   0.50000000  0.25000000  0.08333333       0.005
   0.00000000  0.33333333  0.08333333       0.005
   0.08333333  0.33333333  0.08333333       0.009
   0.16666667  0.33333333  0.08333333       0.009
   0.25000000  0.33333333  0.08333333       0.009
   0.33333333  0.33333333  0.08333333       0.009
   0.41666667  0.33333333  0.08333333       0.009
   0.50000000  0.33333333  0.08333333       0.005
   0.00000000  0.41666667  0.08333333       0.005
   0.08333333  0.41666667  0.08333333       0.009
   0.16666667  0.41666667  0.08333333       0.009
   0.25000000  0.41666667  0.08333333       0.009
   0.33333333  0.41666667  0.08333333       0.009
   0.41666667  0.41666667  0.08333333       0.009
   0.50000000  0.41666667  0.08333333       0.005
   0.00000000  0.50000000  0.08333333       0.002
   0.08333333  0.50000000  0.08333333       0.005
   0.16666667  0.50000000  0.08333333       0.005
   0.25000000  0.50000000  0.08333333       0.005
   0.33333333  0.50000000  0.08333333       0.005
   0.41666667  0.50000000  0.08333333       0.005
   0.50000000  0.50000000  0.08333333       0.002
   0.00000000  0.16666667  0.16666667       0.002
   0.08333333  0.16666667  0.16666667       0.005
   0.16666667  0.16666667  0.16666667       0.005
   0.25000000  0.16666667  0.16666667       0.005
   0.33333333  0.16666667  0.16666667       0.005
   0.41666667  0.16666667  0.16666667       0.005
   0.50000000  0.16666667  0.16666667       0.002
   0.00000000  0.25000000  0.16666667       0.005
   0.08333333  0.25000000  0.16666667       0.009
   0.16666667  0.25000000  0.16666667       0.009
   0.25000000  0.25000000  0.16666667       0.009
   0.33333333  0.25000000  0.16666667       0.009
   0.41666667  0.25000000  0.16666667       0.009
   0.50000000  0.25000000  0.16666667       0.005
   0.00000000  0.33333333  0.16666667       0.005
   0.08333333  0.33333333  0.16666667       0.009
   0.16666667  0.33333333  0.16666667       0.009
   0.25000000  0.33333333  0.16666667       0.009
   0.33333333  0.33333333  0.16666667       0.009
   0.41666667  0.33333333  0.16666667       0.009
   0.50000000  0.33333333  0.16666667       0.005
   0.00000000  0.41666667  0.16666667       0.005
   0.08333333  0.41666667  0.16666667       0.009
   0.16666667  0.41666667  0.16666667       0.009
   0.25000000  0.41666667  0.16666667       0.009
   0.33333333  0.41666667  0.16666667       0.009
   0.41666667  0.41666667  0.16666667       0.009
   0.50000000  0.41666667  0.16666667       0.005
   0.00000000  0.50000000  0.16666667       0.002
   0.08333333  0.50000000  0.16666667       0.005
   0.16666667  0.50000000  0.16666667       0.005
   0.25000000  0.50000000  0.16666667       0.005
   0.33333333  0.50000000  0.16666667       0.005
   0.41666667  0.50000000  0.16666667       0.005
   0.50000000  0.50000000  0.16666667       0.002
   0.00000000  0.25000000  0.25000000       0.002
   0.08333333  0.25000000  0.25000000       0.005
   0.16666667  0.25000000  0.25000000       0.005
   0.25000000  0.25000000  0.25000000       0.005
   0.33333333  0.25000000  0.25000000       0.005
   0.41666667  0.25000000  0.25000000       0.005
   0.50000000  0.25000000  0.25000000       0.002
   0.00000000  0.33333333  0.25000000       0.005
   0.08333333  0.33333333  0.25000000       0.009
   0.16666667  0.33333333  0.25000000       0.009
   0.25000000  0.33333333  0.25000000       0.009
   0.33333333  0.33333333  0.25000000       0.009
   0.41666667  0.33333333  0.25000000       0.009
   0.50000000  0.33333333  0.25000000       0.005
   0.00000000  0.41666667  0.25000000       0.005
   0.08333333  0.41666667  0.25000000       0.009
   0.16666667  0.41666667  0.25000000       0.009
   0.25000000  0.41666667  0.25000000       0.009
   0.33333333  0.41666667  0.25000000       0.009
   0.41666667  0.41666667  0.25000000       0.009
   0.50000000  0.41666667  0.25000000       0.005
   0.00000000  0.50000000  0.25000000       0.002
   0.08333333  0.50000000  0.25000000       0.005
   0.16666667  0.50000000  0.25000000       0.005
   0.25000000  0.50000000  0.25000000       0.005
   0.33333333  0.50000000  0.25000000       0.005
   0.41666667  0.50000000  0.25000000       0.005
   0.50000000  0.50000000  0.25000000       0.002
   0.00000000  0.33333333  0.33333333       0.002
   0.08333333  0.33333333  0.33333333       0.005
   0.16666667  0.33333333  0.33333333       0.005
   0.25000000  0.33333333  0.33333333       0.005
   0.33333333  0.33333333  0.33333333       0.005
   0.41666667  0.33333333  0.33333333       0.005
   0.50000000  0.33333333  0.33333333       0.002
   0.00000000  0.41666667  0.33333333       0.005
   0.08333333  0.41666667  0.33333333       0.009
   0.16666667  0.41666667  0.33333333       0.009
   0.25000000  0.41666667  0.33333333       0.009
   0.33333333  0.41666667  0.33333333       0.009
   0.41666667  0.41666667  0.33333333       0.009
   0.50000000  0.41666667  0.33333333       0.005
   0.00000000  0.50000000  0.33333333       0.002
   0.08333333  0.50000000  0.33333333       0.005
   0.16666667  0.50000000  0.33333333       0.005
   0.25000000  0.50000000  0.33333333       0.005
   0.33333333  0.50000000  0.33333333       0.005
   0.41666667  0.50000000  0.33333333       0.005
   0.50000000  0.50000000  0.33333333       0.002
   0.00000000  0.41666667  0.41666667       0.002
   0.08333333  0.41666667  0.41666667       0.005
   0.16666667  0.41666667  0.41666667       0.005
   0.25000000  0.41666667  0.41666667       0.005
   0.33333333  0.41666667  0.41666667       0.005
   0.41666667  0.41666667  0.41666667       0.005
   0.50000000  0.41666667  0.41666667       0.002
   0.00000000  0.50000000  0.41666667       0.002
   0.08333333  0.50000000  0.41666667       0.005
   0.16666667  0.50000000  0.41666667       0.005
   0.25000000  0.50000000  0.41666667       0.005
   0.33333333  0.50000000  0.41666667       0.005
   0.41666667  0.50000000  0.41666667       0.005
   0.50000000  0.50000000  0.41666667       0.002
   0.00000000  0.50000000  0.50000000       0.001
   0.08333333  0.50000000  0.50000000       0.001
   0.16666667  0.50000000  0.50000000       0.001
   0.25000000  0.50000000  0.50000000       0.001
   0.33333333  0.50000000  0.50000000       0.001
   0.41666667  0.50000000  0.50000000       0.001
   0.50000000  0.50000000  0.50000000       0.001
 
 position of ions in fractional coordinates (direct lattice) 
   0.25121417  0.25000000  0.00000000
   0.75000000  0.25000000  0.00000000
   0.25000000  0.75000000  0.00000000
   0.75000000  0.75000000  0.00000000
   0.25000000  0.25000000  0.50000000
   0.75000000  0.25000000  0.50000000
   0.25000000  0.75000000  0.50000000
   0.75000000  0.75000000  0.50000000
   0.25000000  0.00000000  0.25000000
   0.75000000  0.00000000  0.25000000
   0.25000000  0.50000000  0.25000000
   0.75000000  0.50000000  0.25000000
   0.25000000  0.00000000  0.75000000
   0.75000000  0.00000000  0.75000000
   0.25000000  0.50000000  0.75000000
   0.75000000  0.50000000  0.75000000
   0.00000000  0.25000000  0.25000000
   0.50000000  0.25000000  0.25000000
   0.00000000  0.75000000  0.25000000
   0.50000000  0.75000000  0.25000000
   0.00000000  0.25000000  0.75000000
   0.50000000  0.25000000  0.75000000
   0.00000000  0.75000000  0.75000000
   0.50000000  0.75000000  0.75000000
   0.00000000  0.00000000  0.00000000
   0.50000000  0.00000000  0.00000000
   0.00000000  0.50000000  0.00000000
   0.50000000  0.50000000  0.00000000
   0.00000000  0.00000000  0.50000000
   0.50000000  0.00000000  0.50000000
   0.00000000  0.50000000  0.50000000
   0.50000000  0.50000000  0.50000000
 
 position of ions in cartesian coordinates  (Angst):
   2.06902625  2.05902625  0.00000000
   6.17707875  2.05902625  0.00000000
   2.05902625  6.17707875  0.00000000
   6.17707875  6.17707875  0.00000000
   2.05902625  2.05902625  4.11805250
   6.17707875  2.05902625  4.11805250
   2.05902625  6.17707875  4.11805250
   6.17707875  6.17707875  4.11805250
   2.05902625  0.00000000  2.05902625
   6.17707875  0.00000000  2.05902625
   2.05902625  4.11805250  2.05902625
   6.17707875  4.11805250  2.05902625
   2.05902625  0.00000000  6.17707875
   6.17707875  0.00000000  6.17707875
   2.05902625  4.11805250  6.17707875
   6.17707875  4.11805250  6.17707875
   0.00000000  2.05902625  2.05902625
   4.11805250  2.05902625  2.05902625
   0.00000000  6.17707875  2.05902625
   4.11805250  6.17707875  2.05902625
   0.00000000  2.05902625  6.17707875
   4.11805250  2.05902625  6.17707875
   0.00000000  6.17707875  6.17707875
   4.11805250  6.17707875  6.17707875
   0.00000000  0.00000000  0.00000000
   4.11805250  0.00000000  0.00000000
   0.00000000  4.11805250  0.00000000
   4.11805250  4.11805250  0.00000000
   0.00000000  0.00000000  4.11805250
   4.11805250  0.00000000  4.11805250
   0.00000000  4.11805250  4.11805250
   4.11805250  4.11805250  4.11805250
 


--------------------------------------------------------------------------------------------------------


 k-point  1 :  0.00000.00000.0000  plane waves:  26001
 k-point  2 :  0.08330.00000.0000  plane waves:  25981
 k-point  3 :  0.16670.00000.0000  plane waves:  26049
 k-point  4 :  0.25000.00000.0000  plane waves:  26089
 k-point  5 :  0.33330.00000.0000  plane waves:  26069
 k-point  6 :  0.41670.00000.0000  plane waves:  26092
 k-point  7 :  0.50000.00000.0000  plane waves:  26084
 k-point  8 :  0.00000.08330.0000  plane waves:  25981
 k-point  9 :  0.08330.08330.0000  plane waves:  26032
 k-point 10 :  0.16670.08330.0000  plane waves:  26056
 k-point 11 :  0.25000.08330.0000  plane waves:  26058
 k-point 12 :  0.33330.08330.0000  plane waves:  26081
 k-point 13 :  0.41670.08330.0000  plane waves:  26091
 k-point 14 :  0.50000.08330.0000  plane waves:  26070
 k-point 15 :  0.00000.16670.0000  plane waves:  26049
 k-point 16 :  0.08330.16670.0000  plane waves:  26056
 k-point 17 :  0.16670.16670.0000  plane waves:  26062
 k-point 18 :  0.25000.16670.0000  plane waves:  26066
 k-point 19 :  0.33330.16670.0000  plane waves:  26070
 k-point 20 :  0.41670.16670.0000  plane waves:  26070
 k-point 21 :  0.50000.16670.0000  plane waves:  26060
 k-point 22 :  0.00000.25000.0000  plane waves:  26089
 k-point 23 :  0.08330.25000.0000  plane waves:  26058
 k-point 24 :  0.16670.25000.0000  plane waves:  26066
 k-point 25 :  0.25000.25000.0000  plane waves:  26078
 k-point 26 :  0.33330.25000.0000  plane waves:  26061
 k-point 27 :  0.41670.25000.0000  plane waves:  26050
 k-point 28 :  0.50000.25000.0000  plane waves:  26068
 k-point 29 :  0.00000.33330.0000  plane waves:  26069
 k-point 30 :  0.08330.33330.0000  plane waves:  26081
 k-point 31 :  0.16670.33330.0000  plane waves:  26070
 k-point 32 :  0.25000.33330.0000  plane waves:  26061
 k-point 33 :  0.33330.33330.0000  plane waves:  26120
 k-point 34 :  0.41670.33330.0000  plane waves:  26069
 k-point 35 :  0.50000.33330.0000  plane waves:  26056
 k-point 36 :  0.00000.41670.0000  plane waves:  26092
 k-point 37 :  0.08330.41670.0000  plane waves:  26091
 k-point 38 :  0.16670.41670.0000  plane waves:  26070
 k-point 39 :  0.25000.41670.0000  plane waves:  26050
 k-point 40 :  0.33330.41670.0000  plane waves:  26069
 k-point 41 :  0.41670.41670.0000  plane waves:  26060
 k-point 42 :  0.50000.41670.0000  plane waves:  26050
 k-point 43 :  0.00000.50000.0000  plane waves:  26084
 k-point 44 :  0.08330.50000.0000  plane waves:  26070
 k-point 45 :  0.16670.50000.0000  plane waves:  26060
 k-point 46 :  0.25000.50000.0000  plane waves:  26068
 k-point 47 :  0.33330.50000.0000  plane waves:  26056
 k-point 48 :  0.41670.50000.0000  plane waves:  26050
 k-point 49 :  0.50000.50000.0000  plane waves:  26060
 k-point 50 :  0.00000.08330.0833  plane waves:  26032
 k-point 51 :  0.08330.08330.0833  plane waves:  26052
 k-point 52 :  0.16670.08330.0833  plane waves:  26055
 k-point 53 :  0.25000.08330.0833  plane waves:  26065
 k-point 54 :  0.33330.08330.0833  plane waves:  26081
 k-point 55 :  0.41670.08330.0833  plane waves:  26086
 k-point 56 :  0.50000.08330.0833  plane waves:  26078
 k-point 57 :  0.00000.16670.0833  plane waves:  26056
 k-point 58 :  0.08330.16670.0833  plane waves:  26055
 k-point 59 :  0.16670.16670.0833  plane waves:  26083
 k-point 60 :  0.25000.16670.0833  plane waves:  26063
 k-point 61 :  0.33330.16670.0833  plane waves:  26076
 k-point 62 :  0.41670.16670.0833  plane waves:  26060
 k-point 63 :  0.50000.16670.0833  plane waves:  26054
 k-point 64 :  0.00000.25000.0833  plane waves:  26058
 k-point 65 :  0.08330.25000.0833  plane waves:  26065
 k-point 66 :  0.16670.25000.0833  plane waves:  26063
 k-point 67 :  0.25000.25000.0833  plane waves:  26086
 k-point 68 :  0.33330.25000.0833  plane waves:  26074
 k-point 69 :  0.41670.25000.0833  plane waves:  26054
 k-point 70 :  0.50000.25000.0833  plane waves:  26074
 k-point 71 :  0.00000.33330.0833  plane waves:  26081
 k-point 72 :  0.08330.33330.0833  plane waves:  26081
 k-point 73 :  0.16670.33330.0833  plane waves:  26076
 k-point 74 :  0.25000.33330.0833  plane waves:  26074
 k-point 75 :  0.33330.33330.0833  plane waves:  26069
 k-point 76 :  0.41670.33330.0833  plane waves:  26053
 k-point 77 :  0.50000.33330.0833  plane waves:  26056
 k-point 78 :  0.00000.41670.0833  plane waves:  26091
 k-point 79 :  0.08330.41670.0833  plane waves:  26086
 k-point 80 :  0.16670.41670.0833  plane waves:  26060
 k-point 81 :  0.25000.41670.0833  plane waves:  26054
 k-point 82 :  0.33330.41670.0833  plane waves:  26053
 k-point 83 :  0.41670.41670.0833  plane waves:  26050
 k-point 84 :  0.50000.41670.0833  plane waves:  26044
 k-point 85 :  0.00000.50000.0833  plane waves:  26070
 k-point 86 :  0.08330.50000.0833  plane waves:  26078
 k-point 87 :  0.16670.50000.0833  plane waves:  26054
 k-point 88 :  0.25000.50000.0833  plane waves:  26074
 k-point 89 :  0.33330.50000.0833  plane waves:  26056
 k-point 90 :  0.41670.50000.0833  plane waves:  26044
 k-point 91 :  0.50000.50000.0833  plane waves:  26056
 k-point 92 :  0.00000.16670.1667  plane waves:  26062
 k-point 93 :  0.08330.16670.1667  plane waves:  26083
 k-point 94 :  0.16670.16670.1667  plane waves:  26088
 k-point 95 :  0.25000.16670.1667  plane waves:  26075
 k-point 96 :  0.33330.16670.1667  plane waves:  26076
 k-point 97 :  0.41670.16670.1667  plane waves:  26065
 k-point 98 :  0.50000.16670.1667  plane waves:  26020
 k-point 99 :  0.00000.25000.1667  plane waves:  26066
 k-point ** :  0.08330.25000.1667  plane waves:  26063
 k-point ** :  0.16670.25000.1667  plane waves:  26075
 k-point ** :  0.25000.25000.1667  plane waves:  26058
 k-point ** :  0.33330.25000.1667  plane waves:  26061
 k-point ** :  0.41670.25000.1667  plane waves:  26062
 k-point ** :  0.50000.25000.1667  plane waves:  26064
 k-point ** :  0.00000.33330.1667  plane waves:  26070
 k-point ** :  0.08330.33330.1667  plane waves:  26076
 k-point ** :  0.16670.33330.1667  plane waves:  26076
 k-point ** :  0.25000.33330.1667  plane waves:  26061
 k-point ** :  0.33330.33330.1667  plane waves:  26040
 k-point ** :  0.41670.33330.1667  plane waves:  26057
 k-point ** :  0.50000.33330.1667  plane waves:  26040
 k-point ** :  0.00000.41670.1667  plane waves:  26070
 k-point ** :  0.08330.41670.1667  plane waves:  26060
 k-point ** :  0.16670.41670.1667  plane waves:  26065
 k-point ** :  0.25000.41670.1667  plane waves:  26062
 k-point ** :  0.33330.41670.1667  plane waves:  26057
 k-point ** :  0.41670.41670.1667  plane waves:  26032
 k-point ** :  0.50000.41670.1667  plane waves:  26052
 k-point ** :  0.00000.50000.1667  plane waves:  26060
 k-point ** :  0.08330.50000.1667  plane waves:  26054
 k-point ** :  0.16670.50000.1667  plane waves:  26020
 k-point ** :  0.25000.50000.1667  plane waves:  26064
 k-point ** :  0.33330.50000.1667  plane waves:  26040
 k-point ** :  0.41670.50000.1667  plane waves:  26052
 k-point ** :  0.50000.50000.1667  plane waves:  26036
 k-point ** :  0.00000.25000.2500  plane waves:  26078
 k-point ** :  0.08330.25000.2500  plane waves:  26086
 k-point ** :  0.16670.25000.2500  plane waves:  26058
 k-point ** :  0.25000.25000.2500  plane waves:  26094
 k-point ** :  0.33330.25000.2500  plane waves:  26022
 k-point ** :  0.41670.25000.2500  plane waves:  26049
 k-point ** :  0.50000.25000.2500  plane waves:  26004
 k-point ** :  0.00000.33330.2500  plane waves:  26061
 k-point ** :  0.08330.33330.2500  plane waves:  26074
 k-point ** :  0.16670.33330.2500  plane waves:  26061
 k-point ** :  0.25000.33330.2500  plane waves:  26022
 k-point ** :  0.33330.33330.2500  plane waves:  26031
 k-point ** :  0.41670.33330.2500  plane waves:  26049
 k-point ** :  0.50000.33330.2500  plane waves:  26036
 k-point ** :  0.00000.41670.2500  plane waves:  26050
 k-point ** :  0.08330.41670.2500  plane waves:  26054
 k-point ** :  0.16670.41670.2500  plane waves:  26062
 k-point ** :  0.25000.41670.2500  plane waves:  26049
 k-point ** :  0.33330.41670.2500  plane waves:  26049
 k-point ** :  0.41670.41670.2500  plane waves:  26015
 k-point ** :  0.50000.41670.2500  plane waves:  26040
 k-point ** :  0.00000.50000.2500  plane waves:  26068
 k-point ** :  0.08330.50000.2500  plane waves:  26074
 k-point ** :  0.16670.50000.2500  plane waves:  26064
 k-point ** :  0.25000.50000.2500  plane waves:  26004
 k-point ** :  0.33330.50000.2500  plane waves:  26036
 k-point ** :  0.41670.50000.2500  plane waves:  26040
 k-point ** :  0.50000.50000.2500  plane waves:  26052
 k-point ** :  0.00000.33330.3333  plane waves:  26120
 k-point ** :  0.08330.33330.3333  plane waves:  26069
 k-point ** :  0.16670.33330.3333  plane waves:  26040
 k-point ** :  0.25000.33330.3333  plane waves:  26031
 k-point ** :  0.33330.33330.3333  plane waves:  25998
 k-point ** :  0.41670.33330.3333  plane waves:  26042
 k-point ** :  0.50000.33330.3333  plane waves:  26028
 k-point ** :  0.00000.41670.3333  plane waves:  26069
 k-point ** :  0.08330.41670.3333  plane waves:  26053
 k-point ** :  0.16670.41670.3333  plane waves:  26057
 k-point ** :  0.25000.41670.3333  plane waves:  26049
 k-point ** :  0.33330.41670.3333  plane waves:  26042
 k-point ** :  0.41670.41670.3333  plane waves:  26027
 k-point ** :  0.50000.41670.3333  plane waves:  26020
 k-point ** :  0.00000.50000.3333  plane waves:  26056
 k-point ** :  0.08330.50000.3333  plane waves:  26056
 k-point ** :  0.16670.50000.3333  plane waves:  26040
 k-point ** :  0.25000.50000.3333  plane waves:  26036
 k-point ** :  0.33330.50000.3333  plane waves:  26028
 k-point ** :  0.41670.50000.3333  plane waves:  26020
 k-point ** :  0.50000.50000.3333  plane waves:  26008
 k-point ** :  0.00000.41670.4167  plane waves:  26060
 k-point ** :  0.08330.41670.4167  plane waves:  26050
 k-point ** :  0.16670.41670.4167  plane waves:  26032
 k-point ** :  0.25000.41670.4167  plane waves:  26015
 k-point ** :  0.33330.41670.4167  plane waves:  26027
 k-point ** :  0.41670.41670.4167  plane waves:  26008
 k-point ** :  0.50000.41670.4167  plane waves:  25988
 k-point ** :  0.00000.50000.4167  plane waves:  26050
 k-point ** :  0.08330.50000.4167  plane waves:  26044
 k-point ** :  0.16670.50000.4167  plane waves:  26052
 k-point ** :  0.25000.50000.4167  plane waves:  26040
 k-point ** :  0.33330.50000.4167  plane waves:  26020
 k-point ** :  0.41670.50000.4167  plane waves:  25988
 k-point ** :  0.50000.50000.4167  plane waves:  26004
 k-point ** :  0.00000.50000.5000  plane waves:  26060
 k-point ** :  0.08330.50000.5000  plane waves:  26056
 k-point ** :  0.16670.50000.5000  plane waves:  26036
 k-point ** :  0.25000.50000.5000  plane waves:  26052
 k-point ** :  0.33330.50000.5000  plane waves:  26008
 k-point ** :  0.41670.50000.5000  plane waves:  26004
 k-point ** :  0.50000.50000.5000  plane waves:  25912

 maximum and minimum number of plane-waves per node :  26120 25912

 maximum number of plane-waves:  26120
 maximal index in each direction: 
   IXMAX= 18   IYMAX= 18   IZMAX= 18
   IXMIN=-18   IYMIN=-18   IZMIN=-18

 NGX is ok and might be reduce to  74
 NGY is ok and might be reduce to  74
 NGZ is ok and might be reduce to  74

 parallel 3dFFT wavefunction:
    minimum data exchange during FFTs selected (reduces bandwidth)
 parallel 3dFFT charge:
    minimum data exchange during FFTs selected (reduces bandwidth)

 For storing wavefunctions 5556.05 MBYTES are necessary
 For predicting wavefunctions   67.38 MBYTES are necessary
Broyden mixing: mesh for mixing (old mesh)
   NGX = 37   NGY = 37   NGZ = 37
  (NGX  =160   NGY  =160   NGZ  =160)
 gives a total of  50653 points
 initial charge density was supplied:
 charge density of overlapping atoms calculated
 number of electron   96.0000000 magnetization 
 keeping initial charge density in first step


--------------------------------------------------------------------------------------------------------


 Maximum index for augmentation-charges        69229 (set IRDMAX)


--------------------------------------------------------------------------------------------------------


 First call to EWALD:  gamma=   0.215
 Maximum number of real-space cells 3x 3x 3
 Maximum number of reciprocal cells 3x 3x 3

    FEWALD:  VPU time    0.01: CPU time    0.01


----------------------------------------- Iteration    1(   1)  ---------------------------------------


    POTLOK:  VPU time    2.81: CPU time    2.82
    SETDIJ:  VPU time    2.49: CPU time    2.49
    EDDAV :  VPU time 2204.83: CPU time 2207.90
    DOS   :  VPU time    0.00: CPU time   -0.00
    ------------------------------------------
      LOOP:  VPU time 2210.19: CPU time 2213.27

 eigenvalue-minimisations  : 26656
 total energy-change (2. order) : 0.1738643E+03  (-0.4174905E+04)
 number of electron   96.0000000 magnetization 
 augmentation part    96.0000000 magnetization 

 Free energy of the ion-electron system (eV)
  ---------------------------------------------------
  alpha Z        PSCENC =        -6.15630361
  Ewald energy   TEWEN  =     -2308.62146778
  -1/2 Hartree   DENC   =        -4.03024973
  -V(xc)+E(xc)   XCENC  =      -842.89018203
  PAW double counting   =      1137.73615723     -115.16745734
  entropy T*S    EENTRO =        -0.00025773
  eigenvalues    EBANDS =       599.75893334
  atomic energy  EATOM  =      1713.23509266
  ---------------------------------------------------
  free energy    TOTEN  =       173.86426500 eV

  energy without entropy =      173.86452274  energy(sigma->0) =      173.86439387


--------------------------------------------------------------------------------------------------------




----------------------------------------- Iteration    1(   2)  ---------------------------------------


    EDDAV :  VPU time 2511.46: CPU time 2514.91
    DOS   :  VPU time    0.00: CPU time   -0.00
    ------------------------------------------
      LOOP:  VPU time 2511.52: CPU time 2514.99

 eigenvalue-minimisations  : 31120
 total energy-change (2. order) :-0.2763378E+03  (-0.2586860E+03)
 number of electron   96.0000000 magnetization 
 augmentation part    96.0000000 magnetization 

 Free energy of the ion-electron system (eV)
  ---------------------------------------------------
  alpha Z        PSCENC =        -6.15630361
  Ewald energy   TEWEN  =     -2308.62146778
  -1/2 Hartree   DENC   =        -4.03024973
  -V(xc)+E(xc)   XCENC  =      -842.89018203
  PAW double counting   =      1137.73615723     -115.16745734
  entropy T*S    EENTRO =        -0.00056208
  eigenvalues    EBANDS =       323.42148243
  atomic energy  EATOM  =      1713.23509266
  ---------------------------------------------------
  free energy    TOTEN  =      -102.47349025 eV

  energy without entropy =     -102.47292817  energy(sigma->0) =     -102.47320921


--------------------------------------------------------------------------------------------------------




----------------------------------------- Iteration    1(   3)  ---------------------------------------


    EDDAV :  VPU time 2655.78: CPU time 2659.43
    DOS   :  VPU time    0.00: CPU time   -0.00
    ------------------------------------------
      LOOP:  VPU time 2655.84: CPU time 2659.50

 eigenvalue-minimisations  : 33352
 total energy-change (2. order) :-0.1724946E+02  (-0.1626577E+02)
 number of electron   96.0000000 magnetization 
 augmentation part    96.0000000 magnetization 

 Free energy of the ion-electron system (eV)
  ---------------------------------------------------
  alpha Z        PSCENC =        -6.15630361
  Ewald energy   TEWEN  =     -2308.62146778
  -1/2 Hartree   DENC   =        -4.03024973
  -V(xc)+E(xc)   XCENC  =      -842.89018203
  PAW double counting   =      1137.73615723     -115.16745734
  entropy T*S    EENTRO =        -0.00060780
  eigenvalues    EBANDS =       306.17206350
  atomic energy  EATOM  =      1713.23509266
  ---------------------------------------------------
  free energy    TOTEN  =      -119.72295491 eV

  energy without entropy =     -119.72234711  energy(sigma->0) =     -119.72265101


--------------------------------------------------------------------------------------------------------




----------------------------------------- Iteration    1(   4)  ---------------------------------------


    EDDAV :  VPU time 2548.40: CPU time 2550.00
    DOS   :  VPU time    0.00: CPU time   -0.00
    ------------------------------------------
      LOOP:  VPU time 2548.46: CPU time 2550.06

 eigenvalue-minimisations  : 31568
 total energy-change (2. order) :-0.4214385E+00  (-0.4156478E+00)
 number of electron   96.0000000 magnetization 
 augmentation part    96.0000000 magnetization 

 Free energy of the ion-electron system (eV)
  ---------------------------------------------------
  alpha Z        PSCENC =        -6.15630361
  Ewald energy   TEWEN  =     -2308.62146778
  -1/2 Hartree   DENC   =        -4.03024973
  -V(xc)+E(xc)   XCENC  =      -842.89018203
  PAW double counting   =      1137.73615723     -115.16745734
  entropy T*S    EENTRO =        -0.00068553
  eigenvalues    EBANDS =       305.75070275
  atomic energy  EATOM  =      1713.23509266
  ---------------------------------------------------
  free energy    TOTEN  =      -120.14439339 eV

  energy without entropy =     -120.14370785  energy(sigma->0) =     -120.14405062


--------------------------------------------------------------------------------------------------------




----------------------------------------- Iteration    1(   5)  ---------------------------------------


    EDDAV :  VPU time 2566.59: CPU time 2567.42
    DOS   :  VPU time    0.00: CPU time   -0.00
    CHARGE:  VPU time  170.43: CPU time  170.49
    MIXING:  VPU time    0.08: CPU time    0.08
    ------------------------------------------
      LOOP:  VPU time 2737.17: CPU time 2738.05

 eigenvalue-minimisations  : 31812
 total energy-change (2. order) :-0.5352802E-02  (-0.5343302E-02)
 number of electron   96.0000000 magnetization 
 augmentation part    -1.2271492 magnetization 

 Broyden mixing:
  rms(total) = 0.51584E+00    rms(broyden)= 0.51584E+00
  rms(prec ) = 0.74936E+00
  weight for this iteration     100.00

 Free energy of the ion-electron system (eV)
  ---------------------------------------------------
  alpha Z        PSCENC =        -6.15630361
  Ewald energy   TEWEN  =     -2308.62146778
  -1/2 Hartree   DENC   =        -4.03024973
  -V(xc)+E(xc)   XCENC  =      -842.89018203
  PAW double counting   =      1137.73615723     -115.16745734
  entropy T*S    EENTRO =        -0.00068923
  eigenvalues    EBANDS =       305.74535364
  atomic energy  EATOM  =      1713.23509266
  ---------------------------------------------------
  free energy    TOTEN  =      -120.14974619 eV

  energy without entropy =     -120.14905696  energy(sigma->0) =     -120.14940157


--------------------------------------------------------------------------------------------------------




----------------------------------------- Iteration    1(   6)  ---------------------------------------


    POTLOK:  VPU time    3.29: CPU time    3.30
    SETDIJ:  VPU time    3.07: CPU time    3.07
    EDDAV :  VPU time 2505.12: CPU time 2505.93
    DOS   :  VPU time    0.00: CPU time   -0.00
    CHARGE:  VPU time  169.17: CPU time  169.22
    MIXING:  VPU time    0.06: CPU time    0.06
    ------------------------------------------
      LOOP:  VPU time 2680.77: CPU time 2681.64

 eigenvalue-minimisations  : 30844
 total energy-change (2. order) : 0.4036098E+00  (-0.5970835E-02)
 number of electron   96.0000000 magnetization 
 augmentation part    -1.2457928 magnetization 

 Broyden mixing:
  rms(total) = 0.32003E+00    rms(broyden)= 0.32003E+00
  rms(prec ) = 0.46659E+00
  weight for this iteration     100.00

 eigenvalues of (default mixing * dielectric matrix)
  average eigenvalue GAMMA=   2.6249
  2.6249

 Free energy of the ion-electron system (eV)
  ---------------------------------------------------
  alpha Z        PSCENC =        -6.15630361
  Ewald energy   TEWEN  =     -2308.62146778
  -1/2 Hartree   DENC   =        -3.15158439
  -V(xc)+E(xc)   XCENC  =      -841.90504240
  PAW double counting   =      1136.62814350     -114.05357536
  entropy T*S    EENTRO =        -0.00076811
  eigenvalues    EBANDS =       304.27936910
  atomic energy  EATOM  =      1713.23509266
  ---------------------------------------------------
  free energy    TOTEN  =      -119.74613639 eV

  energy without entropy =     -119.74536828  energy(sigma->0) =     -119.74575233


--------------------------------------------------------------------------------------------------------




----------------------------------------- Iteration    1(   7)  ---------------------------------------


    POTLOK:  VPU time    3.36: CPU time    3.36
    SETDIJ:  VPU time    3.05: CPU time    3.05
    EDDAV :  VPU time 2495.14: CPU time 2497.97
    DOS   :  VPU time    0.00: CPU time   -0.00
    CHARGE:  VPU time  178.63: CPU time  178.70
    MIXING:  VPU time    0.08: CPU time    0.08
    ------------------------------------------
      LOOP:  VPU time 2680.32: CPU time 2683.23

 eigenvalue-minimisations  : 29656
 total energy-change (2. order) : 0.2934163E+00  (-0.1742963E-01)
 number of electron   96.0000000 magnetization 
 augmentation part    -1.2812026 magnetization 

 Broyden mixing:
  rms(total) = 0.13533E-01    rms(broyden)= 0.13533E-01
  rms(prec ) = 0.16123E-01
  weight for this iteration     100.00

 eigenvalues of (default mixing * dielectric matrix)
  average eigenvalue GAMMA=   2.4935
  2.4935  2.4935

 Free energy of the ion-electron system (eV)
  ---------------------------------------------------
  alpha Z        PSCENC =        -6.15630361
  Ewald energy   TEWEN  =     -2308.62146778
  -1/2 Hartree   DENC   =        -3.09705439
  -V(xc)+E(xc)   XCENC  =      -839.85824889
  PAW double counting   =      1134.91401894     -112.38579188
  entropy T*S    EENTRO =        -0.00078962
  eigenvalues    EBANDS =       302.51782452
  atomic energy  EATOM  =      1713.23509266
  ---------------------------------------------------
  free energy    TOTEN  =      -119.45272005 eV

  energy without entropy =     -119.45193043  energy(sigma->0) =     -119.45232524


[...]
     64       9.3696      0.00000
     65      10.5510      0.00000
     66      10.5512      0.00000
     67      10.5514      0.00000
     68      10.5516      0.00000

 k-point 194 :       0.3333    0.5000    0.5000
  band No.  band energies     occupation 
      1      -1.9989      2.00000
      2      -1.9988      2.00000
      3      -1.9988      2.00000
      4      -1.9988      2.00000
      5      -1.2795      2.00000
      6      -1.2794      2.00000
      7      -1.2794      2.00000
      8      -1.2794      2.00000
      9       1.5626      2.00000
     10       1.5626      2.00000
     11       1.5626      2.00000
     12       1.5626      2.00000
     13       2.2610      2.00000
     14       2.2610      2.00000
     15       2.2610      2.00000
     16       2.2610      2.00000
     17       2.2610      2.00000
     18       2.2610      2.00000
     19       2.2610      2.00000
     20       2.2610      2.00000
     21       2.9603      2.00000
     22       2.9603      2.00000
     23       2.9603      2.00000
     24       2.9603      2.00000
     25       2.9603      2.00000
     26       2.9603      2.00000
     27       2.9603      2.00000
     28       2.9603      2.00000
     29       3.6428      2.00000
     30       3.6428      2.00000
     31       3.6428      2.00000
     32       3.6429      2.00000
     33       5.7302      2.00000
     34       5.7302      2.00000
     35       5.7304      2.00000
     36       5.7304      2.00000
     37       5.7304      2.00000
     38       5.7304      2.00000
     39       5.7305      2.00000
     40       5.7305      2.00000
     41       6.4083      2.00000
     42       6.4083      2.00000
     43       6.4083      2.00000
     44       6.4083      2.00000
     45       7.0937      2.00000
     46       7.0937      2.00000
     47       7.0937      2.00000
     48       7.0937      2.00000
     49       7.7545      0.00000
     50       7.7545      0.00000
     51       7.7547      0.00000
     52       7.7547      0.00000
     53       7.7547      0.00000
     54       7.7547      0.00000
     55       7.7549      0.00000
     56       7.7549      0.00000
     57       9.3208      0.00000
     58       9.3208      0.00000
     59       9.3208      0.00000
     60       9.3208      0.00000
     61       9.8034      0.00000
     62       9.8034      0.00000
     63       9.8034      0.00000
     64       9.8034      0.00000
     65      10.6515      0.00000
     66      10.6515      0.00000
     67      10.6518      0.00000
     68      10.6518      0.00000

 k-point 195 :       0.4167    0.5000    0.5000
  band No.  band energies     occupation 
      1      -1.8638      2.00000
      2      -1.8637      2.00000
      3      -1.8637      2.00000
      4      -1.8637      2.00000
      5      -1.5039      2.00000
      6      -1.5039      2.00000
      7      -1.5039      2.00000
      8      -1.5039      2.00000
      9       2.0444      2.00000
     10       2.0445      2.00000
     11       2.0445      2.00000
     12       2.0445      2.00000
     13       2.3924      2.00000
     14       2.3924      2.00000
     15       2.3924      2.00000
     16       2.3924      2.00000
     17       2.3924      2.00000
     18       2.3924      2.00000
     19       2.3924      2.00000
     20       2.3924      2.00000
     21       2.7421      2.00000
     22       2.7421      2.00000
     23       2.7421      2.00000
     24       2.7421      2.00000
     25       2.7421      2.00000
     26       2.7421      2.00000
     27       2.7421      2.00000
     28       2.7421      2.00000
     29       3.0863      2.00000
     30       3.0863      2.00000
     31       3.0863      2.00000
     32       3.0864      2.00000
     33       6.1994      2.00000
     34       6.1994      2.00000
     35       6.1996      2.00000
     36       6.1996      2.00000
     37       6.1996      2.00000
     38       6.1996      2.00000
     39       6.1997      2.00000
     40       6.1997      2.00000
     41       6.5373      2.00000
     42       6.5373      2.00000
     43       6.5373      2.00000
     44       6.5373      2.00000
     45       6.8800      2.00000
     46       6.8800      2.00000
     47       6.8800      2.00000
     48       6.8800      2.00000
     49       7.2135      2.00000
     50       7.2135      2.00000
     51       7.2137      2.00000
     52       7.2137      2.00000
     53       7.2137      2.00000
     54       7.2137      2.00000
     55       7.2139      2.00000
     56       7.2139      2.00000
     57      10.1121      0.00000
     58      10.1121      0.00000
     59      10.1121      0.00000
     60      10.1121      0.00000
     61      10.2631      0.00000
     62      10.2631      0.00000
     63      10.2631      0.00000
     64      10.2632      0.00000
     65      10.7783      0.00000
     66      10.7784      0.00000
     67      10.7786      0.00000
     68      10.7787      0.00000

 k-point 196 :       0.5000    0.5000    0.5000
  band No.  band energies     occupation 
      1      -1.7033      2.00000
      2      -1.6991      2.00000
      3      -1.6991      2.00000
      4      -1.6987      2.00000
      5      -1.6986      2.00000
      6      -1.6982      2.00000
      7      -1.6982      2.00000
      8      -1.6941      2.00000
      9       2.5427      2.00000
     10       2.5489      2.00000
     11       2.5489      2.00000
     12       2.5520      2.00000
     13       2.5523      2.00000
     14       2.5523      2.00000
     15       2.5527      2.00000
     16       2.5527      2.00000
     17       2.5527      2.00000
     18       2.5527      2.00000
     19       2.5528      2.00000
     20       2.5528      2.00000
     21       2.5528      2.00000
     22       2.5528      2.00000
     23       2.5528      2.00000
     24       2.5528      2.00000
     25       2.5529      2.00000
     26       2.5529      2.00000
     27       2.5533      2.00000
     28       2.5533      2.00000
     29       2.5535      2.00000
     30       2.5567      2.00000
     31       2.5567      2.00000
     32       2.5629      2.00000
     33       6.6887      2.00000
     34       6.6887      2.00000
     35       6.6905      2.00000
     36       6.6925      2.00000
     37       6.6938      2.00000
     38       6.6942      2.00000
     39       6.6942      2.00000
     40       6.6942      2.00000
     41       6.6944      2.00000
     42       6.6944      2.00000
     43       6.6944      2.00000
     44       6.6945      2.00000
     45       6.6945      2.00000
     46       6.6945      2.00000
     47       6.6945      2.00000
     48       6.6946      2.00000
     49       6.6948      2.00000
     50       6.6948      2.00000
     51       6.6948      2.00000
     52       6.6952      2.00000
     53       6.6965      2.00000
     54       6.6985      2.00000
     55       6.7003      2.00000
     56       6.7003      2.00000
     57      10.7466      0.00000
     58      10.7466      0.00000
     59      10.7466      0.00000
     60      10.7472      0.00000
     61      10.7486      0.00000
     62      10.7493      0.00000
     63      10.7493      0.00000
     64      10.7494      0.00000
     65      10.9300      0.00000
     66      10.9305      0.00000
     67      10.9316      0.00000
     68      10.9324      0.00000


--------------------------------------------------------------------------------------------------------


 soft charge-density along one line, spin component           1
         0         1         2         3         4         5         6         7         8         9
 total charge-density along one line
 
 pseudopotential strength for first ion, spin component:           1
  8.462  -0.005  -0.000  -0.000  -0.000  -0.000  -0.000  -0.000
 -0.005   0.000  -0.000  -0.000  -0.000   0.000   0.000   0.000
 -0.000  -0.000   1.985  -0.000  -0.000  -0.025   0.000   0.000
 -0.000  -0.000  -0.000   1.985  -0.000   0.000  -0.025   0.000
 -0.000  -0.000  -0.000  -0.000   1.985   0.000   0.000  -0.025
 -0.000   0.000  -0.025   0.000   0.000  -0.012   0.000   0.000
 -0.000   0.000   0.000  -0.025   0.000   0.000  -0.012   0.000
 -0.000   0.000   0.000   0.000  -0.025   0.000   0.000  -0.012
 total augmentation occupancy for first ion, spin component:           1
  1.352  -0.412   0.000   0.000   0.002   0.000  -0.000  -0.001
 -0.412   0.415   0.000   0.000  -0.003   0.000  -0.000   0.001
  0.000   0.000   0.685   0.001   0.006  -0.134  -0.001  -0.001
  0.000   0.000   0.001   0.694  -0.004  -0.001  -0.132  -0.000
  0.002  -0.003   0.006  -0.004   0.689  -0.001  -0.000  -0.133
  0.000   0.000  -0.134  -0.001  -0.001   0.030   0.000   0.000
 -0.000  -0.000  -0.001  -0.132  -0.000   0.000   0.029   0.000
 -0.001   0.001  -0.001  -0.000  -0.133   0.000   0.000   0.030


------------------------ aborting loop because EDIFF is reached ----------------------------------------




--------------------------------------------------------------------------------------------------------


    CHARGE:  VPU time  178.21: CPU time  178.46
    FORLOC:  VPU time    0.47: CPU time    0.47
    FORNL :  VPU time  300.08: CPU time  300.38
    STRESS:  VPU time 1066.51: CPU time 1067.59
    FORCOR:  VPU time    3.41: CPU time    3.42
    FORHAR:  VPU time    1.23: CPU time    1.23
    MIXING:  VPU time    0.09: CPU time    0.09


--------------------------------------------------------------------------------------------------------



  FREE ENERGIE OF THE ION-ELECTRON SYSTEM (eV)
  ---------------------------------------------------
  free  energy   TOTEN  =      -119.452752 eV

  energy  without entropy=     -119.451966  energy(sigma->0) =     -119.452359
 

  FORCE on cell =-STRESS in cart. coord.  units (eV/reduce length):
  Direction    X        Y        Z        XY       YZ       ZX
  --------------------------------------------------------------------------------------
  Alpha Z     -6.16     -6.16     -6.16
  Ewald     -769.55   -769.54   -769.54      0.00      0.00      0.00
  Hartree      1.06      1.06      1.06     -0.00     -0.00     -0.00
  E(xc)     -269.30   -269.30   -269.30     -0.00     -0.00      0.00
  Local        3.12      3.11      3.11      0.00     -0.00      0.00
  n-local    598.05    598.56    597.54     -0.53     -0.11      0.32
  augment    -34.29    -34.29    -34.29      0.00      0.00      0.00
  Kinetic    463.46    456.21    470.70      5.48      0.57     -4.34
  -------------------------------------------------------------------------------------
  Total      -13.61    -13.61    -13.61      0.00      0.00      0.00
  in kB      -39.02    -39.02    -39.02      0.00      0.00      0.00
  external pressure =      -39.02 kB  Pullay stress =        0.00 kB


 VOLUME and BASIS-vectors are now :
 -----------------------------------------------------------------------------
  energy-cutoff  :      750.00
  volume of cell :      558.68
      direct lattice vectors                 reciprocal lattice vectors
     8.236104994  0.000000000  0.000000000     0.121416616  0.000000000  0.000000000
     0.000000000  8.236104994  0.000000000     0.000000000  0.121416616  0.000000000
     0.000000000  0.000000000  8.236104994     0.000000000  0.000000000  0.121416616

  length of vectors
     8.236104994  8.236104994  8.236104994     0.121416616  0.121416616  0.121416616


 FORCES acting on ions
    electron-ion (+dipol)            ewald-force                    non-local-force                 convergence-correction
 -----------------------------------------------------------------------------------------------
   0.365E+00 -.884E-13 -.184E-08   -.301E+00 -.211E-14 -.121E-14   -.100E+00 0.542E-19 -.136E-19   0.108E-05 0.157E-13 -.563E-14
   -.813E-01 -.440E-12 0.108E-08   0.795E-01 0.228E-14 0.454E-14   0.401E-02 0.271E-19 -.678E-20   0.124E-05 0.170E-13 -.375E-14
   0.259E-01 -.749E-13 0.108E-12   -.252E-01 0.105E-14 0.632E-14   -.872E-03 -.271E-19 0.000E+00   0.165E-05 -.162E-13 -.319E-14
   -.192E-01 0.506E-12 0.259E-12   0.198E-01 0.105E-14 0.987E-14   0.513E-04 -.271E-19 0.000E+00   -.286E-05 -.173E-13 -.218E-14
   0.259E-01 0.919E-14 -.645E-11   -.252E-01 0.389E-14 0.106E-13   -.872E-03 0.136E-19 0.000E+00   0.166E-05 0.164E-13 0.588E-14
   -.192E-01 0.328E-12 -.631E-11   0.198E-01 0.333E-15 0.709E-14   0.513E-04 0.271E-19 0.271E-19   -.287E-05 0.174E-13 0.407E-14
   0.103E-01 0.287E-13 0.394E-12   -.104E-01 0.322E-14 0.176E-14   0.105E-03 -.136E-19 0.000E+00   -.120E-05 -.168E-13 0.350E-14
   -.101E-01 -.212E-12 0.243E-12   0.972E-02 -.333E-15 0.176E-14   -.500E-03 0.000E+00 0.000E+00   0.808E-06 -.177E-13 0.254E-14
   0.452E-01 -.211E-03 0.211E-03   -.475E-01 0.181E-03 -.181E-03   0.652E-03 0.429E-04 -.429E-04   -.183E-06 -.782E-07 0.782E-07
   -.283E-01 0.730E-04 -.730E-04   0.267E-01 -.543E-04 0.543E-04   0.101E-02 -.168E-04 0.168E-04   -.331E-06 -.359E-07 0.359E-07
   0.452E-01 0.211E-03 0.211E-03   -.475E-01 -.181E-03 -.181E-03   0.652E-03 -.429E-04 -.429E-04   -.183E-06 0.782E-07 0.782E-07
   -.283E-01 -.730E-04 -.730E-04   0.267E-01 0.543E-04 0.543E-04   0.101E-02 0.168E-04 0.168E-04   -.331E-06 0.359E-07 0.359E-07
   0.452E-01 -.211E-03 -.211E-03   -.475E-01 0.181E-03 0.181E-03   0.652E-03 0.429E-04 0.429E-04   -.183E-06 -.782E-07 -.782E-07
   -.283E-01 0.730E-04 0.730E-04   0.267E-01 -.543E-04 -.543E-04   0.101E-02 -.168E-04 -.168E-04   -.331E-06 -.359E-07 -.359E-07
   0.452E-01 0.211E-03 -.211E-03   -.475E-01 -.181E-03 0.181E-03   0.652E-03 -.429E-04 0.429E-04   -.183E-06 0.782E-07 -.782E-07
   -.283E-01 -.730E-04 0.730E-04   0.267E-01 0.543E-04 -.543E-04   0.101E-02 0.168E-04 -.168E-04   -.331E-06 0.359E-07 -.359E-07
   -.453E-01 0.439E-15 0.796E-01   0.384E-01 -.216E-14 -.728E-01   0.119E-01 -.271E-19 -.119E-01   -.165E-06 0.176E-13 -.113E-05
   -.451E-01 -.275E-13 -.803E-01   0.382E-01 0.167E-15 0.734E-01   0.122E-01 -.339E-20 0.123E-01   -.196E-06 0.198E-13 0.117E-05
   -.504E-03 -.566E-14 0.608E-02   0.128E-02 0.611E-15 -.602E-02   -.613E-03 0.000E+00 0.799E-04   0.557E-06 -.179E-13 0.166E-05
   -.392E-03 0.354E-13 -.609E-02   0.116E-02 -.372E-14 0.603E-02   -.608E-03 0.203E-19 -.836E-04   0.440E-06 -.203E-13 -.159E-05
   -.453E-01 0.114E-15 -.796E-01   0.384E-01 0.139E-14 0.728E-01   0.119E-01 -.102E-19 0.119E-01   -.165E-06 0.144E-13 0.113E-05
   -.451E-01 -.427E-13 0.803E-01   0.382E-01 0.194E-14 -.734E-01   0.122E-01 0.000E+00 -.123E-01   -.196E-06 0.146E-13 -.117E-05
   -.504E-03 -.881E-14 -.608E-02   0.128E-02 0.105E-14 0.602E-02   -.613E-03 -.102E-19 -.799E-04   0.557E-06 -.147E-13 -.166E-05
   -.392E-03 -.184E-12 0.609E-02   0.116E-02 -.167E-15 -.603E-02   -.608E-03 0.271E-19 0.836E-04   0.440E-06 -.151E-13 0.159E-05
   -.453E-01 -.796E-01 0.190E-11   0.384E-01 0.728E-01 -.118E-13   0.119E-01 0.119E-01 0.847E-20   -.164E-06 0.112E-05 -.393E-14
   -.451E-01 0.803E-01 0.114E-11   0.382E-01 -.734E-01 -.708E-14   0.122E-01 -.123E-01 0.000E+00   -.195E-06 -.117E-05 -.768E-14
   -.453E-01 0.796E-01 0.189E-11   0.384E-01 -.728E-01 -.469E-14   0.119E-01 -.119E-01 0.000E+00   -.164E-06 -.112E-05 -.739E-15
   -.451E-01 -.803E-01 0.201E-11   0.382E-01 0.734E-01 -.352E-14   0.122E-01 0.123E-01 0.932E-20   -.195E-06 0.117E-05 -.249E-14
   -.504E-03 -.608E-02 -.320E-12   0.128E-02 0.602E-02 -.844E-15   -.613E-03 -.799E-04 -.136E-19   0.557E-06 -.166E-05 0.428E-14
   -.392E-03 0.609E-02 -.119E-12   0.116E-02 -.603E-02 -.356E-14   -.608E-03 0.836E-04 0.000E+00   0.440E-06 0.160E-05 0.795E-14
   -.504E-03 0.608E-02 -.316E-12   0.128E-02 -.602E-02 -.661E-14   -.613E-03 0.799E-04 0.000E+00   0.557E-06 0.166E-05 0.107E-14
   -.392E-03 -.609E-02 -.380E-12   0.116E-02 0.603E-02 -.710E-14   -.608E-03 -.836E-04 0.678E-20   0.440E-06 -.160E-05 0.279E-14
 -----------------------------------------------------------------------------------------------
   0.142E-05 0.500E-12 -.792E-09   -.912E-15 -.156E-14 -.843E-14   -.955E-06 0.136E-19 0.381E-17   0.144E-07 -.362E-16 -.493E-16
 
 
 POSITION                                       TOTAL-FORCE (eV/Angst)
 -----------------------------------------------------------------------------------
      2.06903      2.05903      0.00000        -0.036129      0.000000     -0.000000
      6.17708      2.05903      0.00000         0.002213     -0.000000     -0.000000
      2.05903      6.17708      0.00000        -0.000121      0.000000     -0.000000
      6.17708      6.17708      0.00000         0.000593      0.000000      0.000000
      2.05903      2.05903      4.11805        -0.000121      0.000000      0.000000
      6.17708      2.05903      4.11805         0.000593      0.000000     -0.000000
      2.05903      6.17708      4.11805         0.000054      0.000000     -0.000000
      6.17708      6.17708      4.11805        -0.000860      0.000000     -0.000000
      2.05903      0.00000      2.05903        -0.001592      0.000014     -0.000014
      6.17708      0.00000      2.05903        -0.000593      0.000002     -0.000002
      2.05903      4.11805      2.05903        -0.001592     -0.000014     -0.000014
      6.17708      4.11805      2.05903        -0.000593     -0.000002     -0.000002
      2.05903      0.00000      6.17708        -0.001592      0.000014      0.000014
      6.17708      0.00000      6.17708        -0.000593      0.000002      0.000002
      2.05903      4.11805      6.17708        -0.001592     -0.000014      0.000014
      6.17708      4.11805      6.17708        -0.000593     -0.000002      0.000002
      0.00000      2.05903      2.05903         0.005087      0.000000     -0.005193
      4.11805      2.05903      2.05903         0.005214      0.000000      0.005375
      0.00000      6.17708      2.05903         0.000164      0.000000      0.000137
      4.11805      6.17708      2.05903         0.000164      0.000000     -0.000142
      0.00000      2.05903      6.17708         0.005087      0.000000      0.005193
      4.11805      2.05903      6.17708         0.005214      0.000000     -0.005375
      0.00000      6.17708      6.17708         0.000164      0.000000     -0.000137
      4.11805      6.17708      6.17708         0.000164      0.000000      0.000142
      0.00000      0.00000      0.00000         0.005087      0.005193      0.000000
      4.11805      0.00000      0.00000         0.005214     -0.005375      0.000000
      0.00000      4.11805      0.00000         0.005087     -0.005193      0.000000
      4.11805      4.11805      0.00000         0.005214      0.005375      0.000000
      0.00000      0.00000      4.11805         0.000164     -0.000137     -0.000000
      4.11805      0.00000      4.11805         0.000164      0.000142     -0.000000
      0.00000      4.11805      4.11805         0.000164      0.000137     -0.000000
      4.11805      4.11805      4.11805         0.000164     -0.000142      0.000000
 -----------------------------------------------------------------------------------
    total drift:                                0.000000      0.000000     -0.000000


--------------------------------------------------------------------------------------------------------



 mean value of Nose-termostat <S>:     1.000 mean value of <T> :     0.000
 mean temperature <T/S>/<1/S>  :     0.000

     LOOP+:  VPU time36752.90: CPU time36787.40
  
  
 General timing and accounting informations for this job:
 ========================================================
  
                  Total CPU time used (sec):    36944.106
                            User time (sec):    35990.628
                          System time (sec):      953.478
                         Elapsed time (sec):    36978.665
  
                   Maximum memory used (kb):     3759672.
                   Average memory used (kb):           0.
  
                          Minor page faults:       404107
                          Major page faults:            0
                 Voluntary context switches:          887
