<?xml version="1.0" encoding="ISO-8859-1"?>
<modeling>
 <generator>
  <i name="program" type="string">vasp</i>
  <i name="version" type="string">4.6.28 </i>
  <i name="subversion" type="string">25Jul05 complex  parallel</i>
  <i name="platform" type="string">LinuxIFC</i>
  <i name="date" type="string">2016 11 11</i>
  <i name="time" type="string">17:42:32</i>
 </generator>
 <incar>
  <i type="string" name="PREC">accurate</i>
  <i type="int" name="IALGO">    38</i>
  <i type="logical" name="ADDGRID"> T  </i>
  <i name="EDIFF">      0.00000001</i>
  <i type="int" name="IBRION">    -1</i>
  <i name="ENCUT">    750.00000000</i>
  <i type="logical" name="LREAL"> F  </i>
  <i type="int" name="ISMEAR">     0</i>
  <i name="SIGMA">      0.01000000</i>
  <i type="logical" name="LWAVE"> F  </i>
  <i type="logical" name="LCHARG"> F  </i>
 </incar>
 <kpoints>
  <generation param="Gamma">
   <v type="int" name="divisions">      12      12      12</v>
   <v name="usershift">      0.00000000      0.00000000      0.00000000</v>
   <v name="genvec1">      0.08333333      0.00000000      0.00000000</v>
   <v name="genvec2">      0.00000000      0.08333333      0.00000000</v>
   <v name="genvec3">      0.00000000      0.00000000      0.08333333</v>
   <v name="shift">      0.00000000      0.00000000      0.00000000</v>
  </generation>
  <varray name="kpointlist" >
   <v>       0.00000000      0.00000000      0.00000000</v>
   <v>       0.08333333      0.00000000      0.00000000</v>
   <v>       0.16666667      0.00000000      0.00000000</v>
   <v>       0.25000000      0.00000000      0.00000000</v>
   <v>       0.33333333      0.00000000      0.00000000</v>
   <v>       0.41666667      0.00000000      0.00000000</v>
   <v>       0.50000000      0.00000000      0.00000000</v>
   <v>       0.00000000      0.08333333      0.00000000</v>
   <v>       0.08333333      0.08333333      0.00000000</v>
   <v>       0.16666667      0.08333333      0.00000000</v>
   <v>       0.25000000      0.08333333      0.00000000</v>
   <v>       0.33333333      0.08333333      0.00000000</v>
   <v>       0.41666667      0.08333333      0.00000000</v>
   <v>       0.50000000      0.08333333      0.00000000</v>
   <v>       0.00000000      0.16666667      0.00000000</v>
   <v>       0.08333333      0.16666667      0.00000000</v>
   <v>       0.16666667      0.16666667      0.00000000</v>
   <v>       0.25000000      0.16666667      0.00000000</v>
   <v>       0.33333333      0.16666667      0.00000000</v>
   <v>       0.41666667      0.16666667      0.00000000</v>
   <v>       0.50000000      0.16666667      0.00000000</v>
   <v>       0.00000000      0.25000000      0.00000000</v>
   <v>       0.08333333      0.25000000      0.00000000</v>
   <v>       0.16666667      0.25000000      0.00000000</v>
   <v>       0.25000000      0.25000000      0.00000000</v>
   <v>       0.33333333      0.25000000      0.00000000</v>
   <v>       0.41666667      0.25000000      0.00000000</v>
   <v>       0.50000000      0.25000000      0.00000000</v>
   <v>       0.00000000      0.33333333      0.00000000</v>
   <v>       0.08333333      0.33333333      0.00000000</v>
   <v>       0.16666667      0.33333333      0.00000000</v>
   <v>       0.25000000      0.33333333      0.00000000</v>
   <v>       0.33333333      0.33333333      0.00000000</v>
   <v>       0.41666667      0.33333333      0.00000000</v>
   <v>       0.50000000      0.33333333      0.00000000</v>
   <v>       0.00000000      0.41666667      0.00000000</v>
   <v>       0.08333333      0.41666667      0.00000000</v>
   <v>       0.16666667      0.41666667      0.00000000</v>
   <v>       0.25000000      0.41666667      0.00000000</v>
   <v>       0.33333333      0.41666667      0.00000000</v>
   <v>       0.41666667      0.41666667      0.00000000</v>
   <v>       0.50000000      0.41666667      0.00000000</v>
   <v>       0.00000000      0.50000000      0.00000000</v>
   <v>       0.08333333      0.50000000      0.00000000</v>
   <v>       0.16666667      0.50000000      0.00000000</v>
   <v>       0.25000000      0.50000000      0.00000000</v>
   <v>       0.33333333      0.50000000      0.00000000</v>
   <v>       0.41666667      0.50000000      0.00000000</v>
   <v>       0.50000000      0.50000000      0.00000000</v>
   <v>       0.00000000      0.08333333      0.08333333</v>
   <v>       0.08333333      0.08333333      0.08333333</v>
   <v>       0.16666667      0.08333333      0.08333333</v>
   <v>       0.25000000      0.08333333      0.08333333</v>
   <v>       0.33333333      0.08333333      0.08333333</v>
   <v>       0.41666667      0.08333333      0.08333333</v>
   <v>       0.50000000      0.08333333      0.08333333</v>
   <v>       0.00000000      0.16666667      0.08333333</v>
   <v>       0.08333333      0.16666667      0.08333333</v>
   <v>       0.16666667      0.16666667      0.08333333</v>
   <v>       0.25000000      0.16666667      0.08333333</v>
   <v>       0.33333333      0.16666667      0.08333333</v>
   <v>       0.41666667      0.16666667      0.08333333</v>
   <v>       0.50000000      0.16666667      0.08333333</v>
   <v>       0.00000000      0.25000000      0.08333333</v>
   <v>       0.08333333      0.25000000      0.08333333</v>
   <v>       0.16666667      0.25000000      0.08333333</v>
   <v>       0.25000000      0.25000000      0.08333333</v>
   <v>       0.33333333      0.25000000      0.08333333</v>
   <v>       0.41666667      0.25000000      0.08333333</v>
   <v>       0.50000000      0.25000000      0.08333333</v>
   <v>       0.00000000      0.33333333      0.08333333</v>
   <v>       0.08333333      0.33333333      0.08333333</v>
   <v>       0.16666667      0.33333333      0.08333333</v>
   <v>       0.25000000      0.33333333      0.08333333</v>
   <v>       0.33333333      0.33333333      0.08333333</v>
   <v>       0.41666667      0.33333333      0.08333333</v>
   <v>       0.50000000      0.33333333      0.08333333</v>
   <v>       0.00000000      0.41666667      0.08333333</v>
   <v>       0.08333333      0.41666667      0.08333333</v>
   <v>       0.16666667      0.41666667      0.08333333</v>
   <v>       0.25000000      0.41666667      0.08333333</v>
   <v>       0.33333333      0.41666667      0.08333333</v>
   <v>       0.41666667      0.41666667      0.08333333</v>
   <v>       0.50000000      0.41666667      0.08333333</v>
   <v>       0.00000000      0.50000000      0.08333333</v>
   <v>       0.08333333      0.50000000      0.08333333</v>
   <v>       0.16666667      0.50000000      0.08333333</v>
   <v>       0.25000000      0.50000000      0.08333333</v>
   <v>       0.33333333      0.50000000      0.08333333</v>
   <v>       0.41666667      0.50000000      0.08333333</v>
   <v>       0.50000000      0.50000000      0.08333333</v>
   <v>       0.00000000      0.16666667      0.16666667</v>
   <v>       0.08333333      0.16666667      0.16666667</v>
   <v>       0.16666667      0.16666667      0.16666667</v>
   <v>       0.25000000      0.16666667      0.16666667</v>
   <v>       0.33333333      0.16666667      0.16666667</v>
   <v>       0.41666667      0.16666667      0.16666667</v>
   <v>       0.50000000      0.16666667      0.16666667</v>
   <v>       0.00000000      0.25000000      0.16666667</v>
   <v>       0.08333333      0.25000000      0.16666667</v>
   <v>       0.16666667      0.25000000      0.16666667</v>
   <v>       0.25000000      0.25000000      0.16666667</v>
   <v>       0.33333333      0.25000000      0.16666667</v>
   <v>       0.41666667      0.25000000      0.16666667</v>
   <v>       0.50000000      0.25000000      0.16666667</v>
   <v>       0.00000000      0.33333333      0.16666667</v>
   <v>       0.08333333      0.33333333      0.16666667</v>
   <v>       0.16666667      0.33333333      0.16666667</v>
   <v>       0.25000000      0.33333333      0.16666667</v>
   <v>       0.33333333      0.33333333      0.16666667</v>
   <v>       0.41666667      0.33333333      0.16666667</v>
   <v>       0.50000000      0.33333333      0.16666667</v>
   <v>       0.00000000      0.41666667      0.16666667</v>
   <v>       0.08333333      0.41666667      0.16666667</v>
   <v>       0.16666667      0.41666667      0.16666667</v>
   <v>       0.25000000      0.41666667      0.16666667</v>
   <v>       0.33333333      0.41666667      0.16666667</v>
   <v>       0.41666667      0.41666667      0.16666667</v>
   <v>       0.50000000      0.41666667      0.16666667</v>
   <v>       0.00000000      0.50000000      0.16666667</v>
   <v>       0.08333333      0.50000000      0.16666667</v>
   <v>       0.16666667      0.50000000      0.16666667</v>
   <v>       0.25000000      0.50000000      0.16666667</v>
   <v>       0.33333333      0.50000000      0.16666667</v>
   <v>       0.41666667      0.50000000      0.16666667</v>
   <v>       0.50000000      0.50000000      0.16666667</v>
   <v>       0.00000000      0.25000000      0.25000000</v>
   <v>       0.08333333      0.25000000      0.25000000</v>
   <v>       0.16666667      0.25000000      0.25000000</v>
   <v>       0.25000000      0.25000000      0.25000000</v>
   <v>       0.33333333      0.25000000      0.25000000</v>
   <v>       0.41666667      0.25000000      0.25000000</v>
   <v>       0.50000000      0.25000000      0.25000000</v>
   <v>       0.00000000      0.33333333      0.25000000</v>
   <v>       0.08333333      0.33333333      0.25000000</v>
   <v>       0.16666667      0.33333333      0.25000000</v>
   <v>       0.25000000      0.33333333      0.25000000</v>
   <v>       0.33333333      0.33333333      0.25000000</v>
   <v>       0.41666667      0.33333333      0.25000000</v>
   <v>       0.50000000      0.33333333      0.25000000</v>
   <v>       0.00000000      0.41666667      0.25000000</v>
   <v>       0.08333333      0.41666667      0.25000000</v>
   <v>       0.16666667      0.41666667      0.25000000</v>
   <v>       0.25000000      0.41666667      0.25000000</v>
   <v>       0.33333333      0.41666667      0.25000000</v>
   <v>       0.41666667      0.41666667      0.25000000</v>
   <v>       0.50000000      0.41666667      0.25000000</v>
   <v>       0.00000000      0.50000000      0.25000000</v>
   <v>       0.08333333      0.50000000      0.25000000</v>
   <v>       0.16666667      0.50000000      0.25000000</v>
   <v>       0.25000000      0.50000000      0.25000000</v>
   <v>       0.33333333      0.50000000      0.25000000</v>
   <v>       0.41666667      0.50000000      0.25000000</v>
   <v>       0.50000000      0.50000000      0.25000000</v>
   <v>       0.00000000      0.33333333      0.33333333</v>
   <v>       0.08333333      0.33333333      0.33333333</v>
   <v>       0.16666667      0.33333333      0.33333333</v>
   <v>       0.25000000      0.33333333      0.33333333</v>
   <v>       0.33333333      0.33333333      0.33333333</v>
   <v>       0.41666667      0.33333333      0.33333333</v>
   <v>       0.50000000      0.33333333      0.33333333</v>
   <v>       0.00000000      0.41666667      0.33333333</v>
   <v>       0.08333333      0.41666667      0.33333333</v>
   <v>       0.16666667      0.41666667      0.33333333</v>
   <v>       0.25000000      0.41666667      0.33333333</v>
   <v>       0.33333333      0.41666667      0.33333333</v>
   <v>       0.41666667      0.41666667      0.33333333</v>
   <v>       0.50000000      0.41666667      0.33333333</v>
   <v>       0.00000000      0.50000000      0.33333333</v>
   <v>       0.08333333      0.50000000      0.33333333</v>
   <v>       0.16666667      0.50000000      0.33333333</v>
   <v>       0.25000000      0.50000000      0.33333333</v>
   <v>       0.33333333      0.50000000      0.33333333</v>
   <v>       0.41666667      0.50000000      0.33333333</v>
   <v>       0.50000000      0.50000000      0.33333333</v>
   <v>       0.00000000      0.41666667      0.41666667</v>
   <v>       0.08333333      0.41666667      0.41666667</v>
   <v>       0.16666667      0.41666667      0.41666667</v>
   <v>       0.25000000      0.41666667      0.41666667</v>
   <v>       0.33333333      0.41666667      0.41666667</v>
   <v>       0.41666667      0.41666667      0.41666667</v>
   <v>       0.50000000      0.41666667      0.41666667</v>
   <v>       0.00000000      0.50000000      0.41666667</v>
   <v>       0.08333333      0.50000000      0.41666667</v>
   <v>       0.16666667      0.50000000      0.41666667</v>
   <v>       0.25000000      0.50000000      0.41666667</v>
   <v>       0.33333333      0.50000000      0.41666667</v>
   <v>       0.41666667      0.50000000      0.41666667</v>
   <v>       0.50000000      0.50000000      0.41666667</v>
   <v>       0.00000000      0.50000000      0.50000000</v>
   <v>       0.08333333      0.50000000      0.50000000</v>
   <v>       0.16666667      0.50000000      0.50000000</v>
   <v>       0.25000000      0.50000000      0.50000000</v>
   <v>       0.33333333      0.50000000      0.50000000</v>
   <v>       0.41666667      0.50000000      0.50000000</v>
   <v>       0.50000000      0.50000000      0.50000000</v>
  </varray>
  <varray name="weights" >
   <v>       0.00057870</v>
   <v>       0.00115741</v>
   <v>       0.00115741</v>
   <v>       0.00115741</v>
   <v>       0.00115741</v>
   <v>       0.00115741</v>
   <v>       0.00057870</v>
   <v>       0.00231481</v>
   <v>       0.00462963</v>
   <v>       0.00462963</v>
   <v>       0.00462963</v>
   <v>       0.00462963</v>
   <v>       0.00462963</v>
   <v>       0.00231481</v>
   <v>       0.00231481</v>
   <v>       0.00462963</v>
   <v>       0.00462963</v>
   <v>       0.00462963</v>
   <v>       0.00462963</v>
   <v>       0.00462963</v>
   <v>       0.00231481</v>
   <v>       0.00231481</v>
   <v>       0.00462963</v>
   <v>       0.00462963</v>
   <v>       0.00462963</v>
   <v>       0.00462963</v>
   <v>       0.00462963</v>
   <v>       0.00231481</v>
   <v>       0.00231481</v>
   <v>       0.00462963</v>
   <v>       0.00462963</v>
   <v>       0.00462963</v>
   <v>       0.00462963</v>
   <v>       0.00462963</v>
   <v>       0.00231481</v>
   <v>       0.00231481</v>
   <v>       0.00462963</v>
   <v>       0.00462963</v>
   <v>       0.00462963</v>
   <v>       0.00462963</v>
   <v>       0.00462963</v>
   <v>       0.00231481</v>
   <v>       0.00115741</v>
   <v>       0.00231481</v>
   <v>       0.00231481</v>
   <v>       0.00231481</v>
   <v>       0.00231481</v>
   <v>       0.00231481</v>
   <v>       0.00115741</v>
   <v>       0.00231481</v>
   <v>       0.00462963</v>
   <v>       0.00462963</v>
   <v>       0.00462963</v>
   <v>       0.00462963</v>
   <v>       0.00462963</v>
   <v>       0.00231481</v>
   <v>       0.00462963</v>
   <v>       0.00925926</v>
   <v>       0.00925926</v>
   <v>       0.00925926</v>
   <v>       0.00925926</v>
   <v>       0.00925926</v>
   <v>       0.00462963</v>
   <v>       0.00462963</v>
   <v>       0.00925926</v>
   <v>       0.00925926</v>
   <v>       0.00925926</v>
   <v>       0.00925926</v>
   <v>       0.00925926</v>
   <v>       0.00462963</v>
   <v>       0.00462963</v>
   <v>       0.00925926</v>
   <v>       0.00925926</v>
   <v>       0.00925926</v>
   <v>       0.00925926</v>
   <v>       0.00925926</v>
   <v>       0.00462963</v>
   <v>       0.00462963</v>
   <v>       0.00925926</v>
   <v>       0.00925926</v>
   <v>       0.00925926</v>
   <v>       0.00925926</v>
   <v>       0.00925926</v>
   <v>       0.00462963</v>
   <v>       0.00231481</v>
   <v>       0.00462963</v>
   <v>       0.00462963</v>
   <v>       0.00462963</v>
   <v>       0.00462963</v>
   <v>       0.00462963</v>
   <v>       0.00231481</v>
   <v>       0.00231481</v>
   <v>       0.00462963</v>
   <v>       0.00462963</v>
   <v>       0.00462963</v>
   <v>       0.00462963</v>
   <v>       0.00462963</v>
   <v>       0.00231481</v>
   <v>       0.00462963</v>
   <v>       0.00925926</v>
   <v>       0.00925926</v>
   <v>       0.00925926</v>
   <v>       0.00925926</v>
   <v>       0.00925926</v>
   <v>       0.00462963</v>
   <v>       0.00462963</v>
   <v>       0.00925926</v>
   <v>       0.00925926</v>
   <v>       0.00925926</v>
   <v>       0.00925926</v>
   <v>       0.00925926</v>
   <v>       0.00462963</v>
   <v>       0.00462963</v>
   <v>       0.00925926</v>
   <v>       0.00925926</v>
   <v>       0.00925926</v>
   <v>       0.00925926</v>
   <v>       0.00925926</v>
   <v>       0.00462963</v>
   <v>       0.00231481</v>
   <v>       0.00462963</v>
   <v>       0.00462963</v>
   <v>       0.00462963</v>
   <v>       0.00462963</v>
   <v>       0.00462963</v>
   <v>       0.00231481</v>
   <v>       0.00231481</v>
   <v>       0.00462963</v>
   <v>       0.00462963</v>
   <v>       0.00462963</v>
   <v>       0.00462963</v>
   <v>       0.00462963</v>
   <v>       0.00231481</v>
   <v>       0.00462963</v>
   <v>       0.00925926</v>
   <v>       0.00925926</v>
   <v>       0.00925926</v>
   <v>       0.00925926</v>
   <v>       0.00925926</v>
   <v>       0.00462963</v>
   <v>       0.00462963</v>
   <v>       0.00925926</v>
   <v>       0.00925926</v>
   <v>       0.00925926</v>
   <v>       0.00925926</v>
   <v>       0.00925926</v>
   <v>       0.00462963</v>
   <v>       0.00231481</v>
   <v>       0.00462963</v>
   <v>       0.00462963</v>
   <v>       0.00462963</v>
   <v>       0.00462963</v>
   <v>       0.00462963</v>
   <v>       0.00231481</v>
   <v>       0.00231481</v>
   <v>       0.00462963</v>
   <v>       0.00462963</v>
   <v>       0.00462963</v>
   <v>       0.00462963</v>
   <v>       0.00462963</v>
   <v>       0.00231481</v>
   <v>       0.00462963</v>
   <v>       0.00925926</v>
   <v>       0.00925926</v>
   <v>       0.00925926</v>
   <v>       0.00925926</v>
   <v>       0.00925926</v>
   <v>       0.00462963</v>
   <v>       0.00231481</v>
   <v>       0.00462963</v>
   <v>       0.00462963</v>
   <v>       0.00462963</v>
   <v>       0.00462963</v>
   <v>       0.00462963</v>
   <v>       0.00231481</v>
   <v>       0.00231481</v>
   <v>       0.00462963</v>
   <v>       0.00462963</v>
   <v>       0.00462963</v>
   <v>       0.00462963</v>
   <v>       0.00462963</v>
   <v>       0.00231481</v>
   <v>       0.00231481</v>
   <v>       0.00462963</v>
   <v>       0.00462963</v>
   <v>       0.00462963</v>
   <v>       0.00462963</v>
   <v>       0.00462963</v>
   <v>       0.00231481</v>
   <v>       0.00057870</v>
   <v>       0.00115741</v>
   <v>       0.00115741</v>
   <v>       0.00115741</v>
   <v>       0.00115741</v>
   <v>       0.00115741</v>
   <v>       0.00057870</v>
  </varray>
 </kpoints>
 <parameters>
  <separator name="general" >
   <i type="string" name="SYSTEM">unknown system</i>
   <i type="logical" name="LCOMPAT"> F  </i>
  </separator>
  <separator name="electronic" >
   <i type="string" name="PREC">accura</i>
   <i name="ENMAX">    750.00000000</i>
   <i name="ENAUG">    291.05200000</i>
   <i name="EDIFF">      0.00000001</i>
   <i type="int" name="IALGO">    38</i>
   <i type="int" name="IWAVPR">    10</i>
   <i type="int" name="NBANDS">    65</i>
   <i name="NELECT">     96.00000000</i>
   <separator name="electronic smearing" >
    <i type="int" name="ISMEAR">     0</i>
    <i name="SIGMA">      0.01000000</i>
   </separator>
   <separator name="electronic projectors" >
    <i type="logical" name="LREAL"> F  </i>
    <v name="ROPT">      0.00000000</v>
    <i type="int" name="LMAXPAW">  -100</i>
    <i type="int" name="LMAXMIX">     2</i>
   </separator>
   <separator name="electronic startup" >
    <i type="int" name="ISTART">     0</i>
    <i type="int" name="ICHARG">     2</i>
    <i type="int" name="INIWAV">     1</i>
   </separator>
   <separator name="electronic spin" >
    <i type="int" name="ISPIN">     1</i>
    <i type="logical" name="LNONCOLLINEAR"> F  </i>
    <v name="MAGMOM">      1.00000000      1.00000000      1.00000000      1.00000000      1.00000000      1.00000000      1.00000000      1.00000000      1.00000000      1.00000000      1.00000000      1.00000000      1.00000000      1.00000000      1.00000000      1.00000000      1.00000000      1.00000000      1.00000000      1.00000000
      1.00000000      1.00000000      1.00000000      1.00000000      1.00000000      1.00000000      1.00000000      1.00000000      1.00000000      1.00000000      1.00000000      1.00000000</v>
    <i name="NUPDOWN">     -1.00000000</i>
    <i type="logical" name="LSORBIT"> F  </i>
    <v name="SAXIS">      0.00000000      0.00000000      1.00000000</v>
    <i type="logical" name="LSPIRAL"> F  </i>
    <v name="QSPIRAL">      0.00000000      0.00000000      0.00000000</v>
    <i type="logical" name="LZEROZ"> F  </i>
   </separator>
   <separator name="electronic exchange-correlation" >
    <i type="string" name="GGA">--</i>
    <i type="int" name="VOSKOWN">     0</i>
    <i type="logical" name="LASPH"> F  </i>
    <i type="logical" name="LMETAGGA"> F  </i>
    <i type="string" name="GGA2">--</i>
   </separator>
   <separator name="electronic convergence" >
    <i type="int" name="NELM">    60</i>
    <i type="int" name="NELMDL">     0</i>
    <i type="int" name="NELMIN">     2</i>
    <i name="ENINI">    750.00000000</i>
    <separator name="electronic convergence detail" >
     <i type="logical" name="LDIAG"> T  </i>
     <i name="WEIMIN">      0.00000000</i>
     <i name="EBREAK">      0.00000000</i>
     <i name="DEPER">      0.30000000</i>
     <i type="int" name="NRMM">     4</i>
     <i name="TIME">      0.10000000</i>
    </separator>
   </separator>
   <separator name="electronic mixer" >
    <i name="AMIX">      0.40000000</i>
    <i name="BMIX">      1.00000000</i>
    <i name="AMIN">      0.10000000</i>
    <i name="AMIX_MAG">      1.60000000</i>
    <i name="BMIX_MAG">      1.00000000</i>
    <separator name="electronic mixer details" >
     <i type="int" name="IMIX">     4</i>
     <i type="int" name="MAXMIX">   -45</i>
     <i name="WC">    100.00000000</i>
     <i type="int" name="INIMIX">     1</i>
     <i type="int" name="MIXPRE">     1</i>
     <i type="int" name="MREMOVE">     5</i>
    </separator>
   </separator>
   <separator name="electronic dipolcorrection" >
    <i type="int" name="IDIPOL">     0</i>
    <i type="logical" name="LDIPOL"> F  </i>
    <v name="DIPOL">   -100.00000000</v>
    <i name="EFIELD">      0.00000000</i>
   </separator>
  </separator>
  <separator name="grids" >
   <i type="int" name="NGX">    80</i>
   <i type="int" name="NGY">    80</i>
   <i type="int" name="NGZ">    80</i>
   <i type="int" name="NGXF">   160</i>
   <i type="int" name="NGYF">   160</i>
   <i type="int" name="NGZF">   160</i>
   <i type="logical" name="ADDGRID"> T  </i>
  </separator>
  <separator name="ionic" >
   <i type="int" name="NSW">     0</i>
   <i type="int" name="IBRION">    -1</i>
   <i type="int" name="ISIF">     2</i>
   <i name="PSTRESS">      0.00000000</i>
   <i name="EDIFFG">      0.00000010</i>
   <i type="int" name="NFREE">     0</i>
   <i name="POTIM">      0.50000000</i>
   <i name="SMASS">     -3.00000000</i>
  </separator>
  <separator name="ionic md" >
   <i name="TEBEG">      0.00010000</i>
   <i name="TEEND">      0.00010000</i>
   <i type="int" name="NBLOCK">     1</i>
   <i type="int" name="KBLOCK">     1</i>
   <i type="int" name="NPACO">   256</i>
   <i name="APACO">     16.00000000</i>
  </separator>
  <separator name="symmetry" >
   <i type="int" name="ISYM">     2</i>
   <i name="SYMPREC">      0.00001000</i>
  </separator>
  <separator name="dos" >
   <i type="logical" name="LORBIT"> F  </i>
   <v name="RWIGS">     -1.00000000</v>
   <i type="int" name="NEDOS">   301</i>
   <i name="EMIN">     10.00000000</i>
   <i name="EMAX">    -10.00000000</i>
  </separator>
  <separator name="writing" >
   <i type="int" name="NWRITE">     2</i>
   <i type="logical" name="LWAVE"> F  </i>
   <i type="logical" name="LCHARG"> F  </i>
   <i type="logical" name="LPARD"> F  </i>
   <i type="logical" name="LVTOT"> F  </i>
   <i type="logical" name="LELF"> F  </i>
   <i type="logical" name="LOPTICS"> F  </i>
   <i name="STM">      0.00000000</i>
  </separator>
  <separator name="performance" >
   <i type="int" name="NPAR">     4</i>
   <i type="int" name="NSIM">     4</i>
   <i type="int" name="NBLK">   256</i>
   <i type="logical" name="LPLANE"> T  </i>
   <i type="logical" name="LCRITICAL_MEM"> F  </i>
   <i type="logical" name="LSCALAPACK"> F  </i>
   <i type="logical" name="LSCALU"> F  </i>
   <i type="logical" name="LASYNC"> F  </i>
  </separator>
  <separator name="miscellaneous" >
   <i type="int" name="IDIOT">     3</i>
   <i type="logical" name="LMUSIC"> F  </i>
   <v name="POMASS">     26.98200000</v>
   <i type="logical" name="LCORR"> T  </i>
  </separator>
  <i type="logical" name="LREAL_COMPAT"> F  </i>
  <i type="logical" name="GGA_COMPAT"> T  </i>
  <i type="logical" name="LBERRY"> F  </i>
  <i type="int" name="ICORELEVEL">     0</i>
  <i type="logical" name="LDAU"> F  </i>
  <i type="int" name="I_CONSTRAINED_M">     0</i>
 </parameters>
 <atominfo>
  <atoms>      32</atoms>
  <types>       1</types>
  <array name="atoms" >
   <dimension dim="1">ion</dimension>
   <field type="string">element</field>
   <field type="int">atomtype</field>
   <set>
    <rc><c>Al</c><c>   1</c></rc>
    <rc><c>Al</c><c>   1</c></rc>
    <rc><c>Al</c><c>   1</c></rc>
    <rc><c>Al</c><c>   1</c></rc>
    <rc><c>Al</c><c>   1</c></rc>
    <rc><c>Al</c><c>   1</c></rc>
    <rc><c>Al</c><c>   1</c></rc>
    <rc><c>Al</c><c>   1</c></rc>
    <rc><c>Al</c><c>   1</c></rc>
    <rc><c>Al</c><c>   1</c></rc>
    <rc><c>Al</c><c>   1</c></rc>
    <rc><c>Al</c><c>   1</c></rc>
    <rc><c>Al</c><c>   1</c></rc>
    <rc><c>Al</c><c>   1</c></rc>
    <rc><c>Al</c><c>   1</c></rc>
    <rc><c>Al</c><c>   1</c></rc>
    <rc><c>Al</c><c>   1</c></rc>
    <rc><c>Al</c><c>   1</c></rc>
    <rc><c>Al</c><c>   1</c></rc>
    <rc><c>Al</c><c>   1</c></rc>
    <rc><c>Al</c><c>   1</c></rc>
    <rc><c>Al</c><c>   1</c></rc>
    <rc><c>Al</c><c>   1</c></rc>
    <rc><c>Al</c><c>   1</c></rc>
    <rc><c>Al</c><c>   1</c></rc>
    <rc><c>Al</c><c>   1</c></rc>
    <rc><c>Al</c><c>   1</c></rc>
    <rc><c>Al</c><c>   1</c></rc>
    <rc><c>Al</c><c>   1</c></rc>
    <rc><c>Al</c><c>   1</c></rc>
    <rc><c>Al</c><c>   1</c></rc>
    <rc><c>Al</c><c>   1</c></rc>
   </set>
  </array>
  <array name="atomtypes" >
   <dimension dim="1">type</dimension>
   <field type="int">atomspertype</field>
   <field type="string">element</field>
   <field>mass</field>
   <field>valence</field>
   <field type="string">pseudopotential</field>
   <set>
    <rc><c>  32</c><c>Al</c><c>     26.98200000</c><c>      3.00000000</c><c> PAW_PBE Al 04Jan2001                   </c></rc>
   </set>
  </array>
 </atominfo>
 <structure name="initialpos" >
  <crystal>
   <varray name="basis" >
    <v>       8.23610499      0.00000000      0.00000000</v>
    <v>       0.00000000      8.23610499      0.00000000</v>
    <v>       0.00000000      0.00000000      8.23610499</v>
   </varray>
   <i name="volume">    558.68321432</i>
   <varray name="rec_basis" >
    <v>       0.12141662      0.00000000      0.00000000</v>
    <v>       0.00000000      0.12141662      0.00000000</v>
    <v>       0.00000000      0.00000000      0.12141662</v>
   </varray>
  </crystal>
  <varray name="positions" >
   <v>       0.25121417      0.25000000      0.00000000</v>
   <v>       0.75000000      0.25000000      0.00000000</v>
   <v>       0.25000000      0.75000000      0.00000000</v>
   <v>       0.75000000      0.75000000      0.00000000</v>
   <v>       0.25000000      0.25000000      0.50000000</v>
   <v>       0.75000000      0.25000000      0.50000000</v>
   <v>       0.25000000      0.75000000      0.50000000</v>
   <v>       0.75000000      0.75000000      0.50000000</v>
   <v>       0.25000000      0.00000000      0.25000000</v>
   <v>       0.75000000      0.00000000      0.25000000</v>
   <v>       0.25000000      0.50000000      0.25000000</v>
   <v>       0.75000000      0.50000000      0.25000000</v>
   <v>       0.25000000      0.00000000      0.75000000</v>
   <v>       0.75000000      0.00000000      0.75000000</v>
   <v>       0.25000000      0.50000000      0.75000000</v>
   <v>       0.75000000      0.50000000      0.75000000</v>
   <v>       0.00000000      0.25000000      0.25000000</v>
   <v>       0.50000000      0.25000000      0.25000000</v>
   <v>       0.00000000      0.75000000      0.25000000</v>
   <v>       0.50000000      0.75000000      0.25000000</v>
   <v>       0.00000000      0.25000000      0.75000000</v>
   <v>       0.50000000      0.25000000      0.75000000</v>
   <v>       0.00000000      0.75000000      0.75000000</v>
   <v>       0.50000000      0.75000000      0.75000000</v>
   <v>       0.00000000      0.00000000      0.00000000</v>
   <v>       0.50000000      0.00000000      0.00000000</v>
   <v>       0.00000000      0.50000000      0.00000000</v>
   <v>       0.50000000      0.50000000      0.00000000</v>
   <v>       0.00000000      0.00000000      0.50000000</v>
   <v>       0.50000000      0.00000000      0.50000000</v>
   <v>       0.00000000      0.50000000      0.50000000</v>
   <v>       0.50000000      0.50000000      0.50000000</v>
  </varray>
 </structure>
 <calculation>
  <scstep>
   <time name="dav"> 2204.83 2207.90</time>
   <time name="total"> 2210.19 2213.27</time>
   <energy>
    <i name="alphaZ">     -6.15630361</i>
    <i name="ewald">  -2308.62146778</i>
    <i name="hartreedc">     -4.03024973</i>
    <i name="XCdc">   -842.89018203</i>
    <i name="pawpsdc">   1137.73615723</i>
    <i name="pawaedc">   -115.16745734</i>
    <i name="eentropy">     -0.00025773</i>
    <i name="bandstr">    599.75893334</i>
    <i name="atom">   1713.23509266</i>
    <i name="e_fr_energy">    173.86426500</i>
    <i name="e_wo_entrp">    173.86452274</i>
    <i name="e_0_energy">    173.86439387</i>
   </energy>
  </scstep>
  <scstep>
   <time name="dav"> 2511.46 2514.91</time>
   <time name="total"> 2511.52 2514.99</time>
   <energy>
    <i name="e_fr_energy">   -102.47349025</i>
    <i name="e_wo_entrp">   -102.47292817</i>
    <i name="e_0_energy">   -102.47320921</i>
   </energy>
  </scstep>
  <scstep>
   <time name="dav"> 2655.78 2659.43</time>
   <time name="total"> 2655.84 2659.50</time>
   <energy>
    <i name="e_fr_energy">   -119.72295491</i>
    <i name="e_wo_entrp">   -119.72234711</i>
    <i name="e_0_energy">   -119.72265101</i>
   </energy>
  </scstep>
  <scstep>
   <time name="dav"> 2548.40 2550.00</time>
   <time name="total"> 2548.46 2550.06</time>
   <energy>
    <i name="e_fr_energy">   -120.14439339</i>
    <i name="e_wo_entrp">   -120.14370785</i>
    <i name="e_0_energy">   -120.14405062</i>
   </energy>
  </scstep>
  <scstep>
   <time name="dav"> 2566.59 2567.42</time>
   <time name="total"> 2737.17 2738.05</time>
   <energy>
    <i name="e_fr_energy">   -120.14974619</i>
    <i name="e_wo_entrp">   -120.14905696</i>
    <i name="e_0_energy">   -120.14940157</i>
   </energy>
  </scstep>
  <scstep>
   <time name="dav"> 2505.12 2505.93</time>
   <time name="total"> 2680.77 2681.64</time>
   <energy>
    <i name="e_fr_energy">   -119.74613639</i>
    <i name="e_wo_entrp">   -119.74536828</i>
    <i name="e_0_energy">   -119.74575233</i>
   </energy>
  </scstep>
  <scstep>
   <time name="dav"> 2495.14 2497.97</time>
   <time name="total"> 2680.32 2683.23</time>
   <energy>
    <i name="e_fr_energy">   -119.45272005</i>
    <i name="e_wo_entrp">   -119.45193043</i>
    <i name="e_0_energy">   -119.45232524</i>
   </energy>
  </scstep>
  <scstep>
   <time name="dav"> 2637.56 2638.62</time>
   <time name="total"> 2820.46 2821.60</time>
   <energy>
    <i name="e_fr_energy">   -119.45273484</i>
    <i name="e_wo_entrp">   -119.45194716</i>
    <i name="e_0_energy">   -119.45234100</i>
   </energy>
  </scstep>
  <scstep>
   <time name="dav"> 2618.38 2619.44</time>
   <time name="total"> 2803.19 2804.33</time>
   <energy>
    <i name="e_fr_energy">   -119.45275679</i>
    <i name="e_wo_entrp">   -119.45197038</i>
    <i name="e_0_energy">   -119.45236359</i>
   </energy>
  </scstep>
  <scstep>
   <time name="dav"> 2640.84 2641.91</time>
   <time name="total"> 2823.80 2824.96</time>
   <energy>
    <i name="e_fr_energy">   -119.45275674</i>
    <i name="e_wo_entrp">   -119.45197048</i>
    <i name="e_0_energy">   -119.45236361</i>
   </energy>
  </scstep>
  <scstep>
   <time name="dav"> 2614.70 2618.09</time>
   <time name="total"> 2799.20 2802.86</time>
   <energy>
    <i name="e_fr_energy">   -119.45275344</i>
    <i name="e_wo_entrp">   -119.45196716</i>
    <i name="e_0_energy">   -119.45236030</i>
   </energy>
  </scstep>
  <scstep>
   <time name="dav"> 2023.54 2027.07</time>
   <time name="total"> 2211.31 2215.12</time>
   <energy>
    <i name="e_fr_energy">   -119.45275232</i>
    <i name="e_wo_entrp">   -119.45196606</i>
    <i name="e_0_energy">   -119.45235919</i>
   </energy>
  </scstep>
  <scstep>
   <time name="dav"> 1777.52 1780.09</time>
   <time name="total"> 1962.50 1965.39</time>
   <energy>
    <i name="e_fr_energy">   -119.45275219</i>
    <i name="e_wo_entrp">   -119.45196593</i>
    <i name="e_0_energy">   -119.45235906</i>
   </energy>
  </scstep>
  <scstep>
   <time name="dav"> 1750.58 1753.07</time>
   <time name="total"> 1757.72 1760.22</time>
   <energy>
    <i name="alphaZ">     -6.15630361</i>
    <i name="ewald">  -2308.62146778</i>
    <i name="hartreedc">     -3.17766491</i>
    <i name="XCdc">   -839.77673271</i>
    <i name="pawpsdc">   1136.27471781</i>
    <i name="pawaedc">   -113.84230738</i>
    <i name="eentropy">     -0.00078626</i>
    <i name="bandstr">    302.61269998</i>
    <i name="atom">   1713.23509266</i>
    <i name="e_fr_energy">   -119.45275219</i>
    <i name="e_wo_entrp">   -119.45196593</i>
    <i name="e_0_energy">   -119.45235906</i>
   </energy>
  </scstep>
  <structure>
   <crystal>
    <varray name="basis" >
     <v>       8.23610499      0.00000000      0.00000000</v>
     <v>       0.00000000      8.23610499      0.00000000</v>
     <v>       0.00000000      0.00000000      8.23610499</v>
    </varray>
    <i name="volume">    558.68321432</i>
    <varray name="rec_basis" >
     <v>       0.12141662      0.00000000      0.00000000</v>
     <v>       0.00000000      0.12141662      0.00000000</v>
     <v>       0.00000000      0.00000000      0.12141662</v>
    </varray>
   </crystal>
   <varray name="positions" >
    <v>       0.25121417      0.25000000      0.00000000</v>
    <v>       0.75000000      0.25000000      0.00000000</v>
    <v>       0.25000000      0.75000000      0.00000000</v>
    <v>       0.75000000      0.75000000      0.00000000</v>
    <v>       0.25000000      0.25000000      0.50000000</v>
    <v>       0.75000000      0.25000000      0.50000000</v>
    <v>       0.25000000      0.75000000      0.50000000</v>
    <v>       0.75000000      0.75000000      0.50000000</v>
    <v>       0.25000000      0.00000000      0.25000000</v>
    <v>       0.75000000      0.00000000      0.25000000</v>
    <v>       0.25000000      0.50000000      0.25000000</v>
    <v>       0.75000000      0.50000000      0.25000000</v>
    <v>       0.25000000      0.00000000      0.75000000</v>
    <v>       0.75000000      0.00000000      0.75000000</v>
    <v>       0.25000000      0.50000000      0.75000000</v>
    <v>       0.75000000      0.50000000      0.75000000</v>
    <v>       0.00000000      0.25000000      0.25000000</v>
    <v>       0.50000000      0.25000000      0.25000000</v>
    <v>       0.00000000      0.75000000      0.25000000</v>
    <v>       0.50000000      0.75000000      0.25000000</v>
    <v>       0.00000000      0.25000000      0.75000000</v>
    <v>       0.50000000      0.25000000      0.75000000</v>
    <v>       0.00000000      0.75000000      0.75000000</v>
    <v>       0.50000000      0.75000000      0.75000000</v>
    <v>       0.00000000      0.00000000      0.00000000</v>
    <v>       0.50000000      0.00000000      0.00000000</v>
    <v>       0.00000000      0.50000000      0.00000000</v>
    <v>       0.50000000      0.50000000      0.00000000</v>
    <v>       0.00000000      0.00000000      0.50000000</v>
    <v>       0.50000000      0.00000000      0.50000000</v>
    <v>       0.00000000      0.50000000      0.50000000</v>
    <v>       0.50000000      0.50000000      0.50000000</v>
   </varray>
  </structure>
  <varray name="forces" >
   <v>      -0.03612885      0.00000000     -0.00000000</v>
   <v>       0.00221342     -0.00000000     -0.00000000</v>
   <v>      -0.00012125      0.00000000     -0.00000000</v>
   <v>       0.00059346      0.00000000      0.00000000</v>
   <v>      -0.00012125      0.00000000      0.00000000</v>
   <v>       0.00059346      0.00000000     -0.00000000</v>
   <v>       0.00005354      0.00000000     -0.00000000</v>
   <v>      -0.00085999      0.00000000     -0.00000000</v>
   <v>      -0.00159155      0.00001353     -0.00001353</v>
   <v>      -0.00059273      0.00000182     -0.00000182</v>
   <v>      -0.00159155     -0.00001353     -0.00001353</v>
   <v>      -0.00059273     -0.00000182     -0.00000182</v>
   <v>      -0.00159155      0.00001353      0.00001353</v>
   <v>      -0.00059273      0.00000182      0.00000182</v>
   <v>      -0.00159155     -0.00001353      0.00001353</v>
   <v>      -0.00059273     -0.00000182      0.00000182</v>
   <v>       0.00508675      0.00000000     -0.00519312</v>
   <v>       0.00521411      0.00000000      0.00537450</v>
   <v>       0.00016404      0.00000000      0.00013672</v>
   <v>       0.00016375      0.00000000     -0.00014242</v>
   <v>       0.00508675      0.00000000      0.00519312</v>
   <v>       0.00521411      0.00000000     -0.00537450</v>
   <v>       0.00016404      0.00000000     -0.00013672</v>
   <v>       0.00016375      0.00000000      0.00014242</v>
   <v>       0.00508675      0.00519312      0.00000000</v>
   <v>       0.00521411     -0.00537450      0.00000000</v>
   <v>       0.00508675     -0.00519312      0.00000000</v>
   <v>       0.00521411      0.00537450      0.00000000</v>
   <v>       0.00016404     -0.00013672     -0.00000000</v>
   <v>       0.00016375      0.00014242     -0.00000000</v>
   <v>       0.00016404      0.00013672     -0.00000000</v>
   <v>       0.00016375     -0.00014242      0.00000000</v>
  </varray>
  <varray name="stress" >
   <v>     -39.02176737      0.00000000      0.00000000</v>
   <v>       0.00000000    -39.02399109      0.00000000</v>
   <v>       0.00000000      0.00000000    -39.02399109</v>
  </varray>
  <energy>
   <i name="e_fr_energy">   -119.45275219</i>
   <i name="e_wo_entrp">   -119.45235906</i>
   <i name="e_0_energy">     -0.00078626</i>
  </energy>
  <eigenvalues>
   <array>
    <dimension dim="1">band</dimension>
    <dimension dim="2">kpoint</dimension>
    <dimension dim="3">spin</dimension>
    <field>eigene</field>
    <field>occ</field>
    <set>
     <set comment="spin 1">
      <set comment="kpoint 1">
       <r>  -3.3268  1.0000</r>
       <r>  -1.1635  1.0000</r>
       <r>  -1.1599  1.0000</r>
       <r>  -1.1599  1.0000</r>
       <r>  -1.1599  1.0000</r>
       <r>  -1.1599  1.0000</r>
       <r>  -1.1563  1.0000</r>
       <r>   0.9701  1.0000</r>
       <r>   0.9746  1.0000</r>
       <r>   0.9746  1.0000</r>
       <r>   0.9762  1.0000</r>
       <r>   0.9763  1.0000</r>
       <r>   0.9763  1.0000</r>
       <r>   0.9763  1.0000</r>
       <r>   0.9763  1.0000</r>
       <r>   0.9765  1.0000</r>
       <r>   0.9780  1.0000</r>
       <r>   0.9780  1.0000</r>
       <r>   0.9825  1.0000</r>
       <r>   3.0533  1.0000</r>
       <r>   3.0534  1.0000</r>
       <r>   3.0534  1.0000</r>
       <r>   3.0534  1.0000</r>
       <r>   3.1173  1.0000</r>
       <r>   3.1173  1.0000</r>
       <r>   3.1173  1.0000</r>
       <r>   3.1174  1.0000</r>
       <r>   4.6358  1.0000</r>
       <r>   4.6358  1.0000</r>
       <r>   4.6358  1.0000</r>
       <r>   5.8260  1.0000</r>
       <r>   5.8260  1.0000</r>
       <r>   5.8260  1.0000</r>
       <r>   6.6444  1.0000</r>
       <r>   6.6444  1.0000</r>
       <r>   6.6486  1.0000</r>
       <r>   6.6486  1.0000</r>
       <r>   6.6487  1.0000</r>
       <r>   6.6487  1.0000</r>
       <r>   6.6487  1.0000</r>
       <r>   6.6487  1.0000</r>
       <r>   6.6488  1.0000</r>
       <r>   6.6488  1.0000</r>
       <r>   6.6530  1.0000</r>
       <r>   6.6530  1.0000</r>
       <r>   7.6857  0.0000</r>
       <r>   7.6897  0.0000</r>
       <r>   7.6897  0.0000</r>
       <r>   7.6897  0.0000</r>
       <r>   7.6897  0.0000</r>
       <r>   7.6937  0.0000</r>
       <r>   8.2223  0.0000</r>
       <r>   8.2233  0.0000</r>
       <r>   8.2233  0.0000</r>
       <r>   8.2233  0.0000</r>
       <r>   8.2233  0.0000</r>
       <r>   8.2242  0.0000</r>
       <r>   8.6615  0.0000</r>
       <r>   8.6615  0.0000</r>
       <r>   8.6636  0.0000</r>
       <r>   8.6654  0.0000</r>
       <r>   8.6655  0.0000</r>
       <r>   8.6655  0.0000</r>
       <r>   8.6655  0.0000</r>
       <r>   8.6656  0.0000</r>
       <r>   8.6672  0.0000</r>
       <r>   8.6692  0.0000</r>
       <r>   8.6695  0.0000</r>
      </set>
      <set comment="kpoint 2">
       <r>  -3.3116  1.0000</r>
       <r>  -1.5039  1.0000</r>
       <r>  -1.1450  1.0000</r>
       <r>  -1.1449  1.0000</r>
       <r>  -1.1449  1.0000</r>
       <r>  -1.1449  1.0000</r>
       <r>  -0.7870  1.0000</r>
       <r>   0.6371  1.0000</r>
       <r>   0.6371  1.0000</r>
       <r>   0.6371  1.0000</r>
       <r>   0.6372  1.0000</r>
       <r>   0.9910  1.0000</r>
       <r>   0.9910  1.0000</r>
       <r>   0.9910  1.0000</r>
       <r>   0.9910  1.0000</r>
       <r>   1.3440  1.0000</r>
       <r>   1.3440  1.0000</r>
       <r>   1.3440  1.0000</r>
       <r>   1.3441  1.0000</r>
       <r>   2.7489  1.0000</r>
       <r>   2.7489  1.0000</r>
       <r>   2.7489  1.0000</r>
       <r>   2.7489  1.0000</r>
       <r>   3.4500  1.0000</r>
       <r>   3.4500  1.0000</r>
       <r>   3.4500  1.0000</r>
       <r>   3.4500  1.0000</r>
       <r>   4.3286  1.0000</r>
       <r>   4.6497  1.0000</r>
       <r>   4.6497  1.0000</r>
       <r>   5.8408  1.0000</r>
       <r>   5.8408  1.0000</r>
       <r>   6.1597  1.0000</r>
       <r>   6.3267  1.0000</r>
       <r>   6.3267  1.0000</r>
       <r>   6.3601  1.0000</r>
       <r>   6.3601  1.0000</r>
       <r>   6.3601  1.0000</r>
       <r>   6.3601  1.0000</r>
       <r>   6.6627  1.0000</r>
       <r>   6.6627  1.0000</r>
       <r>   6.6627  1.0000</r>
       <r>   6.6627  1.0000</r>
       <r>   6.9988  1.0000</r>
       <r>   6.9988  1.0000</r>
       <r>   7.5326  0.0000</r>
       <r>   7.5326  0.0000</r>
       <r>   7.8356  0.0000</r>
       <r>   7.8356  0.0000</r>
       <r>   7.8356  0.0000</r>
       <r>   7.8356  0.0000</r>
       <r>   8.3430  0.0000</r>
       <r>   8.3430  0.0000</r>
       <r>   8.3431  0.0000</r>
       <r>   8.3431  0.0000</r>
       <r>   8.3939  0.0000</r>
       <r>   8.3942  0.0000</r>
       <r>   8.3942  0.0000</r>
       <r>   8.3942  0.0000</r>
       <r>   8.4056  0.0000</r>
       <r>   8.4058  0.0000</r>
       <r>   8.4064  0.0000</r>
       <r>   8.4064  0.0000</r>
       <r>   8.4072  0.0000</r>
       <r>   8.4076  0.0000</r>
       <r>   9.0159  0.0000</r>
       <r>   9.0159  0.0000</r>
       <r>   9.0159  0.0000</r>
      </set>
      <set comment="kpoint 3">
       <r>  -3.2662  1.0000</r>
       <r>  -1.8186  1.0000</r>
       <r>  -1.1002  1.0000</r>
       <r>  -1.1001  1.0000</r>
       <r>  -1.1001  1.0000</r>
       <r>  -1.1001  1.0000</r>
       <r>  -0.3854  1.0000</r>
       <r>   0.3268  1.0000</r>
       <r>   0.3268  1.0000</r>
       <r>   0.3268  1.0000</r>
       <r>   0.3268  1.0000</r>
       <r>   1.0352  1.0000</r>
       <r>   1.0352  1.0000</r>
       <r>   1.0352  1.0000</r>
       <r>   1.0352  1.0000</r>
       <r>   1.7400  1.0000</r>
       <r>   1.7400  1.0000</r>
       <r>   1.7400  1.0000</r>
       <r>   1.7400  1.0000</r>
       <r>   2.4432  1.0000</r>
       <r>   2.4432  1.0000</r>
       <r>   2.4432  1.0000</r>
       <r>   2.4432  1.0000</r>
       <r>   3.7707  1.0000</r>
       <r>   3.8405  1.0000</r>
       <r>   3.8405  1.0000</r>
       <r>   3.8405  1.0000</r>
       <r>   3.8405  1.0000</r>
       <r>   4.6916  1.0000</r>
       <r>   4.6916  1.0000</r>
       <r>   5.8233  1.0000</r>
       <r>   5.8233  1.0000</r>
       <r>   5.8233  1.0000</r>
       <r>   5.8234  1.0000</r>
       <r>   5.8853  1.0000</r>
       <r>   5.8854  1.0000</r>
       <r>   6.0329  1.0000</r>
       <r>   6.0329  1.0000</r>
       <r>   6.7046  1.0000</r>
       <r>   6.7046  1.0000</r>
       <r>   6.7046  1.0000</r>
       <r>   6.7046  1.0000</r>
       <r>   6.7970  1.0000</r>
       <r>   7.2678  1.0000</r>
       <r>   7.2678  1.0000</r>
       <r>   7.3770  1.0000</r>
       <r>   7.3770  1.0000</r>
       <r>   7.8720  0.0000</r>
       <r>   7.8720  0.0000</r>
       <r>   7.8720  0.0000</r>
       <r>   7.8720  0.0000</r>
       <r>   7.9646  0.0000</r>
       <r>   7.9646  0.0000</r>
       <r>   7.9646  0.0000</r>
       <r>   7.9646  0.0000</r>
       <r>   8.0489  0.0000</r>
       <r>   8.0489  0.0000</r>
       <r>   8.0489  0.0000</r>
       <r>   8.0489  0.0000</r>
       <r>   8.7501  0.0000</r>
       <r>   8.7501  0.0000</r>
       <r>   8.9350  0.0000</r>
       <r>   8.9350  0.0000</r>
       <r>   8.9350  0.0000</r>
       <r>   8.9350  0.0000</r>
       <r>   9.3847  0.0000</r>
       <r>   9.3892  0.0000</r>
       <r>   9.3920  0.0000</r>
      </set>
      <set comment="kpoint 4">
       <r>  -3.1904  1.0000</r>
       <r>  -2.1040  1.0000</r>
       <r>  -1.0255  1.0000</r>
       <r>  -1.0255  1.0000</r>
       <r>  -1.0255  1.0000</r>
       <r>  -1.0255  1.0000</r>
       <r>   0.0424  1.0000</r>
       <r>   0.0454  1.0000</r>
       <r>   0.0454  1.0000</r>
       <r>   0.0454  1.0000</r>
       <r>   0.0475  1.0000</r>
       <r>   1.1089  1.0000</r>
       <r>   1.1089  1.0000</r>
       <r>   1.1089  1.0000</r>
       <r>   1.1089  1.0000</r>
       <r>   2.1614  1.0000</r>
       <r>   2.1633  1.0000</r>
       <r>   2.1633  1.0000</r>
       <r>   2.1639  1.0000</r>
       <r>   2.1656  1.0000</r>
       <r>   2.1663  1.0000</r>
       <r>   2.1663  1.0000</r>
       <r>   2.1682  1.0000</r>
       <r>   3.1806  1.0000</r>
       <r>   4.2591  1.0000</r>
       <r>   4.2591  1.0000</r>
       <r>   4.2591  1.0000</r>
       <r>   4.2591  1.0000</r>
       <r>   4.7614  1.0000</r>
       <r>   4.7614  1.0000</r>
       <r>   5.2486  1.0000</r>
       <r>   5.2486  1.0000</r>
       <r>   5.2486  1.0000</r>
       <r>   5.2486  1.0000</r>
       <r>   5.7672  1.0000</r>
       <r>   5.7672  1.0000</r>
       <r>   5.9594  1.0000</r>
       <r>   5.9594  1.0000</r>
       <r>   6.7746  1.0000</r>
       <r>   6.7746  1.0000</r>
       <r>   6.7746  1.0000</r>
       <r>   6.7746  1.0000</r>
       <r>   7.0053  1.0000</r>
       <r>   7.0053  1.0000</r>
       <r>   7.3065  1.0000</r>
       <r>   7.3065  1.0000</r>
       <r>   7.3065  1.0000</r>
       <r>   7.3065  1.0000</r>
       <r>   7.5194  0.0000</r>
       <r>   7.7808  0.0000</r>
       <r>   7.7808  0.0000</r>
       <r>   7.7827  0.0000</r>
       <r>   7.7827  0.0000</r>
       <r>   7.7854  0.0000</r>
       <r>   7.7854  0.0000</r>
       <r>   8.0615  0.0000</r>
       <r>   8.0615  0.0000</r>
       <r>   8.0615  0.0000</r>
       <r>   8.0615  0.0000</r>
       <r>   9.1143  0.0000</r>
       <r>   9.1143  0.0000</r>
       <r>   9.1144  0.0000</r>
       <r>   9.1144  0.0000</r>
       <r>   9.1430  0.0000</r>
       <r>   9.1430  0.0000</r>
       <r>   9.6139  0.0000</r>
       <r>   9.6139  0.0000</r>
       <r>   9.6141  0.0000</r>
      </set>
      <set comment="kpoint 5">
       <r>  -3.0845  1.0000</r>
       <r>  -2.3598  1.0000</r>
       <r>  -0.9211  1.0000</r>
       <r>  -0.9211  1.0000</r>
       <r>  -0.9211  1.0000</r>
       <r>  -0.9211  1.0000</r>
       <r>  -0.2068  1.0000</r>
       <r>  -0.2068  1.0000</r>
       <r>  -0.2068  1.0000</r>
       <r>  -0.2068  1.0000</r>
       <r>   0.5025  1.0000</r>
       <r>   1.2119  1.0000</r>
       <r>   1.2119  1.0000</r>
       <r>   1.2119  1.0000</r>
       <r>   1.2119  1.0000</r>
       <r>   1.9167  1.0000</r>
       <r>   1.9168  1.0000</r>
       <r>   1.9168  1.0000</r>
       <r>   1.9168  1.0000</r>
       <r>   2.5994  1.0000</r>
       <r>   2.6154  1.0000</r>
       <r>   2.6154  1.0000</r>
       <r>   2.6154  1.0000</r>
       <r>   2.6155  1.0000</r>
       <r>   4.6791  1.0000</r>
       <r>   4.6791  1.0000</r>
       <r>   4.6791  1.0000</r>
       <r>   4.6792  1.0000</r>
       <r>   4.7051  1.0000</r>
       <r>   4.7051  1.0000</r>
       <r>   4.7051  1.0000</r>
       <r>   4.7052  1.0000</r>
       <r>   4.8591  1.0000</r>
       <r>   4.8591  1.0000</r>
       <r>   5.5296  1.0000</r>
       <r>   5.5296  1.0000</r>
       <r>   6.0629  1.0000</r>
       <r>   6.0629  1.0000</r>
       <r>   6.7443  1.0000</r>
       <r>   6.7444  1.0000</r>
       <r>   6.7444  1.0000</r>
       <r>   6.7445  1.0000</r>
       <r>   6.7632  1.0000</r>
       <r>   6.7634  1.0000</r>
       <r>   6.8726  1.0000</r>
       <r>   6.8726  1.0000</r>
       <r>   6.8726  1.0000</r>
       <r>   6.8726  1.0000</r>
       <r>   7.5446  0.0000</r>
       <r>   7.5446  0.0000</r>
       <r>   7.5446  0.0000</r>
       <r>   7.5446  0.0000</r>
       <r>   8.1720  0.0000</r>
       <r>   8.1720  0.0000</r>
       <r>   8.1720  0.0000</r>
       <r>   8.1720  0.0000</r>
       <r>   8.2183  0.0000</r>
       <r>   8.2183  0.0000</r>
       <r>   8.2858  0.0000</r>
       <r>   8.8712  0.0000</r>
       <r>   8.8712  0.0000</r>
       <r>   8.8712  0.0000</r>
       <r>   8.8712  0.0000</r>
       <r>   9.5660  0.0000</r>
       <r>   9.5660  0.0000</r>
       <r>  10.2356  0.0000</r>
       <r>  10.2367  0.0000</r>
       <r>  10.2389  0.0000</r>
      </set>
      <set comment="kpoint 6">
       <r>  -2.9483  1.0000</r>
       <r>  -2.5859  1.0000</r>
       <r>  -0.7869  1.0000</r>
       <r>  -0.7869  1.0000</r>
       <r>  -0.7869  1.0000</r>
       <r>  -0.7869  1.0000</r>
       <r>  -0.4296  1.0000</r>
       <r>  -0.4296  1.0000</r>
       <r>  -0.4296  1.0000</r>
       <r>  -0.4296  1.0000</r>
       <r>   0.9879  1.0000</r>
       <r>   1.3443  1.0000</r>
       <r>   1.3443  1.0000</r>
       <r>   1.3443  1.0000</r>
       <r>   1.3443  1.0000</r>
       <r>   1.6968  1.0000</r>
       <r>   1.6968  1.0000</r>
       <r>   1.6968  1.0000</r>
       <r>   1.6968  1.0000</r>
       <r>   2.0379  1.0000</r>
       <r>   3.0937  1.0000</r>
       <r>   3.0937  1.0000</r>
       <r>   3.0937  1.0000</r>
       <r>   3.0938  1.0000</r>
       <r>   4.1274  1.0000</r>
       <r>   4.1274  1.0000</r>
       <r>   4.1274  1.0000</r>
       <r>   4.1275  1.0000</r>
       <r>   4.9847  1.0000</r>
       <r>   4.9847  1.0000</r>
       <r>   5.1778  1.0000</r>
       <r>   5.1778  1.0000</r>
       <r>   5.1778  1.0000</r>
       <r>   5.1778  1.0000</r>
       <r>   5.3200  1.0000</r>
       <r>   5.3200  1.0000</r>
       <r>   6.1948  1.0000</r>
       <r>   6.1955  1.0000</r>
       <r>   6.1994  1.0000</r>
       <r>   6.1994  1.0000</r>
       <r>   6.1994  1.0000</r>
       <r>   6.2000  1.0000</r>
       <r>   6.5464  1.0000</r>
       <r>   6.5465  1.0000</r>
       <r>   6.9985  1.0000</r>
       <r>   6.9985  1.0000</r>
       <r>   6.9986  1.0000</r>
       <r>   6.9986  1.0000</r>
       <r>   7.3346  1.0000</r>
       <r>   7.3346  1.0000</r>
       <r>   7.3346  1.0000</r>
       <r>   7.3346  1.0000</r>
       <r>   8.3063  0.0000</r>
       <r>   8.3063  0.0000</r>
       <r>   8.3063  0.0000</r>
       <r>   8.3063  0.0000</r>
       <r>   8.6554  0.0000</r>
       <r>   8.6554  0.0000</r>
       <r>   8.6554  0.0000</r>
       <r>   8.6554  0.0000</r>
       <r>   8.6813  0.0000</r>
       <r>   8.6813  0.0000</r>
       <r>   9.0852  0.0000</r>
       <r>   9.6919  0.0000</r>
       <r>   9.6919  0.0000</r>
       <r>  10.0125  0.0000</r>
       <r>  10.0125  0.0000</r>
       <r>  10.6985  0.0000</r>
      </set>
      <set comment="kpoint 7">
       <r>  -2.7835  1.0000</r>
       <r>  -2.7807  1.0000</r>
       <r>  -0.6269  1.0000</r>
       <r>  -0.6239  1.0000</r>
       <r>  -0.6239  1.0000</r>
       <r>  -0.6231  1.0000</r>
       <r>  -0.6229  1.0000</r>
       <r>  -0.6222  1.0000</r>
       <r>  -0.6222  1.0000</r>
       <r>  -0.6192  1.0000</r>
       <r>   1.4977  1.0000</r>
       <r>   1.5002  1.0000</r>
       <r>   1.5045  1.0000</r>
       <r>   1.5047  1.0000</r>
       <r>   1.5047  1.0000</r>
       <r>   1.5056  1.0000</r>
       <r>   1.5064  1.0000</r>
       <r>   1.5072  1.0000</r>
       <r>   1.5072  1.0000</r>
       <r>   1.5096  1.0000</r>
       <r>   3.5971  1.0000</r>
       <r>   3.5974  1.0000</r>
       <r>   3.5974  1.0000</r>
       <r>   3.5981  1.0000</r>
       <r>   3.5983  1.0000</r>
       <r>   3.5990  1.0000</r>
       <r>   3.5990  1.0000</r>
       <r>   3.5993  1.0000</r>
       <r>   5.1369  1.0000</r>
       <r>   5.1369  1.0000</r>
       <r>   5.1398  1.0000</r>
       <r>   5.1398  1.0000</r>
       <r>   5.6753  1.0000</r>
       <r>   5.6753  1.0000</r>
       <r>   5.6759  1.0000</r>
       <r>   5.6761  1.0000</r>
       <r>   5.6766  1.0000</r>
       <r>   5.6769  1.0000</r>
       <r>   5.6775  1.0000</r>
       <r>   5.6775  1.0000</r>
       <r>   6.3551  1.0000</r>
       <r>   6.3560  1.0000</r>
       <r>   6.3578  1.0000</r>
       <r>   6.3587  1.0000</r>
       <r>   7.1503  1.0000</r>
       <r>   7.1503  1.0000</r>
       <r>   7.1512  1.0000</r>
       <r>   7.1525  1.0000</r>
       <r>   7.1526  1.0000</r>
       <r>   7.1539  1.0000</r>
       <r>   7.1548  1.0000</r>
       <r>   7.1548  1.0000</r>
       <r>   8.4650  0.0000</r>
       <r>   8.4660  0.0000</r>
       <r>   8.4660  0.0000</r>
       <r>   8.4662  0.0000</r>
       <r>   8.4682  0.0000</r>
       <r>   8.4683  0.0000</r>
       <r>   8.4683  0.0000</r>
       <r>   8.4694  0.0000</r>
       <r>   9.1713  0.0000</r>
       <r>   9.1713  0.0000</r>
       <r>   9.1736  0.0000</r>
       <r>   9.1736  0.0000</r>
       <r>   9.9127  0.0000</r>
       <r>   9.9142  0.0000</r>
       <r>  10.4770  0.0000</r>
       <r>  10.4776  0.0000</r>
      </set>
      <set comment="kpoint 8">
       <r>  -3.3116  1.0000</r>
       <r>  -1.5039  1.0000</r>
       <r>  -1.1477  1.0000</r>
       <r>  -1.1449  1.0000</r>
       <r>  -1.1449  1.0000</r>
       <r>  -1.1422  1.0000</r>
       <r>  -0.7870  1.0000</r>
       <r>   0.6343  1.0000</r>
       <r>   0.6371  1.0000</r>
       <r>   0.6372  1.0000</r>
       <r>   0.6399  1.0000</r>
       <r>   0.9889  1.0000</r>
       <r>   0.9899  1.0000</r>
       <r>   0.9921  1.0000</r>
       <r>   0.9932  1.0000</r>
       <r>   1.3412  1.0000</r>
       <r>   1.3440  1.0000</r>
       <r>   1.3440  1.0000</r>
       <r>   1.3468  1.0000</r>
       <r>   2.7468  1.0000</r>
       <r>   2.7478  1.0000</r>
       <r>   2.7500  1.0000</r>
       <r>   2.7511  1.0000</r>
       <r>   3.4479  1.0000</r>
       <r>   3.4489  1.0000</r>
       <r>   3.4511  1.0000</r>
       <r>   3.4522  1.0000</r>
       <r>   4.3285  1.0000</r>
       <r>   4.6497  1.0000</r>
       <r>   4.6497  1.0000</r>
       <r>   5.8408  1.0000</r>
       <r>   5.8409  1.0000</r>
       <r>   6.1597  1.0000</r>
       <r>   6.3266  1.0000</r>
       <r>   6.3267  1.0000</r>
       <r>   6.3571  1.0000</r>
       <r>   6.3601  1.0000</r>
       <r>   6.3601  1.0000</r>
       <r>   6.3632  1.0000</r>
       <r>   6.6600  1.0000</r>
       <r>   6.6627  1.0000</r>
       <r>   6.6627  1.0000</r>
       <r>   6.6653  1.0000</r>
       <r>   6.9988  1.0000</r>
       <r>   6.9988  1.0000</r>
       <r>   7.5326  0.0000</r>
       <r>   7.5326  0.0000</r>
       <r>   7.8330  0.0000</r>
       <r>   7.8356  0.0000</r>
       <r>   7.8356  0.0000</r>
       <r>   7.8381  0.0000</r>
       <r>   8.3404  0.0000</r>
       <r>   8.3431  0.0000</r>
       <r>   8.3431  0.0000</r>
       <r>   8.3458  0.0000</r>
       <r>   8.3915  0.0000</r>
       <r>   8.3931  0.0000</r>
       <r>   8.3952  0.0000</r>
       <r>   8.3967  0.0000</r>
       <r>   8.4050  0.0000</r>
       <r>   8.4063  0.0000</r>
       <r>   8.4064  0.0000</r>
       <r>   8.4066  0.0000</r>
       <r>   8.4068  0.0000</r>
       <r>   8.4078  0.0000</r>
       <r>   9.0134  0.0000</r>
       <r>   9.0159  0.0000</r>
       <r>   9.0181  0.0000</r>
      </set>
      <set comment="kpoint 9">
       <r>  -3.2965  1.0000</r>
       <r>  -1.4900  1.0000</r>
       <r>  -1.4877  1.0000</r>
       <r>  -1.1300  1.0000</r>
       <r>  -1.1300  1.0000</r>
       <r>  -0.7732  1.0000</r>
       <r>  -0.7709  1.0000</r>
       <r>   0.2972  1.0000</r>
       <r>   0.6503  1.0000</r>
       <r>   0.6512  1.0000</r>
       <r>   0.6526  1.0000</r>
       <r>   0.6535  1.0000</r>
       <r>   1.0051  1.0000</r>
       <r>   1.0062  1.0000</r>
       <r>   1.3571  1.0000</r>
       <r>   1.3580  1.0000</r>
       <r>   1.3594  1.0000</r>
       <r>   1.3603  1.0000</r>
       <r>   1.7109  1.0000</r>
       <r>   2.4140  1.0000</r>
       <r>   2.4140  1.0000</r>
       <r>   3.0815  1.0000</r>
       <r>   3.0815  1.0000</r>
       <r>   3.1471  1.0000</r>
       <r>   3.1471  1.0000</r>
       <r>   3.8117  1.0000</r>
       <r>   3.8117  1.0000</r>
       <r>   4.3423  1.0000</r>
       <r>   4.3431  1.0000</r>
       <r>   4.6637  1.0000</r>
       <r>   5.8557  1.0000</r>
       <r>   6.0361  1.0000</r>
       <r>   6.0384  1.0000</r>
       <r>   6.1739  1.0000</r>
       <r>   6.1747  1.0000</r>
       <r>   6.3384  1.0000</r>
       <r>   6.3393  1.0000</r>
       <r>   6.3401  1.0000</r>
       <r>   6.3422  1.0000</r>
       <r>   6.4125  1.0000</r>
       <r>   6.4126  1.0000</r>
       <r>   6.7073  1.0000</r>
       <r>   6.7089  1.0000</r>
       <r>   7.0115  1.0000</r>
       <r>   7.0140  1.0000</r>
       <r>   7.5890  0.0000</r>
       <r>   7.5910  0.0000</r>
       <r>   7.8161  0.0000</r>
       <r>   7.8183  0.0000</r>
       <r>   8.0208  0.0000</r>
       <r>   8.0555  0.0000</r>
       <r>   8.0556  0.0000</r>
       <r>   8.0691  0.0000</r>
       <r>   8.0700  0.0000</r>
       <r>   8.0714  0.0000</r>
       <r>   8.0723  0.0000</r>
       <r>   8.4515  0.0000</r>
       <r>   8.4523  0.0000</r>
       <r>   8.5115  0.0000</r>
       <r>   8.5115  0.0000</r>
       <r>   8.6792  0.0000</r>
       <r>   8.6810  0.0000</r>
       <r>   8.6926  0.0000</r>
       <r>   8.6945  0.0000</r>
       <r>   8.7443  0.0000</r>
       <r>   8.7453  0.0000</r>
       <r>   8.7457  0.0000</r>
       <r>   8.7467  0.0000</r>
      </set>
      <set comment="kpoint 10">
       <r>  -3.2510  1.0000</r>
       <r>  -1.8036  1.0000</r>
       <r>  -1.4440  1.0000</r>
       <r>  -1.0852  1.0000</r>
       <r>  -1.0852  1.0000</r>
       <r>  -0.7274  1.0000</r>
       <r>  -0.3705  1.0000</r>
       <r>  -0.0138  1.0000</r>
       <r>   0.3416  1.0000</r>
       <r>   0.3416  1.0000</r>
       <r>   0.6955  1.0000</r>
       <r>   0.6962  1.0000</r>
       <r>   0.6968  1.0000</r>
       <r>   1.4020  1.0000</r>
       <r>   1.4028  1.0000</r>
       <r>   1.4034  1.0000</r>
       <r>   1.7547  1.0000</r>
       <r>   1.7547  1.0000</r>
       <r>   2.1057  1.0000</r>
       <r>   2.1072  1.0000</r>
       <r>   2.1074  1.0000</r>
       <r>   2.8069  1.0000</r>
       <r>   2.8069  1.0000</r>
       <r>   3.5079  1.0000</r>
       <r>   3.5079  1.0000</r>
       <r>   3.7850  1.0000</r>
       <r>   4.2018  1.0000</r>
       <r>   4.2018  1.0000</r>
       <r>   4.3852  1.0000</r>
       <r>   4.7055  1.0000</r>
       <r>   5.4977  1.0000</r>
       <r>   5.7416  1.0000</r>
       <r>   5.8356  1.0000</r>
       <r>   5.8356  1.0000</r>
       <r>   5.9002  1.0000</r>
       <r>   6.0469  1.0000</r>
       <r>   6.1751  1.0000</r>
       <r>   6.2182  1.0000</r>
       <r>   6.3827  1.0000</r>
       <r>   6.4236  1.0000</r>
       <r>   6.4236  1.0000</r>
       <r>   6.8114  1.0000</r>
       <r>   7.0547  1.0000</r>
       <r>   7.0591  1.0000</r>
       <r>   7.3366  1.0000</r>
       <r>   7.3910  1.0000</r>
       <r>   7.5470  0.0000</r>
       <r>   7.5470  0.0000</r>
       <r>   7.5783  0.0000</r>
       <r>   7.6596  0.0000</r>
       <r>   7.7266  0.0000</r>
       <r>   7.7751  0.0000</r>
       <r>   7.7751  0.0000</r>
       <r>   8.2197  0.0000</r>
       <r>   8.2248  0.0000</r>
       <r>   8.2253  0.0000</r>
       <r>   8.2577  0.0000</r>
       <r>   8.2578  0.0000</r>
       <r>   8.3993  0.0000</r>
       <r>   8.7095  0.0000</r>
       <r>   8.7713  0.0000</r>
       <r>   8.9650  0.0000</r>
       <r>   8.9650  0.0000</r>
       <r>   9.0392  0.0000</r>
       <r>   9.0591  0.0000</r>
       <r>   9.0721  0.0000</r>
       <r>   9.1246  0.0000</r>
       <r>   9.1246  0.0000</r>
      </set>
      <set comment="kpoint 11">
       <r>  -3.1753  1.0000</r>
       <r>  -2.0890  1.0000</r>
       <r>  -1.3692  1.0000</r>
       <r>  -1.0106  1.0000</r>
       <r>  -1.0106  1.0000</r>
       <r>  -0.6529  1.0000</r>
       <r>  -0.2958  1.0000</r>
       <r>   0.0580  1.0000</r>
       <r>   0.0602  1.0000</r>
       <r>   0.0616  1.0000</r>
       <r>   0.4154  1.0000</r>
       <r>   0.7700  1.0000</r>
       <r>   0.7700  1.0000</r>
       <r>   1.4763  1.0000</r>
       <r>   1.4763  1.0000</r>
       <r>   1.8263  1.0000</r>
       <r>   1.8290  1.0000</r>
       <r>   1.8302  1.0000</r>
       <r>   2.1786  1.0000</r>
       <r>   2.1786  1.0000</r>
       <r>   2.5276  1.0000</r>
       <r>   2.5304  1.0000</r>
       <r>   2.5316  1.0000</r>
       <r>   3.1951  1.0000</r>
       <r>   3.9268  1.0000</r>
       <r>   3.9268  1.0000</r>
       <r>   4.4560  1.0000</r>
       <r>   4.6197  1.0000</r>
       <r>   4.6197  1.0000</r>
       <r>   4.7753  1.0000</r>
       <r>   4.9204  1.0000</r>
       <r>   5.2623  1.0000</r>
       <r>   5.2623  1.0000</r>
       <r>   5.4737  1.0000</r>
       <r>   5.6037  1.0000</r>
       <r>   5.7812  1.0000</r>
       <r>   5.9742  1.0000</r>
       <r>   6.2912  1.0000</r>
       <r>   6.4526  1.0000</r>
       <r>   6.4931  1.0000</r>
       <r>   6.4931  1.0000</r>
       <r>   6.9800  1.0000</r>
       <r>   6.9800  1.0000</r>
       <r>   7.0088  1.0000</r>
       <r>   7.1247  1.0000</r>
       <r>   7.3225  1.0000</r>
       <r>   7.4605  0.0000</r>
       <r>   7.5074  0.0000</r>
       <r>   7.5076  0.0000</r>
       <r>   7.5273  0.0000</r>
       <r>   7.5337  0.0000</r>
       <r>   7.6606  0.0000</r>
       <r>   7.6606  0.0000</r>
       <r>   7.7412  0.0000</r>
       <r>   7.7975  0.0000</r>
       <r>   8.1331  0.0000</r>
       <r>   8.3657  0.0000</r>
       <r>   8.3657  0.0000</r>
       <r>   8.3945  0.0000</r>
       <r>   8.7878  0.0000</r>
       <r>   9.1597  0.0000</r>
       <r>   9.3142  0.0000</r>
       <r>   9.4149  0.0000</r>
       <r>   9.4150  0.0000</r>
       <r>   9.4358  0.0000</r>
       <r>   9.4672  0.0000</r>
       <r>   9.4801  0.0000</r>
       <r>   9.5315  0.0000</r>
      </set>
      <set comment="kpoint 12">
       <r>  -3.0693  1.0000</r>
       <r>  -2.3447  1.0000</r>
       <r>  -1.2645  1.0000</r>
       <r>  -0.9062  1.0000</r>
       <r>  -0.9061  1.0000</r>
       <r>  -0.5492  1.0000</r>
       <r>  -0.5481  1.0000</r>
       <r>  -0.1919  1.0000</r>
       <r>  -0.1919  1.0000</r>
       <r>   0.1638  1.0000</r>
       <r>   0.5173  1.0000</r>
       <r>   0.8733  1.0000</r>
       <r>   0.8733  1.0000</r>
       <r>   1.5785  1.0000</r>
       <r>   1.5789  1.0000</r>
       <r>   1.5798  1.0000</r>
       <r>   1.5801  1.0000</r>
       <r>   2.2798  1.0000</r>
       <r>   2.2823  1.0000</r>
       <r>   2.2824  1.0000</r>
       <r>   2.6139  1.0000</r>
       <r>   2.6300  1.0000</r>
       <r>   2.6300  1.0000</r>
       <r>   2.9791  1.0000</r>
       <r>   4.3490  1.0000</r>
       <r>   4.3736  1.0000</r>
       <r>   4.3736  1.0000</r>
       <r>   4.5551  1.0000</r>
       <r>   4.6933  1.0000</r>
       <r>   4.6933  1.0000</r>
       <r>   4.8730  1.0000</r>
       <r>   5.0368  1.0000</r>
       <r>   5.0648  1.0000</r>
       <r>   5.0648  1.0000</r>
       <r>   5.2337  1.0000</r>
       <r>   5.5436  1.0000</r>
       <r>   6.0776  1.0000</r>
       <r>   6.3932  1.0000</r>
       <r>   6.4168  1.0000</r>
       <r>   6.4168  1.0000</r>
       <r>   6.5506  1.0000</r>
       <r>   6.5915  1.0000</r>
       <r>   6.5915  1.0000</r>
       <r>   6.7752  1.0000</r>
       <r>   7.0841  1.0000</r>
       <r>   7.0998  1.0000</r>
       <r>   7.1000  1.0000</r>
       <r>   7.2218  1.0000</r>
       <r>   7.2234  1.0000</r>
       <r>   7.2681  1.0000</r>
       <r>   7.2681  1.0000</r>
       <r>   7.8466  0.0000</r>
       <r>   7.8949  0.0000</r>
       <r>   7.9521  0.0000</r>
       <r>   8.2323  0.0000</r>
       <r>   8.2999  0.0000</r>
       <r>   8.4777  0.0000</r>
       <r>   8.4777  0.0000</r>
       <r>   8.5196  0.0000</r>
       <r>   8.5439  0.0000</r>
       <r>   9.1733  0.0000</r>
       <r>   9.1733  0.0000</r>
       <r>   9.2242  0.0000</r>
       <r>   9.5813  0.0000</r>
       <r>   9.8598  0.0000</r>
       <r>   9.9213  0.0000</r>
       <r>   9.9625  0.0000</r>
       <r>   9.9655  0.0000</r>
      </set>
      <set comment="kpoint 13">
       <r>  -2.9332  1.0000</r>
       <r>  -2.5708  1.0000</r>
       <r>  -1.1300  1.0000</r>
       <r>  -0.7733  1.0000</r>
       <r>  -0.7720  1.0000</r>
       <r>  -0.7706  1.0000</r>
       <r>  -0.4162  1.0000</r>
       <r>  -0.4148  1.0000</r>
       <r>  -0.4135  1.0000</r>
       <r>  -0.0585  1.0000</r>
       <r>   1.0021  1.0000</r>
       <r>   1.0059  1.0000</r>
       <r>   1.0064  1.0000</r>
       <r>   1.3592  1.0000</r>
       <r>   1.3592  1.0000</r>
       <r>   1.7112  1.0000</r>
       <r>   1.7112  1.0000</r>
       <r>   2.0523  1.0000</r>
       <r>   2.0629  1.0000</r>
       <r>   2.0631  1.0000</r>
       <r>   2.7594  1.0000</r>
       <r>   3.1083  1.0000</r>
       <r>   3.1083  1.0000</r>
       <r>   3.4562  1.0000</r>
       <r>   3.7957  1.0000</r>
       <r>   4.1418  1.0000</r>
       <r>   4.1418  1.0000</r>
       <r>   4.4870  1.0000</r>
       <r>   4.6824  1.0000</r>
       <r>   4.8471  1.0000</r>
       <r>   4.8471  1.0000</r>
       <r>   4.9987  1.0000</r>
       <r>   5.0218  1.0000</r>
       <r>   5.3339  1.0000</r>
       <r>   5.5366  1.0000</r>
       <r>   5.5366  1.0000</r>
       <r>   5.8707  1.0000</r>
       <r>   5.8707  1.0000</r>
       <r>   6.2100  1.0000</r>
       <r>   6.5240  1.0000</r>
       <r>   6.5558  1.0000</r>
       <r>   6.5560  1.0000</r>
       <r>   6.5604  1.0000</r>
       <r>   6.6765  1.0000</r>
       <r>   6.7184  1.0000</r>
       <r>   6.7184  1.0000</r>
       <r>   6.8704  1.0000</r>
       <r>   7.0124  1.0000</r>
       <r>   7.0567  1.0000</r>
       <r>   7.0567  1.0000</r>
       <r>   7.3488  1.0000</r>
       <r>   7.6849  0.0000</r>
       <r>   7.9790  0.0000</r>
       <r>   8.3276  0.0000</r>
       <r>   8.4124  0.0000</r>
       <r>   8.6118  0.0000</r>
       <r>   8.6118  0.0000</r>
       <r>   8.6582  0.0000</r>
       <r>   8.6952  0.0000</r>
       <r>   8.9588  0.0000</r>
       <r>   8.9588  0.0000</r>
       <r>   9.0089  0.0000</r>
       <r>   9.0992  0.0000</r>
       <r>   9.4175  0.0000</r>
       <r>   9.7060  0.0000</r>
       <r>  10.0272  0.0000</r>
       <r>  10.3064  0.0000</r>
       <r>  10.3794  0.0000</r>
      </set>
      <set comment="kpoint 14">
       <r>  -2.7684  1.0000</r>
       <r>  -2.7656  1.0000</r>
       <r>  -0.9672  1.0000</r>
       <r>  -0.9644  1.0000</r>
       <r>  -0.6101  1.0000</r>
       <r>  -0.6090  1.0000</r>
       <r>  -0.6074  1.0000</r>
       <r>  -0.6062  1.0000</r>
       <r>  -0.2529  1.0000</r>
       <r>  -0.2501  1.0000</r>
       <r>   1.1659  1.0000</r>
       <r>   1.1671  1.0000</r>
       <r>   1.1687  1.0000</r>
       <r>   1.1699  1.0000</r>
       <r>   1.5140  1.0000</r>
       <r>   1.5154  1.0000</r>
       <r>   1.8705  1.0000</r>
       <r>   1.8717  1.0000</r>
       <r>   1.8733  1.0000</r>
       <r>   1.8745  1.0000</r>
       <r>   3.2644  1.0000</r>
       <r>   3.2658  1.0000</r>
       <r>   3.6119  1.0000</r>
       <r>   3.6121  1.0000</r>
       <r>   3.6133  1.0000</r>
       <r>   3.6134  1.0000</r>
       <r>   3.9586  1.0000</r>
       <r>   3.9600  1.0000</r>
       <r>   4.8365  1.0000</r>
       <r>   4.8394  1.0000</r>
       <r>   5.1508  1.0000</r>
       <r>   5.1538  1.0000</r>
       <r>   5.3459  1.0000</r>
       <r>   5.3460  1.0000</r>
       <r>   5.3473  1.0000</r>
       <r>   5.3474  1.0000</r>
       <r>   6.0333  1.0000</r>
       <r>   6.0334  1.0000</r>
       <r>   6.0347  1.0000</r>
       <r>   6.0349  1.0000</r>
       <r>   6.3698  1.0000</r>
       <r>   6.3725  1.0000</r>
       <r>   6.6819  1.0000</r>
       <r>   6.6847  1.0000</r>
       <r>   6.8289  1.0000</r>
       <r>   6.8319  1.0000</r>
       <r>   6.8713  1.0000</r>
       <r>   6.8727  1.0000</r>
       <r>   6.8742  1.0000</r>
       <r>   6.8756  1.0000</r>
       <r>   7.5013  0.0000</r>
       <r>   7.5043  0.0000</r>
       <r>   8.1379  0.0000</r>
       <r>   8.1406  0.0000</r>
       <r>   8.7700  0.0000</r>
       <r>   8.7707  0.0000</r>
       <r>   8.7728  0.0000</r>
       <r>   8.7735  0.0000</r>
       <r>   8.8191  0.0000</r>
       <r>   8.8218  0.0000</r>
       <r>   8.9004  0.0000</r>
       <r>   8.9024  0.0000</r>
       <r>   9.1853  0.0000</r>
       <r>   9.1876  0.0000</r>
       <r>   9.9265  0.0000</r>
       <r>   9.9280  0.0000</r>
       <r>  10.4915  0.0000</r>
       <r>  10.4921  0.0000</r>
      </set>
      <set comment="kpoint 15">
       <r>  -3.2662  1.0000</r>
       <r>  -1.8186  1.0000</r>
       <r>  -1.1029  1.0000</r>
       <r>  -1.1001  1.0000</r>
       <r>  -1.1001  1.0000</r>
       <r>  -1.0974  1.0000</r>
       <r>  -0.3854  1.0000</r>
       <r>   0.3240  1.0000</r>
       <r>   0.3268  1.0000</r>
       <r>   0.3268  1.0000</r>
       <r>   0.3296  1.0000</r>
       <r>   1.0331  1.0000</r>
       <r>   1.0341  1.0000</r>
       <r>   1.0363  1.0000</r>
       <r>   1.0374  1.0000</r>
       <r>   1.7372  1.0000</r>
       <r>   1.7400  1.0000</r>
       <r>   1.7400  1.0000</r>
       <r>   1.7428  1.0000</r>
       <r>   2.4410  1.0000</r>
       <r>   2.4420  1.0000</r>
       <r>   2.4443  1.0000</r>
       <r>   2.4453  1.0000</r>
       <r>   3.7706  1.0000</r>
       <r>   3.8383  1.0000</r>
       <r>   3.8394  1.0000</r>
       <r>   3.8416  1.0000</r>
       <r>   3.8427  1.0000</r>
       <r>   4.6916  1.0000</r>
       <r>   4.6916  1.0000</r>
       <r>   5.8203  1.0000</r>
       <r>   5.8234  1.0000</r>
       <r>   5.8234  1.0000</r>
       <r>   5.8263  1.0000</r>
       <r>   5.8853  1.0000</r>
       <r>   5.8854  1.0000</r>
       <r>   6.0329  1.0000</r>
       <r>   6.0330  1.0000</r>
       <r>   6.7020  1.0000</r>
       <r>   6.7046  1.0000</r>
       <r>   6.7047  1.0000</r>
       <r>   6.7073  1.0000</r>
       <r>   6.7970  1.0000</r>
       <r>   7.2678  1.0000</r>
       <r>   7.2678  1.0000</r>
       <r>   7.3770  1.0000</r>
       <r>   7.3771  1.0000</r>
       <r>   7.8696  0.0000</r>
       <r>   7.8709  0.0000</r>
       <r>   7.8731  0.0000</r>
       <r>   7.8745  0.0000</r>
       <r>   7.9623  0.0000</r>
       <r>   7.9646  0.0000</r>
       <r>   7.9646  0.0000</r>
       <r>   7.9668  0.0000</r>
       <r>   8.0462  0.0000</r>
       <r>   8.0489  0.0000</r>
       <r>   8.0490  0.0000</r>
       <r>   8.0516  0.0000</r>
       <r>   8.7500  0.0000</r>
       <r>   8.7501  0.0000</r>
       <r>   8.9328  0.0000</r>
       <r>   8.9349  0.0000</r>
       <r>   8.9350  0.0000</r>
       <r>   8.9371  0.0000</r>
       <r>   9.3836  0.0000</r>
       <r>   9.3882  0.0000</r>
       <r>   9.3939  0.0000</r>
      </set>
      <set comment="kpoint 16">
       <r>  -3.2510  1.0000</r>
       <r>  -1.8036  1.0000</r>
       <r>  -1.4440  1.0000</r>
       <r>  -1.0852  1.0000</r>
       <r>  -1.0852  1.0000</r>
       <r>  -0.7274  1.0000</r>
       <r>  -0.3705  1.0000</r>
       <r>  -0.0138  1.0000</r>
       <r>   0.3416  1.0000</r>
       <r>   0.3416  1.0000</r>
       <r>   0.6947  1.0000</r>
       <r>   0.6962  1.0000</r>
       <r>   0.6976  1.0000</r>
       <r>   1.4013  1.0000</r>
       <r>   1.4028  1.0000</r>
       <r>   1.4041  1.0000</r>
       <r>   1.7547  1.0000</r>
       <r>   1.7547  1.0000</r>
       <r>   2.1057  1.0000</r>
       <r>   2.1072  1.0000</r>
       <r>   2.1074  1.0000</r>
       <r>   2.8069  1.0000</r>
       <r>   2.8069  1.0000</r>
       <r>   3.5079  1.0000</r>
       <r>   3.5079  1.0000</r>
       <r>   3.7850  1.0000</r>
       <r>   4.2018  1.0000</r>
       <r>   4.2018  1.0000</r>
       <r>   4.3852  1.0000</r>
       <r>   4.7055  1.0000</r>
       <r>   5.4977  1.0000</r>
       <r>   5.7416  1.0000</r>
       <r>   5.8356  1.0000</r>
       <r>   5.8356  1.0000</r>
       <r>   5.9002  1.0000</r>
       <r>   6.0469  1.0000</r>
       <r>   6.1751  1.0000</r>
       <r>   6.2182  1.0000</r>
       <r>   6.3826  1.0000</r>
       <r>   6.4236  1.0000</r>
       <r>   6.4236  1.0000</r>
       <r>   6.8114  1.0000</r>
       <r>   7.0548  1.0000</r>
       <r>   7.0591  1.0000</r>
       <r>   7.3366  1.0000</r>
       <r>   7.3910  1.0000</r>
       <r>   7.5470  0.0000</r>
       <r>   7.5470  0.0000</r>
       <r>   7.5783  0.0000</r>
       <r>   7.6596  0.0000</r>
       <r>   7.7266  0.0000</r>
       <r>   7.7752  0.0000</r>
       <r>   7.7752  0.0000</r>
       <r>   8.2202  0.0000</r>
       <r>   8.2248  0.0000</r>
       <r>   8.2248  0.0000</r>
       <r>   8.2577  0.0000</r>
       <r>   8.2577  0.0000</r>
       <r>   8.3993  0.0000</r>
       <r>   8.7095  0.0000</r>
       <r>   8.7713  0.0000</r>
       <r>   8.9650  0.0000</r>
       <r>   8.9650  0.0000</r>
       <r>   9.0392  0.0000</r>
       <r>   9.0591  0.0000</r>
       <r>   9.0721  0.0000</r>
       <r>   9.1246  0.0000</r>
       <r>   9.1246  0.0000</r>
      </set>
      <set comment="kpoint 17">
       <r>  -3.2056  1.0000</r>
       <r>  -1.7597  1.0000</r>
       <r>  -1.7575  1.0000</r>
       <r>  -1.0404  1.0000</r>
       <r>  -1.0404  1.0000</r>
       <r>  -0.3276  1.0000</r>
       <r>  -0.3258  1.0000</r>
       <r>  -0.3240  1.0000</r>
       <r>   0.3844  1.0000</r>
       <r>   0.3853  1.0000</r>
       <r>   0.3866  1.0000</r>
       <r>   0.3876  1.0000</r>
       <r>   1.0932  1.0000</r>
       <r>   1.0943  1.0000</r>
       <r>   1.7965  1.0000</r>
       <r>   1.7977  1.0000</r>
       <r>   1.7990  1.0000</r>
       <r>   1.7991  1.0000</r>
       <r>   1.8004  1.0000</r>
       <r>   1.8015  1.0000</r>
       <r>   2.4999  1.0000</r>
       <r>   3.1660  1.0000</r>
       <r>   3.1660  1.0000</r>
       <r>   3.2364  1.0000</r>
       <r>   3.2364  1.0000</r>
       <r>   3.8275  1.0000</r>
       <r>   3.8285  1.0000</r>
       <r>   4.5912  1.0000</r>
       <r>   4.5912  1.0000</r>
       <r>   4.7474  1.0000</r>
       <r>   5.1982  1.0000</r>
       <r>   5.2005  1.0000</r>
       <r>   5.8220  1.0000</r>
       <r>   5.8220  1.0000</r>
       <r>   5.9440  1.0000</r>
       <r>   5.9457  1.0000</r>
       <r>   5.9462  1.0000</r>
       <r>   6.0876  1.0000</r>
       <r>   6.0901  1.0000</r>
       <r>   6.5478  1.0000</r>
       <r>   6.5494  1.0000</r>
       <r>   6.8542  1.0000</r>
       <r>   6.8552  1.0000</r>
       <r>   7.2482  1.0000</r>
       <r>   7.2491  1.0000</r>
       <r>   7.2505  1.0000</r>
       <r>   7.2515  1.0000</r>
       <r>   7.3728  1.0000</r>
       <r>   7.3745  1.0000</r>
       <r>   7.4306  0.5870</r>
       <r>   7.4328  0.4631</r>
       <r>   7.4351  0.3415</r>
       <r>   8.1622  0.0000</r>
       <r>   8.1643  0.0000</r>
       <r>   8.6040  0.0000</r>
       <r>   8.6050  0.0000</r>
       <r>   8.6052  0.0000</r>
       <r>   8.6062  0.0000</r>
       <r>   8.7424  0.0000</r>
       <r>   8.7424  0.0000</r>
       <r>   8.7599  0.0000</r>
       <r>   8.7769  0.0000</r>
       <r>   8.7788  0.0000</r>
       <r>   8.8494  0.0000</r>
       <r>   8.8503  0.0000</r>
       <r>   9.1345  0.0000</r>
       <r>   9.1345  0.0000</r>
       <r>   9.6326  0.0000</r>
      </set>
      <set comment="kpoint 18">
       <r>  -3.1299  1.0000</r>
       <r>  -2.0439  1.0000</r>
       <r>  -1.6836  1.0000</r>
       <r>  -0.9658  1.0000</r>
       <r>  -0.9658  1.0000</r>
       <r>  -0.6081  1.0000</r>
       <r>  -0.2517  1.0000</r>
       <r>   0.1024  1.0000</r>
       <r>   0.1047  1.0000</r>
       <r>   0.1061  1.0000</r>
       <r>   0.4599  1.0000</r>
       <r>   0.4599  1.0000</r>
       <r>   0.8138  1.0000</r>
       <r>   1.5183  1.0000</r>
       <r>   1.5209  1.0000</r>
       <r>   1.5221  1.0000</r>
       <r>   1.8720  1.0000</r>
       <r>   1.8720  1.0000</r>
       <r>   2.2224  1.0000</r>
       <r>   2.2225  1.0000</r>
       <r>   2.9203  1.0000</r>
       <r>   2.9227  1.0000</r>
       <r>   2.9240  1.0000</r>
       <r>   3.2384  1.0000</r>
       <r>   3.6236  1.0000</r>
       <r>   3.6236  1.0000</r>
       <r>   3.8997  1.0000</r>
       <r>   4.6199  1.0000</r>
       <r>   4.8172  1.0000</r>
       <r>   4.9288  1.0000</r>
       <r>   5.0082  1.0000</r>
       <r>   5.0082  1.0000</r>
       <r>   5.3021  1.0000</r>
       <r>   5.3021  1.0000</r>
       <r>   5.8231  1.0000</r>
       <r>   5.9624  1.0000</r>
       <r>   5.9624  1.0000</r>
       <r>   5.9844  1.0000</r>
       <r>   6.0184  1.0000</r>
       <r>   6.1588  1.0000</r>
       <r>   6.6816  1.0000</r>
       <r>   6.6816  1.0000</r>
       <r>   6.8898  1.0000</r>
       <r>   6.9267  1.0000</r>
       <r>   6.9807  1.0000</r>
       <r>   6.9807  1.0000</r>
       <r>   7.1664  1.0000</r>
       <r>   7.1703  1.0000</r>
       <r>   7.4455  0.0299</r>
       <r>   7.5031  0.0000</r>
       <r>   7.5764  0.0000</r>
       <r>   7.8396  0.0000</r>
       <r>   7.9360  0.0000</r>
       <r>   8.0422  0.0000</r>
       <r>   8.0422  0.0000</r>
       <r>   8.4877  0.0000</r>
       <r>   8.5116  0.0000</r>
       <r>   8.6684  0.0000</r>
       <r>   8.9580  0.0000</r>
       <r>   8.9580  0.0000</r>
       <r>   9.0127  0.0000</r>
       <r>   9.0127  0.0000</r>
       <r>   9.1260  0.0000</r>
       <r>   9.1845  0.0000</r>
       <r>   9.2123  0.0000</r>
       <r>   9.6931  0.0000</r>
       <r>   9.6931  0.0000</r>
       <r>   9.8438  0.0000</r>
      </set>
      <set comment="kpoint 19">
       <r>  -3.0239  1.0000</r>
       <r>  -2.2996  1.0000</r>
       <r>  -1.5787  1.0000</r>
       <r>  -0.8627  1.0000</r>
       <r>  -0.8614  1.0000</r>
       <r>  -0.8601  1.0000</r>
       <r>  -0.1489  1.0000</r>
       <r>  -0.1474  1.0000</r>
       <r>  -0.1463  1.0000</r>
       <r>   0.5603  1.0000</r>
       <r>   0.5629  1.0000</r>
       <r>   0.5634  1.0000</r>
       <r>   0.5646  1.0000</r>
       <r>   1.2710  1.0000</r>
       <r>   1.2710  1.0000</r>
       <r>   1.9727  1.0000</r>
       <r>   1.9745  1.0000</r>
       <r>   1.9747  1.0000</r>
       <r>   2.6574  1.0000</r>
       <r>   2.6728  1.0000</r>
       <r>   2.6733  1.0000</r>
       <r>   2.6760  1.0000</r>
       <r>   2.6767  1.0000</r>
       <r>   3.3707  1.0000</r>
       <r>   3.9999  1.0000</r>
       <r>   4.0469  1.0000</r>
[...]
       <r>   2.0470  1.0000</r>
       <r>   2.3885  1.0000</r>
       <r>   2.3904  1.0000</r>
       <r>   2.3921  1.0000</r>
       <r>   2.3923  1.0000</r>
       <r>   2.3924  1.0000</r>
       <r>   2.3927  1.0000</r>
       <r>   2.3944  1.0000</r>
       <r>   2.3963  1.0000</r>
       <r>   2.7382  1.0000</r>
       <r>   2.7401  1.0000</r>
       <r>   2.7418  1.0000</r>
       <r>   2.7421  1.0000</r>
       <r>   2.7422  1.0000</r>
       <r>   2.7425  1.0000</r>
       <r>   2.7441  1.0000</r>
       <r>   2.7461  1.0000</r>
       <r>   3.0837  1.0000</r>
       <r>   3.0860  1.0000</r>
       <r>   3.0865  1.0000</r>
       <r>   3.0889  1.0000</r>
       <r>   6.1955  1.0000</r>
       <r>   6.1975  1.0000</r>
       <r>   6.1993  1.0000</r>
       <r>   6.1996  1.0000</r>
       <r>   6.1997  1.0000</r>
       <r>   6.1999  1.0000</r>
       <r>   6.2016  1.0000</r>
       <r>   6.2037  1.0000</r>
       <r>   6.5360  1.0000</r>
       <r>   6.5371  1.0000</r>
       <r>   6.5375  1.0000</r>
       <r>   6.5386  1.0000</r>
       <r>   6.8787  1.0000</r>
       <r>   6.8798  1.0000</r>
       <r>   6.8802  1.0000</r>
       <r>   6.8813  1.0000</r>
       <r>   7.2095  1.0000</r>
       <r>   7.2116  1.0000</r>
       <r>   7.2134  1.0000</r>
       <r>   7.2136  1.0000</r>
       <r>   7.2137  1.0000</r>
       <r>   7.2140  1.0000</r>
       <r>   7.2157  1.0000</r>
       <r>   7.2179  1.0000</r>
       <r>  10.1096  0.0000</r>
       <r>  10.1118  0.0000</r>
       <r>  10.1124  0.0000</r>
       <r>  10.1146  0.0000</r>
       <r>  10.2618  0.0000</r>
       <r>  10.2629  0.0000</r>
       <r>  10.2634  0.0000</r>
       <r>  10.2645  0.0000</r>
       <r>  10.7769  0.0000</r>
       <r>  10.7786  0.0000</r>
       <r>  10.7793  0.0000</r>
       <r>  10.7801  0.0000</r>
      </set>
      <set comment="kpoint 190">
       <r>  -2.2394  1.0000</r>
       <r>  -2.2394  1.0000</r>
       <r>  -2.2394  1.0000</r>
       <r>  -2.2394  1.0000</r>
       <r>  -0.0932  1.0000</r>
       <r>  -0.0887  1.0000</r>
       <r>  -0.0887  1.0000</r>
       <r>  -0.0882  1.0000</r>
       <r>  -0.0879  1.0000</r>
       <r>  -0.0874  1.0000</r>
       <r>  -0.0874  1.0000</r>
       <r>  -0.0829  1.0000</r>
       <r>   2.0272  1.0000</r>
       <r>   2.0272  1.0000</r>
       <r>   2.0272  1.0000</r>
       <r>   2.0273  1.0000</r>
       <r>   2.0273  1.0000</r>
       <r>   2.0273  1.0000</r>
       <r>   2.0273  1.0000</r>
       <r>   2.0273  1.0000</r>
       <r>   4.0629  1.0000</r>
       <r>   4.0629  1.0000</r>
       <r>   4.0643  1.0000</r>
       <r>   4.0644  1.0000</r>
       <r>   4.0644  1.0000</r>
       <r>   4.0644  1.0000</r>
       <r>   4.0658  1.0000</r>
       <r>   4.0658  1.0000</r>
       <r>   4.1765  1.0000</r>
       <r>   4.1765  1.0000</r>
       <r>   4.1780  1.0000</r>
       <r>   4.1780  1.0000</r>
       <r>   4.1780  1.0000</r>
       <r>   4.1782  1.0000</r>
       <r>   4.1796  1.0000</r>
       <r>   4.1796  1.0000</r>
       <r>   5.6413  1.0000</r>
       <r>   5.6413  1.0000</r>
       <r>   5.6413  1.0000</r>
       <r>   5.6414  1.0000</r>
       <r>   6.1544  1.0000</r>
       <r>   6.1544  1.0000</r>
       <r>   6.1544  1.0000</r>
       <r>   6.1544  1.0000</r>
       <r>   6.9280  1.0000</r>
       <r>   6.9280  1.0000</r>
       <r>   6.9280  1.0000</r>
       <r>   6.9280  1.0000</r>
       <r>   8.2267  0.0000</r>
       <r>   8.2267  0.0000</r>
       <r>   8.2273  0.0000</r>
       <r>   8.2281  0.0000</r>
       <r>   8.2298  0.0000</r>
       <r>   8.2306  0.0000</r>
       <r>   8.2311  0.0000</r>
       <r>   8.2311  0.0000</r>
       <r>   9.6770  0.0000</r>
       <r>   9.6770  0.0000</r>
       <r>   9.6770  0.0000</r>
       <r>   9.6770  0.0000</r>
       <r>   9.6770  0.0000</r>
       <r>   9.6770  0.0000</r>
       <r>   9.6770  0.0000</r>
       <r>   9.6770  0.0000</r>
       <r>  10.3693  0.0000</r>
       <r>  10.3693  0.0000</r>
       <r>  10.3693  0.0000</r>
       <r>  10.3694  0.0000</r>
      </set>
      <set comment="kpoint 191">
       <r>  -2.2244  1.0000</r>
       <r>  -2.2244  1.0000</r>
       <r>  -2.2244  1.0000</r>
       <r>  -2.2244  1.0000</r>
       <r>  -0.4296  1.0000</r>
       <r>  -0.4296  1.0000</r>
       <r>  -0.4296  1.0000</r>
       <r>  -0.4296  1.0000</r>
       <r>   0.2823  1.0000</r>
       <r>   0.2823  1.0000</r>
       <r>   0.2823  1.0000</r>
       <r>   0.2823  1.0000</r>
       <r>   2.0419  1.0000</r>
       <r>   2.0419  1.0000</r>
       <r>   2.0419  1.0000</r>
       <r>   2.0419  1.0000</r>
       <r>   2.0419  1.0000</r>
       <r>   2.0419  1.0000</r>
       <r>   2.0419  1.0000</r>
       <r>   2.0419  1.0000</r>
       <r>   3.7838  1.0000</r>
       <r>   3.7838  1.0000</r>
       <r>   3.7840  1.0000</r>
       <r>   3.7840  1.0000</r>
       <r>   3.7840  1.0000</r>
       <r>   3.7840  1.0000</r>
       <r>   3.7842  1.0000</r>
       <r>   3.7842  1.0000</r>
       <r>   4.4862  1.0000</r>
       <r>   4.4862  1.0000</r>
       <r>   4.4865  1.0000</r>
       <r>   4.4865  1.0000</r>
       <r>   4.4865  1.0000</r>
       <r>   4.4865  1.0000</r>
       <r>   4.4868  1.0000</r>
       <r>   4.4868  1.0000</r>
       <r>   5.3448  1.0000</r>
       <r>   5.3448  1.0000</r>
       <r>   5.3448  1.0000</r>
       <r>   5.3448  1.0000</r>
       <r>   6.1831  1.0000</r>
       <r>   6.1831  1.0000</r>
       <r>   6.1831  1.0000</r>
       <r>   6.1831  1.0000</r>
       <r>   7.2363  1.0000</r>
       <r>   7.2363  1.0000</r>
       <r>   7.2363  1.0000</r>
       <r>   7.2363  1.0000</r>
       <r>   7.9034  0.0000</r>
       <r>   7.9034  0.0000</r>
       <r>   7.9034  0.0000</r>
       <r>   7.9034  0.0000</r>
       <r>   8.5820  0.0000</r>
       <r>   8.5820  0.0000</r>
       <r>   8.5820  0.0000</r>
       <r>   8.5820  0.0000</r>
       <r>   9.3972  0.0000</r>
       <r>   9.3972  0.0000</r>
       <r>   9.3975  0.0000</r>
       <r>   9.3975  0.0000</r>
       <r>   9.3975  0.0000</r>
       <r>   9.3976  0.0000</r>
       <r>   9.3979  0.0000</r>
       <r>   9.3979  0.0000</r>
       <r>  10.4140  0.0000</r>
       <r>  10.4143  0.0000</r>
       <r>  10.4147  0.0000</r>
       <r>  10.4148  0.0000</r>
      </set>
      <set comment="kpoint 192">
       <r>  -2.1793  1.0000</r>
       <r>  -2.1792  1.0000</r>
       <r>  -2.1792  1.0000</r>
       <r>  -2.1792  1.0000</r>
       <r>  -0.7421  1.0000</r>
       <r>  -0.7421  1.0000</r>
       <r>  -0.7421  1.0000</r>
       <r>  -0.7421  1.0000</r>
       <r>   0.6810  1.0000</r>
       <r>   0.6810  1.0000</r>
       <r>   0.6810  1.0000</r>
       <r>   0.6810  1.0000</r>
       <r>   2.0857  1.0000</r>
       <r>   2.0857  1.0000</r>
       <r>   2.0857  1.0000</r>
       <r>   2.0857  1.0000</r>
       <r>   2.0857  1.0000</r>
       <r>   2.0857  1.0000</r>
       <r>   2.0857  1.0000</r>
       <r>   2.0857  1.0000</r>
       <r>   3.4820  1.0000</r>
       <r>   3.4820  1.0000</r>
       <r>   3.4821  1.0000</r>
       <r>   3.4821  1.0000</r>
       <r>   3.4821  1.0000</r>
       <r>   3.4821  1.0000</r>
       <r>   3.4821  1.0000</r>
       <r>   3.4821  1.0000</r>
       <r>   4.7994  1.0000</r>
       <r>   4.7994  1.0000</r>
       <r>   4.7994  1.0000</r>
       <r>   4.7994  1.0000</r>
       <r>   4.8725  1.0000</r>
       <r>   4.8725  1.0000</r>
       <r>   4.8726  1.0000</r>
       <r>   4.8726  1.0000</r>
       <r>   4.8726  1.0000</r>
       <r>   4.8727  1.0000</r>
       <r>   4.8728  1.0000</r>
       <r>   4.8728  1.0000</r>
       <r>   6.2335  1.0000</r>
       <r>   6.2335  1.0000</r>
       <r>   6.2335  1.0000</r>
       <r>   6.2335  1.0000</r>
       <r>   7.6055  0.0000</r>
       <r>   7.6055  0.0000</r>
       <r>   7.6055  0.0000</r>
       <r>   7.6055  0.0000</r>
       <r>   7.8529  0.0000</r>
       <r>   7.8530  0.0000</r>
       <r>   7.8530  0.0000</r>
       <r>   7.8530  0.0000</r>
       <r>   8.8745  0.0000</r>
       <r>   8.8745  0.0000</r>
       <r>   8.8748  0.0000</r>
       <r>   8.8748  0.0000</r>
       <r>   8.8748  0.0000</r>
       <r>   8.8748  0.0000</r>
       <r>   8.8751  0.0000</r>
       <r>   8.8751  0.0000</r>
       <r>   8.9623  0.0000</r>
       <r>   8.9623  0.0000</r>
       <r>   8.9624  0.0000</r>
       <r>   8.9624  0.0000</r>
       <r>  10.4747  0.0000</r>
       <r>  10.4751  0.0000</r>
       <r>  10.4753  0.0000</r>
       <r>  10.4756  0.0000</r>
      </set>
      <set comment="kpoint 193">
       <r>  -2.1041  1.0000</r>
       <r>  -2.1040  1.0000</r>
       <r>  -2.1040  1.0000</r>
       <r>  -2.1040  1.0000</r>
       <r>  -1.0255  1.0000</r>
       <r>  -1.0255  1.0000</r>
       <r>  -1.0255  1.0000</r>
       <r>  -1.0255  1.0000</r>
       <r>   1.1079  1.0000</r>
       <r>   1.1079  1.0000</r>
       <r>   1.1079  1.0000</r>
       <r>   1.1079  1.0000</r>
       <r>   2.1588  1.0000</r>
       <r>   2.1588  1.0000</r>
       <r>   2.1588  1.0000</r>
       <r>   2.1588  1.0000</r>
       <r>   2.1588  1.0000</r>
       <r>   2.1588  1.0000</r>
       <r>   2.1588  1.0000</r>
       <r>   2.1588  1.0000</r>
       <r>   3.2070  1.0000</r>
       <r>   3.2070  1.0000</r>
       <r>   3.2070  1.0000</r>
       <r>   3.2070  1.0000</r>
       <r>   3.2070  1.0000</r>
       <r>   3.2070  1.0000</r>
       <r>   3.2071  1.0000</r>
       <r>   3.2071  1.0000</r>
       <r>   4.2178  1.0000</r>
       <r>   4.2178  1.0000</r>
       <r>   4.2178  1.0000</r>
       <r>   4.2179  1.0000</r>
       <r>   5.2876  1.0000</r>
       <r>   5.2876  1.0000</r>
       <r>   5.2878  1.0000</r>
       <r>   5.2878  1.0000</r>
       <r>   5.2878  1.0000</r>
       <r>   5.2878  1.0000</r>
       <r>   5.2880  1.0000</r>
       <r>   5.2880  1.0000</r>
       <r>   6.3073  1.0000</r>
       <r>   6.3073  1.0000</r>
       <r>   6.3073  1.0000</r>
       <r>   6.3073  1.0000</r>
       <r>   7.3356  1.0000</r>
       <r>   7.3356  1.0000</r>
       <r>   7.3356  1.0000</r>
       <r>   7.3356  1.0000</r>
       <r>   8.3124  0.0000</r>
       <r>   8.3124  0.0000</r>
       <r>   8.3126  0.0000</r>
       <r>   8.3127  0.0000</r>
       <r>   8.3127  0.0000</r>
       <r>   8.3127  0.0000</r>
       <r>   8.3129  0.0000</r>
       <r>   8.3129  0.0000</r>
       <r>   8.5634  0.0000</r>
       <r>   8.5634  0.0000</r>
       <r>   8.5634  0.0000</r>
       <r>   8.5634  0.0000</r>
       <r>   9.3696  0.0000</r>
       <r>   9.3696  0.0000</r>
       <r>   9.3696  0.0000</r>
       <r>   9.3696  0.0000</r>
       <r>  10.5510  0.0000</r>
       <r>  10.5512  0.0000</r>
       <r>  10.5514  0.0000</r>
       <r>  10.5516  0.0000</r>
      </set>
      <set comment="kpoint 194">
       <r>  -1.9989  1.0000</r>
       <r>  -1.9988  1.0000</r>
       <r>  -1.9988  1.0000</r>
       <r>  -1.9988  1.0000</r>
       <r>  -1.2795  1.0000</r>
       <r>  -1.2794  1.0000</r>
       <r>  -1.2794  1.0000</r>
       <r>  -1.2794  1.0000</r>
       <r>   1.5626  1.0000</r>
       <r>   1.5626  1.0000</r>
       <r>   1.5626  1.0000</r>
       <r>   1.5626  1.0000</r>
       <r>   2.2610  1.0000</r>
       <r>   2.2610  1.0000</r>
       <r>   2.2610  1.0000</r>
       <r>   2.2610  1.0000</r>
       <r>   2.2610  1.0000</r>
       <r>   2.2610  1.0000</r>
       <r>   2.2610  1.0000</r>
       <r>   2.2610  1.0000</r>
       <r>   2.9603  1.0000</r>
       <r>   2.9603  1.0000</r>
       <r>   2.9603  1.0000</r>
       <r>   2.9603  1.0000</r>
       <r>   2.9603  1.0000</r>
       <r>   2.9603  1.0000</r>
       <r>   2.9603  1.0000</r>
       <r>   2.9603  1.0000</r>
       <r>   3.6428  1.0000</r>
       <r>   3.6428  1.0000</r>
       <r>   3.6428  1.0000</r>
       <r>   3.6429  1.0000</r>
       <r>   5.7302  1.0000</r>
       <r>   5.7302  1.0000</r>
       <r>   5.7304  1.0000</r>
       <r>   5.7304  1.0000</r>
       <r>   5.7304  1.0000</r>
       <r>   5.7304  1.0000</r>
       <r>   5.7305  1.0000</r>
       <r>   5.7305  1.0000</r>
       <r>   6.4083  1.0000</r>
       <r>   6.4083  1.0000</r>
       <r>   6.4083  1.0000</r>
       <r>   6.4083  1.0000</r>
       <r>   7.0937  1.0000</r>
       <r>   7.0937  1.0000</r>
       <r>   7.0937  1.0000</r>
       <r>   7.0937  1.0000</r>
       <r>   7.7545  0.0000</r>
       <r>   7.7545  0.0000</r>
       <r>   7.7547  0.0000</r>
       <r>   7.7547  0.0000</r>
       <r>   7.7547  0.0000</r>
       <r>   7.7547  0.0000</r>
       <r>   7.7549  0.0000</r>
       <r>   7.7549  0.0000</r>
       <r>   9.3208  0.0000</r>
       <r>   9.3208  0.0000</r>
       <r>   9.3208  0.0000</r>
       <r>   9.3208  0.0000</r>
       <r>   9.8034  0.0000</r>
       <r>   9.8034  0.0000</r>
       <r>   9.8034  0.0000</r>
       <r>   9.8034  0.0000</r>
       <r>  10.6515  0.0000</r>
       <r>  10.6515  0.0000</r>
       <r>  10.6518  0.0000</r>
       <r>  10.6518  0.0000</r>
      </set>
      <set comment="kpoint 195">
       <r>  -1.8638  1.0000</r>
       <r>  -1.8637  1.0000</r>
       <r>  -1.8637  1.0000</r>
       <r>  -1.8637  1.0000</r>
       <r>  -1.5039  1.0000</r>
       <r>  -1.5039  1.0000</r>
       <r>  -1.5039  1.0000</r>
       <r>  -1.5039  1.0000</r>
       <r>   2.0444  1.0000</r>
       <r>   2.0445  1.0000</r>
       <r>   2.0445  1.0000</r>
       <r>   2.0445  1.0000</r>
       <r>   2.3924  1.0000</r>
       <r>   2.3924  1.0000</r>
       <r>   2.3924  1.0000</r>
       <r>   2.3924  1.0000</r>
       <r>   2.3924  1.0000</r>
       <r>   2.3924  1.0000</r>
       <r>   2.3924  1.0000</r>
       <r>   2.3924  1.0000</r>
       <r>   2.7421  1.0000</r>
       <r>   2.7421  1.0000</r>
       <r>   2.7421  1.0000</r>
       <r>   2.7421  1.0000</r>
       <r>   2.7421  1.0000</r>
       <r>   2.7421  1.0000</r>
       <r>   2.7421  1.0000</r>
       <r>   2.7421  1.0000</r>
       <r>   3.0863  1.0000</r>
       <r>   3.0863  1.0000</r>
       <r>   3.0863  1.0000</r>
       <r>   3.0864  1.0000</r>
       <r>   6.1994  1.0000</r>
       <r>   6.1994  1.0000</r>
       <r>   6.1996  1.0000</r>
       <r>   6.1996  1.0000</r>
       <r>   6.1996  1.0000</r>
       <r>   6.1996  1.0000</r>
       <r>   6.1997  1.0000</r>
       <r>   6.1997  1.0000</r>
       <r>   6.5373  1.0000</r>
       <r>   6.5373  1.0000</r>
       <r>   6.5373  1.0000</r>
       <r>   6.5373  1.0000</r>
       <r>   6.8800  1.0000</r>
       <r>   6.8800  1.0000</r>
       <r>   6.8800  1.0000</r>
       <r>   6.8800  1.0000</r>
       <r>   7.2135  1.0000</r>
       <r>   7.2135  1.0000</r>
       <r>   7.2137  1.0000</r>
       <r>   7.2137  1.0000</r>
       <r>   7.2137  1.0000</r>
       <r>   7.2137  1.0000</r>
       <r>   7.2139  1.0000</r>
       <r>   7.2139  1.0000</r>
       <r>  10.1121  0.0000</r>
       <r>  10.1121  0.0000</r>
       <r>  10.1121  0.0000</r>
       <r>  10.1121  0.0000</r>
       <r>  10.2631  0.0000</r>
       <r>  10.2631  0.0000</r>
       <r>  10.2631  0.0000</r>
       <r>  10.2632  0.0000</r>
       <r>  10.7783  0.0000</r>
       <r>  10.7784  0.0000</r>
       <r>  10.7786  0.0000</r>
       <r>  10.7787  0.0000</r>
      </set>
      <set comment="kpoint 196">
       <r>  -1.7033  1.0000</r>
       <r>  -1.6991  1.0000</r>
       <r>  -1.6991  1.0000</r>
       <r>  -1.6987  1.0000</r>
       <r>  -1.6986  1.0000</r>
       <r>  -1.6982  1.0000</r>
       <r>  -1.6982  1.0000</r>
       <r>  -1.6941  1.0000</r>
       <r>   2.5427  1.0000</r>
       <r>   2.5489  1.0000</r>
       <r>   2.5489  1.0000</r>
       <r>   2.5520  1.0000</r>
       <r>   2.5523  1.0000</r>
       <r>   2.5523  1.0000</r>
       <r>   2.5527  1.0000</r>
       <r>   2.5527  1.0000</r>
       <r>   2.5527  1.0000</r>
       <r>   2.5527  1.0000</r>
       <r>   2.5528  1.0000</r>
       <r>   2.5528  1.0000</r>
       <r>   2.5528  1.0000</r>
       <r>   2.5528  1.0000</r>
       <r>   2.5528  1.0000</r>
       <r>   2.5528  1.0000</r>
       <r>   2.5529  1.0000</r>
       <r>   2.5529  1.0000</r>
       <r>   2.5533  1.0000</r>
       <r>   2.5533  1.0000</r>
       <r>   2.5535  1.0000</r>
       <r>   2.5567  1.0000</r>
       <r>   2.5567  1.0000</r>
       <r>   2.5629  1.0000</r>
       <r>   6.6887  1.0000</r>
       <r>   6.6887  1.0000</r>
       <r>   6.6905  1.0000</r>
       <r>   6.6925  1.0000</r>
       <r>   6.6938  1.0000</r>
       <r>   6.6942  1.0000</r>
       <r>   6.6942  1.0000</r>
       <r>   6.6942  1.0000</r>
       <r>   6.6944  1.0000</r>
       <r>   6.6944  1.0000</r>
       <r>   6.6944  1.0000</r>
       <r>   6.6945  1.0000</r>
       <r>   6.6945  1.0000</r>
       <r>   6.6945  1.0000</r>
       <r>   6.6945  1.0000</r>
       <r>   6.6946  1.0000</r>
       <r>   6.6948  1.0000</r>
       <r>   6.6948  1.0000</r>
       <r>   6.6948  1.0000</r>
       <r>   6.6952  1.0000</r>
       <r>   6.6965  1.0000</r>
       <r>   6.6985  1.0000</r>
       <r>   6.7003  1.0000</r>
       <r>   6.7003  1.0000</r>
       <r>  10.7466  0.0000</r>
       <r>  10.7466  0.0000</r>
       <r>  10.7466  0.0000</r>
       <r>  10.7472  0.0000</r>
       <r>  10.7486  0.0000</r>
       <r>  10.7493  0.0000</r>
       <r>  10.7493  0.0000</r>
       <r>  10.7494  0.0000</r>
       <r>  10.9300  0.0000</r>
       <r>  10.9305  0.0000</r>
       <r>  10.9316  0.0000</r>
       <r>  10.9324  0.0000</r>
      </set>
     </set>
    </set>
   </array>
  </eigenvalues>
 </calculation>
 <structure name="finalpos" >
  <crystal>
   <varray name="basis" >
    <v>       8.23610499      0.00000000      0.00000000</v>
    <v>       0.00000000      8.23610499      0.00000000</v>
    <v>       0.00000000      0.00000000      8.23610499</v>
   </varray>
   <i name="volume">    558.68321432</i>
   <varray name="rec_basis" >
    <v>       0.12141662      0.00000000      0.00000000</v>
    <v>       0.00000000      0.12141662      0.00000000</v>
    <v>       0.00000000      0.00000000      0.12141662</v>
   </varray>
  </crystal>
  <varray name="positions" >
   <v>       0.25121417      0.25000000      0.00000000</v>
   <v>       0.75000000      0.25000000      0.00000000</v>
   <v>       0.25000000      0.75000000      0.00000000</v>
   <v>       0.75000000      0.75000000      0.00000000</v>
   <v>       0.25000000      0.25000000      0.50000000</v>
   <v>       0.75000000      0.25000000      0.50000000</v>
   <v>       0.25000000      0.75000000      0.50000000</v>
   <v>       0.75000000      0.75000000      0.50000000</v>
   <v>       0.25000000      0.00000000      0.25000000</v>
   <v>       0.75000000      0.00000000      0.25000000</v>
   <v>       0.25000000      0.50000000      0.25000000</v>
   <v>       0.75000000      0.50000000      0.25000000</v>
   <v>       0.25000000      0.00000000      0.75000000</v>
   <v>       0.75000000      0.00000000      0.75000000</v>
   <v>       0.25000000      0.50000000      0.75000000</v>
   <v>       0.75000000      0.50000000      0.75000000</v>
   <v>       0.00000000      0.25000000      0.25000000</v>
   <v>       0.50000000      0.25000000      0.25000000</v>
   <v>       0.00000000      0.75000000      0.25000000</v>
   <v>       0.50000000      0.75000000      0.25000000</v>
   <v>       0.00000000      0.25000000      0.75000000</v>
   <v>       0.50000000      0.25000000      0.75000000</v>
   <v>       0.00000000      0.75000000      0.75000000</v>
   <v>       0.50000000      0.75000000      0.75000000</v>
   <v>       0.00000000      0.00000000      0.00000000</v>
   <v>       0.50000000      0.00000000      0.00000000</v>
   <v>       0.00000000      0.50000000      0.00000000</v>
   <v>       0.50000000      0.50000000      0.00000000</v>
   <v>       0.00000000      0.00000000      0.50000000</v>
   <v>       0.50000000      0.00000000      0.50000000</v>
   <v>       0.00000000      0.50000000      0.50000000</v>
   <v>       0.50000000      0.50000000      0.50000000</v>
  </varray>
 </structure>
</modeling>
