32   
1    

1    
  0.0100000000000000   0.0000000000000000   0.0000000000000000
  -0.0427588300    0.0000000000   -0.0000000000
   0.0009532900    0.0000000000    0.0000000000
  -0.0003810000   -0.0000000000   -0.0000000000
  -0.0003468400    0.0000000000   -0.0000000000
  -0.0003810000   -0.0000000000   -0.0000000000
  -0.0003468400    0.0000000000    0.0000000000
   0.0000416000   -0.0000000000   -0.0000000000
  -0.0002646300   -0.0000000000   -0.0000000000
   0.0049824400    0.0055964700    0.0000000000
   0.0047955900   -0.0053497700   -0.0000000000
   0.0049824400   -0.0055964700    0.0000000000
   0.0047955900    0.0053497700   -0.0000000000
   0.0003313000    0.0001172200   -0.0000000000
   0.0003310800   -0.0001183900   -0.0000000000
   0.0003313000   -0.0001172200    0.0000000000
   0.0003310800    0.0001183900   -0.0000000000
   0.0049824400   -0.0000000000    0.0055964700
   0.0047955900    0.0000000000   -0.0053497700
   0.0003313000    0.0000000000    0.0001172200
   0.0003310800    0.0000000000   -0.0001183900
   0.0049824400    0.0000000000   -0.0055964700
   0.0047955900   -0.0000000000    0.0053497700
   0.0003313000    0.0000000000   -0.0001172200
   0.0003310800   -0.0000000000    0.0001183900
  -0.0001656200   -0.0000088400   -0.0000088400
   0.0005962800    0.0000025900    0.0000025900
  -0.0001656200    0.0000088400   -0.0000088400
   0.0005962800   -0.0000025900    0.0000025900
  -0.0001656200   -0.0000088400    0.0000088400
   0.0005962800    0.0000025900   -0.0000025900
  -0.0001656200    0.0000088400    0.0000088400
   0.0005962800   -0.0000025900   -0.0000025900
