mesh: [    48,    48,    48 ]
nqpoint: 2600   
reciprocal_lattice:
- [   0.26698646,   0.00000000,   0.00000000 ] # a*
- [   0.00000000,   0.26698646,   0.00000000 ] # b*
- [   0.00000000,   0.00000000,   0.26698646 ] # c*
natom:   4      
lattice:
- [     3.745508286085043,     0.000000000000000,     0.000000000000000 ] # a
- [     0.000000000000000,     3.745508286085043,     0.000000000000000 ] # b
- [     0.000000000000000,     0.000000000000000,     3.745508286085043 ] # c
points:
- symbol: Cu # 1
  coordinates: [  0.000000000000000,  0.000000000000000,  0.000000000000000 ]
  mass: 63.546000
- symbol: Cu # 2
  coordinates: [  0.500000000000000,  0.500000000000000,  0.000000000000000 ]
  mass: 63.546000
- symbol: Cu # 3
  coordinates: [  0.500000000000000,  0.000000000000000,  0.500000000000000 ]
  mass: 63.546000
- symbol: Cu # 4
  coordinates: [  0.000000000000000,  0.500000000000000,  0.500000000000000 ]
  mass: 63.546000
phonon:
- q-position: [    0.0104167,    0.0104167,    0.0104167 ]
  weight: 8    
  band:
  - # 1
    frequency:     0.1061071382
  - # 2
    frequency:     0.1061071382
  - # 3
    frequency:     0.1971828736
  - # 4
    frequency:     4.1681269033
  - # 5
    frequency:     4.1681269033
  - # 6
    frequency:     4.1681269033
  - # 7
    frequency:     4.1703339513
  - # 8
    frequency:     4.1703339513
  - # 9
    frequency:     4.1703339513
  - # 10
    frequency:     5.6661340818
  - # 11
    frequency:     5.6661340818
  - # 12
    frequency:     5.6661340818

- q-position: [    0.0312500,    0.0104167,    0.0104167 ]
  weight: 24   
  band:
  - # 1
    frequency:     0.2102181549
  - # 2
    frequency:     0.2255948875
  - # 3
    frequency:     0.3604177723
  - # 4
    frequency:     4.1639607782
  - # 5
    frequency:     4.1654507627
  - # 6
    frequency:     4.1654507627
  - # 7
    frequency:     4.1661581940
  - # 8
    frequency:     4.1731139421
  - # 9
    frequency:     4.1731139421
  - # 10
    frequency:     5.6614575343
  - # 11
    frequency:     5.6620382638
  - # 12
    frequency:     5.6620382638

- q-position: [    0.0520833,    0.0104167,    0.0104167 ]
  weight: 24   
  band:
  - # 1
    frequency:     0.3474667377
  - # 2
    frequency:     0.3605002375
  - # 3
    frequency:     0.5481809999
  - # 4
    frequency:     4.1556300843
  - # 5
    frequency:     4.1578082974
  - # 6
    frequency:     4.1614161292
  - # 7
    frequency:     4.1614161292
  - # 8
    frequency:     4.1773975280
  - # 9
    frequency:     4.1773975280
  - # 10
    frequency:     5.6520951179
  - # 11
    frequency:     5.6538722245
  - # 12
    frequency:     5.6538722245

- q-position: [    0.0729167,    0.0104167,    0.0104167 ]
  weight: 24   
  band:
  - # 1
    frequency:     0.4877049555
  - # 2
    frequency:     0.4980558729
  - # 3
    frequency:     0.7430976293
  - # 4
    frequency:     4.1431379627
  - # 5
    frequency:     4.1452875246
  - # 6
    frequency:     4.1557633368
  - # 7
    frequency:     4.1557633368
  - # 8
    frequency:     4.1835259911
  - # 9
    frequency:     4.1835259911
  - # 10
    frequency:     5.6380283697
  - # 11
    frequency:     5.6416869965
  - # 12
    frequency:     5.6416869965

- q-position: [    0.0937500,    0.0104167,    0.0104167 ]
  weight: 24   
  band:
  - # 1
    frequency:     0.6277042582
  - # 2
    frequency:     0.6360758393
  - # 3
    frequency:     0.9403534201
  - # 4
    frequency:     4.1264891950
  - # 5
    frequency:     4.1286008362
  - # 6
    frequency:     4.1484728487
  - # 7
    frequency:     4.1484728487
  - # 8
    frequency:     4.1916390830
  - # 9
    frequency:     4.1916390830
  - # 10
    frequency:     5.6192300411
  - # 11
    frequency:     5.6255587266
  - # 12
    frequency:     5.6255587266

- q-position: [    0.1145833,    0.0104167,    0.0104167 ]
  weight: 24   
  band:
  - # 1
    frequency:     0.7668711647
  - # 2
    frequency:     0.7738007863
  - # 3
    frequency:     1.1379129129
  - # 4
    frequency:     4.1056902863
  - # 5
    frequency:     4.1077549693
  - # 6
    frequency:     4.1396225061
  - # 7
    frequency:     4.1396225061
  - # 8
    frequency:     4.2018151610
  - # 9
    frequency:     4.2018151610
  - # 10
    frequency:     5.5956646259
  - # 11
    frequency:     5.6055881920
  - # 12
    frequency:     5.6055881920

- q-position: [    0.1354167,    0.0104167,    0.0104167 ]
  weight: 24   
  band:
  - # 1
    frequency:     0.9049811025
  - # 2
    frequency:     0.9108273611
  - # 3
    frequency:     1.3346790620
  - # 4
    frequency:     4.0807495743
  - # 5
    frequency:     4.0827585404
  - # 6
    frequency:     4.1293388258
  - # 7
    frequency:     4.1293388258
  - # 8
    frequency:     4.2141164611
  - # 9
    frequency:     4.2141164611
  - # 10
    frequency:     5.5672890498
  - # 11
    frequency:     5.5819001529
  - # 12
    frequency:     5.5819001529

- q-position: [    0.1562500,    0.0104167,    0.0104167 ]
  weight: 24   
  band:
  - # 1
    frequency:     1.0418722855
  - # 2
    frequency:     1.0468760391
  - # 3
    frequency:     1.5299398472
  - # 4
    frequency:     4.0516773626
  - # 5
    frequency:     4.0536221729
  - # 6
    frequency:     4.1177807685
  - # 7
    frequency:     4.1177807685
  - # 8
    frequency:     4.2286011393
  - # 9
    frequency:     4.2286011393
  - # 10
    frequency:     5.5340535124
  - # 11
    frequency:     5.5546425412
  - # 12
    frequency:     5.5546425412

- q-position: [    0.1770833,    0.0104167,    0.0104167 ]
  weight: 24   
  band:
  - # 1
    frequency:     1.1773930440
  - # 2
    frequency:     1.1817208363
  - # 3
    frequency:     1.7231659107
  - # 4
    frequency:     4.0184860777
  - # 5
    frequency:     4.0203586454
  - # 6
    frequency:     4.1051327266
  - # 7
    frequency:     4.1051327266
  - # 8
    frequency:     4.2453253945
  - # 9
    frequency:     4.2453253945
  - # 10
    frequency:     5.4959024679
  - # 11
    frequency:     5.5239854823
  - # 12
    frequency:     5.5239854823

- q-position: [    0.1979167,    0.0104167,    0.0104167 ]
  weight: 24   
  band:
  - # 1
    frequency:     1.3113926218
  - # 2
    frequency:     1.3151632060
  - # 3
    frequency:     1.9139262410
  - # 4
    frequency:     3.9811904456
  - # 5
    frequency:     3.9829830610
  - # 6
    frequency:     4.0916001514
  - # 7
    frequency:     4.0916001514
  - # 8
    frequency:     4.2643423329
  - # 9
    frequency:     4.2643423329
  - # 10
    frequency:     5.4527757299
  - # 11
    frequency:     5.4901201486
  - # 12
    frequency:     5.4901201486

- q-position: [    0.2187500,    0.0104167,    0.0104167 ]
  weight: 24   
  band:
  - # 1
    frequency:     1.4437205004
  - # 2
    frequency:     1.4470209370
  - # 3
    frequency:     2.1018494738
  - # 4
    frequency:     3.9398076881
  - # 5
    frequency:     3.9415130345
  - # 6
    frequency:     4.0774058643
  - # 7
    frequency:     4.0774058643
  - # 8
    frequency:     4.2856996197
  - # 9
    frequency:     4.2856996197
  - # 10
    frequency:     5.4046096832
  - # 11
    frequency:     5.4532574446
  - # 12
    frequency:     5.4532574446

- q-position: [    0.2395833,    0.0104167,    0.0104167 ]
  weight: 24   
  band:
  - # 1
    frequency:     1.5742273134
  - # 2
    frequency:     1.5771229799
  - # 3
    frequency:     2.2866048041
  - # 4
    frequency:     3.8943577344
  - # 5
    frequency:     3.8959688952
  - # 6
    frequency:     4.0627864150
  - # 7
    frequency:     4.0627864150
  - # 8
    frequency:     4.3094366600
  - # 9
    frequency:     4.3094366600
  - # 10
    frequency:     5.3513385854
  - # 11
    frequency:     5.4136265201
  - # 12
    frequency:     5.4136265201

- q-position: [    0.2604167,    0.0104167,    0.0104167 ]
  weight: 24   
  band:
  - # 1
    frequency:     1.7027658774
  - # 2
    frequency:     1.7053068852
  - # 3
    frequency:     2.4678920679
  - # 4
    frequency:     3.8448634466
  - # 5
    frequency:     3.8463739031
  - # 6
    frequency:     4.0479882681
  - # 7
    frequency:     4.0479882681
  - # 8
    frequency:     4.3355816427
  - # 9
    frequency:     4.3355816427
  - # 10
    frequency:     5.2928959408
  - # 11
    frequency:     5.3714731144
  - # 12
    frequency:     5.3714731144

- q-position: [    0.2812500,    0.0104167,    0.0104167 ]
  weight: 24   
  band:
  - # 1
    frequency:     1.8291920571
  - # 2
    frequency:     1.8314174935
  - # 3
    frequency:     2.6454364049
  - # 4
    frequency:     3.7913508551
  - # 5
    frequency:     3.7927544755
  - # 6
    frequency:     4.0332637545
  - # 7
    frequency:     4.0332637545
  - # 8
    frequency:     4.3641486408
  - # 9
    frequency:     4.3641486408
  - # 10
    frequency:     5.2292159259
  - # 11
    frequency:     5.3270577297
  - # 12
    frequency:     5.3270577297

- q-position: [    0.3020833,    0.0104167,    0.0104167 ]
  weight: 24   
  band:
  - # 1
    frequency:     1.9533654464
  - # 2
    frequency:     1.9553062607
  - # 3
    frequency:     2.8189853261
  - # 4
    frequency:     3.7338494021
  - # 5
    frequency:     3.7351404213
  - # 6
    frequency:     4.0188667884
  - # 7
    frequency:     4.0188667884
  - # 8
    frequency:     4.3951349015
  - # 9
    frequency:     4.3951349015
  - # 10
    frequency:     5.1602348488
  - # 11
    frequency:     5.2806536390
  - # 12
    frequency:     5.2806536390

- q-position: [    0.3229167,    0.0104167,    0.0104167 ]
  weight: 24   
  band:
  - # 1
    frequency:     2.0751499008
  - # 2
    frequency:     2.0768309203
  - # 3
    frequency:     2.9883070880
  - # 4
    frequency:     3.6723921890
  - # 5
    frequency:     3.6735651802
  - # 6
    frequency:     4.0050483907
  - # 7
    frequency:     4.0050483907
  - # 8
    frequency:     4.4285184305
  - # 9
    frequency:     4.4285184305
  - # 10
    frequency:     5.0858926239
  - # 11
    frequency:     5.2325447327
  - # 12
    frequency:     5.2325447327

- q-position: [    0.3437500,    0.0104167,    0.0104167 ]
  weight: 24   
  band:
  - # 1
    frequency:     2.1944139527
  - # 2
    frequency:     2.1958553255
  - # 3
    frequency:     3.1531897870
  - # 4
    frequency:     3.6070162254
  - # 5
    frequency:     3.6080660621
  - # 6
    frequency:     3.9920520847
  - # 7
    frequency:     3.9920520847
  - # 8
    frequency:     4.4642559517
  - # 9
    frequency:     4.4642559517
  - # 10
    frequency:     5.0061342428
  - # 11
    frequency:     5.1830232138
  - # 12
    frequency:     5.1830232138

- q-position: [    0.3645833,    0.0104167,    0.0104167 ]
  weight: 24   
  band:
  - # 1
    frequency:     2.3110311364
  - # 2
    frequency:     2.3122493874
  - # 3
    frequency:     3.3134408447
  - # 4
    frequency:     3.5377626763
  - # 5
    frequency:     3.5386844868
  - # 6
    frequency:     3.9801092513
  - # 7
    frequency:     3.9801092513
  - # 8
    frequency:     4.5022813036
  - # 9
    frequency:     4.5022813036
  - # 10
    frequency:     4.9209112254
  - # 11
    frequency:     5.1323871546
  - # 12
    frequency:     5.1323871546

- q-position: [    0.3854167,    0.0104167,    0.0104167 ]
  weight: 24   
  band:
  - # 1
    frequency:     2.4248802408
  - # 2
    frequency:     2.4258890601
  - # 3
    frequency:     3.4646771043
  - # 4
    frequency:     3.4654662165
  - # 5
    frequency:     3.4688866938
  - # 6
    frequency:     3.9694345478
  - # 7
    frequency:     3.9694345478
  - # 8
    frequency:     4.5425043104
  - # 9
    frequency:     4.5425043104
  - # 10
    frequency:     4.8301830337
  - # 11
    frequency:     5.0809379390
  - # 12
    frequency:     5.0809379390

- q-position: [    0.4062500,    0.0104167,    0.0104167 ]
  weight: 24   
  band:
  - # 1
    frequency:     2.5358455010
  - # 2
    frequency:     2.5366563452
  - # 3
    frequency:     3.3878097038
  - # 4
    frequency:     3.3884615821
  - # 5
    frequency:     3.6193725471
  - # 6
    frequency:     3.9602215070
  - # 7
    frequency:     3.9602215070
  - # 8
    frequency:     4.5848101358
  - # 9
    frequency:     4.5848101358
  - # 10
    frequency:     4.7339184345
  - # 11
    frequency:     5.0289776263
  - # 12
    frequency:     5.0289776263

- q-position: [    0.4270833,    0.0104167,    0.0104167 ]
  weight: 24   
  band:
  - # 1
    frequency:     2.6438167381
  - # 2
    frequency:     2.6444392967
  - # 3
    frequency:     3.3072155249
  - # 4
    frequency:     3.3077256968
  - # 5
    frequency:     3.7647621786
  - # 6
    frequency:     3.9526384441
  - # 7
    frequency:     3.9526384441
  - # 8
    frequency:     4.6290590683
  - # 9
    frequency:     4.6290590683
  - # 10
    frequency:     4.6320967959
  - # 11
    frequency:     4.9768063228
  - # 12
    frequency:     4.9768063228

- q-position: [    0.4479167,    0.0104167,    0.0104167 ]
  weight: 24   
  band:
  - # 1
    frequency:     2.7486894528
  - # 2
    frequency:     2.7491320167
  - # 3
    frequency:     3.2229546830
  - # 4
    frequency:     3.2233186563
  - # 5
    frequency:     3.9049376686
  - # 6
    frequency:     3.9468247962
  - # 7
    frequency:     3.9468247962
  - # 8
    frequency:     4.5247093079
  - # 9
    frequency:     4.6750864856
  - # 10
    frequency:     4.6750864856
  - # 11
    frequency:     4.9247198336
  - # 12
    frequency:     4.9247198336

- q-position: [    0.4687500,    0.0104167,    0.0104167 ]
  weight: 24   
  band:
  - # 1
    frequency:     2.8503648770
  - # 2
    frequency:     2.8506346343
  - # 3
    frequency:     3.1350925535
  - # 4
    frequency:     3.1353057214
  - # 5
    frequency:     3.9428880204
  - # 6
    frequency:     3.9428880204
  - # 7
    frequency:     4.0397990830
  - # 8
    frequency:     4.4117601141
  - # 9
    frequency:     4.7227014459
  - # 10
    frequency:     4.7227014459
  - # 11
    frequency:     4.8730091604
  - # 12
    frequency:     4.8730091604

- q-position: [    0.4895833,    0.0104167,    0.0104167 ]
  weight: 24   
  band:
  - # 1
    frequency:     2.9487499867
  - # 2
    frequency:     2.9488532651
  - # 3
    frequency:     3.0436999469
  - # 4
    frequency:     3.0437574799
  - # 5
    frequency:     3.9409011583
  - # 6
    frequency:     3.9409011583
  - # 7
    frequency:     4.1692640685
  - # 8
    frequency:     4.2932673484
  - # 9
    frequency:     4.7716580112
  - # 10
    frequency:     4.7716580112
  - # 11
    frequency:     4.8219877437
  - # 12
    frequency:     4.8219877437

- q-position: [    0.0312500,    0.0312500,    0.0104167 ]
  weight: 24   
  band:
  - # 1
    frequency:     0.2482112832
  - # 2
    frequency:     0.2977660213
  - # 3
    frequency:     0.4877214753
  - # 4
    frequency:     4.1594258323
  - # 5
    frequency:     4.1612814030
  - # 6
    frequency:     4.1612814030
  - # 7
    frequency:     4.1689312376
  - # 8
    frequency:     4.1689312376
  - # 9
    frequency:     4.1792319980
  - # 10
    frequency:     5.6574072890
  - # 11
    frequency:     5.6574072890
  - # 12
    frequency:     5.6579472629

- q-position: [    0.0520833,    0.0312500,    0.0104167 ]
  weight: 48   
  band:
  - # 1
    frequency:     0.3501705849
  - # 2
    frequency:     0.4092452250
  - # 3
    frequency:     0.6506935306
  - # 4
    frequency:     4.1525373185
  - # 5
    frequency:     4.1529440849
  - # 6
    frequency:     4.1572214128
  - # 7
    frequency:     4.1605677992
  - # 8
    frequency:     4.1732195517
  - # 9
    frequency:     4.1863479287
  - # 10
    frequency:     5.6481358452
  - # 11
    frequency:     5.6493322704
  - # 12
    frequency:     5.6497907953

- q-position: [    0.0729167,    0.0312500,    0.0104167 ]
  weight: 48   
  band:
  - # 1
    frequency:     0.4785067008
  - # 2
    frequency:     0.5341896450
  - # 3
    frequency:     0.8275352306
  - # 4
    frequency:     4.1404416373
  - # 5
    frequency:     4.1447804023
  - # 6
    frequency:     4.1480275918
  - # 7
    frequency:     4.1515225830
  - # 8
    frequency:     4.1793624530
  - # 9
    frequency:     4.1945480014
  - # 10
    frequency:     5.6342051300
  - # 11
    frequency:     5.6372832612
  - # 12
    frequency:     5.6376197697

- q-position: [    0.0937500,    0.0312500,    0.0104167 ]
  weight: 48   
  band:
  - # 1
    frequency:     0.6147877436
  - # 2
    frequency:     0.6645506126
  - # 3
    frequency:     1.0112453000
  - # 4
    frequency:     4.1237783694
  - # 5
    frequency:     4.1313166208
  - # 6
    frequency:     4.1360082431
  - # 7
    frequency:     4.1441668435
  - # 8
    frequency:     4.1874974573
  - # 9
    frequency:     4.2040990328
  - # 10
    frequency:     5.6155874016
  - # 11
    frequency:     5.6213360309
  - # 12
    frequency:     5.6215101483

- q-position: [    0.1145833,    0.0312500,    0.0104167 ]
  weight: 48   
  band:
  - # 1
    frequency:     0.7531553799
  - # 2
    frequency:     0.7971741270
  - # 3
    frequency:     1.1984195837
  - # 4
    frequency:     4.1029601491
  - # 5
    frequency:     4.1104430009
  - # 6
    frequency:     4.1261457417
  - # 7
    frequency:     4.1352324547
  - # 8
    frequency:     4.1977015071
  - # 9
    frequency:     4.2152320240
  - # 10
    frequency:     5.5922465243
  - # 11
    frequency:     5.6015624651
  - # 12
    frequency:     5.6015908500

- q-position: [    0.1354167,    0.0312500,    0.0104167 ]
  weight: 48   
  band:
  - # 1
    frequency:     0.8915444957
  - # 2
    frequency:     0.9305675428
  - # 3
    frequency:     1.3870414006
  - # 4
    frequency:     4.0779945091
  - # 5
    frequency:     4.0854170453
  - # 6
    frequency:     4.1151958254
  - # 7
    frequency:     4.1248457497
  - # 8
    frequency:     4.2100358270
  - # 9
    frequency:     4.2281324644
  - # 10
    frequency:     5.5641386819
  - # 11
    frequency:     5.5779011814
  - # 12
    frequency:     5.5781718394

- q-position: [    0.1562500,    0.0312500,    0.0104167 ]
  weight: 48   
  band:
  - # 1
    frequency:     1.0290986407
  - # 2
    frequency:     1.0638974653
  - # 3
    frequency:     1.5757742561
  - # 4
    frequency:     4.0488907779
  - # 5
    frequency:     4.0562513731
  - # 6
    frequency:     4.1032269983
  - # 7
    frequency:     4.1131652045
  - # 8
    frequency:     4.2245576944
  - # 9
    frequency:     4.2429486087
  - # 10
    frequency:     5.5312132472
  - # 11
    frequency:     5.5506738781
  - # 12
    frequency:     5.5512261548

- q-position: [    0.1770833,    0.0312500,    0.0104167 ]
  weight: 48   
  band:
  - # 1
    frequency:     1.1653898191
  - # 2
    frequency:     1.1966297728
  - # 3
    frequency:     1.7636608798
  - # 4
    frequency:     4.0156602391
  - # 5
    frequency:     4.0229610332
  - # 6
    frequency:     4.0903595264
  - # 7
    frequency:     4.1003745760
  - # 8
    frequency:     4.2413224511
  - # 9
    frequency:     4.2598004230
  - # 10
    frequency:     5.4934137947
  - # 11
    frequency:     5.5200502815
  - # 12
    frequency:     5.5209230045

- q-position: [    0.1979167,    0.0312500,    0.0104167 ]
  weight: 48   
  band:
  - # 1
    frequency:     1.3001556590
  - # 2
    frequency:     1.3283819171
  - # 3
    frequency:     1.9499728779
  - # 4
    frequency:     3.9783163172
  - # 5
    frequency:     3.9855636399
  - # 6
    frequency:     4.0767536220
  - # 7
    frequency:     4.0866786126
  - # 8
    frequency:     4.2603823272
  - # 9
    frequency:     4.2787859100
  - # 10
    frequency:     5.4506792400
  - # 11
    frequency:     5.4862211229
  - # 12
    frequency:     5.4874524982

- q-position: [    0.2187500,    0.0312500,    0.0104167 ]
  weight: 48   
  band:
  - # 1
    frequency:     1.4332024324
  - # 2
    frequency:     1.4588554707
  - # 3
    frequency:     2.1341286150
  - # 4
    frequency:     3.9368747927
  - # 5
    frequency:     3.9440795168
  - # 6
    frequency:     4.0625998886
  - # 7
    frequency:     4.0722994245
  - # 8
    frequency:     4.2817840833
  - # 9
    frequency:     4.2999846436
  - # 10
    frequency:     5.4029450886
  - # 11
    frequency:     5.4493968306
  - # 12
    frequency:     5.4510243268

- q-position: [    0.2395833,    0.0312500,    0.0104167 ]
  weight: 48   
  band:
  - # 1
    frequency:     1.5643668390
  - # 2
    frequency:     1.5878025926
  - # 3
    frequency:     2.3156458481
  - # 4
    frequency:     3.8913540432
  - # 5
    frequency:     3.8985318455
  - # 6
    frequency:     4.0481115009
  - # 7
    frequency:     4.0574728909
  - # 8
    frequency:     4.3055661925
  - # 9
    frequency:     4.3234591389
  - # 10
    frequency:     5.3501447771
  - # 11
    frequency:     5.4098060524
  - # 12
    frequency:     5.4118662718

- q-position: [    0.2604167,    0.0312500,    0.0104167 ]
  weight: 48   
  band:
  - # 1
    frequency:     1.6935003068
  - # 2
    frequency:     1.7150081938
  - # 3
    frequency:     2.4941133429
  - # 4
    frequency:     3.8417753124
  - # 5
    frequency:     3.8489468160
  - # 6
    frequency:     4.0335175345
  - # 7
    frequency:     4.0424448939
  - # 8
    frequency:     4.3317558924
  - # 9
    frequency:     4.3492547610
  - # 10
    frequency:     5.2922110866
  - # 11
    frequency:     5.3676940110
  - # 12
    frequency:     5.3702225460

- q-position: [    0.2812500,    0.0312500,    0.0104167 ]
  weight: 48   
  band:
  - # 1
    frequency:     1.8204624473
  - # 2
    frequency:     1.8402799262
  - # 3
    frequency:     2.6691733546
  - # 4
    frequency:     3.7881630011
  - # 5
    frequency:     3.7953537774
  - # 6
    frequency:     4.0190569911
  - # 7
    frequency:     4.0274673148
  - # 8
    frequency:     4.3603662921
  - # 9
    frequency:     4.3773987489
  - # 10
    frequency:     5.2290776103
  - # 11
    frequency:     5.3233206935
  - # 12
    frequency:     5.3263519667

- q-position: [    0.3020833,    0.0312500,    0.0104167 ]
  weight: 48   
  band:
  - # 1
    frequency:     1.9451183934
  - # 2
    frequency:     1.9634423111
  - # 3
    frequency:     2.8405105427
  - # 4
    frequency:     3.7305449736
  - # 5
    frequency:     3.7377853898
  - # 6
    frequency:     4.0049732237
  - # 7
    frequency:     4.0127937965
  - # 8
    frequency:     4.3913936655
  - # 9
    frequency:     4.4078987886
  - # 10
    frequency:     5.1606802553
  - # 11
    frequency:     5.2769588817
  - # 12
    frequency:     5.2805259680

- q-position: [    0.3229167,    0.0312500,    0.0104167 ]
  weight: 48   
  band:
  - # 1
    frequency:     2.0673378270
  - # 2
    frequency:     2.0843331708
  - # 3
    frequency:     3.0078448008
  - # 4
    frequency:     3.6689528708
  - # 5
    frequency:     3.6762777837
  - # 6
    frequency:     3.9915085899
  - # 7
    frequency:     3.9986753103
  - # 8
    frequency:     4.4248150305
  - # 9
    frequency:     4.4407414415
  - # 10
    frequency:     5.0869587606
  - # 11
    frequency:     5.2288920318
  - # 12
    frequency:     5.2330264609

- q-position: [    0.3437500,    0.0312500,    0.0104167 ]
  weight: 48   
  band:
  - # 1
    frequency:     2.1869947397
  - # 2
    frequency:     2.2028013930
  - # 3
    frequency:     3.1709265171
  - # 4
    frequency:     3.6034224159
  - # 5
    frequency:     3.6108707316
  - # 6
    frequency:     3.9788992631
  - # 7
    frequency:     3.9853555923
  - # 8
    frequency:     4.4605860849
  - # 9
    frequency:     4.4758906427
  - # 10
    frequency:     5.0078582141
  - # 11
    frequency:     5.1794120243
  - # 12
    frequency:     5.1841435604

- q-position: [    0.3645833,    0.0312500,    0.0104167 ]
  weight: 48   
  band:
  - # 1
    frequency:     2.3039675028
  - # 2
    frequency:     2.3187054920
  - # 3
    frequency:     3.3295333665
  - # 4
    frequency:     3.5339936991
  - # 5
    frequency:     3.5416078406
  - # 6
    frequency:     3.9673701938
  - # 7
    frequency:     3.9730665362
  - # 8
    frequency:     4.4986395410
  - # 9
    frequency:     4.5132863987
  - # 10
    frequency:     4.9233305513
  - # 11
    frequency:     5.1288168188
  - # 12
    frequency:     5.1341732110

- q-position: [    0.3854167,    0.0312500,    0.0104167 ]
  weight: 48   
  band:
  - # 1
    frequency:     2.4181390492
  - # 2
    frequency:     2.4319126563
  - # 3
    frequency:     3.4607114313
  - # 4
    frequency:     3.4685367715
  - # 5
    frequency:     3.4834680730
  - # 6
    frequency:     3.9571302663
  - # 7
    frequency:     3.9620236426
  - # 8
    frequency:     4.5388838540
  - # 9
    frequency:     4.5528437315
  - # 10
    frequency:     4.8333360215
  - # 11
    frequency:     5.0774080921
  - # 12
    frequency:     5.0834147787

- q-position: [    0.4062500,    0.0312500,    0.0104167 ]
  weight: 48   
  band:
  - # 1
    frequency:     2.5293970784
  - # 2
    frequency:     2.5422980991
  - # 3
    frequency:     3.3836251565
  - # 4
    frequency:     3.3917094858
  - # 5
    frequency:     3.6325567872
  - # 6
    frequency:     3.9483677277
  - # 7
    frequency:     3.9524216437
  - # 8
    frequency:     4.5812022266
  - # 9
    frequency:     4.5944517602
  - # 10
    frequency:     4.7378446067
  - # 11
    frequency:     5.0254890544
  - # 12
    frequency:     5.0321687702

- q-position: [    0.4270833,    0.0312500,    0.0104167 ]
  weight: 48   
  band:
  - # 1
    frequency:     2.6376342454
  - # 2
    frequency:     2.6497445961
  - # 3
    frequency:     3.3027894228
  - # 4
    frequency:     3.3111825175
  - # 5
    frequency:     3.7766478447
  - # 6
    frequency:     3.9412459880
  - # 7
    frequency:     3.9444304259
  - # 8
    frequency:     4.6254514487
  - # 9
    frequency:     4.6368373840
  - # 10
    frequency:     4.6379723744
  - # 11
    frequency:     4.9733630497
  - # 12
    frequency:     4.9807351558

- q-position: [    0.4479167,    0.0312500,    0.0104167 ]
  weight: 48   
  band:
  - # 1
    frequency:     2.7427483174
  - # 2
    frequency:     2.7541421383
  - # 3
    frequency:     3.2182639144
  - # 4
    frequency:     3.2270172613
  - # 5
    frequency:     3.9156107504
  - # 6
    frequency:     3.9358999002
  - # 7
    frequency:     3.9381913781
  - # 8
    frequency:     4.5303078196
  - # 9
    frequency:     4.6714587310
  - # 10
    frequency:     4.6832359921
  - # 11
    frequency:     4.9213354892
  - # 12
    frequency:     4.9294141571

- q-position: [    0.4687500,    0.0312500,    0.0104167 ]
  weight: 48   
  band:
  - # 1
    frequency:     2.8446422915
  - # 2
    frequency:     2.8553876526
  - # 3
    frequency:     3.1301135484
  - # 4
    frequency:     3.1392802664
  - # 5
    frequency:     3.9324326300
  - # 6
    frequency:     3.9338142881
  - # 7
    frequency:     4.0493352869
  - # 8
    frequency:     4.4182629902
  - # 9
    frequency:     4.7190055775
  - # 10
    frequency:     4.7300176000
  - # 11
    frequency:     4.8697359464
  - # 12
    frequency:     4.8785204681

- q-position: [    0.4895833,    0.0312500,    0.0104167 ]
  weight: 48   
  band:
  - # 1
    frequency:     2.9432244773
  - # 2
    frequency:     2.9533847563
  - # 3
    frequency:     3.0384085456
  - # 4
    frequency:     3.0480435265
  - # 5
    frequency:     3.9309132156
  - # 6
    frequency:     3.9313748989
  - # 7
    frequency:     4.1777306730
  - # 8
    frequency:     4.3007247255
  - # 9
    frequency:     4.7676451788
  - # 10
    frequency:     4.7776545796
  - # 11
    frequency:     4.8192989221
  - # 12
    frequency:     4.8285644318

- q-position: [    0.0520833,    0.0520833,    0.0104167 ]
  weight: 24   
  band:
  - # 1
    frequency:     0.4021308262
  - # 2
    frequency:     0.4960126657
  - # 3
    frequency:     0.7933602341
  - # 4
    frequency:     4.1421847347
  - # 5
    frequency:     4.1488332673
  - # 6
    frequency:     4.1488332673
  - # 7
    frequency:     4.1648661070
  - # 8
    frequency:     4.1648661070
  - # 9
    frequency:     4.1968846844
  - # 10
    frequency:     5.6402424962
  - # 11
    frequency:     5.6402424962
  - # 12
    frequency:     5.6416533472

- q-position: [    0.0729167,    0.0520833,    0.0104167 ]
  weight: 48   
  band:
  - # 1
    frequency:     0.4975262545
  - # 2
    frequency:     0.6029377180
  - # 3
    frequency:     0.9535118494
  - # 4
    frequency:     4.1311648735
  - # 5
    frequency:     4.1362543140
  - # 6
    frequency:     4.1430425989
  - # 7
    frequency:     4.1523422026
  - # 8
    frequency:     4.1710383557
  - # 9
    frequency:     4.2082824095
  - # 10
    frequency:     5.6265833688
  - # 11
    frequency:     5.6284653005
  - # 12
    frequency:     5.6295105413

- q-position: [    0.0937500,    0.0520833,    0.0104167 ]
  weight: 48   
  band:
  - # 1
    frequency:     0.6158352327
  - # 2
    frequency:     0.7206373289
  - # 3
    frequency:     1.1231059728
  - # 4
    frequency:     4.1194885986
  - # 5
    frequency:     4.1195200831
  - # 6
    frequency:     4.1355570293
  - # 7
    frequency:     4.1356553353
  - # 8
    frequency:     4.1792175900
  - # 9
    frequency:     4.2206182503
  - # 10
    frequency:     5.6083260831
  - # 11
    frequency:     5.6128791930
  - # 12
    frequency:     5.6134379725

- q-position: [    0.1145833,    0.0520833,    0.0104167 ]
  weight: 48   
  band:
  - # 1
    frequency:     0.7447055676
  - # 2
    frequency:     0.8441445374
  - # 3
    frequency:     1.2981916046
  - # 4
    frequency:     4.0985417271
  - # 5
    frequency:     4.1072301935
  - # 6
    frequency:     4.1148154722
  - # 7
    frequency:     4.1264557316
  - # 8
    frequency:     4.1894779680
  - # 9
    frequency:     4.2340676808
  - # 10
    frequency:     5.5854331448
  - # 11
    frequency:     5.5935356906
  - # 12
    frequency:     5.5935833213

- q-position: [    0.1354167,    0.0520833,    0.0104167 ]
  weight: 48   
  band:
  - # 1
    frequency:     0.8781371572
  - # 2