  32  32   0   0
  0.1238582E+02  0.7345560E-09  0.7345560E-09  0.7345560E-09  0.5000000E-15
  1.000000000000000E-004
  CAR 
 unknown system                          
     14.04699620     -6.53432925  301      3.39374375      1.00000000
     -6.534  0.0000E+00  0.0000E+00
     -6.466  0.0000E+00  0.0000E+00
     -6.397  0.0000E+00  0.0000E+00
     -6.329  0.0000E+00  0.0000E+00
     -6.260  0.0000E+00  0.0000E+00
     -6.191  0.0000E+00  0.0000E+00
     -6.123  0.0000E+00  0.0000E+00
     -6.054  0.0000E+00  0.0000E+00
     -5.985  0.0000E+00  0.0000E+00
     -5.917  0.0000E+00  0.0000E+00
     -5.848  0.0000E+00  0.0000E+00
     -5.780  0.0000E+00  0.0000E+00
     -5.711  0.0000E+00  0.0000E+00
     -5.642  0.5614E-11  0.3851E-12
     -5.574  0.9415E-01  0.6459E-02
     -5.505  0.5047E+00  0.4108E-01
     -5.437  0.8556E+00  0.1001E+00
     -5.368  0.1364E+01  0.1937E+00
     -5.299  0.1398E+01  0.2896E+00
     -5.231  0.1313E+01  0.3806E+00
     -5.162  0.1827E+01  0.5059E+00
     -5.094  0.1058E+01  0.5785E+00
     -5.025  0.2082E+01  0.7214E+00
     -4.956  0.2031E+01  0.8608E+00
     -4.888  0.2448E+01  0.1029E+01
     -4.819  0.2219E+01  0.1181E+01
     -4.751  0.2718E+01  0.1368E+01
     -4.682  0.2395E+01  0.1533E+01
     -4.613  0.1531E+01  0.1638E+01
     -4.545  0.3165E+01  0.1855E+01
     -4.476  0.3191E+01  0.2074E+01
     -4.408  0.2415E+01  0.2240E+01
     -4.339  0.2833E+01  0.2435E+01
     -4.270  0.3682E+01  0.2687E+01
     -4.202  0.3290E+01  0.2913E+01
     -4.133  0.3399E+01  0.3146E+01
     -4.065  0.3586E+01  0.3395E+01
     -3.996  0.2576E+01  0.3572E+01
     -3.927  0.3708E+01  0.3827E+01
     -3.859  0.4319E+01  0.4124E+01
     -3.790  0.3609E+01  0.4371E+01
     -3.722  0.2747E+01  0.4560E+01
     -3.653  0.4769E+01  0.4887E+01
     -3.584  0.4302E+01  0.5182E+01
     -3.516  0.4419E+01  0.5486E+01
     -3.447  0.3562E+01  0.5730E+01
     -3.379  0.4991E+01  0.6073E+01
     -3.310  0.4285E+01  0.6367E+01
     -3.241  0.4843E+01  0.6700E+01
     -3.173  0.4843E+01  0.7032E+01
     -3.104  0.6390E+01  0.7471E+01
     -3.036  0.4303E+01  0.7766E+01
     -2.967  0.5781E+01  0.8163E+01
     -2.898  0.3272E+01  0.8388E+01
     -2.830  0.6889E+01  0.8860E+01
     -2.761  0.7416E+01  0.9369E+01
     -2.692  0.4121E+01  0.9654E+01
     -2.624  0.7009E+01  0.1014E+02
     -2.555  0.5487E+01  0.1051E+02
     -2.487  0.6915E+01  0.1099E+02
     -2.418  0.7098E+01  0.1148E+02
     -2.349  0.5782E+01  0.1188E+02
     -2.281  0.8883E+01  0.1249E+02
     -2.212  0.7222E+01  0.1299E+02
     -2.144  0.7690E+01  0.1352E+02
     -2.075  0.7900E+01  0.1406E+02
     -2.006  0.8339E+01  0.1463E+02
     -1.938  0.1082E+02  0.1538E+02
     -1.869  0.8402E+01  0.1596E+02
     -1.801  0.1039E+02  0.1667E+02
     -1.732  0.1231E+02  0.1752E+02
     -1.663  0.1262E+02  0.1839E+02
     -1.595  0.1373E+02  0.1933E+02
     -1.526  0.1190E+02  0.2015E+02
     -1.458  0.2036E+02  0.2155E+02
     -1.389  0.2429E+02  0.2322E+02
     -1.320  0.2313E+02  0.2481E+02
     -1.252  0.2870E+02  0.2678E+02
     -1.183  0.3516E+02  0.2919E+02
     -1.115  0.3952E+02  0.3191E+02
     -1.046  0.4013E+02  0.3466E+02
     -0.977  0.4011E+02  0.3742E+02
     -0.909  0.4241E+02  0.4033E+02
     -0.840  0.4052E+02  0.4312E+02
     -0.772  0.5173E+02  0.4668E+02
     -0.703  0.5938E+02  0.5076E+02
     -0.634  0.6587E+02  0.5529E+02
     -0.566  0.7578E+02  0.6050E+02
     -0.497  0.8551E+02  0.6637E+02
     -0.429  0.8075E+02  0.7192E+02
     -0.360  0.6996E+02  0.7674E+02
     -0.291  0.7085E+02  0.8161E+02
     -0.223  0.7735E+02  0.8692E+02
     -0.154  0.7030E+02  0.9176E+02
     -0.086  0.7019E+02  0.9659E+02
     -0.017  0.6642E+02  0.1011E+03
      0.052  0.8666E+02  0.1071E+03
      0.120  0.9171E+02  0.1134E+03
      0.189  0.1059E+03  0.1207E+03
      0.258  0.1028E+03  0.1278E+03
      0.326  0.1120E+03  0.1355E+03
      0.395  0.1126E+03  0.1432E+03
      0.463  0.1357E+03  0.1525E+03
      0.532  0.1366E+03  0.1619E+03
      0.601  0.1393E+03  0.1715E+03
      0.669  0.1784E+03  0.1838E+03
      0.738  0.1207E+03  0.1921E+03
      0.806  0.1037E+03  0.1992E+03
      0.875  0.9339E+02  0.2056E+03
      0.944  0.8769E+02  0.2117E+03
      1.012  0.8794E+02  0.2177E+03
      1.081  0.1110E+03  0.2253E+03
      1.149  0.1252E+03  0.2339E+03
      1.218  0.1307E+03  0.2429E+03
      1.287  0.1319E+03  0.2520E+03
      1.355  0.1153E+03  0.2599E+03
      1.424  0.1082E+03  0.2674E+03
      1.492  0.1106E+03  0.2750E+03
      1.561  0.1108E+03  0.2826E+03
      1.630  0.1215E+03  0.2910E+03
      1.698  0.1494E+03  0.3012E+03
      1.767  0.2177E+03  0.3162E+03
      1.835  0.1721E+03  0.3280E+03
      1.904  0.9475E+02  0.3345E+03
      1.973  0.1378E+02  0.3355E+03
      2.041  0.1803E+02  0.3367E+03
      2.110  0.1166E+02  0.3375E+03
      2.178  0.1096E+02  0.3383E+03
      2.247  0.1636E+02  0.3394E+03
      2.316  0.9386E+01  0.3401E+03
      2.384  0.1564E+02  0.3411E+03
      2.453  0.1039E+02  0.3419E+03
      2.521  0.9683E+01  0.3425E+03
      2.590  0.1606E+02  0.3436E+03
      2.659  0.8628E+01  0.3442E+03
      2.727  0.9666E+01  0.3449E+03
      2.796  0.1433E+02  0.3459E+03
      2.864  0.1068E+02  0.3466E+03
      2.933  0.9784E+01  0.3473E+03
      3.002  0.8002E+01  0.3478E+03
      3.070  0.1463E+02  0.3488E+03
      3.139  0.9611E+01  0.3495E+03
      3.207  0.1013E+02  0.3502E+03
      3.276  0.6204E+01  0.3506E+03
      3.345  0.1106E+02  0.3514E+03
      3.413  0.1509E+02  0.3524E+03
      3.482  0.6850E+01  0.3529E+03
      3.551  0.8137E+01  0.3535E+03
      3.619  0.1047E+02  0.3542E+03
      3.688  0.7830E+01  0.3547E+03
      3.756  0.1133E+02  0.3555E+03
      3.825  0.9845E+01  0.3562E+03
      3.894  0.6539E+01  0.3566E+03
      3.962  0.1022E+02  0.3573E+03
      4.031  0.5921E+01  0.3577E+03
      4.099  0.1368E+02  0.3587E+03
      4.168  0.1058E+02  0.3594E+03
      4.237  0.8010E+01  0.3599E+03
      4.305  0.7300E+01  0.3605E+03
      4.374  0.7122E+01  0.3609E+03
      4.442  0.6920E+01  0.3614E+03
      4.511  0.9907E+01  0.3621E+03
      4.580  0.1065E+02  0.3628E+03
      4.648  0.1032E+02  0.3635E+03
      4.717  0.7445E+01  0.3641E+03
      4.785  0.6556E+01  0.3645E+03
      4.854  0.6325E+01  0.3649E+03
      4.923  0.7898E+01  0.3655E+03
      4.991  0.1132E+02  0.3663E+03
      5.060  0.1142E+02  0.3670E+03
      5.128  0.4924E+01  0.3674E+03
      5.197  0.9826E+01  0.3681E+03
      5.266  0.7005E+01  0.3685E+03
      5.334  0.6549E+01  0.3690E+03
      5.403  0.5697E+01  0.3694E+03
      5.471  0.9907E+01  0.3701E+03
      5.540  0.9061E+01  0.3707E+03
      5.609  0.9455E+01  0.3713E+03
      5.677  0.5400E+01  0.3717E+03
      5.746  0.6054E+01  0.3721E+03
      5.814  0.8603E+01  0.3727E+03
      5.883  0.5024E+01  0.3731E+03
      5.952  0.5378E+01  0.3734E+03
      6.020  0.6281E+01  0.3739E+03
      6.089  0.1077E+02  0.3746E+03
      6.157  0.4978E+01  0.3749E+03
      6.226  0.6854E+01  0.3754E+03
      6.295  0.5790E+01  0.3758E+03
      6.363  0.3328E+01  0.3761E+03
      6.432  0.7479E+01  0.3766E+03
      6.501  0.5532E+01  0.3769E+03
      6.569  0.6016E+01  0.3774E+03
      6.638  0.4527E+01  0.3777E+03
      6.706  0.6979E+01  0.3782E+03
      6.775  0.5011E+01  0.3785E+03
      6.844  0.4576E+01  0.3788E+03
      6.912  0.5682E+01  0.3792E+03
      6.981  0.3953E+01  0.3795E+03
      7.049  0.7655E+01  0.3800E+03
      7.118  0.1168E+02  0.3808E+03
      7.187  0.9936E+01  0.3815E+03
      7.255  0.6888E+01  0.3820E+03
      7.324  0.1121E+02  0.3827E+03
      7.392  0.7633E+01  0.3832E+03
      7.461  0.1126E+02  0.3840E+03
      7.530  0.8311E+01  0.3846E+03
      7.598  0.8174E+01  0.3852E+03
      7.667  0.9918E+01  0.3858E+03
      7.735  0.1132E+02  0.3866E+03
      7.804  0.9134E+01  0.3872E+03
      7.873  0.9979E+01  0.3879E+03
      7.941  0.7348E+01  0.3884E+03
      8.010  0.1172E+02  0.3892E+03
      8.078  0.6512E+01  0.3897E+03
      8.147  0.9727E+01  0.3904E+03
      8.216  0.1095E+02  0.3911E+03
      8.284  0.7957E+01  0.3917E+03
      8.353  0.1118E+02  0.3924E+03
      8.421  0.8362E+01  0.3930E+03
      8.490  0.6954E+01  0.3935E+03
      8.559  0.1113E+02  0.3942E+03
      8.627  0.1052E+02  0.3950E+03
      8.696  0.5998E+01  0.3954E+03
      8.764  0.1046E+02  0.3961E+03
      8.833  0.7419E+01  0.3966E+03
      8.902  0.8926E+01  0.3972E+03
      8.970  0.7633E+01  0.3978E+03
      9.039  0.6388E+01  0.3982E+03
      9.107  0.1085E+02  0.3989E+03
      9.176  0.8692E+01  0.3995E+03
      9.245  0.7028E+01  0.4000E+03
      9.313  0.1082E+02  0.4008E+03
      9.382  0.5200E+01  0.4011E+03
      9.451  0.7858E+01  0.4017E+03
      9.519  0.5410E+01  0.4020E+03
      9.588  0.1040E+02  0.4027E+03
      9.656  0.7211E+01  0.4032E+03
      9.725  0.7887E+01  0.4038E+03
      9.794  0.1044E+02  0.4045E+03
      9.862  0.4404E+01  0.4048E+03
      9.931  0.8788E+01  0.4054E+03
      9.999  0.6459E+01  0.4059E+03
     10.068  0.6612E+01  0.4063E+03
     10.137  0.7562E+01  0.4068E+03
     10.205  0.8756E+01  0.4074E+03
     10.274  0.7805E+01  0.4080E+03
     10.342  0.9698E+01  0.4086E+03
     10.411  0.8534E+01  0.4092E+03
     10.480  0.1170E+02  0.4100E+03
     10.548  0.9658E+01  0.4107E+03
     10.617  0.1123E+02  0.4115E+03
     10.685  0.1017E+02  0.4122E+03
     10.754  0.1065E+02  0.4129E+03
     10.823  0.6726E+01  0.4134E+03
     10.891  0.1154E+02  0.4142E+03
     10.960  0.9531E+01  0.4148E+03
     11.028  0.1206E+02  0.4156E+03
     11.097  0.1083E+02  0.4164E+03
     11.166  0.1110E+02  0.4171E+03
     11.234  0.1368E+02  0.4181E+03
     11.303  0.1010E+02  0.4188E+03
     11.371  0.1110E+02  0.4195E+03
     11.440  0.9785E+01  0.4202E+03
     11.509  0.1364E+02  0.4212E+03
     11.577  0.8370E+01  0.4217E+03
     11.646  0.1069E+02  0.4225E+03
     11.714  0.1218E+02  0.4233E+03
     11.783  0.9274E+01  0.4239E+03
     11.852  0.1297E+02  0.4248E+03
     11.920  0.1304E+02  0.4257E+03
     11.989  0.1308E+02  0.4266E+03
     12.057  0.7777E+01  0.4272E+03
     12.126  0.1299E+02  0.4281E+03
     12.195  0.9685E+01  0.4287E+03
     12.263  0.7416E+01  0.4292E+03
     12.332  0.6918E+01  0.4297E+03
     12.400  0.9009E+01  0.4303E+03
     12.469  0.4566E+01  0.4306E+03
     12.538  0.5602E+01  0.4310E+03
     12.606  0.3687E+01  0.4313E+03
     12.675  0.1712E+01  0.4314E+03
     12.744  0.2553E+01  0.4316E+03
     12.812  0.1366E+01  0.4317E+03
     12.881  0.2925E+01  0.4319E+03
     12.949  0.4352E+00  0.4319E+03
     13.018  0.1049E+01  0.4320E+03
     13.087  0.1228E-03  0.4320E+03
     13.155  0.4048E+00  0.4320E+03
     13.224  0.0000E+00  0.4320E+03
     13.292  0.0000E+00  0.4320E+03
     13.361  0.0000E+00  0.4320E+03
     13.430  0.0000E+00  0.4320E+03
     13.498  0.0000E+00  0.4320E+03
     13.567  0.0000E+00  0.4320E+03
     13.635  0.0000E+00  0.4320E+03
     13.704  0.0000E+00  0.4320E+03
     13.773  0.0000E+00  0.4320E+03
     13.841  0.0000E+00  0.4320E+03
     13.910  0.0000E+00  0.4320E+03
     13.978  0.0000E+00  0.4320E+03
     14.047  0.0000E+00  0.4320E+03
