   32   32    1    1
  0.1238582E+02  0.7345560E-09  0.7345560E-09  0.7345560E-09  0.5000000E-15
  1.000000000000000E-004
  CAR 
 unknown system                          
  352  196  216
 
  0.0000000E+00  0.0000000E+00  0.0000000E+00  0.5787037E-03
   1       -5.5988
   2       -2.9200
   3       -2.9169
   4       -2.9169
   5       -2.9169
   6       -2.9169
   7       -2.9138
   8       -1.4383
   9       -1.4383
  10       -1.4383
  11       -1.4383
  12       -1.2298
  13       -1.2298
  14       -1.2298
  15       -1.0849
  16       -1.0827
  17       -1.0827
  18       -1.0816
  19       -1.0814
  20       -1.0814
  21       -1.0813
  22       -1.0813
  23       -1.0811
  24       -1.0800
  25       -1.0800
  26       -1.0778
  27       -0.8075
  28       -0.8075
  29       -0.8075
  30       -0.5350
  31       -0.5331
  32       -0.5331
  33       -0.5331
  34       -0.5331
  35       -0.5313
  36       -0.1791
  37       -0.1775
  38       -0.1775
  39       -0.1775
  40       -0.1775
  41       -0.1759
  42        0.0197
  43        0.0203
  44        0.0203
  45        0.0224
  46        0.0224
  47        0.0224
  48        0.0224
  49        0.0225
  50        0.0225
  51        0.0225
  52        0.0235
  53        0.0235
  54        0.0237
  55        0.0245
  56        0.0245
  57        0.0248
  58        0.0248
  59        0.0249
  60        0.0249
  61        0.0249
  62        0.0249
  63        0.0263
  64        0.0263
  65        0.0287
  66        0.2184
  67        0.2207
  68        0.2207
  69        0.2210
  70        0.2212
  71        0.2212
  72        0.2212
  73        0.2212
  74        0.2214
  75        0.2217
  76        0.2217
  77        0.2240
  78        0.4579
  79        0.4579
  80        0.4579
  81        0.4579
  82        0.4579
  83        0.4579
  84        0.4580
  85        0.4580
  86        0.4840
  87        0.4840
  88        0.4840
  89        0.8339
  90        0.8354
  91        0.8354
  92        0.8354
  93        0.8354
  94        0.8370
  95        0.9531
  96        0.9536
  97        0.9543
  98        0.9543
  99        0.9548
 100        0.9548
 101        0.9548
 102        0.9548
 103        0.9553
 104        0.9553
 105        0.9561
 106        0.9565
 107        1.0977
 108        1.0977
 109        1.0993
 110        1.0993
 111        1.0995
 112        1.0995
 113        1.0996
 114        1.0996
 115        1.0997
 116        1.0997
 117        1.1013
 118        1.1013
 119        1.2174
 120        1.2184
 121        1.2184
 122        1.2184
 123        1.2185
 124        1.2194
 125        1.2462
 126        1.2462
 127        1.2476
 128        1.2479
 129        1.2479
 130        1.2480
 131        1.2480
 132        1.2480
 133        1.2481
 134        1.2485
 135        1.2499
 136        1.2499
 137        1.2530
 138        1.2532
 139        1.5051
 140        1.5059
 141        1.5059
 142        1.5059
 143        1.5059
 144        1.5067
 145        1.7640
 146        1.7640
 147        1.7640
 148        1.7773
 149        1.7773
 150        1.7773
 151        1.7773
 152        1.7773
 153        1.7773
 154        1.7773
 155        1.7773
 156        1.9068
 157        1.9072
 158        1.9072
 159        1.9072
 160        1.9072
 161        1.9072
 162        1.9078
 163        1.9079
 164        1.9079
 165        1.9079
 166        1.9079
 167        1.9083
 168        2.5338
 169        2.5339
 170        2.5339
 171        2.5339
 172        3.0454
 173        3.0456
 174        3.0456
 175        3.0465
 176        3.0468
 177        3.0468
 178        3.0468
 179        3.0468
 180        3.0471
 181        3.0480
 182        3.0480
 183        3.0483
 184        4.9393
 185        4.9393
 186        4.9393
 187        6.9107
 188        6.9107
 189        6.9107
 190        6.9108
 191        9.4272
 192        9.4272
 193        9.4307
 194        9.4307
 195        9.4311
 196        9.4311
 197        9.4311
 198        9.4312
 199        9.4315
 200        9.4315
 201        9.4350
 202        9.4350
 203       10.1841
 204       10.1841
 205       10.1841
 206       11.4815
 207       11.4843
 208       11.4843
 209       11.4843
 210       11.4843
 211       11.4870
 212       11.7988
 213       11.7991
 214       11.7992
 215       11.7992
 216       11.7995
 
  0.8333333E-01  0.0000000E+00  0.0000000E+00  0.1157407E-02
   1       -5.5784
   2       -3.2951
   3       -2.9002
   4       -2.9002
   5       -2.9002
   6       -2.9002
   7       -2.5416
   8       -1.4339
   9       -1.4339
  10       -1.4339
  11       -1.4339
  12       -1.2865
  13       -1.2865
  14       -1.2865
  15       -1.2865
  16       -1.2300
  17       -1.2204
  18       -1.2204
  19       -1.0907
  20       -1.0907
  21       -1.0907
  22       -1.0907
  23       -0.8953
  24       -0.8953
  25       -0.8953
  26       -0.8953
  27       -0.8022
  28       -0.8019
  29       -0.8019
  30       -0.5493
  31       -0.5492
  32       -0.5259
  33       -0.5259
  34       -0.5259
  35       -0.5258
  36       -0.2615
  37       -0.1752
  38       -0.1752
  39       -0.1752
  40       -0.1752
  41       -0.1132
  42       -0.1132
  43       -0.0930
  44        0.0086
  45        0.0089
  46        0.0089
  47        0.0090
  48        0.0146
  49        0.0146
  50        0.0146
  51        0.0146
  52        0.0231
  53        0.0232
  54        0.0233
  55        0.0233
  56        0.0366
  57        0.0367
  58        0.0367
  59        0.0369
  60        0.0469
  61        0.0470
  62        0.0470
  63        0.0473
  64        0.1545
  65        0.1545
  66        0.1545
  67        0.1545
  68        0.1705
  69        0.1705
  70        0.2258
  71        0.2258
  72        0.2258
  73        0.2258
  74        0.2757
  75        0.2757
  76        0.2757
  77        0.2758
  78        0.4543
  79        0.4543
  80        0.4543
  81        0.4543
  82        0.4630
  83        0.4630
  84        0.4630
  85        0.4630
  86        0.4782
  87        0.4887
  88        0.4887
  89        0.8071
  90        0.8072
  91        0.8072
  92        0.8072
  93        0.8417
  94        0.8680
  95        0.9327
  96        0.9328
  97        0.9328
  98        0.9328
  99        0.9532
 100        0.9532
 101        0.9532
 102        0.9532
 103        0.9779
 104        0.9779
 105        0.9780
 106        0.9780
 107        1.0103
 108        1.0103
 109        1.0994
 110        1.0994
 111        1.0995
 112        1.0995
 113        1.1239
 114        1.1239
 115        1.1239
 116        1.1239
 117        1.1918
 118        1.1918
 119        1.2057
 120        1.2057
 121        1.2057
 122        1.2057
 123        1.2185
 124        1.2186
 125        1.2186
 126        1.2186
 127        1.2320
 128        1.2320
 129        1.2477
 130        1.2550
 131        1.2706
 132        1.2706
 133        1.2706
 134        1.2707
 135        1.2992
 136        1.2992
 137        1.2992
 138        1.2992
 139        1.4726
 140        1.5118
 141        1.5118
 142        1.5118
 143        1.5118
 144        1.5393
 145        1.7114
 146        1.7115
 147        1.7115
 148        1.7115
 149        1.7572
 150        1.7572
 151        1.7618
 152        1.7716
 153        1.7716
 154        1.7716
 155        1.7717
 156        1.8721
 157        1.8721
 158        1.8991
 159        1.8991
 160        1.8991
 161        1.8991
 162        1.8992
 163        1.8992
 164        1.9068
 165        1.9072
 166        1.9079
 167        1.9083
 168        2.5748
 169        2.5749
 170        2.5749
 171        2.5749
 172        2.7856
 173        2.7856
 174        2.7856
 175        2.7856
 176        3.0449
 177        3.0449
 178        3.0449
 179        3.0449
 180        3.3536
 181        3.3536
 182        3.3536
 183        3.3536
 184        4.7959
 185        4.9928
 186        4.9928
 187        6.9715
 188        6.9715
 189        6.9715
 190        6.9715
 191        8.8732
 192        8.8732
 193        9.1216
 194        9.1216
 195        9.1216
 196        9.1217
 197        9.4585
 198        9.4585
 199        9.4586
 200        9.4586
 201       10.0093
 202       10.0093
 203       10.1921
 204       10.1921
 205       10.3687
 206       11.3328
 207       11.3328
 208       11.6130
 209       11.6130
 210       11.6130
 211       11.6131
 212       11.9864
 213       11.9980
 214       12.0337
 215       12.0338
 216       12.0338
 
  0.1666667E+00  0.0000000E+00  0.0000000E+00  0.1157407E-02
   1       -5.5172
   2       -3.6625
   3       -2.8504
   4       -2.8504
   5       -2.8504
   6       -2.8504
   7       -2.1881
   8       -1.5043
   9       -1.5043
  10       -1.5043
  11       -1.5043
  12       -1.4206
  13       -1.4206
  14       -1.4206
  15       -1.4206
  16       -1.2314
  17       -1.1926
  18       -1.1926
  19       -1.1166
  20       -1.1166
  21       -1.1166
  22       -1.1166
  23       -0.7865
  24       -0.7853
  25       -0.7853
  26       -0.7319
  27       -0.7319
  28       -0.7319
  29       -0.7319
  30       -0.5948
  31       -0.5948
  32       -0.5046
  33       -0.5046
  34       -0.5046
  35       -0.5046
  36       -0.3435
  37       -0.2364
  38       -0.2364
  39       -0.1684
  40       -0.1684
  41       -0.1684
  42       -0.1684
  43       -0.0106
  44       -0.0104
  45       -0.0104
  46       -0.0103
  47       -0.0094
  48       -0.0084
  49       -0.0084
  50       -0.0083
  51       -0.0083
  52        0.0254
  53        0.0255
  54        0.0255
  55        0.0255
  56        0.0444
  57        0.0444
  58        0.0444
  59        0.0446
  60        0.0780
  61        0.0780
  62        0.0780
  63        0.0780
  64        0.1114
  65        0.1114
  66        0.1114
  67        0.1114
  68        0.2392
  69        0.2392
  70        0.2392
  71        0.2392
  72        0.3194
  73        0.3194
  74        0.3194
  75        0.3194
  76        0.3303
  77        0.3303
  78        0.4435
  79        0.4435
  80        0.4435
  81        0.4435
  82        0.4610
  83        0.4782
  84        0.4782
  85        0.4782
  86        0.4782
  87        0.5027
  88        0.5027
  89        0.7449
  90        0.7450
  91        0.7450
  92        0.7450
  93        0.8727
  94        0.8807
  95        0.8808
  96        0.8808
  97        0.8808
  98        0.9255
  99        0.9255
 100        0.9581
 101        0.9736
 102        0.9736
 103        0.9736
 104        0.9739
 105        1.0166
 106        1.0166
 107        1.0167
 108        1.0167
 109        1.0994
 110        1.0994
 111        1.0994
 112        1.0994
 113        1.1697
 114        1.1697
 115        1.1700
 116        1.1700
 117        1.1720
 118        1.1720
 119        1.1723
 120        1.1723
 121        1.2184
 122        1.2184
 123        1.2184
 124        1.2184
 125        1.2320
 126        1.2614
 127        1.2701
 128        1.2702
 129        1.2861
 130        1.2861
 131        1.3242
 132        1.3242
 133        1.3242
 134        1.3243
 135        1.3585
 136        1.3585
 137        1.3585
 138        1.3585
 139        1.4400
 140        1.5339
 141        1.5339
 142        1.5339
 143        1.5339
 144        1.5503
 145        1.5504
 146        1.5504
 147        1.5504
 148        1.5722
 149        1.7370
 150        1.7370
 151        1.7548
 152        1.7548
 153        1.7548
 154        1.7548
 155        1.7552
 156        1.7737
 157        1.7737
 158        1.8735
 159        1.8735
 160        1.8735
 161        1.8735
 162        1.8752
 163        1.8752
 164        1.9068
 165        1.9072
 166        1.9078
 167        1.9083
 168        2.5612
 169        2.5612
 170        2.5613
 171        2.5613
 172        2.6645
 173        2.6645
 174        2.6645
 175        2.6645
 176        3.0390
 177        3.0390
 178        3.0390
 179        3.0390
 180        3.7134
 181        3.7134
 182        3.7134
 183        3.7134
 184        4.4172
 185        5.1465
 186        5.1465
 187        7.1509
 188        7.1509
 189        7.1509
 190        7.1509
 191        8.3369
 192        8.3369
 193        8.4818
 194        8.4818
 195        8.4818
 196        8.4818
 197        9.5403
 198        9.5403
 199        9.5403
 200        9.5403
 201       10.2161
 202       10.2161
 203       10.6066
 204       10.6066
 205       10.8714
 206       11.1176
 207       11.1176
 208       11.6152
 209       11.6152
 210       11.6153
 211       11.6153
 212       11.7017
 213       11.7017
 214       11.7017
 215       11.7017
 216       11.8734
 
  0.2500000E+00  0.0000000E+00  0.0000000E+00  0.1157407E-02
   1       -5.4155
   2       -4.0095
   3       -2.7682
   4       -2.7681
   5       -2.7681
   6       -2.7681
   7       -1.8792
   8       -1.7269
   9       -1.7269
  10       -1.7269
  11       -1.7269
  12       -1.3990
  13       -1.3990
  14       -1.3990
  15       -1.3990
  16       -1.2369
  17       -1.1545
  18       -1.1545
  19       -1.1545
  20       -1.1545
  21       -1.1473
  22       -1.1473
  23       -0.7606
  24       -0.7575
  25       -0.7575
  26       -0.6634
  27       -0.6634
  28       -0.5920
  29       -0.5920
  30       -0.5920
  31       -0.5920
  32       -0.4703
  33       -0.4703
  34       -0.4703
  35       -0.4703
  36       -0.4222
  37       -0.3472
  38       -0.3472
  39       -0.1573
  40       -0.1573
  41       -0.1573
  42       -0.1573
  43       -0.0451
  44       -0.0450
  45       -0.0450
  46       -0.0450
  47       -0.0324
  48       -0.0323
  49       -0.0323
  50       -0.0323
  51       -0.0036
  52       -0.0036
  53       -0.0036
  54       -0.0036
  55        0.0289
  56        0.0291
  57        0.0291
  58        0.0291
  59        0.0482
  60        0.0482
  61        0.0482
  62        0.0484
  63        0.0720
  64        0.2124
  65        0.2124
  66        0.2124
  67        0.2124
  68        0.2614
  69        0.2614
  70        0.2614
  71        0.2614
  72        0.3570
  73        0.3570
  74        0.3570
  75        0.3571
  76        0.4260
  77        0.4260
  78        0.4260
  79        0.4261
  80        0.4325
  81        0.5013
  82        0.5013
  83        0.5032
  84        0.5033
  85        0.5033
  86        0.5033
  87        0.5259
  88        0.5259
  89        0.6740
  90        0.6740
  91        0.6740
  92        0.6740
  93        0.8174
  94        0.8174
  95        0.8174
  96        0.8174
  97        0.8461
  98        0.8461
  99        0.9181
 100        1.0110
 101        1.0111
 102        1.0111
 103        1.0111
 104        1.0625
 105        1.0625
 106        1.0626
 107        1.0626
 108        1.0995
 109        1.0995
 110        1.0995
 111        1.0995
 112        1.1292
 113        1.1464
 114        1.1464
 115        1.1465
 116        1.1465
 117        1.2027
 118        1.2028
 119        1.2028
 120        1.2028
 121        1.2064
 122        1.2164
 123        1.2164
 124        1.2165
 125        1.2165
 126        1.2720
 127        1.3268
 128        1.3268
 129        1.3454
 130        1.3454
 131        1.3454
 132        1.3454
 133        1.3802
 134        1.3802
 135        1.3901
 136        1.3901
 137        1.3901
 138        1.3901
 139        1.4086
 140        1.4248
 141        1.4248
 142        1.4248
 143        1.4248
 144        1.5827
 145        1.5827
 146        1.5828
 147        1.5828
 148        1.6041
 149        1.6283
 150        1.6283
 151        1.7037
 152        1.7038
 153        1.7272
 154        1.7272
 155        1.7272
 156        1.7272
 157        1.7442
 158        1.8324
 159        1.8324
 160        1.8324
 161        1.8324
 162        1.8362
 163        1.8362
 164        1.9069
 165        1.9073
 166        1.9078
 167        1.9082
 168        2.3658
 169        2.3658
 170        2.3658
 171        2.3658
 172        2.7592
 173        2.7592
 174        2.7592
 175        2.7592
 176        3.0283
 177        3.0283
 178        3.0283
 179        3.0283
 180        3.9032
 181        4.1312
 182        4.1312
 183        4.1313
 184        4.1313
 185        5.3840
 186        5.3840
 187        7.4409
 188        7.4409
 189        7.4409
 190        7.4409
 191        7.7679
 192        7.7679
 193        7.7679
 194        7.7679
 195        7.8234
 196        7.8234
 197        9.6750
 198        9.6750
 199        9.6750
 200        9.6750
 201       10.2568
 202       10.2568
 203       10.8632
 204       10.8633
 205       10.8633
 206       10.8633
 207       10.9221
 208       10.9221
 209       11.2216
 210       11.2216
 211       11.4442
 212       11.4442
 213       11.4443
 214       11.4443
 215       11.5949
 216       11.7872
 
  0.3333333E+00  0.0000000E+00  0.0000000E+00  0.1157407E-02
   1       -5.2739
   2       -4.3300
   3       -2.6550
   4       -2.6549
   5       -2.6549
   6       -2.6549
   7       -1.9458
   8       -1.9458
   9       -1.9458
  10       -1.9458
  11       -1.6341
  12       -1.3695
  13       -1.3695
  14       -1.3695
  15       -1.3695
  16       -1.2520
  17       -1.1991
  18       -1.1991
  19       -1.1991
  20       -1.1991
  21       -1.0862
  22       -1.0862
  23       -0.7469
  24       -0.7468
  25       -0.7249
  26       -0.7184
  27       -0.7184
  28       -0.4963
  29       -0.4755
  30       -0.4755
  31       -0.4755
  32       -0.4754
  33       -0.4455
  34       -0.4455
  35       -0.4254
  36       -0.4254
  37       -0.4254
  38       -0.4254
  39       -0.1423
  40       -0.1423
  41       -0.1423
  42       -0.1423
  43       -0.0929
  44       -0.0928
  45       -0.0928
  46       -0.0928
  47       -0.0841
  48       -0.0841
  49       -0.0841
  50       -0.0840
  51       -0.0558
  52       -0.0557
  53       -0.0557
  54       -0.0557
  55        0.0333
  56        0.0335
  57        0.0335
  58        0.0335
  59        0.0488
  60        0.0488
  61        0.0488
  62        0.0491
  63        0.1493
  64        0.2830
  65        0.2830
  66        0.2830
  67        0.2830
  68        0.3528
  69        0.3528
  70        0.3528
  71        0.3528
  72        0.3935
  73        0.3943
  74        0.3944
  75        0.3944
  76        0.3944
  77        0.4030
  78        0.4030
  79        0.4030
  80        0.4031
  81        0.5376
  82        0.5376
  83        0.5376
  84        0.5377
  85        0.5583
  86        0.5583
  87        0.6045
  88        0.6045
  89        0.6046
  90        0.6046
  91        0.6826
  92        0.6826
  93        0.7522
  94        0.7522
  95        0.7522
  96        0.7522
  97        0.7732
  98        0.7732
  99        0.9710
 100        1.0581
 101        1.0581
 102        1.0581
 103        1.0581
 104        1.1004
 105        1.1004
 106        1.1004
 107        1.1004
 108        1.1078
 109        1.1078
 110        1.1078
 111        1.1078
 112        1.1256
 113        1.1259
 114        1.1259
 115        1.1261
 116        1.1280
 117        1.1282
 118        1.1282
 119        1.1286
 120        1.1717
 121        1.2077
 122        1.2078
 123        1.2079
 124        1.2079
 125        1.2104
 126        1.2104
 127        1.2105
 128        1.2106
 129        1.2865
 130        1.3788
 131        1.3942
 132        1.3947
 133        1.3991
 134        1.4532
 135        1.4532
 136        1.4587
 137        1.4588
 138        1.4588
 139        1.4588
 140        1.4726
 141        1.4726
 142        1.4962
 143        1.4962
 144        1.4962
 145        1.4962
 146        1.6343
 147        1.6583
 148        1.6584
 149        1.6634
 150        1.6634
 151        1.6634
 152        1.6635
 153        1.6894
 154        1.6894
 155        1.6894
 156        1.6895
 157        1.7291
 158        1.7785
 159        1.7785
 160        1.7785
 161        1.7785
 162        1.7836
 163        1.7836
 164        1.9069
 165        1.9074
 166        1.9077
 167        1.9082
 168        2.1925
 169        2.1925
 170        2.1925
 171        2.1925
 172        2.8405
 173        2.8406
 174        2.8406
 175        2.8406
 176        3.0116
 177        3.0116
 178        3.0116
 179        3.0116
 180        3.3351
 181        4.6088
 182        4.6088
 183        4.6088
 184        4.6088
 185        5.6876
 186        5.6876
 187        7.0571
 188        7.0571
 189        7.0571
 190        7.0572
 191        7.3344
 192        7.3344
 193        7.8301
 194        7.8301
 195        7.8301
 196        7.8301
 197        9.8602
 198        9.8602
 199        9.8602
 200        9.8602
 201       10.1449
 202       10.1450
 203       10.1450
 204       10.1450
 205       10.3151
 206       10.3151
 207       10.7528
 208       10.7528
 209       11.0493
 210       11.0493
 211       11.0493
 212       11.0493
 213       11.8541
 214       11.8569
 215       11.8980
 216       11.8980
 
  0.4166667E+00  0.0000000E+00  0.0000000E+00  0.1157407E-02
   1       -5.0931
   2       -4.6192
   3       -2.5128
   4       -2.5127
   5       -2.5127
   6       -2.5127
   7       -2.1538
   8       -2.1538
   9       -2.1538
  10       -2.1538
  11       -1.4602
  12       -1.3333
  13       -1.3333
  14       -1.3332
  15       -1.3332
  16       -1.2853
  17       -1.2459
  18       -1.2459
  19       -1.2458
  20       -1.2458
  21       -1.0117
  22       -1.0117
  23       -0.8371
  24       -0.8371
  25       -0.6798
  26       -0.6678
  27       -0.6678
  28       -0.5646
  29       -0.5316
  30       -0.5316
  31       -0.3859
  32       -0.3859
  33       -0.3859
  34       -0.3859
  35       -0.3763
  36       -0.3763
  37       -0.3763
  38       -0.3763
  39       -0.1531
  40       -0.1530
  41       -0.1530
  42       -0.1530
  43       -0.1455
  44       -0.1455
  45       -0.1455
  46       -0.1454
  47       -0.1239
  48       -0.1238
  49       -0.1238
  50       -0.1238
  51       -0.0796
  52       -0.0796
  53       -0.0796
  54       -0.0796
  55        0.0380
  56        0.0384
  57        0.0384
  58        0.0384
  59        0.0468
  60        0.0469
  61        0.0469
  62        0.0473
  63        0.2214
  64        0.3139
  65        0.3139
  66        0.3139
  67        0.3139
  68        0.3447
  69        0.3755
  70        0.3755
  71        0.3755
  72        0.3755
  73        0.4360
  74        0.4360
  75        0.4360
  76        0.4360
  77        0.5155
  78        0.5155
  79        0.5155
  80        0.5155
  81        0.5407
  82        0.5408
  83        0.5408
  84        0.5408
  85        0.5808
  86        0.5808
  87        0.5808
  88        0.5808
  89        0.5995
  90        0.5995
  91        0.6895
  92        0.6895
  93        0.6895
  94        0.6895
  95        0.7074
  96        0.7074
  97        0.8720
  98        0.8720
  99        0.9086
 100        0.9086
 101        0.9086
 102        0.9086
 103        1.0261
 104        1.1027
 105        1.1027
 106        1.1028
 107        1.1028
 108        1.1075
 109        1.1075
 110        1.1075
 111        1.1075
 112        1.1154
 113        1.1154
 114        1.1154
 115        1.1154
 116        1.1289
 117        1.1469
 118        1.1469
 119        1.1469
 120        1.1469
 121        1.1887
 122        1.1887
 123        1.1887
 124        1.1887
 125        1.1979
 126        1.1979
 127        1.1980
 128        1.1980
 129        1.2628
 130        1.2628
 131        1.3048
 132        1.3513
 133        1.4667
 134        1.4667
 135        1.5253
 136        1.5253
 137        1.5253
 138        1.5253
 139        1.5612
 140        1.5612
 141        1.5702
 142        1.5702
 143        1.5702
 144        1.5702
 145        1.6022
 146        1.6022
 147        1.6424
 148        1.6424
 149        1.6424
 150        1.6424
 151        1.6624
 152        1.7103
 153        1.7146
 154        1.7146
 155        1.7146
 156        1.7146
 157        1.7189
 158        1.7189
 159        1.7699
 160        1.7702
 161        1.7702
 162        1.7702
 163        1.7718
 164        1.9069
 165        1.9074
 166        1.9076
 167        1.9082
 168        2.0366
 169        2.0366
 170        2.0366
 171        2.0366
 172        2.7667
 173        2.9045
 174        2.9045
 175        2.9045
 176        2.9045
 177        2.9872
 178        2.9872
 179        2.9872
 180        2.9872
 181        5.1448
 182        5.1448
 183        5.1448
 184        5.1448
 185        6.0431
 186        6.0431
 187        6.3756
 188        6.3756
 189        6.3756
 190        6.3756
 191        6.8723
 192        6.8723
 193        8.3061
 194        8.3061
 195        8.3061
 196        8.3061
 197        9.4733
 198        9.4733
 199        9.4733
 200        9.4733
 201       10.0933
 202       10.0933
 203       10.0933
 204       10.0933
 205       10.3921
 206       10.3921
 207       10.6091
 208       10.6091
 209       10.6907
 210       10.6907
 211       10.6907
 212       10.6907
 213       12.0387
 214       12.0387
 215       12.0387
 216       12.0387
 
  0.5000000E+00  0.0000000E+00  0.0000000E+00  0.5787037E-03
   1       -4.8758
   2       -4.8729
   3       -2.3478
   4       -2.3452
   5       -2.3452
   6       -2.3450
   7       -2.3438
   8       -2.3436
   9       -2.3436
  10       -2.3411
  11       -1.3498
  12       -1.3488
  13       -1.2929
  14       -1.2929
  15       -1.2919
  16       -1.2916
  17       -1.2912
  18       -1.2909
  19       -1.2900
  20       -1.2900
  21       -0.9287
  22       -0.9278
  23       -0.9266
  24       -0.9258
  25       -0.6272
  26       -0.6251
  27       -0.6066
  28       -0.6066
  29       -0.6047
  30       -0.6047
  31       -0.3479
  32       -0.3479
  33       -0.3479
  34       -0.3476
  35       -0.3471
  36       -0.3469
  37       -0.3468
  38       -0.3468
  39       -0.1814
  40       -0.1806
  41       -0.1806
  42       -0.1806
  43       -0.1803
  44       -0.1803
  45       -0.1803
  46       -0.1795
  47       -0.1041
  48       -0.1034
  49       -0.1034
  50       -0.1029
  51       -0.1023
  52       -0.1018
  53       -0.1018
  54       -0.1012
  55        0.0411
  56        0.0426
  57        0.0426
  58        0.0429
  59        0.0433
  60        0.0436
  61        0.0436
  62        0.0452
  63        0.2867
  64        0.2872
  65        0.3444
  66        0.3447
  67        0.3447
  68        0.3451
  69        0.3452
  70        0.3456
  71        0.3456
  72        0.3459
  73        0.4837
  74        0.4837
  75        0.4837
  76        0.4843
  77        0.4847
  78        0.4852
  79        0.4853
  80        0.4853
  81        0.6303
  82        0.6306
  83        0.6306
  84        0.6316
  85        0.6321
  86        0.6329
  87        0.6329
  88        0.6333
  89        0.6485
  90        0.6485
  91        0.6502
  92        0.6502
  93        0.7019
  94        0.7025
  95        0.7025
  96        0.7025
  97        0.7030
  98        0.7030
  99        0.7030
 100        0.7037
 101        1.0663
 102        1.0663
 103        1.0673
 104        1.0673
 105        1.0792
 106        1.0801
 107        1.1070
 108        1.1070
 109        1.1072
 110        1.1074
 111        1.1075
 112        1.1076
 113        1.1078
 114        1.1078
 115        1.1519
 116        1.1526
 117        1.1526
 118        1.1526
 119        1.1533
 120        1.1534
 121        1.1534
 122        1.1541
 123        1.1763
 124        1.1765
 125        1.1768
 126        1.1768
 127        1.1774
 128        1.1774
 129        1.1777
 130        1.1780
 131        1.3258
 132        1.3272
 133        1.5372
 134        1.5372
 135        1.5373
 136        1.5374
 137        1.5866
 138        1.5868
 139        1.5868
 140        1.5868
 141        1.5875
 142        1.5875
 143        1.5876
 144        1.5879
 145        1.6430
 146        1.6430
 147        1.6438
 148        1.6439
 149        1.6439
 150        1.6439
 151        1.6442
 152        1.6442
 153        1.6443
 154        1.6444
 155        1.6452
 156        1.6452
 157        1.6879
 158        1.6879
 159        1.8950
 160        1.8955
 161        1.8955
 162        1.8957
 163        1.8958
 164        1.8960
 165        1.8960
 166        1.8966
 167        1.9069
 168        1.9075
 169        1.9075
 170        1.9082
 171        2.2345
 172        2.2365
 173        2.9510
 174        2.9514
 175        2.9520
 176        2.9520
 177        2.9528
 178        2.9528
 179        2.9534
 180        2.9538
 181        5.7331
 182        5.7336
 183        5.7336
 184        5.7353
 185        5.7359
 186        5.7375
 187        5.7375
 188        5.7381
 189        6.4388
 190        6.4388
 191        6.4419
 192        6.4419
 193        8.8553
 194        8.8554
 195        8.8554
 196        8.8570
 197        8.8577
 198        8.8592
 199        8.8592
 200        8.8594
 201       10.3689
 202       10.3689
 203       10.3708
 204       10.3709
 205       10.3713
 206       10.3714
 207       10.3733
 208       10.3733
 209       10.4892
 210       10.4895
 211       10.4896
 212       10.4898
 213       12.2100
 214       12.2107
 215       12.2114
 216       12.2118
 
  0.0000000E+00  0.8333333E-01  0.0000000E+00  0.2314815E-02
   1       -5.5784
   2       -3.2951
   3       -2.9026
   4       -2.9002
   5       -2.9002
   6       -2.8979
   7       -2.5416
   8       -1.4339
   9       -1.4339
  10       -1.4339
  11       -1.4338
  12       -1.2883
  13       -1.2865
  14       -1.2865
  15       -1.2846
  16       -1.2300
  17       -1.2204
  18       -1.2204
  19       -1.0920
  20       -1.0909
  21       -1.0904
  22       -1.0893
  23       -0.8969
  24       -0.8953
  25       -0.8953
  26       -0.8937
  27       -0.8022
  28       -0.8020
  29       -0.8019
  30       -0.5493