       N       E                     dE             d eps       ncg     rms          rms(c)
DAV:   1     0.392886801190E+04    0.39289E+04   -0.18723E+05 84680   0.320E+03
DAV:   2     0.456081853023E+03   -0.34728E+04   -0.33361E+04 84672   0.692E+02
DAV:   3    -0.107503298588E+03   -0.56359E+03   -0.51593E+03 84672   0.261E+02
DAV:   4    -0.145759339595E+03   -0.38256E+02   -0.36944E+02 88824   0.785E+01
DAV:   5    -0.146202666712E+03   -0.44333E+00   -0.44198E+00 90208   0.875E+00    0.392E+01
DAV:   6    -0.129756298883E+03    0.16446E+02   -0.27222E+02 91440   0.942E+01    0.187E+01
DAV:   7    -0.119144024859E+03    0.10612E+02   -0.48967E+01 94832   0.403E+01    0.273E+00
DAV:   8    -0.118933540939E+03    0.21048E+00   -0.72341E-01 88008   0.305E+00    0.218E+00
DAV:   9    -0.118842539196E+03    0.91002E-01   -0.18646E-01 90440   0.282E+00    0.376E-01
DAV:  10    -0.118842383106E+03    0.15609E-03   -0.32936E-02 97888   0.137E+00    0.148E-01
DAV:  11    -0.118842347202E+03    0.35904E-04   -0.25305E-03 88624   0.329E-01    0.572E-02
DAV:  12    -0.118842289652E+03    0.57549E-04   -0.30172E-04 91176   0.203E-01    0.241E-02
DAV:  13    -0.118842289838E+03   -0.18618E-06   -0.11541E-04 90480   0.819E-02    0.632E-03
DAV:  14    -0.118842294455E+03   -0.46171E-05   -0.15513E-05 88896   0.306E-02    0.742E-03
DAV:  15    -0.118842293716E+03    0.73937E-06   -0.32934E-06 90192   0.200E-02    0.574E-03
DAV:  16    -0.118842292018E+03    0.16983E-05   -0.72347E-07 90032   0.620E-03    0.300E-03
DAV:  17    -0.118842292519E+03   -0.50099E-06   -0.51210E-07 97856   0.793E-03    0.160E-03
DAV:  18    -0.118842293039E+03   -0.52006E-06   -0.29031E-07 93056   0.659E-03    0.675E-04
DAV:  19    -0.118842292841E+03    0.19776E-06   -0.11567E-07 79760   0.196E-03    0.278E-04
DAV:  20    -0.118842292844E+03   -0.31869E-08   -0.17247E-08 46160   0.113E-03
   1 F= -.11884229E+03 E0= -.11884151E+03  d E =-.156886E-02
