  32  32   0   0
  0.2088322E+02  0.8742772E-09  0.8742772E-09  0.8742772E-09  0.5000000E-15
  1.000000000000000E-004
  CAR 
 unknown system                          
      9.79324979     -5.17184645  301      1.96492406      1.00000000
     -5.172  0.0000E+00  0.0000E+00
     -5.122  0.0000E+00  0.0000E+00
     -5.072  0.0000E+00  0.0000E+00
     -5.022  0.0000E+00  0.0000E+00
     -4.972  0.0000E+00  0.0000E+00
     -4.922  0.0000E+00  0.0000E+00
     -4.873  0.0000E+00  0.0000E+00
     -4.823  0.0000E+00  0.0000E+00
     -4.773  0.0000E+00  0.0000E+00
     -4.723  0.0000E+00  0.0000E+00
     -4.673  0.0000E+00  0.0000E+00
     -4.623  0.0000E+00  0.0000E+00
     -4.573  0.0000E+00  0.0000E+00
     -4.523  0.8290E-07  0.4135E-08
     -4.473  0.1224E+00  0.6106E-02
     -4.424  0.6688E+00  0.3947E-01
     -4.374  0.1154E+01  0.9702E-01
     -4.324  0.1702E+01  0.1819E+00
     -4.274  0.1861E+01  0.2748E+00
     -4.224  0.1611E+01  0.3551E+00
     -4.174  0.2454E+01  0.4775E+00
     -4.124  0.1664E+01  0.5606E+00
     -4.074  0.3121E+01  0.7162E+00
     -4.025  0.2817E+01  0.8568E+00
     -3.975  0.3016E+01  0.1007E+01
     -3.925  0.3236E+01  0.1169E+01
     -3.875  0.4049E+01  0.1371E+01
     -3.825  0.3283E+01  0.1534E+01
     -3.775  0.3261E+01  0.1697E+01
     -3.725  0.4757E+01  0.1934E+01
     -3.675  0.4234E+01  0.2146E+01
     -3.625  0.4362E+01  0.2363E+01
     -3.576  0.4922E+01  0.2609E+01
     -3.526  0.5899E+01  0.2903E+01
     -3.476  0.5729E+01  0.3189E+01
     -3.426  0.7458E+01  0.3561E+01
     -3.376  0.1396E+02  0.4257E+01
     -3.326  0.3798E+02  0.6152E+01
     -3.276  0.6391E+02  0.9339E+01
     -3.226  0.7899E+02  0.1328E+02
     -3.177  0.9678E+02  0.1811E+02
     -3.127  0.1058E+03  0.2339E+02
     -3.077  0.1291E+03  0.2983E+02
     -3.027  0.1604E+03  0.3783E+02
     -2.977  0.1680E+03  0.4621E+02
     -2.927  0.1532E+03  0.5385E+02
     -2.877  0.1334E+03  0.6051E+02
     -2.827  0.1269E+03  0.6684E+02
     -2.777  0.1169E+03  0.7267E+02
     -2.728  0.9442E+02  0.7738E+02
     -2.678  0.9405E+02  0.8207E+02
     -2.628  0.9293E+02  0.8670E+02
     -2.578  0.1031E+03  0.9185E+02
     -2.528  0.1215E+03  0.9791E+02
     -2.478  0.1357E+03  0.1047E+03
     -2.428  0.1314E+03  0.1112E+03
     -2.378  0.1206E+03  0.1172E+03
     -2.328  0.1161E+03  0.1230E+03
     -2.279  0.1238E+03  0.1292E+03
     -2.229  0.1164E+03  0.1350E+03
     -2.179  0.1476E+03  0.1424E+03
     -2.129  0.1818E+03  0.1515E+03
     -2.079  0.2271E+03  0.1628E+03
     -2.029  0.1810E+03  0.1718E+03
     -1.979  0.1423E+03  0.1789E+03
     -1.929  0.1234E+03  0.1851E+03
     -1.880  0.1038E+03  0.1902E+03
     -1.830  0.1244E+03  0.1965E+03
     -1.780  0.1239E+03  0.2026E+03
     -1.730  0.1261E+03  0.2089E+03
     -1.680  0.1451E+03  0.2162E+03
     -1.630  0.1528E+03  0.2238E+03
     -1.580  0.1417E+03  0.2309E+03
     -1.530  0.1670E+03  0.2392E+03
     -1.480  0.1451E+03  0.2464E+03
     -1.431  0.1326E+03  0.2530E+03
     -1.381  0.1176E+03  0.2589E+03
     -1.331  0.1241E+03  0.2651E+03
     -1.281  0.1273E+03  0.2714E+03
     -1.231  0.1140E+03  0.2771E+03
     -1.181  0.1387E+03  0.2841E+03
     -1.131  0.1369E+03  0.2909E+03
     -1.081  0.1572E+03  0.2987E+03
     -1.032  0.2325E+03  0.3103E+03
     -0.982  0.1878E+03  0.3197E+03
     -0.932  0.1060E+03  0.3250E+03
     -0.882  0.7768E+02  0.3289E+03
     -0.832  0.1572E+02  0.3296E+03
     -0.782  0.4995E+01  0.3299E+03
     -0.732  0.5965E+01  0.3302E+03
     -0.682  0.1282E+02  0.3308E+03
     -0.632  0.8407E+01  0.3312E+03
     -0.583  0.3020E+01  0.3314E+03
     -0.533  0.6017E+01  0.3317E+03
     -0.483  0.1251E+02  0.3323E+03
     -0.433  0.7313E+01  0.3327E+03
     -0.383  0.7427E+01  0.3331E+03
     -0.333  0.3762E+01  0.3332E+03
     -0.283  0.6097E+01  0.3335E+03
     -0.233  0.1160E+02  0.3341E+03
     -0.183  0.9032E+01  0.3346E+03
     -0.134  0.7144E+01  0.3349E+03
     -0.084  0.6366E+01  0.3352E+03
     -0.034  0.4031E+01  0.3354E+03
      0.016  0.9113E+01  0.3359E+03
      0.066  0.1074E+02  0.3364E+03
      0.116  0.5760E+01  0.3367E+03
      0.166  0.7425E+01  0.3371E+03
      0.216  0.6726E+01  0.3374E+03
      0.265  0.6528E+01  0.3378E+03
      0.315  0.9478E+01  0.3382E+03
      0.365  0.7730E+01  0.3386E+03
      0.415  0.9615E+01  0.3391E+03
      0.465  0.7535E+01  0.3395E+03
      0.515  0.5066E+01  0.3397E+03
      0.565  0.6495E+01  0.3400E+03
      0.615  0.7497E+01  0.3404E+03
      0.665  0.1071E+02  0.3410E+03
      0.714  0.1041E+02  0.3415E+03
      0.764  0.4668E+01  0.3417E+03
      0.814  0.8381E+01  0.3421E+03
      0.864  0.7295E+01  0.3425E+03
      0.914  0.7404E+01  0.3429E+03
      0.964  0.1029E+02  0.3434E+03
      1.014  0.8662E+01  0.3438E+03
      1.064  0.6502E+01  0.3441E+03
      1.113  0.9071E+01  0.3446E+03
      1.163  0.8487E+01  0.3450E+03
      1.213  0.6091E+01  0.3453E+03
      1.263  0.8421E+01  0.3457E+03
      1.313  0.1011E+02  0.3462E+03
      1.363  0.9594E+01  0.3467E+03
      1.413  0.1026E+02  0.3472E+03
      1.463  0.5634E+01  0.3475E+03
      1.513  0.1147E+02  0.3481E+03
      1.562  0.5140E+01  0.3483E+03
      1.612  0.6298E+01  0.3486E+03
      1.662  0.1180E+02  0.3492E+03
      1.712  0.1094E+02  0.3498E+03
      1.762  0.8324E+01  0.3502E+03
      1.812  0.8495E+01  0.3506E+03
      1.862  0.1078E+02  0.3512E+03
      1.912  0.9312E+01  0.3516E+03
      1.962  0.6649E+01  0.3520E+03
      2.011  0.1032E+02  0.3525E+03
      2.061  0.9733E+01  0.3530E+03
      2.111  0.9834E+01  0.3534E+03
      2.161  0.1360E+02  0.3541E+03
      2.211  0.6687E+01  0.3545E+03
      2.261  0.1211E+02  0.3551E+03
      2.311  0.5920E+01  0.3554E+03
      2.361  0.1213E+02  0.3560E+03
      2.410  0.9592E+01  0.3564E+03
      2.460  0.9847E+01  0.3569E+03
      2.510  0.1101E+02  0.3575E+03
      2.560  0.9485E+01  0.3580E+03
      2.610  0.7943E+01  0.3584E+03
      2.660  0.1155E+02  0.3589E+03
      2.710  0.9639E+01  0.3594E+03
      2.760  0.7652E+01  0.3598E+03
      2.810  0.9706E+01  0.3603E+03
      2.859  0.7975E+01  0.3607E+03
      2.909  0.1184E+02  0.3613E+03
      2.959  0.1084E+02  0.3618E+03
      3.009  0.9320E+01  0.3623E+03
      3.059  0.1130E+02  0.3628E+03
      3.109  0.7537E+01  0.3632E+03
      3.159  0.4322E+01  0.3634E+03
      3.209  0.1129E+02  0.3640E+03
      3.258  0.1152E+02  0.3646E+03
      3.308  0.9205E+01  0.3650E+03
      3.358  0.9597E+01  0.3655E+03
      3.408  0.6573E+01  0.3658E+03
      3.458  0.1308E+02  0.3665E+03
      3.508  0.9110E+01  0.3669E+03
      3.558  0.7160E+01  0.3673E+03
      3.608  0.8771E+01  0.3677E+03
      3.658  0.5652E+01  0.3680E+03
      3.707  0.1099E+02  0.3686E+03
      3.757  0.1155E+02  0.3691E+03
      3.807  0.1217E+02  0.3697E+03
      3.857  0.7825E+01  0.3701E+03
      3.907  0.8313E+01  0.3705E+03
      3.957  0.8940E+01  0.3710E+03
      4.007  0.6702E+01  0.3713E+03
      4.057  0.9318E+01  0.3718E+03
      4.107  0.6061E+01  0.3721E+03
      4.156  0.9044E+01  0.3725E+03
      4.206  0.1254E+02  0.3732E+03
      4.256  0.7400E+01  0.3735E+03
      4.306  0.5583E+01  0.3738E+03
      4.356  0.1176E+02  0.3744E+03
      4.406  0.5675E+01  0.3747E+03
      4.456  0.5750E+01  0.3750E+03
      4.506  0.7273E+01  0.3753E+03
      4.555  0.7862E+01  0.3757E+03
      4.605  0.1021E+02  0.3762E+03
      4.655  0.1359E+02  0.3769E+03
      4.705  0.1129E+02  0.3775E+03
      4.755  0.1178E+02  0.3781E+03
      4.805  0.1260E+02  0.3787E+03
      4.855  0.1006E+02  0.3792E+03
      4.905  0.9469E+01  0.3797E+03
      4.955  0.1393E+02  0.3804E+03
      5.004  0.9615E+01  0.3808E+03
      5.054  0.1468E+02  0.3816E+03
      5.104  0.1264E+02  0.3822E+03
      5.154  0.1164E+02  0.3828E+03
      5.204  0.1472E+02  0.3835E+03
      5.254  0.9302E+01  0.3840E+03
      5.304  0.1171E+02  0.3846E+03
      5.354  0.1040E+02  0.3851E+03
      5.403  0.1232E+02  0.3857E+03
      5.453  0.1111E+02  0.3863E+03
      5.503  0.6775E+01  0.3866E+03
      5.553  0.1922E+02  0.3876E+03
      5.603  0.9420E+01  0.3880E+03
      5.653  0.1124E+02  0.3886E+03
      5.703  0.9187E+01  0.3890E+03
      5.753  0.1240E+02  0.3897E+03
      5.803  0.1042E+02  0.3902E+03
      5.852  0.1100E+02  0.3907E+03
      5.902  0.1287E+02  0.3914E+03
      5.952  0.9845E+01  0.3919E+03
      6.002  0.7195E+01  0.3922E+03
      6.052  0.1089E+02  0.3928E+03
      6.102  0.1171E+02  0.3934E+03
      6.152  0.1380E+02  0.3940E+03
      6.202  0.9077E+01  0.3945E+03
      6.252  0.1308E+02  0.3951E+03
      6.301  0.9970E+01  0.3956E+03
      6.351  0.3918E+01  0.3958E+03
      6.401  0.1220E+02  0.3964E+03
      6.451  0.1184E+02  0.3970E+03
      6.501  0.1202E+02  0.3976E+03
      6.551  0.1114E+02  0.3982E+03
      6.601  0.8804E+01  0.3986E+03
      6.651  0.4249E+01  0.3988E+03
      6.700  0.1614E+02  0.3996E+03
      6.750  0.9477E+01  0.4001E+03
      6.800  0.1273E+02  0.4008E+03
      6.850  0.6635E+01  0.4011E+03
      6.900  0.5903E+01  0.4014E+03
      6.950  0.1342E+02  0.4021E+03
      7.000  0.1087E+02  0.4026E+03
      7.050  0.1008E+02  0.4031E+03
      7.100  0.1147E+02  0.4037E+03
      7.149  0.9851E+01  0.4042E+03
      7.199  0.9356E+01  0.4046E+03
      7.249  0.7583E+01  0.4050E+03
      7.299  0.1648E+02  0.4058E+03
      7.349  0.1501E+02  0.4066E+03
      7.399  0.1076E+02  0.4071E+03
      7.449  0.1612E+02  0.4079E+03
      7.499  0.1722E+02  0.4088E+03
      7.548  0.1932E+02  0.4097E+03
      7.598  0.6016E+01  0.4100E+03
      7.648  0.1063E+02  0.4106E+03
      7.698  0.1428E+02  0.4113E+03
      7.748  0.8523E+01  0.4117E+03
      7.798  0.9101E+01  0.4122E+03
      7.848  0.9561E+01  0.4126E+03
      7.898  0.1308E+02  0.4133E+03
      7.948  0.2059E+02  0.4143E+03
      7.997  0.1577E+02  0.4151E+03
      8.047  0.1102E+02  0.4157E+03
      8.097  0.1579E+02  0.4164E+03
      8.147  0.1546E+02  0.4172E+03
      8.197  0.1224E+02  0.4178E+03
      8.247  0.1222E+02  0.4184E+03
      8.297  0.1411E+02  0.4191E+03
      8.347  0.1312E+02  0.4198E+03
      8.397  0.1117E+02  0.4203E+03
      8.446  0.9507E+01  0.4208E+03
      8.496  0.1164E+02  0.4214E+03
      8.546  0.1474E+02  0.4221E+03
      8.596  0.8094E+01  0.4225E+03
      8.646  0.6247E+01  0.4229E+03
      8.696  0.6342E+01  0.4232E+03
      8.746  0.5874E+01  0.4235E+03
      8.796  0.2978E+01  0.4236E+03
      8.845  0.1474E+01  0.4237E+03
      8.895  0.2169E+01  0.4238E+03
      8.945  0.7095E-01  0.4238E+03
      8.995  0.1103E+01  0.4239E+03
      9.045  0.1662E+01  0.4239E+03
      9.095  0.3113E+00  0.4240E+03
      9.145  0.9649E+00  0.4240E+03
      9.195  0.0000E+00  0.4240E+03
      9.245  0.0000E+00  0.4240E+03
      9.294  0.0000E+00  0.4240E+03
      9.344  0.0000E+00  0.4240E+03
      9.394  0.0000E+00  0.4240E+03
      9.444  0.0000E+00  0.4240E+03
      9.494  0.0000E+00  0.4240E+03
      9.544  0.0000E+00  0.4240E+03
      9.594  0.0000E+00  0.4240E+03
      9.644  0.0000E+00  0.4240E+03
      9.693  0.0000E+00  0.4240E+03
      9.743  0.0000E+00  0.4240E+03
      9.793  0.0000E+00  0.4240E+03
