   32   32    1    1
  0.2088322E+02  0.8742772E-09  0.8742772E-09  0.8742772E-09  0.5000000E-15
  1.000000000000000E-004
  CAR 
 unknown system                          
  352  196  212
 
  0.0000000E+00  0.0000000E+00  0.0000000E+00  0.5787037E-03
   1       -4.4916
   2       -3.4132
   3       -3.4132
   4       -3.4132
   5       -3.4019
   6       -3.4019
   7       -3.4019
   8       -3.4019
   9       -3.3397
  10       -3.3397
  11       -3.3397
  12       -3.0254
  13       -3.0240
  14       -3.0240
  15       -3.0240
  16       -3.0240
  17       -3.0226
  18       -2.8658
  19       -2.8646
  20       -2.8646
  21       -2.8646
  22       -2.8646
  23       -2.8635
  24       -2.8400
  25       -2.8388
  26       -2.8388
  27       -2.8388
  28       -2.8388
  29       -2.8376
  30       -2.6438
  31       -2.6438
  32       -2.6436
  33       -2.6431
  34       -2.6428
  35       -2.6428
  36       -2.6428
  37       -2.6428
  38       -2.6425
  39       -2.6420
  40       -2.6417
  41       -2.6417
  42       -2.4942
  43       -2.4928
  44       -2.4928
  45       -2.4921
  46       -2.4921
  47       -2.4921
  48       -2.4921
  49       -2.4921
  50       -2.4921
  51       -2.4914
  52       -2.4914
  53       -2.4900
  54       -2.4480
  55       -2.4480
  56       -2.4466
  57       -2.4466
  58       -2.4466
  59       -2.4466
  60       -2.4466
  61       -2.4466
  62       -2.4466
  63       -2.4465
  64       -2.4452
  65       -2.4452
  66       -2.3036
  67       -2.3036
  68       -2.3036
  69       -2.3035
  70       -2.3035
  71       -2.3035
  72       -2.3035
  73       -2.3035
  74       -2.2941
  75       -2.2941
  76       -2.2941
  77       -2.1452
  78       -2.1437
  79       -2.1435
  80       -2.1435
  81       -2.1433
  82       -2.1433
  83       -2.1433
  84       -2.1433
  85       -2.1432
  86       -2.1432
  87       -2.1430
  88       -2.1415
  89       -1.8231
  90       -1.8227
  91       -1.8220
  92       -1.8220
  93       -1.8217
  94       -1.8217
  95       -1.8217
  96       -1.8217
  97       -1.8214
  98       -1.8214
  99       -1.8208
 100       -1.8204
 101       -1.6747
 102       -1.6747
 103       -1.6733
 104       -1.6733
 105       -1.6732
 106       -1.6732
 107       -1.6732
 108       -1.6732
 109       -1.6731
 110       -1.6731
 111       -1.6717
 112       -1.6717
 113       -1.5759
 114       -1.5759
 115       -1.5583
 116       -1.5583
 117       -1.5569
 118       -1.5567
 119       -1.5567
 120       -1.5566
 121       -1.5566
 122       -1.5566
 123       -1.5566
 124       -1.5564
 125       -1.5551
 126       -1.5551
 127       -1.5470
 128       -1.5463
 129       -1.5463
 130       -1.5461
 131       -1.5461
 132       -1.5453
 133       -1.3864
 134       -1.3850
 135       -1.3850
 136       -1.3850
 137       -1.3850
 138       -1.3835
 139       -1.3159
 140       -1.3152
 141       -1.3152
 142       -1.3152
 143       -1.3152
 144       -1.3146
 145       -1.0442
 146       -1.0442
 147       -1.0441
 148       -1.0196
 149       -1.0195
 150       -1.0195
 151       -1.0195
 152       -1.0195
 153       -1.0195
 154       -1.0195
 155       -1.0195
 156       -0.8758
 157       -0.8756
 158       -0.8756
 159       -0.8756
 160       -0.8756
 161       -0.8756
 162       -0.8750
 163       -0.8750
 164       -0.8750
 165       -0.8750
 166       -0.8750
 167       -0.8748
 168        1.2542
 169        1.2554
 170        1.2554
 171        1.2562
 172        1.2565
 173        1.2565
 174        1.2565
 175        1.2565
 176        1.2567
 177        1.2576
 178        1.2576
 179        1.2588
 180        2.0185
 181        2.0185
 182        2.0185
 183        2.0185
 184        3.6999
 185        3.6999
 186        3.7000
 187        4.5299
 188        4.5299
 189        4.5299
 190        4.5299
 191        7.1683
 192        7.1683
 193        7.1707
 194        7.1707
 195        7.1708
 196        7.1709
 197        7.1709
 198        7.1709
 199        7.1712
 200        7.1712
 201        7.1736
 202        7.1736
 203        7.2329
 204        7.2329
 205        7.2330
 206        7.6339
 207        7.6340
 208        7.6340
 209        7.6340
 210        7.6340
 211        7.6340
 212        9.0663
 
  0.8333333E-01  0.0000000E+00  0.0000000E+00  0.1157407E-02
   1       -4.4761
   2       -3.4076
   3       -3.4060
   4       -3.4060
   5       -3.3951
   6       -3.3951
   7       -3.3951
   8       -3.3951
   9       -3.3356
  10       -3.3333
  11       -3.3333
  12       -3.0949
  13       -3.0146
  14       -3.0145
  15       -3.0145
  16       -3.0145
  17       -3.0056
  18       -2.9065
  19       -2.8778
  20       -2.8777
  21       -2.8596
  22       -2.8596
  23       -2.8596
  24       -2.8595
  25       -2.8352
  26       -2.8352
  27       -2.8352
  28       -2.8352
  29       -2.7704
  30       -2.6913
  31       -2.6913
  32       -2.6912
  33       -2.6912
  34       -2.6607
  35       -2.6607
  36       -2.6607
  37       -2.6607
  38       -2.6208
  39       -2.6208
  40       -2.6208
  41       -2.6208
  42       -2.5847
  43       -2.5847
  44       -2.5223
  45       -2.5222
  46       -2.5222
  47       -2.5222
  48       -2.4699
  49       -2.4689
  50       -2.4689
  51       -2.4689
  52       -2.4683
  53       -2.4683
  54       -2.4683
  55       -2.4674
  56       -2.4485
  57       -2.4485
  58       -2.4485
  59       -2.4485
  60       -2.4460
  61       -2.4460
  62       -2.4460
  63       -2.4459
  64       -2.3055
  65       -2.3055
  66       -2.3055
  67       -2.3055
  68       -2.2995
  69       -2.2995
  70       -2.2990
  71       -2.2987
  72       -2.2987
  73       -2.2985
  74       -2.2985
  75       -2.2893
  76       -2.2893
  77       -2.1783
  78       -2.1783
  79       -2.1783
  80       -2.1783
  81       -2.1554
  82       -2.1554
  83       -2.1553
  84       -2.1553
  85       -2.1091
  86       -2.1091
  87       -2.1091
  88       -2.1091
  89       -1.8445
  90       -1.8444
  91       -1.8444
  92       -1.8444
  93       -1.8126
  94       -1.8126
  95       -1.8126
  96       -1.8126
  97       -1.7896
  98       -1.7896
  99       -1.7896
 100       -1.7895
 101       -1.7623
 102       -1.7623
 103       -1.7290
 104       -1.7290
 105       -1.7290
 106       -1.7289
 107       -1.6736
 108       -1.6736
 109       -1.6736
 110       -1.6735
 111       -1.5981
 112       -1.5981
 113       -1.5980
 114       -1.5980
 115       -1.5939
 116       -1.5811
 117       -1.5811
 118       -1.5807
 119       -1.5737
 120       -1.5464
 121       -1.5463
 122       -1.5463
 123       -1.5463
 124       -1.5339
 125       -1.5339
 126       -1.5330
 127       -1.5329
 128       -1.5329
 129       -1.5328
 130       -1.5047
 131       -1.5047
 132       -1.5046
 133       -1.5046
 134       -1.3499
 135       -1.3464
 136       -1.3464
 137       -1.3464
 138       -1.3463
 139       -1.2929
 140       -1.2929
 141       -1.2929
 142       -1.2929
 143       -1.2805
 144       -1.0938
 145       -1.0505
 146       -1.0505
 147       -1.0465
 148       -1.0341
 149       -1.0341
 150       -1.0341
 151       -1.0341
 152       -1.0253
 153       -1.0253
 154       -1.0253
 155       -1.0253
 156       -0.8970
 157       -0.8970
 158       -0.8837
 159       -0.8837
 160       -0.8837
 161       -0.8837
 162       -0.8835
 163       -0.8835
 164       -0.8758
 165       -0.8756
 166       -0.8750
 167       -0.8748
 168        0.9150
 169        0.9150
 170        0.9150
 171        0.9151
 172        1.2629
 173        1.2629
 174        1.2629
 175        1.2629
 176        1.6270
 177        1.6270
 178        1.6270
 179        1.6270
 180        1.9898
 181        1.9898
 182        1.9898
 183        1.9898
 184        3.5598
 185        3.7351
 186        3.7351
 187        4.5968
 188        4.5968
 189        4.5968
 190        4.5968
 191        6.7315
 192        6.7315
 193        6.7983
 194        6.7983
 195        6.7983
 196        6.7983
 197        7.1940
 198        7.1940
 199        7.1940
 200        7.1940
 201        7.2366
 202        7.2366
 203        7.3994
 204        7.6199
 205        7.6199
 206        7.6212
 207        7.6212
 208        7.8842
 209        7.8842
 210        7.8842
 211        7.8842
 212        9.1062
 
  0.1666667E+00  0.0000000E+00  0.0000000E+00  0.1157407E-02
   1       -4.4297
   2       -3.3911
   3       -3.3846
   4       -3.3846
   5       -3.3748
   6       -3.3748
   7       -3.3748
   8       -3.3747
   9       -3.3233
  10       -3.3142
  11       -3.3142
  12       -3.2228
  13       -3.0246
  14       -2.9866
  15       -2.9866
  16       -2.9866
  17       -2.9866
  18       -2.9723
  19       -2.9148
  20       -2.9148
  21       -2.8449
  22       -2.8449
  23       -2.8449
  24       -2.8449
  25       -2.8244
  26       -2.8244
  27       -2.8244
  28       -2.8243
  29       -2.7855
  30       -2.7854
  31       -2.7854
  32       -2.7854
  33       -2.7127
  34       -2.7127
  35       -2.7024
  36       -2.6744
  37       -2.6744
  38       -2.6744
  39       -2.6744
  40       -2.5980
  41       -2.5980
  42       -2.5980
  43       -2.5980
  44       -2.5578
  45       -2.5577
  46       -2.5577
  47       -2.5577
  48       -2.4535
  49       -2.4535
  50       -2.4535
  51       -2.4534
  52       -2.4515
  53       -2.4512
  54       -2.4511
  55       -2.4511
  56       -2.4442
  57       -2.4442
  58       -2.4442
  59       -2.4441
  60       -2.4386
  61       -2.4386
  62       -2.4386
  63       -2.4384
  64       -2.3135
  65       -2.3113
  66       -2.3113
  67       -2.3113
  68       -2.3113
  69       -2.2844
  70       -2.2844
  71       -2.2844
  72       -2.2843
  73       -2.2750
  74       -2.2750
  75       -2.2380
  76       -2.2380
  77       -2.2380
  78       -2.2380
  79       -2.2065
  80       -2.2065
  81       -2.2065
  82       -2.2065
  83       -2.1440
  84       -2.1440
  85       -2.0188
  86       -2.0188
  87       -2.0188
  88       -2.0188
  89       -1.8968
  90       -1.8967
  91       -1.8967
  92       -1.8967
  93       -1.8473
  94       -1.8473
  95       -1.8344
  96       -1.8344
  97       -1.8344
  98       -1.8344
  99       -1.7654
 100       -1.7654
 101       -1.7654
 102       -1.7654
 103       -1.7392
 104       -1.7392
 105       -1.7392
 106       -1.7392
 107       -1.7169
 108       -1.6746
 109       -1.6746
 110       -1.6746
 111       -1.6746
 112       -1.6291
 113       -1.6291
 114       -1.6291
 115       -1.6291
 116       -1.5951
 117       -1.5672
 118       -1.5468
 119       -1.5468
 120       -1.5468
 121       -1.5468
 122       -1.4990
 123       -1.4990
 124       -1.4876
 125       -1.4876
 126       -1.4780
 127       -1.4779
 128       -1.4779
 129       -1.4779
 130       -1.4429
 131       -1.4429
 132       -1.4429
 133       -1.4429
 134       -1.3837
 135       -1.3498
 136       -1.3498
 137       -1.3498
 138       -1.3498
 139       -1.2461
 140       -1.1681
 141       -1.1681
 142       -1.1681
 143       -1.1681
 144       -1.0771
 145       -1.0771
 146       -1.0771
 147       -1.0771
 148       -1.0695
 149       -1.0695
 150       -1.0536
 151       -1.0424
 152       -1.0424
 153       -1.0424
 154       -1.0424
 155       -0.9592
 156       -0.9592
 157       -0.9093
 158       -0.9093
 159       -0.9093
 160       -0.9093
 161       -0.9070
 162       -0.9070
 163       -0.8758
 164       -0.8756
 165       -0.8750
 166       -0.8748
 167       -0.7350
 168        0.6012
 169        0.6012
 170        0.6012
 171        0.6012
 172        1.2822
 173        1.2822
 174        1.2822
 175        1.2822
 176        1.9135
 177        1.9135
 178        1.9135
 179        1.9135
 180        2.0277
 181        2.0277
 182        2.0277
 183        2.0277
 184        3.2001
 185        3.8384
 186        3.8384
 187        4.7873
 188        4.7873
 189        4.7873
 190        4.7873
 191        6.2244
 192        6.2244
 193        6.2244
 194        6.2244
 195        6.3054
 196        6.3054
 197        7.2478
 198        7.2478
 199        7.2627
 200        7.2627
 201        7.2627
 202        7.2627
 203        7.5820
 204        7.5820
 205        7.8383
 206        8.0793
 207        8.0793
 208        8.1204
 209        8.1204
 210        8.1204
 211        8.1204
 212        8.6569
 
  0.2500000E+00  0.0000000E+00  0.0000000E+00  0.1157407E-02
   1       -4.3529
   2       -3.3937
   3       -3.3640
   4       -3.3496
   5       -3.3496
   6       -3.3410
   7       -3.3410
   8       -3.3410
   9       -3.3409
  10       -3.3030
  11       -3.2824
  12       -3.2824
  13       -3.0657
  14       -3.0352
  15       -2.9702
  16       -2.9701
  17       -2.9413
  18       -2.9413
  19       -2.9413
  20       -2.9413
  21       -2.8880
  22       -2.8880
  23       -2.8880
  24       -2.8880
  25       -2.8298
  26       -2.8298
  27       -2.8217
  28       -2.8217
  29       -2.8217
  30       -2.8217
  31       -2.8065
  32       -2.8065
  33       -2.8065
  34       -2.8065
  35       -2.6852
  36       -2.6852
  37       -2.6852
  38       -2.6851
  39       -2.6360
  40       -2.5970
  41       -2.5970
  42       -2.5970
  43       -2.5970
  44       -2.5841
  45       -2.5841
  46       -2.5841
  47       -2.5841
  48       -2.4596
  49       -2.4596
  50       -2.4596
  51       -2.4596
  52       -2.4424
  53       -2.4417
  54       -2.4417
  55       -2.4416
  56       -2.4401
  57       -2.4401
  58       -2.4401
  59       -2.4393
  60       -2.4161
  61       -2.4161
  62       -2.4161
  63       -2.4161
  64       -2.3373
  65       -2.3205
  66       -2.3205
  67       -2.3205
  68       -2.3205
  69       -2.3036
  70       -2.3036
  71       -2.3036
  72       -2.3036
  73       -2.2641
  74       -2.2640
  75       -2.2640
  76       -2.2640
  77       -2.2606
  78       -2.2606
  79       -2.2606
  80       -2.2605
  81       -2.2513
  82       -2.2513
  83       -1.9824
  84       -1.9824
  85       -1.9591
  86       -1.9591
  87       -1.9591
  88       -1.9591
  89       -1.9444
  90       -1.9444
  91       -1.9444
  92       -1.9444
  93       -1.9270
  94       -1.9270
  95       -1.8965
  96       -1.8965
  97       -1.8964
  98       -1.8964
  99       -1.7691
 100       -1.7013
 101       -1.7013
 102       -1.7013
 103       -1.7013
 104       -1.6882
 105       -1.6882
 106       -1.6882
 107       -1.6882
 108       -1.6761
 109       -1.6761
 110       -1.6761
 111       -1.6760
 112       -1.6509
 113       -1.6509
 114       -1.6509
 115       -1.6509
 116       -1.6180
 117       -1.5564
 118       -1.5489
 119       -1.5489
 120       -1.5489
 121       -1.5489
 122       -1.4472
 123       -1.4472
 124       -1.4163
 125       -1.4112
 126       -1.4112
 127       -1.4112
 128       -1.4110
 129       -1.3943
 130       -1.3943
 131       -1.3742
 132       -1.3742
 133       -1.3741
 134       -1.3741
 135       -1.3732
 136       -1.3732
 137       -1.3731
 138       -1.3731
 139       -1.2128
 140       -1.1469
 141       -1.1469
 142       -1.1469
 143       -1.1469
 144       -1.1005
 145       -1.1005
 146       -1.0706
 147       -1.0706
 148       -1.0706
 149       -1.0706
 150       -1.0652
 151       -1.0565
 152       -1.0565
 153       -1.0063
 154       -1.0063
 155       -1.0063
 156       -1.0063
 157       -0.9506
 158       -0.9506
 159       -0.9505
 160       -0.9505
 161       -0.9452
 162       -0.9452
 163       -0.8758
 164       -0.8755
 165       -0.8751
 166       -0.8748
 167       -0.3235
 168        0.3129
 169        0.3129
 170        0.3129
 171        0.3129
 172        1.3151
 173        1.3151
 174        1.3151
 175        1.3151
 176        1.8103
 177        1.8103
 178        1.8103
 179        1.8103
 180        2.4588
 181        2.4588
 182        2.4588
 183        2.4588
 184        2.7233
 185        4.0042
 186        4.0042
 187        5.0788
 188        5.0788
 189        5.0788
 190        5.0788
 191        5.6303
 192        5.6303
 193        5.6303
 194        5.6303
 195        5.8957
 196        5.8957
 197        7.2665
 198        7.2665
 199        7.3757
 200        7.3757
 201        7.3757
 202        7.3757
 203        7.5302
 204        7.5303
 205        8.0359
 206        8.0359
 207        8.0359
 208        8.0359
 209        8.2688
 210        8.2688
 211        8.2688
 212        8.2749
 
  0.3333333E+00  0.0000000E+00  0.0000000E+00  0.1157407E-02
   1       -4.2468
   2       -3.5846
   3       -3.3273
   4       -3.3024
   5       -3.3024
   6       -3.2941
   7       -3.2941
   8       -3.2941
   9       -3.2940
  10       -3.2749
  11       -3.2379
  12       -3.2379
  13       -3.1182
  14       -3.0942
  15       -3.0367
  16       -3.0367
  17       -2.9878
  18       -2.9878
  19       -2.9878
  20       -2.9878
  21       -2.9355
  22       -2.9355
  23       -2.8807
  24       -2.8807
  25       -2.8807
  26       -2.8807
  27       -2.7925
  28       -2.7925
  29       -2.7925
  30       -2.7925
  31       -2.7823
  32       -2.7823
  33       -2.7823
  34       -2.7823
  35       -2.6959
  36       -2.6959
  37       -2.6959
  38       -2.6959
  39       -2.6380
  40       -2.6380
  41       -2.6380
  42       -2.6380
  43       -2.5990
  44       -2.5990
  45       -2.5990
  46       -2.5990
  47       -2.5725
  48       -2.4636
  49       -2.4636
  50       -2.4636
  51       -2.4636
  52       -2.4389
  53       -2.4385
  54       -2.4385
  55       -2.4384
  56       -2.4342
  57       -2.4342
  58       -2.4342
  59       -2.4338
  60       -2.3974
  61       -2.3974
  62       -2.3974
  63       -2.3974
  64       -2.3700
  65       -2.3645
  66       -2.3645
  67       -2.3645
  68       -2.3644
  69       -2.3327
  70       -2.3327
  71       -2.3327
  72       -2.3327
  73       -2.2925
  74       -2.2925
  75       -2.2925
  76       -2.2925
  77       -2.2280
  78       -2.2280
  79       -2.2280
  80       -2.2280
  81       -2.2184
  82       -2.2184
  83       -2.0478
  84       -2.0478
  85       -2.0478
  86       -2.0477
  87       -2.0225
  88       -2.0225
  89       -2.0225
  90       -2.0225
  91       -2.0005
  92       -2.0005
  93       -1.8166
  94       -1.8166
  95       -1.7745
  96       -1.7596
  97       -1.7596
  98       -1.7596
  99       -1.7596
 100       -1.6775
 101       -1.6775
 102       -1.6775
 103       -1.6774
 104       -1.6650
 105       -1.6650
 106       -1.6650
 107       -1.6650
 108       -1.6484
 109       -1.6439
 110       -1.6438
 111       -1.6438
 112       -1.6438
 113       -1.6333
 114       -1.6333
 115       -1.6333
 116       -1.6332
 117       -1.5542
 118       -1.5542
 119       -1.5542
 120       -1.5542
 121       -1.5416
 122       -1.4468
 123       -1.4093
 124       -1.4093
 125       -1.4093
 126       -1.4093
 127       -1.3852
 128       -1.3852
 129       -1.3421
 130       -1.3421
 131       -1.3421
 132       -1.3421
 133       -1.3030
 134       -1.3030
 135       -1.2979
 136       -1.2979
 137       -1.2979
 138       -1.2979
 139       -1.2404
 140       -1.2403
 141       -1.2403
 142       -1.2403
 143       -1.1815
 144       -1.1815
 145       -1.1811
 146       -1.1427
 147       -1.1427
 148       -1.1090
 149       -1.1090
 150       -1.1090
 151       -1.1090
 152       -1.0811
 153       -1.0052
 154       -1.0052
 155       -1.0051
 156       -1.0051
 157       -0.9968
 158       -0.9968
 159       -0.8757
 160       -0.8755
 161       -0.8751
 162       -0.8749
 163       -0.8268
 164       -0.8268
 165       -0.8268
 166       -0.8268
 167        0.0477
 168        0.0477
 169        0.0477
 170        0.0477
 171        0.1298
 172        1.3622
 173        1.3622
 174        1.3622
 175        1.3622
 176        1.6998
 177        1.6998
 178        1.6998
 179        1.6998
 180        2.1981
 181        2.9202
 182        2.9202
 183        2.9202
 184        2.9202
 185        4.2248
 186        4.2248
 187        5.0438
 188        5.0438
 189        5.0438
 190        5.0438
 191        5.4486
 192        5.4486
 193        5.4486
 194        5.4486
 195        5.5055
 196        5.5055
 197        7.2930
 198        7.2930
 199        7.4439
 200        7.4439
 201        7.4439
 202        7.4439
 203        7.4738
 204        7.4738
 205        7.5310
 206        7.5310
 207        7.5310
 208        7.5310
 209        8.3910
 210        8.3913
 211        8.3917
 212        8.3976
 
  0.4166667E+00  0.0000000E+00  0.0000000E+00  0.1157407E-02
   1       -4.1131
   2       -3.7758
   3       -3.2822
   4       -3.2447
   5       -3.2446
   6       -3.2394
   7       -3.2345
   8       -3.2345
   9       -3.2345
  10       -3.2345
  11       -3.1809
  12       -3.1809
  13       -3.1748
  14       -3.1484
  15       -3.1080
  16       -3.1080
  17       -3.0802
  18       -3.0802
  19       -3.0802
  20       -3.0802
  21       -3.0295
  22       -3.0295
  23       -2.8080
  24       -2.8080
  25       -2.8080
  26       -2.8080
  27       -2.7611
  28       -2.7610
  29       -2.7610
  30       -2.7610
  31       -2.7522
  32       -2.7522
  33       -2.7522
  34       -2.7522
  35       -2.7105
  36       -2.7105
  37       -2.7105
  38       -2.7105
  39       -2.6787
  40       -2.6787
  41       -2.6787
  42       -2.6787
  43       -2.6530
  44       -2.6530
  45       -2.6530
  46       -2.6530
  47       -2.5130
  48       -2.4608
  49       -2.4608
  50       -2.4608
  51       -2.4608
  52       -2.4359
  53       -2.4353
  54       -2.4353
  55       -2.4353
  56       -2.4322
  57       -2.4321
  58       -2.4321
  59       -2.4316
  60       -2.4133
  61       -2.4133
  62       -2.4133
  63       -2.4133
  64       -2.4107
  65       -2.3800
  66       -2.3800
  67       -2.3800
  68       -2.3800
  69       -2.3472
  70       -2.3472
  71       -2.3472
  72       -2.3472
  73       -2.2732
  74       -2.2732
  75       -2.2732
  76       -2.2732
  77       -2.1870
  78       -2.1870
  79       -2.1870
  80       -2.1869
  81       -2.1764
  82       -2.1764
  83       -2.1402
  84       -2.1401
  85       -2.1401
  86       -2.1401
  87       -2.0830
  88       -2.0830
  89       -2.0830
  90       -2.0830
  91       -2.0670
  92       -2.0670
  93       -1.7538
  94       -1.6837
  95       -1.6781
  96       -1.6781
  97       -1.6781
  98       -1.6781
  99       -1.6732
 100       -1.6732
 101       -1.6732
 102       -1.6732
 103       -1.6494
 104       -1.6493
 105       -1.6189
 106       -1.6189
 107       -1.6189
 108       -1.6189
 109       -1.6084
 110       -1.6084
 111       -1.6084
 112       -1.6084
 113       -1.5676
 114       -1.5675
 115       -1.5675
 116       -1.5675
 117       -1.5648
 118       -1.5648
 119       -1.5648
 120       -1.5648
 121       -1.5228
 122       -1.4751
 123       -1.4539
 124       -1.4539
 125       -1.4539
 126       -1.4539
 127       -1.3535
 128       -1.3535
 129       -1.3535
 130       -1.3535
 131       -1.3266
 132       -1.3266
 133       -1.3193
 134       -1.3193
 135       -1.2750
 136       -1.2750
 137       -1.2750
 138       -1.2750
 139       -1.2202
 140       -1.2202
 141       -1.2201
 142       -1.2201
 143       -1.2155
 144       -1.2155
 145       -1.1947
 146       -1.1947
 147       -1.1567
 148       -1.1567
 149       -1.1567
 150       -1.1567
 151       -1.1515
 152       -1.1011
 153       -1.0704
 154       -1.0704
 155       -1.0704
 156       -1.0704
 157       -1.0604
 158       -1.0604
 159       -0.8757
 160       -0.8754
 161       -0.8752
 162       -0.8749
 163       -0.6324
 164       -0.6324
 165       -0.6324
 166       -0.6324
 167       -0.1967
 168       -0.1967
 169       -0.1967
 170       -0.1967
 171        0.6165
 172        1.4243
 173        1.4243
 174        1.4244
 175        1.4244
 176        1.5948
 177        1.5948
 178        1.5948
 179        1.5948
 180        1.6604
 181        3.4110
 182        3.4110
 183        3.4111
 184        3.4111
 185        4.4753
 186        4.4753
 187        4.4754
 188        4.4754
 189        4.4923
 190        4.4923
 191        5.1384
 192        5.1384
 193        5.8799
 194        5.8799
 195        5.8799
 196        5.8799
 197        6.8842
 198        6.8842
 199        6.8842
 200        6.8842
 201        7.3275
 202        7.3275
 203        7.4191
 204        7.4191
 205        7.7258
 206        7.7258
 207        7.7258
 208        7.7258
 209        8.2223
 210        8.2223
 211        8.2223
 212        8.2223
 
  0.5000000E+00  0.0000000E+00  0.0000000E+00  0.5787037E-03
   1       -3.9556
   2       -3.9535
   3       -3.2313
   4       -3.2299
   5       -3.1978
   6       -3.1964
   7       -3.1797
   8       -3.1792
   9       -3.1783
  10       -3.1778
  11       -3.1637
  12       -3.1637
  13       -3.1636
  14       -3.1635
  15       -3.1622
  16       -3.1621
  17       -3.1620
  18       -3.1620
  19       -3.1121
  20       -3.1121
  21       -3.1105
  22       -3.1105
  23       -2.7341
  24       -2.7326
  25       -2.7324
  26       -2.7324
  27       -2.7323
  28       -2.7323
  29       -2.7323
  30       -2.7307
  31       -2.7303
  32       -2.7297
  33       -2.7290
  34       -2.7290
  35       -2.7286
  36       -2.7286
  37       -2.7277
  38       -2.7272
  39       -2.7182
  40       -2.7181
  41       -2.7181
  42       -2.7174
  43       -2.7171
  44       -2.7165
  45       -2.7165
  46       -2.7163
  47       -2.4590
  48       -2.4585
  49       -2.4463
  50       -2.4459
  51       -2.4459
  52       -2.4455
  53       -2.4455
  54       -2.4452
  55       -2.4452
  56       -2.4447
  57       -2.4343
  58       -2.4332
  59       -2.4332
  60       -2.4331
  61       -2.4328
  62       -2.4326
  63       -2.4326
  64       -2.4315
  65       -2.3635
  66       -2.3633
  67       -2.3633
  68       -2.3633
  69       -2.3630
  70       -2.3630
  71       -2.3629
  72       -2.3628
  73       -2.2185
  74       -2.2183
  75       -2.2183
  76       -2.2177
  77       -2.2176
  78       -2.2170
  79       -2.2170
  80       -2.2169
  81       -2.1395
  82       -2.1392
  83       -2.1392
  84       -2.1384
  85       -2.1381
  86       -2.1374
  87       -2.1374
  88       -2.1370
  89       -2.1264
  90       -2.1264
  91       -2.1251
  92       -2.1251
  93       -1.7210
  94       -1.7202
  95       -1.6774
  96       -1.6774
  97       -1.6772
  98       -1.6771
  99       -1.6770
 100       -1.6769
 101       -1.6768
 102       -1.6768
 103       -1.5829
 104       -1.5828
 105       -1.5824
 106       -1.5824
 107       -1.5823
 108       -1.5823
 109       -1.5819
 110       -1.5818
 111       -1.5079
 112       -1.5073
 113       -1.5073
 114       -1.5072
 115       -1.5070
 116       -1.5069
 117       -1.5069
 118       -1.5063
 119       -1.5011
 120       -1.5000
 121       -1.4849
 122       -1.4849
 123       -1.4840
 124       -1.4840
 125       -1.4822
 126       -1.4818
 127       -1.4818
 128       -1.4815
 129       -1.4815
 130       -1.4812
 131       -1.4812
 132       -1.4809
 133       -1.2546
 134       -1.2546
 135       -1.2544
 136       -1.2543
 137       -1.2132
 138       -1.2129
 139       -1.2129
 140       -1.2128
 141       -1.2123
 142       -1.2122
 143       -1.2122
 144       -1.2118
 145       -1.1441
 146       -1.1441
 147       -1.1434
 148       -1.1434
 149       -1.1430
 150       -1.1430
 151       -1.1424
 152       -1.1424
 153       -1.1341
 154       -1.1341
 155       -1.1337
 156       -1.1337
 157       -1.1248
 158       -1.1246
 159       -0.8757
 160       -0.8753
 161       -0.8753
 162       -0.8749
 163       -0.4237
 164       -0.4232
 165       -0.4228
 166       -0.4228
 167       -0.4227
 168       -0.4227
 169       -0.4223
 170       -0.4218
 171        1.1292
 172        1.1294
 173        1.5002
 174        1.5015
 175        1.5017
 176        1.5017
 177        1.5025
 178        1.5025
 179        1.5026
 180        1.5039
 181        3.9287
 182        3.9287
 183        3.9293
 184        3.9299
 185        3.9303
 186        3.9309
 187        3.9315
 188        3.9315
 189        4.7979
 190        4.7979
 191        4.7999
 192        4.7999
 193        6.3594
 194        6.3594
 195        6.3601
 196        6.3607
 197        6.3614
 198        6.3620
 199        6.3627
 200        6.3627
 201        7.3696
 202        7.3696
 203        7.3698
 204        7.3699
 205        7.9558
 206        7.9558
 207        7.9569
 208        7.9571
 209        7.9574
 210        7.9576
 211        7.9587
 212        7.9587
 
  0.0000000E+00  0.8333333E-01  0.0000000E+00  0.2314815E-02
   1       -4.4761
   2       -3.4076
   3       -3.4060
   4       -3.4060
   5       -3.3952
   6       -3.3951
   7       -3.3951
   8       -3.3951
   9       -3.3356
  10       -3.3333
  11       -3.3333
  12       -3.0949
  13       -3.0156
  14       -3.0145
  15       -3.0145
  16       -3.0136
  17       -3.0056
  18       -2.9065
  19       -2.8778
  20       -2.8777
  21       -2.8604
  22       -2.8596
  23       -2.8596
  24       -2.8587
  25       -2.8361
  26       -2.8352
  27       -2.8352
  28       -2.8342
  29       -2.7704
  30       -2.6913
  31       -2.6913
  32       -2.6912
  33       -2.6912
  34       -2.6615
  35       -2.6607
  36       -2.6607
  37       -2.6600
  38       -2.6216
  39       -2.6208
  40       -2.6208
  41       -2.6199
  42       -2.5847
  43       -2.5847
  44       -2.5232
  45       -2.5222
  46       -2.5222
  47       -2.5213
  48       -2.4701
  49       -2.4695
  50       -2.4690
  51       -2.4685
  52       -2.4685
  53       -2.4683
  54       -2.4683
  55       -2.4671
  56       -2.4493
  57       -2.4485
  58       -2.4484