 vasp.4.6.28 25Jul05 complex 
 executed on             LinuxIFC date 2017.01.10  17:27:04
 running on    4 nodes
 distr:  one band on    1 nodes,    4 groups


--------------------------------------------------------------------------------------------------------


 INCAR:
 POTCAR:   PAW_PBE Ag 06Sep2000                   
 POTCAR:   PAW_PBE Ag 06Sep2000                   
   VRHFIN =Ag : s1 d10                                                          
   LEXCH  = PE                                                                  
   EATOM  =  1037.4134 eV,   76.2477 Ry                                         
                                                                                
   TITEL  = PAW_PBE Ag 06Sep2000                                                
   LULTRA =        F    use ultrasoft PP ?                                      
   IUNSCR =        1    unscreen: 0-lin 1-nonlin 2-no                           
   RPACOR =    2.000    partial core radius                                     
   POMASS =  107.868; ZVAL   =   11.000    mass and valenz                      
   RCORE  =    2.400    outmost cutoff radius                                   
   RWIGS  =    2.840; RWIGS  =    1.503    wigner-seitz radius (au A)           
   ENMAX  =  249.846; ENMIN  =  187.385 eV                                      
   RCLOC  =    1.962    cutoff for local pot                                    
   LCOR   =        T    correct aug charges                                     
   LPAW   =        T    paw PP                                                  
   EAUG   =  412.496                                                            
   DEXC   =    -.047                                                            
   RMAX   =    2.917    core radius for proj-oper                               
   RAUG   =    1.300    factor for augmentation sphere                          
   RDEP   =    2.416    radius for radial grids                                 
   QCUT   =   -4.285; QGAM   =    8.570    optimization parameters              
                                                                                
   Description                                                                  
     l     E      TYP  RCUT    TYP  RCUT                                        
     2   .000     23  2.400                                                     
     2   .000     23  2.400                                                     
     0   .000     23  2.400                                                     
     0   .000     23  2.400                                                     
     1  -.200     23  2.400                                                     
     1  1.500     23  2.400                                                     
     3   .000      7   .000                                                     
  local pseudopotential read in
  partial core-charges read in
  atomic valenz-charges read in
  non local Contribution for L=           2  read in
    real space projection operators read in
  non local Contribution for L=           2  read in
    real space projection operators read in
  non local Contribution for L=           0  read in
    real space projection operators read in
  non local Contribution for L=           0  read in
    real space projection operators read in
  non local Contribution for L=           1  read in
    real space projection operators read in
  non local Contribution for L=           1  read in
    real space projection operators read in
    PAW grid and wavefunctions read in
 
   number of l-projection  operators is LMAX  =           6
   number of lm-projection operators is LMMAX =          18
 

 ----------------------------------------------------------------------------- 
|                                                                             |
|  ADVICE TO THIS USER RUNNING 'VASP/VAMP'   (HEAR YOUR MASTER'S VOICE ...):  |
|                                                                             |
|      You have a (more or less) 'large supercell' and for larger cells       |
|      it might be more efficient to use real space projection operators      |
|      So try LREAL= Auto  in the INCAR   file.                               |
|      Mind: If you want to do an extremely accurate calculations keep the    |
|      reciprocal projection scheme          (i.e. LREAL=.FALSE.)             |
|                                                                             |
 ----------------------------------------------------------------------------- 

 PAW_PBE Ag 06Sep2000                   :
 energy of atom  1       EATOM=-1037.4134
 kinetic energy error for atom=    0.0010 (will be added to EATOM!!)
 
 EXHCAR: internal setup
 exchange correlation table for  LEXCH =        8
   RHO(1)=    0.500       N(1)  =     2000
   RHO(2)=  100.500       N(2)  =     4000
 
 POSCAR: Ag                                      
  positions in direct lattice
  No initial velocities read in
 


--------------------------------------------------------------------------------------------------------


 ion  position               nearest neighbor table
   1  0.001  0.000  0.000-   9 3.08  11 3.08  17 3.08  21 3.08  25 3.09  27 3.09  29 3.09  31 3.09
                            10 3.10  18 3.10  12 3.10  22 3.10
   2  0.500  0.000  0.000-   9 3.09  10 3.09  11 3.09  12 3.09  17 3.09  18 3.09  21 3.09  22 3.09
                            26 3.09  28 3.09  30 3.09  32 3.09
   3  0.000  0.500  0.000-   9 3.09  10 3.09  11 3.09  12 3.09  19 3.09  20 3.09  23 3.09  24 3.09
                            25 3.09  27 3.09  29 3.09  31 3.09
   4  0.500  0.500  0.000-   9 3.09  10 3.09  11 3.09  12 3.09  19 3.09  20 3.09  23 3.09  24 3.09
                            26 3.09  28 3.09  30 3.09  32 3.09
   5  0.000  0.000  0.500-  13 3.09  14 3.09  15 3.09  16 3.09  17 3.09  18 3.09  21 3.09  22 3.09
                            25 3.09  27 3.09  29 3.09  31 3.09
   6  0.500  0.000  0.500-  13 3.09  14 3.09  15 3.09  16 3.09  17 3.09  18 3.09  21 3.09  22 3.09
                            26 3.09  28 3.09  30 3.09  32 3.09
   7  0.000  0.500  0.500-  13 3.09  14 3.09  15 3.09  16 3.09  19 3.09  20 3.09  23 3.09  24 3.09
                            25 3.09  27 3.09  29 3.09  31 3.09
   8  0.500  0.500  0.500-  13 3.09  14 3.09  15 3.09  16 3.09  19 3.09  20 3.09  23 3.09  24 3.09
                            26 3.09  28 3.09  30 3.09  32 3.09
   9  0.250  0.250  0.000-   1 3.08   2 3.09   3 3.09   4 3.09  17 3.09  19 3.09  21 3.09  23 3.09
                            25 3.09  26 3.09  29 3.09  30 3.09
  10  0.750  0.250  0.000-   2 3.09   3 3.09   4 3.09  18 3.09  20 3.09  22 3.09  24 3.09  25 3.09
                            26 3.09  29 3.09  30 3.09   1 3.10
  11  0.250  0.750  0.000-   1 3.08   2 3.09   3 3.09   4 3.09  17 3.09  19 3.09  21 3.09  23 3.09
                            27 3.09  28 3.09  31 3.09  32 3.09
  12  0.750  0.750  0.000-   2 3.09   3 3.09   4 3.09  18 3.09  20 3.09  22 3.09  24 3.09  27 3.09
                            28 3.09  31 3.09  32 3.09   1 3.10
  13  0.250  0.250  0.500-   5 3.09   6 3.09   7 3.09   8 3.09  17 3.09  19 3.09  21 3.09  23 3.09
                            25 3.09  26 3.09  29 3.09  30 3.09
  14  0.750  0.250  0.500-   5 3.09   6 3.09   7 3.09   8 3.09  18 3.09  20 3.09  22 3.09  24 3.09
                            25 3.09  26 3.09  29 3.09  30 3.09
  15  0.250  0.750  0.500-   5 3.09   6 3.09   7 3.09   8 3.09  17 3.09  19 3.09  21 3.09  23 3.09
                            27 3.09  28 3.09  31 3.09  32 3.09
  16  0.750  0.750  0.500-   5 3.09   6 3.09   7 3.09   8 3.09  18 3.09  20 3.09  22 3.09  24 3.09
                            27 3.09  28 3.09  31 3.09  32 3.09
  17  0.250  0.000  0.250-   1 3.08   2 3.09   5 3.09   6 3.09   9 3.09  11 3.09  13 3.09  15 3.09
                            25 3.09  26 3.09  27 3.09  28 3.09
  18  0.750  0.000  0.250-   2 3.09   5 3.09   6 3.09  10 3.09  12 3.09  14 3.09  16 3.09  25 3.09
                            26 3.09  27 3.09  28 3.09   1 3.10
  19  0.250  0.500  0.250-   3 3.09   4 3.09   7 3.09   8 3.09   9 3.09  11 3.09  13 3.09  15 3.09
                            25 3.09  26 3.09  27 3.09  28 3.09
  20  0.750  0.500  0.250-   3 3.09   4 3.09   7 3.09   8 3.09  10 3.09  12 3.09  14 3.09  16 3.09
                            25 3.09  26 3.09  27 3.09  28 3.09
  21  0.250  0.000  0.750-   1 3.08   2 3.09   5 3.09   6 3.09   9 3.09  11 3.09  13 3.09  15 3.09
                            29 3.09  30 3.09  31 3.09  32 3.09
  22  0.750  0.000  0.750-   2 3.09   5 3.09   6 3.09  10 3.09  12 3.09  14 3.09  16 3.09  29 3.09
                            30 3.09  31 3.09  32 3.09   1 3.10
  23  0.250  0.500  0.750-   3 3.09   4 3.09   7 3.09   8 3.09   9 3.09  11 3.09  13 3.09  15 3.09
                            29 3.09  30 3.09  31 3.09  32 3.09
  24  0.750  0.500  0.750-   3 3.09   4 3.09   7 3.09   8 3.09  10 3.09  12 3.09  14 3.09  16 3.09
                            29 3.09  30 3.09  31 3.09  32 3.09
  25  0.000  0.250  0.250-   3 3.09   5 3.09   7 3.09   9 3.09  10 3.09  13 3.09  14 3.09  17 3.09
                            18 3.09  19 3.09  20 3.09   1 3.09
  26  0.500  0.250  0.250-   2 3.09   4 3.09   6 3.09   8 3.09   9 3.09  10 3.09  13 3.09  14 3.09
                            17 3.09  18 3.09  19 3.09  20 3.09
  27  0.000  0.750  0.250-   3 3.09   5 3.09   7 3.09  11 3.09  12 3.09  15 3.09  16 3.09  17 3.09
                            18 3.09  19 3.09  20 3.09   1 3.09
  28  0.500  0.750  0.250-   2 3.09   4 3.09   6 3.09   8 3.09  11 3.09  12 3.09  15 3.09  16 3.09
                            17 3.09  18 3.09  19 3.09  20 3.09
  29  0.000  0.250  0.750-   3 3.09   5 3.09   7 3.09   9 3.09  10 3.09  13 3.09  14 3.09  21 3.09
                            22 3.09  23 3.09  24 3.09   1 3.09
  30  0.500  0.250  0.750-   2 3.09   4 3.09   6 3.09   8 3.09   9 3.09  10 3.09  13 3.09  14 3.09
                            21 3.09  22 3.09  23 3.09  24 3.09
  31  0.000  0.750  0.750-   3 3.09   5 3.09   7 3.09  11 3.09  12 3.09  15 3.09  16 3.09  21 3.09
                            22 3.09  23 3.09  24 3.09   1 3.09
  32  0.500  0.750  0.750-   2 3.09   4 3.09   6 3.09   8 3.09  11 3.09  12 3.09  15 3.09  16 3.09
                            21 3.09  22 3.09  23 3.09  24 3.09
 
  LATTYP: Found a simple cubic cell.
 ALAT       =     8.7427720414
  
  Lattice vectors:
  
 A1 = (   8.7427720414,   0.0000000000,   0.0000000000)
 A2 = (   0.0000000000,   8.7427720414,   0.0000000000)
 A3 = (   0.0000000000,   0.0000000000,   8.7427720414)
 Subroutine PRICEL returns:
 Original cell was already a primitive cell.
 

Analysis of symmetry for initial positions (statically):

 Routine SETGRP: Setting up the symmetry group for a 
 simple cubic supercell.


 Subroutine GETGRP returns: Found  8 space group operations
 (whereof  8 operations were pure point group operations)
 out of a pool of 48 trial point group operations.


The static configuration has the point symmetry C_4v.

Analysis of symmetry for dynamics (positions and initial velocities):

 Subroutine DYNSYM returns: Found  8 space group operations
 (whereof  8 operations were pure point group operations)
 out of a pool of  8 trial space group operations
 (whereof  8 operations were pure point group operations)
 and found also     1 'primitive' translations


The dynamic configuration has the point symmetry C_4v.
 
 
 KPOINTS: Automatic mesh                          

Automatic generation of k-mesh.
 
 Subroutine IBZKPT returns following result:
 ===========================================
 
 Found    196 irreducible k-points:
 
 Following reciprocal coordinates:
            Coordinates               Weight
  0.000000  0.000000  0.000000      1.000000
  0.083333  0.000000  0.000000      2.000000
  0.166667  0.000000  0.000000      2.000000
  0.250000  0.000000  0.000000      2.000000
  0.333333  0.000000  0.000000      2.000000
  0.416667  0.000000  0.000000      2.000000
  0.500000  0.000000  0.000000      1.000000
  0.000000  0.083333  0.000000      4.000000
  0.083333  0.083333  0.000000      8.000000
  0.166667  0.083333  0.000000      8.000000
  0.250000  0.083333  0.000000      8.000000
  0.333333  0.083333  0.000000      8.000000
  0.416667  0.083333  0.000000      8.000000
  0.500000  0.083333  0.000000      4.000000
  0.000000  0.166667  0.000000      4.000000
  0.083333  0.166667  0.000000      8.000000
  0.166667  0.166667  0.000000      8.000000
  0.250000  0.166667  0.000000      8.000000
  0.333333  0.166667  0.000000      8.000000
  0.416667  0.166667  0.000000      8.000000
  0.500000  0.166667  0.000000      4.000000
  0.000000  0.250000  0.000000      4.000000
  0.083333  0.250000  0.000000      8.000000
  0.166667  0.250000  0.000000      8.000000
  0.250000  0.250000  0.000000      8.000000
  0.333333  0.250000  0.000000      8.000000
  0.416667  0.250000  0.000000      8.000000
  0.500000  0.250000  0.000000      4.000000
  0.000000  0.333333  0.000000      4.000000
  0.083333  0.333333  0.000000      8.000000
  0.166667  0.333333  0.000000      8.000000
  0.250000  0.333333  0.000000      8.000000
  0.333333  0.333333  0.000000      8.000000
  0.416667  0.333333  0.000000      8.000000
  0.500000  0.333333  0.000000      4.000000
  0.000000  0.416667  0.000000      4.000000
  0.083333  0.416667  0.000000      8.000000
  0.166667  0.416667  0.000000      8.000000
  0.250000  0.416667  0.000000      8.000000
  0.333333  0.416667  0.000000      8.000000
  0.416667  0.416667  0.000000      8.000000
  0.500000  0.416667  0.000000      4.000000
  0.000000  0.500000  0.000000      2.000000
  0.083333  0.500000  0.000000      4.000000
  0.166667  0.500000  0.000000      4.000000
  0.250000  0.500000  0.000000      4.000000
  0.333333  0.500000  0.000000      4.000000
  0.416667  0.500000  0.000000      4.000000
  0.500000  0.500000  0.000000      2.000000
  0.000000  0.083333  0.083333      4.000000
  0.083333  0.083333  0.083333      8.000000
  0.166667  0.083333  0.083333      8.000000
  0.250000  0.083333  0.083333      8.000000
  0.333333  0.083333  0.083333      8.000000
  0.416667  0.083333  0.083333      8.000000
  0.500000  0.083333  0.083333      4.000000
  0.000000  0.166667  0.083333      8.000000
  0.083333  0.166667  0.083333     16.000000
  0.166667  0.166667  0.083333     16.000000
  0.250000  0.166667  0.083333     16.000000
  0.333333  0.166667  0.083333     16.000000
  0.416667  0.166667  0.083333     16.000000
  0.500000  0.166667  0.083333      8.000000
  0.000000  0.250000  0.083333      8.000000
  0.083333  0.250000  0.083333     16.000000
  0.166667  0.250000  0.083333     16.000000
  0.250000  0.250000  0.083333     16.000000
  0.333333  0.250000  0.083333     16.000000
  0.416667  0.250000  0.083333     16.000000
  0.500000  0.250000  0.083333      8.000000
  0.000000  0.333333  0.083333      8.000000
  0.083333  0.333333  0.083333     16.000000
  0.166667  0.333333  0.083333     16.000000
  0.250000  0.333333  0.083333     16.000000
  0.333333  0.333333  0.083333     16.000000
  0.416667  0.333333  0.083333     16.000000
  0.500000  0.333333  0.083333      8.000000
  0.000000  0.416667  0.083333      8.000000
  0.083333  0.416667  0.083333     16.000000
  0.166667  0.416667  0.083333     16.000000
  0.250000  0.416667  0.083333     16.000000
  0.333333  0.416667  0.083333     16.000000
  0.416667  0.416667  0.083333     16.000000
  0.500000  0.416667  0.083333      8.000000
  0.000000  0.500000  0.083333      4.000000
  0.083333  0.500000  0.083333      8.000000
  0.166667  0.500000  0.083333      8.000000
  0.250000  0.500000  0.083333      8.000000
  0.333333  0.500000  0.083333      8.000000
  0.416667  0.500000  0.083333      8.000000
  0.500000  0.500000  0.083333      4.000000
  0.000000  0.166667  0.166667      4.000000
  0.083333  0.166667  0.166667      8.000000
  0.166667  0.166667  0.166667      8.000000
  0.250000  0.166667  0.166667      8.000000
  0.333333  0.166667  0.166667      8.000000
  0.416667  0.166667  0.166667      8.000000
  0.500000  0.166667  0.166667      4.000000
  0.000000  0.250000  0.166667      8.000000
  0.083333  0.250000  0.166667     16.000000
  0.166667  0.250000  0.166667     16.000000
  0.250000  0.250000  0.166667     16.000000
  0.333333  0.250000  0.166667     16.000000
  0.416667  0.250000  0.166667     16.000000
  0.500000  0.250000  0.166667      8.000000
  0.000000  0.333333  0.166667      8.000000
  0.083333  0.333333  0.166667     16.000000
  0.166667  0.333333  0.166667     16.000000
  0.250000  0.333333  0.166667     16.000000
  0.333333  0.333333  0.166667     16.000000
  0.416667  0.333333  0.166667     16.000000
  0.500000  0.333333  0.166667      8.000000
  0.000000  0.416667  0.166667      8.000000
  0.083333  0.416667  0.166667     16.000000
  0.166667  0.416667  0.166667     16.000000
  0.250000  0.416667  0.166667     16.000000
  0.333333  0.416667  0.166667     16.000000
  0.416667  0.416667  0.166667     16.000000
  0.500000  0.416667  0.166667      8.000000
  0.000000  0.500000  0.166667      4.000000
  0.083333  0.500000  0.166667      8.000000
  0.166667  0.500000  0.166667      8.000000
  0.250000  0.500000  0.166667      8.000000
  0.333333  0.500000  0.166667      8.000000
  0.416667  0.500000  0.166667      8.000000
  0.500000  0.500000  0.166667      4.000000
  0.000000  0.250000  0.250000      4.000000
  0.083333  0.250000  0.250000      8.000000
  0.166667  0.250000  0.250000      8.000000
  0.250000  0.250000  0.250000      8.000000
  0.333333  0.250000  0.250000      8.000000
  0.416667  0.250000  0.250000      8.000000
  0.500000  0.250000  0.250000      4.000000
  0.000000  0.333333  0.250000      8.000000
  0.083333  0.333333  0.250000     16.000000
  0.166667  0.333333  0.250000     16.000000
  0.250000  0.333333  0.250000     16.000000
  0.333333  0.333333  0.250000     16.000000
  0.416667  0.333333  0.250000     16.000000
  0.500000  0.333333  0.250000      8.000000
  0.000000  0.416667  0.250000      8.000000
  0.083333  0.416667  0.250000     16.000000
  0.166667  0.416667  0.250000     16.000000
  0.250000  0.416667  0.250000     16.000000
  0.333333  0.416667  0.250000     16.000000
  0.416667  0.416667  0.250000     16.000000
  0.500000  0.416667  0.250000      8.000000
  0.000000  0.500000  0.250000      4.000000
  0.083333  0.500000  0.250000      8.000000
  0.166667  0.500000  0.250000      8.000000
  0.250000  0.500000  0.250000      8.000000
  0.333333  0.500000  0.250000      8.000000
  0.416667  0.500000  0.250000      8.000000
  0.500000  0.500000  0.250000      4.000000
  0.000000  0.333333  0.333333      4.000000
  0.083333  0.333333  0.333333      8.000000
  0.166667  0.333333  0.333333      8.000000
  0.250000  0.333333  0.333333      8.000000
  0.333333  0.333333  0.333333      8.000000
  0.416667  0.333333  0.333333      8.000000
  0.500000  0.333333  0.333333      4.000000
  0.000000  0.416667  0.333333      8.000000
  0.083333  0.416667  0.333333     16.000000
  0.166667  0.416667  0.333333     16.000000
  0.250000  0.416667  0.333333     16.000000
  0.333333  0.416667  0.333333     16.000000
  0.416667  0.416667  0.333333     16.000000
  0.500000  0.416667  0.333333      8.000000
  0.000000  0.500000  0.333333      4.000000
  0.083333  0.500000  0.333333      8.000000
  0.166667  0.500000  0.333333      8.000000
  0.250000  0.500000  0.333333      8.000000
  0.333333  0.500000  0.333333      8.000000
  0.416667  0.500000  0.333333      8.000000
  0.500000  0.500000  0.333333      4.000000
  0.000000  0.416667  0.416667      4.000000
  0.083333  0.416667  0.416667      8.000000
  0.166667  0.416667  0.416667      8.000000
  0.250000  0.416667  0.416667      8.000000
  0.333333  0.416667  0.416667      8.000000
  0.416667  0.416667  0.416667      8.000000
  0.500000  0.416667  0.416667      4.000000
  0.000000  0.500000  0.416667      4.000000
  0.083333  0.500000  0.416667      8.000000
  0.166667  0.500000  0.416667      8.000000
  0.250000  0.500000  0.416667      8.000000
  0.333333  0.500000  0.416667      8.000000
  0.416667  0.500000  0.416667      8.000000
  0.500000  0.500000  0.416667      4.000000
  0.000000  0.500000  0.500000      1.000000
  0.083333  0.500000  0.500000      2.000000
  0.166667  0.500000  0.500000      2.000000
  0.250000  0.500000  0.500000      2.000000
  0.333333  0.500000  0.500000      2.000000
  0.416667  0.500000  0.500000      2.000000
  0.500000  0.500000  0.500000      1.000000
 
 Following cartesian coordinates:
            Coordinates               Weight
  0.000000  0.000000  0.000000      1.000000
  0.009532  0.000000  0.000000      2.000000
  0.019063  0.000000  0.000000      2.000000
  0.028595  0.000000  0.000000      2.000000
  0.038127  0.000000  0.000000      2.000000
  0.047658  0.000000  0.000000      2.000000
  0.057190  0.000000  0.000000      1.000000
  0.000000  0.009532  0.000000      4.000000
  0.009532  0.009532  0.000000      8.000000
  0.019063  0.009532  0.000000      8.000000
  0.028595  0.009532  0.000000      8.000000
  0.038127  0.009532  0.000000      8.000000
  0.047658  0.009532  0.000000      8.000000
  0.057190  0.009532  0.000000      4.000000
  0.000000  0.019063  0.000000      4.000000
  0.009532  0.019063  0.000000      8.000000
  0.019063  0.019063  0.000000      8.000000
  0.028595  0.019063  0.000000      8.000000
  0.038127  0.019063  0.000000      8.000000
  0.047658  0.019063  0.000000      8.000000
  0.057190  0.019063  0.000000      4.000000
  0.000000  0.028595  0.000000      4.000000
  0.009532  0.028595  0.000000      8.000000
  0.019063  0.028595  0.000000      8.000000
  0.028595  0.028595  0.000000      8.000000
  0.038127  0.028595  0.000000      8.000000
  0.047658  0.028595  0.000000      8.000000
  0.057190  0.028595  0.000000      4.000000
  0.000000  0.038127  0.000000      4.000000
  0.009532  0.038127  0.000000      8.000000
  0.019063  0.038127  0.000000      8.000000
  0.028595  0.038127  0.000000      8.000000
  0.038127  0.038127  0.000000      8.000000
  0.047658  0.038127  0.000000      8.000000
  0.057190  0.038127  0.000000      4.000000
  0.000000  0.047658  0.000000      4.000000
  0.009532  0.047658  0.000000      8.000000
  0.019063  0.047658  0.000000      8.000000
  0.028595  0.047658  0.000000      8.000000
  0.038127  0.047658  0.000000      8.000000
  0.047658  0.047658  0.000000      8.000000
  0.057190  0.047658  0.000000      4.000000
  0.000000  0.057190  0.000000      2.000000
  0.009532  0.057190  0.000000      4.000000
  0.019063  0.057190  0.000000      4.000000
  0.028595  0.057190  0.000000      4.000000
  0.038127  0.057190  0.000000      4.000000
  0.047658  0.057190  0.000000      4.000000
  0.057190  0.057190  0.000000      2.000000
  0.000000  0.009532  0.009532      4.000000
  0.009532  0.009532  0.009532      8.000000
  0.019063  0.009532  0.009532      8.000000
  0.028595  0.009532  0.009532      8.000000
  0.038127  0.009532  0.009532      8.000000
  0.047658  0.009532  0.009532      8.000000
  0.057190  0.009532  0.009532      4.000000
  0.000000  0.019063  0.009532      8.000000
  0.009532  0.019063  0.009532     16.000000
  0.019063  0.019063  0.009532     16.000000
  0.028595  0.019063  0.009532     16.000000
  0.038127  0.019063  0.009532     16.000000
  0.047658  0.019063  0.009532     16.000000
  0.057190  0.019063  0.009532      8.000000
  0.000000  0.028595  0.009532      8.000000
  0.009532  0.028595  0.009532     16.000000
  0.019063  0.028595  0.009532     16.000000
  0.028595  0.028595  0.009532     16.000000
  0.038127  0.028595  0.009532     16.000000
  0.047658  0.028595  0.009532     16.000000
  0.057190  0.028595  0.009532      8.000000
  0.000000  0.038127  0.009532      8.000000
  0.009532  0.038127  0.009532     16.000000
  0.019063  0.038127  0.009532     16.000000
  0.028595  0.038127  0.009532     16.000000
  0.038127  0.038127  0.009532     16.000000
  0.047658  0.038127  0.009532     16.000000
  0.057190  0.038127  0.009532      8.000000
  0.000000  0.047658  0.009532      8.000000
  0.009532  0.047658  0.009532     16.000000
  0.019063  0.047658  0.009532     16.000000
  0.028595  0.047658  0.009532     16.000000
  0.038127  0.047658  0.009532     16.000000
  0.047658  0.047658  0.009532     16.000000
  0.057190  0.047658  0.009532      8.000000
  0.000000  0.057190  0.009532      4.000000
  0.009532  0.057190  0.009532      8.000000
  0.019063  0.057190  0.009532      8.000000
  0.028595  0.057190  0.009532      8.000000
  0.038127  0.057190  0.009532      8.000000
  0.047658  0.057190  0.009532      8.000000
  0.057190  0.057190  0.009532      4.000000
  0.000000  0.019063  0.019063      4.000000
  0.009532  0.019063  0.019063      8.000000
  0.019063  0.019063  0.019063      8.000000
  0.028595  0.019063  0.019063      8.000000
  0.038127  0.019063  0.019063      8.000000
  0.047658  0.019063  0.019063      8.000000
  0.057190  0.019063  0.019063      4.000000
  0.000000  0.028595  0.019063      8.000000
  0.009532  0.028595  0.019063     16.000000
  0.019063  0.028595  0.019063     16.000000
  0.028595  0.028595  0.019063     16.000000
  0.038127  0.028595  0.019063     16.000000
  0.047658  0.028595  0.019063     16.000000
  0.057190  0.028595  0.019063      8.000000
  0.000000  0.038127  0.019063      8.000000
  0.009532  0.038127  0.019063     16.000000
  0.019063  0.038127  0.019063     16.000000
  0.028595  0.038127  0.019063     16.000000
  0.038127  0.038127  0.019063     16.000000
  0.047658  0.038127  0.019063     16.000000
  0.057190  0.038127  0.019063      8.000000
  0.000000  0.047658  0.019063      8.000000
  0.009532  0.047658  0.019063     16.000000
  0.019063  0.047658  0.019063     16.000000
  0.028595  0.047658  0.019063     16.000000
  0.038127  0.047658  0.019063     16.000000
  0.047658  0.047658  0.019063     16.000000
  0.057190  0.047658  0.019063      8.000000
  0.000000  0.057190  0.019063      4.000000
  0.009532  0.057190  0.019063      8.000000
  0.019063  0.057190  0.019063      8.000000
  0.028595  0.057190  0.019063      8.000000
  0.038127  0.057190  0.019063      8.000000
  0.047658  0.057190  0.019063      8.000000
  0.057190  0.057190  0.019063      4.000000
  0.000000  0.028595  0.028595      4.000000
  0.009532  0.028595  0.028595      8.000000
  0.019063  0.028595  0.028595      8.000000
  0.028595  0.028595  0.028595      8.000000
  0.038127  0.028595  0.028595      8.000000
  0.047658  0.028595  0.028595      8.000000
  0.057190  0.028595  0.028595      4.000000
  0.000000  0.038127  0.028595      8.000000
  0.009532  0.038127  0.028595     16.000000
  0.019063  0.038127  0.028595     16.000000
  0.028595  0.038127  0.028595     16.000000
  0.038127  0.038127  0.028595     16.000000
  0.047658  0.038127  0.028595     16.000000
  0.057190  0.038127  0.028595      8.000000
  0.000000  0.047658  0.028595      8.000000
  0.009532  0.047658  0.028595     16.000000
  0.019063  0.047658  0.028595     16.000000
  0.028595  0.047658  0.028595     16.000000
  0.038127  0.047658  0.028595     16.000000
  0.047658  0.047658  0.028595     16.000000
  0.057190  0.047658  0.028595      8.000000
  0.000000  0.057190  0.028595      4.000000
  0.009532  0.057190  0.028595      8.000000
  0.019063  0.057190  0.028595      8.000000
  0.028595  0.057190  0.028595      8.000000
  0.038127  0.057190  0.028595      8.000000
  0.047658  0.057190  0.028595      8.000000
  0.057190  0.057190  0.028595      4.000000
  0.000000  0.038127  0.038127      4.000000
  0.009532  0.038127  0.038127      8.000000
  0.019063  0.038127  0.038127      8.000000
  0.028595  0.038127  0.038127      8.000000
  0.038127  0.038127  0.038127      8.000000
  0.047658  0.038127  0.038127      8.000000
  0.057190  0.038127  0.038127      4.000000
  0.000000  0.047658  0.038127      8.000000
  0.009532  0.047658  0.038127     16.000000
  0.019063  0.047658  0.038127     16.000000
  0.028595  0.047658  0.038127     16.000000
  0.038127  0.047658  0.038127     16.000000
  0.047658  0.047658  0.038127     16.000000
  0.057190  0.047658  0.038127      8.000000
  0.000000  0.057190  0.038127      4.000000
  0.009532  0.057190  0.038127      8.000000
  0.019063  0.057190  0.038127      8.000000
  0.028595  0.057190  0.038127      8.000000
  0.038127  0.057190  0.038127      8.000000
  0.047658  0.057190  0.038127      8.000000
  0.057190  0.057190  0.038127      4.000000
  0.000000  0.047658  0.047658      4.000000
  0.009532  0.047658  0.047658      8.000000
  0.019063  0.047658  0.047658      8.000000
  0.028595  0.047658  0.047658      8.000000
  0.038127  0.047658  0.047658      8.000000
  0.047658  0.047658  0.047658      8.000000
  0.057190  0.047658  0.047658      4.000000
  0.000000  0.057190  0.047658      4.000000
  0.009532  0.057190  0.047658      8.000000
  0.019063  0.057190  0.047658      8.000000
  0.028595  0.057190  0.047658      8.000000
  0.038127  0.057190  0.047658      8.000000
  0.047658  0.057190  0.047658      8.000000
  0.057190  0.057190  0.047658      4.000000
  0.000000  0.057190  0.057190      1.000000
  0.009532  0.057190  0.057190      2.000000
  0.019063  0.057190  0.057190      2.000000
  0.028595  0.057190  0.057190      2.000000
  0.038127  0.057190  0.057190      2.000000
  0.047658  0.057190  0.057190      2.000000
  0.057190  0.057190  0.057190      1.000000
 


--------------------------------------------------------------------------------------------------------




 Dimension of arrays:
   k-Points           NKPTS =    196   number of bands    NBANDS=    212
   number of dos      NEDOS =    301   number of ions     NIONS =     32
   non local maximal  LDIM  =      6   non local SUM 2l+1 LMDIM =     18
   total plane-waves  NPLWV = 512000
   max r-space proj   IRMAX =      1   max aug-charges    IRDMAX= 301535
   dimension x,y,z NGX =    80 NGY =   80 NGZ =   80
   dimension x,y,z NGXF=   160 NGYF=  160 NGZF=  160
   support grid    NGXF=   320 NGYF=  320 NGZF=  320
   ions per type =              32
 NGX,Y,Z   is equivalent  to a cutoff of  15.21, 15.21, 15.21 a.u.
 NGXF,Y,Z  is equivalent  to a cutoff of  30.42, 30.42, 30.42 a.u.


 I would recommend the setting:
   dimension x,y,z NGX =    78 NGY =   78 NGZ =   78
 SYSTEM =  unknown system                          
 POSCAR =  Ag                                      

 Startparameter for this run:
   NWRITE =      2    write-flag & timer
   PREC   = accura    medium, high low
   ISTART =      0    job   : 0-new  1-cont  2-samecut
   ICHARG =      2    charge: 1-file 2-atom 10-const
   ISPIN  =      1    spin polarized calculation?
   LNONCOLLINEAR =      F non collinear calculations
   LSORBIT =      F    spin-orbit coupling
   INIWAV =      1    electr: 0-lowe 1-rand  2-diag
   LASPH  =      F    aspherical Exc in radial PAW
   METAGGA=      F    non-selfconsistent MetaGGA calc.

 Electronic Relaxation 1
   ENCUT  =  750.0 eV  55.12 Ry    7.42 a.u.  19.52 19.52 19.52*2*pi/ulx,y,z
   ENINI  =  750.0     initial cutoff
   ENAUG  =  412.5 eV  augmentation charge cutoff
   NELM   =     60;   NELMIN=  2; NELMDL=  0     # of ELM steps 
   EDIFF  = 0.1E-07   stopping-criterion for ELM
   LREAL  =      F    real-space projection
   LCOMPAT=      F    compatible to vasp.4.4
   LREAL_COMPAT= F    compatible to vasp.4.5.1-3
   GGA_COMPAT  = T    GGA compatible to vasp.4.4-vasp.4.6
   LMAXPAW     = -100 max onsite density
   LMAXMIX     =    2 max onsite mixed and CHGCAR
   VOSKOWN=      0    Vosko Wilk Nusair interpolation
   ROPT   =    0.00000
 Ionic relaxation
   EDIFFG = 0.1E-06   stopping-criterion for IOM
   NSW    =      0    number of steps for IOM
   NBLOCK =      1;   KBLOCK =      1    inner block; outer block 
   IBRION =     -1    ionic relax: 0-MD 1-quasi-New 2-CG
   NFREE  =      0    steps in history (QN), initial steepest desc. (CG)
   ISIF   =      2    stress and relaxation
   IWAVPR =     10    prediction:  0-non 1-charg 2-wave 3-comb
   ISYM   =      2    0-nonsym 1-usesym 2-fastsym
   LCORR  =      T    Harris-Foulkes like correction to forces

   POTIM  =   0.50    time-step for ionic-motion
   TEIN   =    0.0    initial temperature
   TEBEG  =    0.0;   TEEND  =   0.0 temperature during run
   SMASS  =  -3.00    Nose mass-parameter (am)
   estimated Nose-frequenzy (Omega)   =  0.10E-29 period in steps =****** mass=  -0.175E-26a.u.
   NPACO  =    256;   APACO  = 16.0  distance and # of slots for P.C.
   PSTRESS=    0.0 pullay stress

  Mass of Ions in am
   POMASS = 107.87
  Ionic Valenz
   ZVAL   =  11.00
  Atomic Wigner-Seitz radii
   RWIGS  =  -1.00
   NELECT =     352.0000    total number of electrons
   NUPDOWN=      -1.0000    fix difference up-down

 DOS related values:
   EMIN   =  10.00;   EMAX   =-10.00  energy-range for DOS
   ISMEAR =     0;   SIGMA  =   0.01  broadening in eV -4-tet -1-fermi 0-gaus

 Electronic relaxation 2 (details)
   IALGO  =     38    algorithm
   LDIAG  =      T    sub-space diagonalisation
   IMIX   =      4    mixing-type and parameters
     AMIX     =   0.40;   BMIX     =  1.00
     AMIX_MAG =   1.60;   BMIX_MAG =  1.00
     AMIN     =   0.10
     WC   =   100.;   INIMIX=   1;  MIXPRE=   1

 Intra band minimization:
   WEIMIN = 0.0000     energy-eigenvalue tresh-hold
   EBREAK =  0.12E-10  absolut break condition
   DEPER  =   0.30     relativ break condition  

   TIME   =   0.10     timestep for ELM

  volume/ion in A,a.u.               =      20.88       140.93
  Fermi-wavevector in a.u.,eV,Ry     =   1.322127 23.783259  1.748020

 Second variation
   LSECVAR=     F    do a second variation
 
 Write flags
   LWAVE  =      F    write WAVECAR
   LCHARG =      F    write CHGCAR
   LVTOT  =      F    write LOCPOT, local potential
   LELF   =      F    write electronic localiz. function (ELF)
   LORBIT =      0    0 simple, 1 ext, 2 COOP (PROOUT)


 Dipole corrections
   IDIPOL =      0    1-x, 2-y, 3-z
   LDIPOL =      F    correct potential



--------------------------------------------------------------------------------------------------------


 Static calculation
 charge density will be updated during run
 non-spin polarized calculation
 Variant of blocked Davidson
 Davidson routine will perform the subspace rotation
 performe sub-space diagonalisation
    after iterative eigenvector-optimisation
 modified Broyden-mixing scheme, WC =      100.0
 initial mixing is a Kerker type mixing with AMIX =  0.4000 and BMIX =      1.0000
 Hartree-type preconditioning will be used
 using additional bands           36
 reciprocal scheme for non local part
 use partial core corrections
 calculate Harris-corrections to forces 
   (improved forces if not selfconsistent)
 use gradient corrections 
 use of overlap-Matrix (Vanderbilt PP)
 Gauss-broadening in eV      SIGMA  =   0.01


--------------------------------------------------------------------------------------------------------


  energy-cutoff  :      750.00
  volume of cell :      668.26
      direct lattice vectors                 reciprocal lattice vectors
     8.742772041  0.000000000  0.000000000     0.114380198  0.000000000  0.000000000
     0.000000000  8.742772041  0.000000000     0.000000000  0.114380198  0.000000000
     0.000000000  0.000000000  8.742772041     0.000000000  0.000000000  0.114380198

  length of vectors
     8.742772041  8.742772041  8.742772041     0.114380198  0.114380198  0.114380198


 
 k-points in units of 2pi/SCALE and weight: Automatic mesh                          
   0.00000000  0.00000000  0.00000000       0.001
   0.00953168  0.00000000  0.00000000       0.001
   0.01906337  0.00000000  0.00000000       0.001
   0.02859505  0.00000000  0.00000000       0.001
   0.03812673  0.00000000  0.00000000       0.001
   0.04765842  0.00000000  0.00000000       0.001
   0.05719010  0.00000000  0.00000000       0.001
   0.00000000  0.00953168  0.00000000       0.002
   0.00953168  0.00953168  0.00000000       0.005
   0.01906337  0.00953168  0.00000000       0.005
   0.02859505  0.00953168  0.00000000       0.005
   0.03812673  0.00953168  0.00000000       0.005
   0.04765842  0.00953168  0.00000000       0.005
   0.05719010  0.00953168  0.00000000       0.002
   0.00000000  0.01906337  0.00000000       0.002
   0.00953168  0.01906337  0.00000000       0.005
   0.01906337  0.01906337  0.00000000       0.005
   0.02859505  0.01906337  0.00000000       0.005
   0.03812673  0.01906337  0.00000000       0.005
   0.04765842  0.01906337  0.00000000       0.005
   0.05719010  0.01906337  0.00000000       0.002
   0.00000000  0.02859505  0.00000000       0.002
   0.00953168  0.02859505  0.00000000       0.005
   0.01906337  0.02859505  0.00000000       0.005
   0.02859505  0.02859505  0.00000000       0.005
   0.03812673  0.02859505  0.00000000       0.005
   0.04765842  0.02859505  0.00000000       0.005
   0.05719010  0.02859505  0.00000000       0.002
   0.00000000  0.03812673  0.00000000       0.002
   0.00953168  0.03812673  0.00000000       0.005
   0.01906337  0.03812673  0.00000000       0.005
   0.02859505  0.03812673  0.00000000       0.005
   0.03812673  0.03812673  0.00000000       0.005
   0.04765842  0.03812673  0.00000000       0.005
   0.05719010  0.03812673  0.00000000       0.002
   0.00000000  0.04765842  0.00000000       0.002
   0.00953168  0.04765842  0.00000000       0.005
   0.01906337  0.04765842  0.00000000       0.005
   0.02859505  0.04765842  0.00000000       0.005
   0.03812673  0.04765842  0.00000000       0.005
   0.04765842  0.04765842  0.00000000       0.005
   0.05719010  0.04765842  0.00000000       0.002
   0.00000000  0.05719010  0.00000000       0.001
   0.00953168  0.05719010  0.00000000       0.002
   0.01906337  0.05719010  0.00000000       0.002
   0.02859505  0.05719010  0.00000000       0.002
   0.03812673  0.05719010  0.00000000       0.002
   0.04765842  0.05719010  0.00000000       0.002
   0.05719010  0.05719010  0.00000000       0.001
   0.00000000  0.00953168  0.00953168       0.002
   0.00953168  0.00953168  0.00953168       0.005
   0.01906337  0.00953168  0.00953168       0.005
   0.02859505  0.00953168  0.00953168       0.005
   0.03812673  0.00953168  0.00953168       0.005
   0.04765842  0.00953168  0.00953168       0.005
   0.05719010  0.00953168  0.00953168       0.002
   0.00000000  0.01906337  0.00953168       0.005
   0.00953168  0.01906337  0.00953168       0.009
   0.01906337  0.01906337  0.00953168       0.009
   0.02859505  0.01906337  0.00953168       0.009
   0.03812673  0.01906337  0.00953168       0.009
   0.04765842  0.01906337  0.00953168       0.009
   0.05719010  0.01906337  0.00953168       0.005
   0.00000000  0.02859505  0.00953168       0.005
   0.00953168  0.02859505  0.00953168       0.009
   0.01906337  0.02859505  0.00953168       0.009
   0.02859505  0.02859505  0.00953168       0.009
   0.03812673  0.02859505  0.00953168       0.009
   0.04765842  0.02859505  0.00953168       0.009
   0.05719010  0.02859505  0.00953168       0.005
   0.00000000  0.03812673  0.00953168       0.005
   0.00953168  0.03812673  0.00953168       0.009
   0.01906337  0.03812673  0.00953168       0.009
   0.02859505  0.03812673  0.00953168       0.009
   0.03812673  0.03812673  0.00953168       0.009
   0.04765842  0.03812673  0.00953168       0.009
   0.05719010  0.03812673  0.00953168       0.005
   0.00000000  0.04765842  0.00953168       0.005
   0.00953168  0.04765842  0.00953168       0.009
   0.01906337  0.04765842  0.00953168       0.009
   0.02859505  0.04765842  0.00953168       0.009
   0.03812673  0.04765842  0.00953168       0.009
   0.04765842  0.04765842  0.00953168       0.009
   0.05719010  0.04765842  0.00953168       0.005
   0.00000000  0.05719010  0.00953168       0.002
   0.00953168  0.05719010  0.00953168       0.005
   0.01906337  0.05719010  0.00953168       0.005
   0.02859505  0.05719010  0.00953168       0.005
   0.03812673  0.05719010  0.00953168       0.005
   0.04765842  0.05719010  0.00953168       0.005
   0.05719010  0.05719010  0.00953168       0.002
   0.00000000  0.01906337  0.01906337       0.002
   0.00953168  0.01906337  0.01906337       0.005
   0.01906337  0.01906337  0.01906337       0.005
   0.02859505  0.01906337  0.01906337       0.005
   0.03812673  0.01906337  0.01906337       0.005
   0.04765842  0.01906337  0.01906337       0.005
   0.05719010  0.01906337  0.01906337       0.002
   0.00000000  0.02859505  0.01906337       0.005
   0.00953168  0.02859505  0.01906337       0.009
   0.01906337  0.02859505  0.01906337       0.009
   0.02859505  0.02859505  0.01906337       0.009
   0.03812673  0.02859505  0.01906337       0.009
   0.04765842  0.02859505  0.01906337       0.009
   0.05719010  0.02859505  0.01906337       0.005
   0.00000000  0.03812673  0.01906337       0.005
   0.00953168  0.03812673  0.01906337       0.009
   0.01906337  0.03812673  0.01906337       0.009
   0.02859505  0.03812673  0.01906337       0.009
   0.03812673  0.03812673  0.01906337       0.009
   0.04765842  0.03812673  0.01906337       0.009
   0.05719010  0.03812673  0.01906337       0.005
   0.00000000  0.04765842  0.01906337       0.005
   0.00953168  0.04765842  0.01906337       0.009
   0.01906337  0.04765842  0.01906337       0.009
   0.02859505  0.04765842  0.01906337       0.009
   0.03812673  0.04765842  0.01906337       0.009
   0.04765842  0.04765842  0.01906337       0.009
   0.05719010  0.04765842  0.01906337       0.005
   0.00000000  0.05719010  0.01906337       0.002
   0.00953168  0.05719010  0.01906337       0.005
   0.01906337  0.05719010  0.01906337       0.005
   0.02859505  0.05719010  0.01906337       0.005
   0.03812673  0.05719010  0.01906337       0.005
   0.04765842  0.05719010  0.01906337       0.005
   0.05719010  0.05719010  0.01906337       0.002
   0.00000000  0.02859505  0.02859505       0.002
   0.00953168  0.02859505  0.02859505       0.005
   0.01906337  0.02859505  0.02859505       0.005
   0.02859505  0.02859505  0.02859505       0.005
   0.03812673  0.02859505  0.02859505       0.005
   0.04765842  0.02859505  0.02859505       0.005
   0.05719010  0.02859505  0.02859505       0.002
   0.00000000  0.03812673  0.02859505       0.005
   0.00953168  0.03812673  0.02859505       0.009
   0.01906337  0.03812673  0.02859505       0.009
   0.02859505  0.03812673  0.02859505       0.009
   0.03812673  0.03812673  0.02859505       0.009
   0.04765842  0.03812673  0.02859505       0.009
   0.05719010  0.03812673  0.02859505       0.005
   0.00000000  0.04765842  0.02859505       0.005
   0.00953168  0.04765842  0.02859505       0.009
   0.01906337  0.04765842  0.02859505       0.009
   0.02859505  0.04765842  0.02859505       0.009
   0.03812673  0.04765842  0.02859505       0.009
   0.04765842  0.04765842  0.02859505       0.009
   0.05719010  0.04765842  0.02859505       0.005
   0.00000000  0.05719010  0.02859505       0.002
   0.00953168  0.05719010  0.02859505       0.005
   0.01906337  0.05719010  0.02859505       0.005
   0.02859505  0.05719010  0.02859505       0.005
   0.03812673  0.05719010  0.02859505       0.005
   0.04765842  0.05719010  0.02859505       0.005
   0.05719010  0.05719010  0.02859505       0.002
   0.00000000  0.03812673  0.03812673       0.002
   0.00953168  0.03812673  0.03812673       0.005
   0.01906337  0.03812673  0.03812673       0.005
   0.02859505  0.03812673  0.03812673       0.005
   0.03812673  0.03812673  0.03812673       0.005
   0.04765842  0.03812673  0.03812673       0.005
   0.05719010  0.03812673  0.03812673       0.002
   0.00000000  0.04765842  0.03812673       0.005
   0.00953168  0.04765842  0.03812673       0.009
   0.01906337  0.04765842  0.03812673       0.009
   0.02859505  0.04765842  0.03812673       0.009
   0.03812673  0.04765842  0.03812673       0.009
   0.04765842  0.04765842  0.03812673       0.009
   0.05719010  0.04765842  0.03812673       0.005
   0.00000000  0.05719010  0.03812673       0.002
   0.00953168  0.05719010  0.03812673       0.005
   0.01906337  0.05719010  0.03812673       0.005
   0.02859505  0.05719010  0.03812673       0.005
   0.03812673  0.05719010  0.03812673       0.005
   0.04765842  0.05719010  0.03812673       0.005
   0.05719010  0.05719010  0.03812673       0.002
   0.00000000  0.04765842  0.04765842       0.002
   0.00953168  0.04765842  0.04765842       0.005
   0.01906337  0.04765842  0.04765842       0.005
   0.02859505  0.04765842  0.04765842       0.005
   0.03812673  0.04765842  0.04765842       0.005
   0.04765842  0.04765842  0.04765842       0.005
   0.05719010  0.04765842  0.04765842       0.002
   0.00000000  0.05719010  0.04765842       0.002
   0.00953168  0.05719010  0.04765842       0.005
   0.01906337  0.05719010  0.04765842       0.005
   0.02859505  0.05719010  0.04765842       0.005
   0.03812673  0.05719010  0.04765842       0.005
   0.04765842  0.05719010  0.04765842       0.005
   0.05719010  0.05719010  0.04765842       0.002
   0.00000000  0.05719010  0.05719010       0.001
   0.00953168  0.05719010  0.05719010       0.001
   0.01906337  0.05719010  0.05719010       0.001
   0.02859505  0.05719010  0.05719010       0.001
   0.03812673  0.05719010  0.05719010       0.001
   0.04765842  0.05719010  0.05719010       0.001
   0.05719010  0.05719010  0.05719010       0.001
 
 k-points in reciprocal lattice and weights: Automatic mesh                          
   0.00000000  0.00000000  0.00000000       0.001
   0.08333333  0.00000000  0.00000000       0.001
   0.16666667  0.00000000  0.00000000       0.001
   0.25000000  0.00000000  0.00000000       0.001
   0.33333333  0.00000000  0.00000000       0.001
   0.41666667  0.00000000  0.00000000       0.001
   0.50000000  0.00000000  0.00000000       0.001
   0.00000000  0.08333333  0.00000000       0.002
   0.08333333  0.08333333  0.00000000       0.005
   0.16666667  0.08333333  0.00000000       0.005
   0.25000000  0.08333333  0.00000000       0.005
   0.33333333  0.08333333  0.00000000       0.005
   0.41666667  0.08333333  0.00000000       0.005
   0.50000000  0.08333333  0.00000000       0.002
   0.00000000  0.16666667  0.00000000       0.002
   0.08333333  0.16666667  0.00000000       0.005
   0.16666667  0.16666667  0.00000000       0.005
   0.25000000  0.16666667  0.00000000       0.005
   0.33333333  0.16666667  0.00000000       0.005
   0.41666667  0.16666667  0.00000000       0.005
   0.50000000  0.16666667  0.00000000       0.002
   0.00000000  0.25000000  0.00000000       0.002
   0.08333333  0.25000000  0.00000000       0.005
   0.16666667  0.25000000  0.00000000       0.005
   0.25000000  0.25000000  0.00000000       0.005
   0.33333333  0.25000000  0.00000000       0.005
   0.41666667  0.25000000  0.00000000       0.005
   0.50000000  0.25000000  0.00000000       0.002
   0.00000000  0.33333333  0.00000000       0.002
   0.08333333  0.33333333  0.00000000       0.005
   0.16666667  0.33333333  0.00000000       0.005
   0.25000000  0.33333333  0.00000000       0.005
   0.33333333  0.33333333  0.00000000       0.005
   0.41666667  0.33333333  0.00000000       0.005
   0.50000000  0.33333333  0.00000000       0.002
   0.00000000  0.41666667  0.00000000       0.002
   0.08333333  0.41666667  0.00000000       0.005
   0.16666667  0.41666667  0.00000000       0.005
   0.25000000  0.41666667  0.00000000       0.005
   0.33333333  0.41666667  0.00000000       0.005
   0.41666667  0.41666667  0.00000000       0.005
   0.50000000  0.41666667  0.00000000       0.002
   0.00000000  0.50000000  0.00000000       0.001
   0.08333333  0.50000000  0.00000000       0.002
   0.16666667  0.50000000  0.00000000       0.002
   0.25000000  0.50000000  0.00000000       0.002
   0.33333333  0.50000000  0.00000000       0.002
   0.41666667  0.50000000  0.00000000       0.002
   0.50000000  0.50000000  0.00000000       0.001
   0.00000000  0.08333333  0.08333333       0.002
   0.08333333  0.08333333  0.08333333       0.005
   0.16666667  0.08333333  0.08333333       0.005
   0.25000000  0.08333333  0.08333333       0.005
   0.33333333  0.08333333  0.08333333       0.005
   0.41666667  0.08333333  0.08333333       0.005
   0.50000000  0.08333333  0.08333333       0.002
   0.00000000  0.16666667  0.08333333       0.005
   0.08333333  0.16666667  0.08333333       0.009
   0.16666667  0.16666667  0.08333333       0.009
   0.25000000  0.16666667  0.08333333       0.009
   0.33333333  0.16666667  0.08333333       0.009
   0.41666667  0.16666667  0.08333333       0.009
   0.50000000  0.16666667  0.08333333       0.005
   0.00000000  0.25000000  0.08333333       0.005
   0.08333333  0.25000000  0.08333333       0.009
   0.16666667  0.25000000  0.08333333       0.009
   0.25000000  0.25000000  0.08333333       0.009
   0.33333333  0.25000000  0.08333333       0.009
   0.41666667  0.25000000  0.08333333       0.009
   0.50000000  0.25000000  0.08333333       0.005
   0.00000000  0.33333333  0.08333333       0.005
   0.08333333  0.33333333  0.08333333       0.009
   0.16666667  0.33333333  0.08333333       0.009
   0.25000000  0.33333333  0.08333333       0.009
   0.33333333  0.33333333  0.08333333       0.009
   0.41666667  0.33333333  0.08333333       0.009
   0.50000000  0.33333333  0.08333333       0.005
   0.00000000  0.41666667  0.08333333       0.005
   0.08333333  0.41666667  0.08333333       0.009
   0.16666667  0.41666667  0.08333333       0.009
   0.25000000  0.41666667  0.08333333       0.009
   0.33333333  0.41666667  0.08333333       0.009
   0.41666667  0.41666667  0.08333333       0.009
   0.50000000  0.41666667  0.08333333       0.005
   0.00000000  0.50000000  0.08333333       0.002
   0.08333333  0.50000000  0.08333333       0.005
   0.16666667  0.50000000  0.08333333       0.005
   0.25000000  0.50000000  0.08333333       0.005
   0.33333333  0.50000000  0.08333333       0.005
   0.41666667  0.50000000  0.08333333       0.005
   0.50000000  0.50000000  0.08333333       0.002
   0.00000000  0.16666667  0.16666667       0.002
   0.08333333  0.16666667  0.16666667       0.005
   0.16666667  0.16666667  0.16666667       0.005
   0.25000000  0.16666667  0.16666667       0.005
   0.33333333  0.16666667  0.16666667       0.005
   0.41666667  0.16666667  0.16666667       0.005
   0.50000000  0.16666667  0.16666667       0.002
   0.00000000  0.25000000  0.16666667       0.005
   0.08333333  0.25000000  0.16666667       0.009
   0.16666667  0.25000000  0.16666667       0.009
   0.25000000  0.25000000  0.16666667       0.009
   0.33333333  0.25000000  0.16666667       0.009
   0.41666667  0.25000000  0.16666667       0.009
   0.50000000  0.25000000  0.16666667       0.005
   0.00000000  0.33333333  0.16666667       0.005
   0.08333333  0.33333333  0.16666667       0.009
   0.16666667  0.33333333  0.16666667       0.009
   0.25000000  0.33333333  0.16666667       0.009
   0.33333333  0.33333333  0.16666667       0.009
   0.41666667  0.33333333  0.16666667       0.009
   0.50000000  0.33333333  0.16666667       0.005
   0.00000000  0.41666667  0.16666667       0.005
   0.08333333  0.41666667  0.16666667       0.009
   0.16666667  0.41666667  0.16666667       0.009
   0.25000000  0.41666667  0.16666667       0.009
   0.33333333  0.41666667  0.16666667       0.009
   0.41666667  0.41666667  0.16666667       0.009
   0.50000000  0.41666667  0.16666667       0.005
   0.00000000  0.50000000  0.16666667       0.002
   0.08333333  0.50000000  0.16666667       0.005
   0.16666667  0.50000000  0.16666667       0.005
   0.25000000  0.50000000  0.16666667       0.005
   0.33333333  0.50000000  0.16666667       0.005
   0.41666667  0.50000000  0.16666667       0.005
   0.50000000  0.50000000  0.16666667       0.002
   0.00000000  0.25000000  0.25000000       0.002
   0.08333333  0.25000000  0.25000000       0.005
   0.16666667  0.25000000  0.25000000       0.005
   0.25000000  0.25000000  0.25000000       0.005
   0.33333333  0.25000000  0.25000000       0.005
   0.41666667  0.25000000  0.25000000       0.005
   0.50000000  0.25000000  0.25000000       0.002
   0.00000000  0.33333333  0.25000000       0.005
   0.08333333  0.33333333  0.25000000       0.009
   0.16666667  0.33333333  0.25000000       0.009
   0.25000000  0.33333333  0.25000000       0.009
   0.33333333  0.33333333  0.25000000       0.009
   0.41666667  0.33333333  0.25000000       0.009
   0.50000000  0.33333333  0.25000000       0.005
   0.00000000  0.41666667  0.25000000       0.005
   0.08333333  0.41666667  0.25000000       0.009
   0.16666667  0.41666667  0.25000000       0.009
   0.25000000  0.41666667  0.25000000       0.009
   0.33333333  0.41666667  0.25000000       0.009
   0.41666667  0.41666667  0.25000000       0.009
   0.50000000  0.41666667  0.25000000       0.005
   0.00000000  0.50000000  0.25000000       0.002
   0.08333333  0.50000000  0.25000000       0.005
   0.16666667  0.50000000  0.25000000       0.005
   0.25000000  0.50000000  0.25000000       0.005
   0.33333333  0.50000000  0.25000000       0.005
   0.41666667  0.50000000  0.25000000       0.005
   0.50000000  0.50000000  0.25000000       0.002
   0.00000000  0.33333333  0.33333333       0.002
   0.08333333  0.33333333  0.33333333       0.005
   0.16666667  0.33333333  0.33333333       0.005
   0.25000000  0.33333333  0.33333333       0.005
   0.33333333  0.33333333  0.33333333       0.005
   0.41666667  0.33333333  0.33333333       0.005
   0.50000000  0.33333333  0.33333333       0.002
   0.00000000  0.41666667  0.33333333       0.005
   0.08333333  0.41666667  0.33333333       0.009
   0.16666667  0.41666667  0.33333333       0.009
   0.25000000  0.41666667  0.33333333       0.009
   0.33333333  0.41666667  0.33333333       0.009
   0.41666667  0.41666667  0.33333333       0.009
   0.50000000  0.41666667  0.33333333       0.005
   0.00000000  0.50000000  0.33333333       0.002
   0.08333333  0.50000000  0.33333333       0.005
   0.16666667  0.50000000  0.33333333       0.005
   0.25000000  0.50000000  0.33333333       0.005
   0.33333333  0.50000000  0.33333333       0.005
   0.41666667  0.50000000  0.33333333       0.005
   0.50000000  0.50000000  0.33333333       0.002
   0.00000000  0.41666667  0.41666667       0.002
   0.08333333  0.41666667  0.41666667       0.005
   0.16666667  0.41666667  0.41666667       0.005
   0.25000000  0.41666667  0.41666667       0.005
   0.33333333  0.41666667  0.41666667       0.005
   0.41666667  0.41666667  0.41666667       0.005
   0.50000000  0.41666667  0.41666667       0.002
   0.00000000  0.50000000  0.41666667       0.002
   0.08333333  0.50000000  0.41666667       0.005
   0.16666667  0.50000000  0.41666667       0.005
   0.25000000  0.50000000  0.41666667       0.005
   0.33333333  0.50000000  0.41666667       0.005
   0.41666667  0.50000000  0.41666667       0.005
   0.50000000  0.50000000  0.41666667       0.002
   0.00000000  0.50000000  0.50000000       0.001
   0.08333333  0.50000000  0.50000000       0.001
   0.16666667  0.50000000  0.50000000       0.001
   0.25000000  0.50000000  0.50000000       0.001
   0.33333333  0.50000000  0.50000000       0.001
   0.41666667  0.50000000  0.50000000       0.001
   0.50000000  0.50000000  0.50000000       0.001
 
 position of ions in fractional coordinates (direct lattice) 
   0.00114380  0.00000000  0.00000000
   0.50000000  0.00000000  0.00000000
   0.00000000  0.50000000  0.00000000
   0.50000000  0.50000000  0.00000000
   0.00000000  0.00000000  0.50000000
   0.50000000  0.00000000  0.50000000
   0.00000000  0.50000000  0.50000000
   0.50000000  0.50000000  0.50000000
   0.25000000  0.25000000  0.00000000
   0.75000000  0.25000000  0.00000000
   0.25000000  0.75000000  0.00000000
   0.75000000  0.75000000  0.00000000
   0.25000000  0.25000000  0.50000000
   0.75000000  0.25000000  0.50000000
   0.25000000  0.75000000  0.50000000
   0.75000000  0.75000000  0.50000000
   0.25000000  0.00000000  0.25000000
   0.75000000  0.00000000  0.25000000
   0.25000000  0.50000000  0.25000000
   0.75000000  0.50000000  0.25000000
   0.25000000  0.00000000  0.75000000
   0.75000000  0.00000000  0.75000000
   0.25000000  0.50000000  0.75000000
   0.75000000  0.50000000  0.75000000
   0.00000000  0.25000000  0.25000000
   0.50000000  0.25000000  0.25000000
   0.00000000  0.75000000  0.25000000
   0.50000000  0.75000000  0.25000000
   0.00000000  0.25000000  0.75000000
   0.50000000  0.25000000  0.75000000
   0.00000000  0.75000000  0.75000000
   0.50000000  0.75000000  0.75000000
 
 position of ions in cartesian coordinates  (Angst):
   0.01000000  0.00000000  0.00000000
   4.37138602  0.00000000  0.00000000
   0.00000000  4.37138602  0.00000000
   4.37138602  4.37138602  0.00000000
   0.00000000  0.00000000  4.37138602
   4.37138602  0.00000000  4.37138602
   0.00000000  4.37138602  4.37138602
   4.37138602  4.37138602  4.37138602
   2.18569301  2.18569301  0.00000000
   6.55707903  2.18569301  0.00000000
   2.18569301  6.55707903  0.00000000
   6.55707903  6.55707903  0.00000000
   2.18569301  2.18569301  4.37138602
   6.55707903  2.18569301  4.37138602
   2.18569301  6.55707903  4.37138602
   6.55707903  6.55707903  4.37138602
   2.18569301  0.00000000  2.18569301
   6.55707903  0.00000000  2.18569301
   2.18569301  4.37138602  2.18569301
   6.55707903  4.37138602  2.18569301
   2.18569301  0.00000000  6.55707903
   6.55707903  0.00000000  6.55707903
   2.18569301  4.37138602  6.55707903
   6.55707903  4.37138602  6.55707903
   0.00000000  2.18569301  2.18569301
   4.37138602  2.18569301  2.18569301
   0.00000000  6.55707903  2.18569301
   4.37138602  6.55707903  2.18569301
   0.00000000  2.18569301  6.55707903
   4.37138602  2.18569301  6.55707903
   0.00000000  6.55707903  6.55707903
   4.37138602  6.55707903  6.55707903
 


--------------------------------------------------------------------------------------------------------


 k-point  1 :  0.00000.00000.0000  plane waves:  31343
 k-point  2 :  0.08330.00000.0000  plane waves:  31243
 k-point  3 :  0.16670.00000.0000  plane waves:  31235
 k-point  4 :  0.25000.00000.0000  plane waves:  31219
 k-point  5 :  0.33330.00000.0000  plane waves:  31211
 k-point  6 :  0.41670.00000.0000  plane waves:  31179
 k-point  7 :  0.50000.00000.0000  plane waves:  31136
 k-point  8 :  0.00000.08330.0000  plane waves:  31243
 k-point  9 :  0.08330.08330.0000  plane waves:  31217
 k-point 10 :  0.16670.08330.0000  plane waves:  31211
 k-point 11 :  0.25000.08330.0000  plane waves:  31209
 k-point 12 :  0.33330.08330.0000  plane waves:  31191
 k-point 13 :  0.41670.08330.0000  plane waves:  31167
 k-point 14 :  0.50000.08330.0000  plane waves:  31180
 k-point 15 :  0.00000.16670.0000  plane waves:  31235
 k-point 16 :  0.08330.16670.0000  plane waves:  31211
 k-point 17 :  0.16670.16670.0000  plane waves:  31213
 k-point 18 :  0.25000.16670.0000  plane waves:  31195
 k-point 19 :  0.33330.16670.0000  plane waves:  31157
 k-point 20 :  0.41670.16670.0000  plane waves:  31152
 k-point 21 :  0.50000.16670.0000  plane waves:  31144
 k-point 22 :  0.00000.25000.0000  plane waves:  31219
 k-point 23 :  0.08330.25000.0000  plane waves:  31209
 k-point 24 :  0.16670.25000.0000  plane waves:  31195
 k-point 25 :  0.25000.25000.0000  plane waves:  31216
 k-point 26 :  0.33330.25000.0000  plane waves:  31158
 k-point 27 :  0.41670.25000.0000  plane waves:  31158
 k-point 28 :  0.50000.25000.0000  plane waves:  31122
 k-point 29 :  0.00000.33330.0000  plane waves:  31211
 k-point 30 :  0.08330.33330.0000  plane waves:  31191
 k-point 31 :  0.16670.33330.0000  plane waves:  31157
 k-point 32 :  0.25000.33330.0000  plane waves:  31158
 k-point 33 :  0.33330.33330.0000  plane waves:  31176
 k-point 34 :  0.41670.33330.0000  plane waves:  31157
 k-point 35 :  0.50000.33330.0000  plane waves:  31148
 k-point 36 :  0.00000.41670.0000  plane waves:  31179
 k-point 37 :  0.08330.41670.0000  plane waves:  31167
 k-point 38 :  0.16670.41670.0000  plane waves:  31152
 k-point 39 :  0.25000.41670.0000  plane waves:  31158
 k-point 40 :  0.33330.41670.0000  plane waves:  31157
 k-point 41 :  0.41670.41670.0000  plane waves:  31124
 k-point 42 :  0.50000.41670.0000  plane waves:  31130
 k-point 43 :  0.00000.50000.0000  plane waves:  31136
 k-point 44 :  0.08330.50000.0000  plane waves:  31180
 k-point 45 :  0.16670.50000.0000  plane waves:  31144
 k-point 46 :  0.25000.50000.0000  plane waves:  31122
 k-point 47 :  0.33330.50000.0000  plane waves:  31148
 k-point 48 :  0.41670.50000.0000  plane waves:  31130
 k-point 49 :  0.50000.50000.0000  plane waves:  31064
 k-point 50 :  0.00000.08330.0833  plane waves:  31217
 k-point 51 :  0.08330.08330.0833  plane waves:  31199
 k-point 52 :  0.16670.08330.0833  plane waves:  31192
 k-point 53 :  0.25000.08330.0833  plane waves:  31196
 k-point 54 :  0.33330.08330.0833  plane waves:  31187
 k-point 55 :  0.41670.08330.0833  plane waves:  31172
 k-point 56 :  0.50000.08330.0833  plane waves:  31214
 k-point 57 :  0.00000.16670.0833  plane waves:  31211
 k-point 58 :  0.08330.16670.0833  plane waves:  31192
 k-point 59 :  0.16670.16670.0833  plane waves:  31198
 k-point 60 :  0.25000.16670.0833  plane waves:  31195
 k-point 61 :  0.33330.16670.0833  plane waves:  31169
 k-point 62 :  0.41670.16670.0833  plane waves:  31162
 k-point 63 :  0.50000.16670.0833  plane waves:  31164
 k-point 64 :  0.00000.25000.0833  plane waves:  31209
 k-point 65 :  0.08330.25000.0833  plane waves:  31196
 k-point 66 :  0.16670.25000.0833  plane waves:  31195
 k-point 67 :  0.25000.25000.0833  plane waves:  31165
 k-point 68 :  0.33330.25000.0833  plane waves:  31161
 k-point 69 :  0.41670.25000.0833  plane waves:  31173
 k-point 70 :  0.50000.25000.0833  plane waves:  31136
 k-point 71 :  0.00000.33330.0833  plane waves:  31191
 k-point 72 :  0.08330.33330.0833  plane waves:  31187
 k-point 73 :  0.16670.33330.0833  plane waves:  31169
 k-point 74 :  0.25000.33330.0833  plane waves:  31161
 k-point 75 :  0.33330.33330.0833  plane waves:  31151
 k-point 76 :  0.41670.33330.0833  plane waves:  31163
 k-point 77 :  0.50000.33330.0833  plane waves:  31132
 k-point 78 :  0.00000.41670.0833  plane waves:  31167
 k-point 79 :  0.08330.41670.0833  plane waves:  31172
 k-point 80 :  0.16670.41670.0833  plane waves:  31162
 k-point 81 :  0.25000.41670.0833  plane waves:  31173
 k-point 82 :  0.33330.41670.0833  plane waves:  31163
 k-point 83 :  0.41670.41670.0833  plane waves:  31132
 k-point 84 :  0.50000.41670.0833  plane waves:  31144
 k-point 85 :  0.00000.50000.0833  plane waves:  31180
 k-point 86 :  0.08330.50000.0833  plane waves:  31214
 k-point 87 :  0.16670.50000.0833  plane waves:  31164
 k-point 88 :  0.25000.50000.0833  plane waves:  31136
 k-point 89 :  0.33330.50000.0833  plane waves:  31132
 k-point 90 :  0.41670.50000.0833  plane waves:  31144
 k-point 91 :  0.50000.50000.0833  plane waves:  31132
 k-point 92 :  0.00000.16670.1667  plane waves:  31213
 k-point 93 :  0.08330.16670.1667  plane waves:  31198
 k-point 94 :  0.16670.16670.1667  plane waves:  31166
 k-point 95 :  0.25000.16670.1667  plane waves:  31188
 k-point 96 :  0.33330.16670.1667  plane waves:  31170
 k-point 97 :  0.41670.16670.1667  plane waves:  31165
 k-point 98 :  0.50000.16670.1667  plane waves:  31170
 k-point 99 :  0.00000.25000.1667  plane waves:  31195
 k-point ** :  0.08330.25000.1667  plane waves:  31195
 k-point ** :  0.16670.25000.1667  plane waves:  31188
 k-point ** :  0.25000.25000.1667  plane waves:  31160
 k-point ** :  0.33330.25000.1667  plane waves:  31172
 k-point ** :  0.41670.25000.1667  plane waves:  31182
 k-point ** :  0.50000.25000.1667  plane waves:  31148
 k-point ** :  0.00000.33330.1667  plane waves:  31157
 k-point ** :  0.08330.33330.1667  plane waves:  31169
 k-point ** :  0.16670.33330.1667  plane waves:  31170
 k-point ** :  0.25000.33330.1667  plane waves:  31172
 k-point ** :  0.33330.33330.1667  plane waves:  31142
 k-point ** :  0.41670.33330.1667  plane waves:  31144
 k-point ** :  0.50000.33330.1667  plane waves:  31170
 k-point ** :  0.00000.41670.1667  plane waves:  31152
 k-point ** :  0.08330.41670.1667  plane waves:  31162
 k-point ** :  0.16670.41670.1667  plane waves:  31165
 k-point ** :  0.25000.41670.1667  plane waves:  31182
 k-point ** :  0.33330.41670.1667  plane waves:  31144
 k-point ** :  0.41670.41670.1667  plane waves:  31148
 k-point ** :  0.50000.41670.1667  plane waves:  31162
 k-point ** :  0.00000.50000.1667  plane waves:  31144
 k-point ** :  0.08330.50000.1667  plane waves:  31164
 k-point ** :  0.16670.50000.1667  plane waves:  31170
 k-point ** :  0.25000.50000.1667  plane waves:  31148
 k-point ** :  0.33330.50000.1667  plane waves:  31170
 k-point ** :  0.41670.50000.1667  plane waves:  31162
 k-point ** :  0.50000.50000.1667  plane waves:  31120
 k-point ** :  0.00000.25000.2500  plane waves:  31216
 k-point ** :  0.08330.25000.2500  plane waves:  31165
 k-point ** :  0.16670.25000.2500  plane waves:  31160
 k-point ** :  0.25000.25000.2500  plane waves:  31154
 k-point ** :  0.33330.25000.2500  plane waves:  31175
 k-point ** :  0.41670.25000.2500  plane waves:  31169
 k-point ** :  0.50000.25000.2500  plane waves:  31150
 k-point ** :  0.00000.33330.2500  plane waves:  31158
 k-point ** :  0.08330.33330.2500  plane waves:  31161
 k-point ** :  0.16670.33330.2500  plane waves:  31172
 k-point ** :  0.25000.33330.2500  plane waves:  31175
 k-point ** :  0.33330.33330.2500  plane waves:  31166
 k-point ** :  0.41670.33330.2500  plane waves:  31150
 k-point ** :  0.50000.33330.2500  plane waves:  31150
 k-point ** :  0.00000.41670.2500  plane waves:  31158
 k-point ** :  0.08330.41670.2500  plane waves:  31173
 k-point ** :  0.16670.41670.2500  plane waves:  31182
 k-point ** :  0.25000.41670.2500  plane waves:  31169
 k-point ** :  0.33330.41670.2500  plane waves:  31150
 k-point ** :  0.41670.41670.2500  plane waves:  31171
 k-point ** :  0.50000.41670.2500  plane waves:  31154
 k-point ** :  0.00000.50000.2500  plane waves:  31122
 k-point ** :  0.08330.50000.2500  plane waves:  31136
 k-point ** :  0.16670.50000.2500  plane waves:  31148
 k-point ** :  0.25000.50000.2500  plane waves:  31150
 k-point ** :  0.33330.50000.2500  plane waves:  31150
 k-point ** :  0.41670.50000.2500  plane waves:  31154
 k-point ** :  0.50000.50000.2500  plane waves:  31180
 k-point ** :  0.00000.33330.3333  plane waves:  31176
 k-point ** :  0.08330.33330.3333  plane waves:  31151
 k-point ** :  0.16670.33330.3333  plane waves:  31142
 k-point ** :  0.25000.33330.3333  plane waves:  31166
 k-point ** :  0.33330.33330.3333  plane waves:  31180
 k-point ** :  0.41670.33330.3333  plane waves:  31173
 k-point ** :  0.50000.33330.3333  plane waves:  31138
 k-point ** :  0.00000.41670.3333  plane waves:  31157
 k-point ** :  0.08330.41670.3333  plane waves:  31163
 k-point ** :  0.16670.41670.3333  plane waves:  31144
 k-point ** :  0.25000.41670.3333  plane waves:  31150
 k-point ** :  0.33330.41670.3333  plane waves:  31173
 k-point ** :  0.41670.41670.3333  plane waves:  31181
 k-point ** :  0.50000.41670.3333  plane waves:  31174
 k-point ** :  0.00000.50000.3333  plane waves:  31148
 k-point ** :  0.08330.50000.3333  plane waves:  31132
 k-point ** :  0.16670.50000.3333  plane waves:  31170
 k-point ** :  0.25000.50000.3333  plane waves:  31150
 k-point ** :  0.33330.50000.3333  plane waves:  31138
 k-point ** :  0.41670.50000.3333  plane waves:  31174
 k-point ** :  0.50000.50000.3333  plane waves:  31156
 k-point ** :  0.00000.41670.4167  plane waves:  31124
 k-point ** :  0.08330.41670.4167  plane waves:  31132
 k-point ** :  0.16670.41670.4167  plane waves:  31148
 k-point ** :  0.25000.41670.4167  plane waves:  31171
 k-point ** :  0.33330.41670.4167  plane waves:  31181
 k-point ** :  0.41670.41670.4167  plane waves:  31147
 k-point ** :  0.50000.41670.4167  plane waves:  31134
 k-point ** :  0.00000.50000.4167  plane waves:  31130
 k-point ** :  0.08330.50000.4167  plane waves:  31144
 k-point ** :  0.16670.50000.4167  plane waves:  31162
 k-point ** :  0.25000.50000.4167  plane waves:  31154
 k-point ** :  0.33330.50000.4167  plane waves:  31174
 k-point ** :  0.41670.50000.4167  plane waves:  31134
 k-point ** :  0.50000.50000.4167  plane waves:  31096
 k-point ** :  0.00000.50000.5000  plane waves:  31064
 k-point ** :  0.08330.50000.5000  plane waves:  31132
 k-point ** :  0.16670.50000.5000  plane waves:  31120
 k-point ** :  0.25000.50000.5000  plane waves:  31180
 k-point ** :  0.33330.50000.5000  plane waves:  31156
 k-point ** :  0.41670.50000.5000  plane waves:  31096
 k-point ** :  0.50000.50000.5000  plane waves:  31144

 maximum and minimum number of plane-waves per node :  31343 31064

 maximum number of plane-waves:  31343
 maximal index in each direction: 
   IXMAX= 19   IYMAX= 19   IZMAX= 19
   IXMIN=-20   IYMIN=-20   IZMIN=-20

 NGX is ok and might be reduce to  80
 NGY is ok and might be reduce to  80
 NGZ is ok and might be reduce to  80

 parallel 3dFFT wavefunction:
    minimum data exchange during FFTs selected (reduces bandwidth)
 parallel 3dFFT charge:
    minimum data exchange during FFTs selected (reduces bandwidth)

 For storing wavefunctions ******* MBYTES are necessary
 For predicting wavefunctions  226.89 MBYTES are necessary
Broyden mixing: mesh for mixing (old mesh)
   NGX = 39   NGY = 39   NGZ = 39
  (NGX  =160   NGY  =160   NGZ  =160)
 gives a total of  59319 points
 initial charge density was supplied:
 charge density of overlapping atoms calculated
 number of electron  352.0000000 magnetization 
 keeping initial charge density in first step


--------------------------------------------------------------------------------------------------------


 Maximum index for augmentation-charges        73173 (set IRDMAX)


--------------------------------------------------------------------------------------------------------


 First call to EWALD:  gamma=   0.203
 Maximum number of real-space cells 3x 3x 3
 Maximum number of reciprocal cells 3x 3x 3

    FEWALD:  VPU time    0.00: CPU time    0.00


----------------------------------------- Iteration    1(   1)  ---------------------------------------


    POTLOK:  VPU time    0.74: CPU time    0.74
    SETDIJ:  VPU time    1.09: CPU time    1.10
    EDDAV :  VPU time 3716.46: CPU time 3726.87
    DOS   :  VPU time    0.00: CPU time   -0.00
    ------------------------------------------
      LOOP:  VPU time 3718.49: CPU time 3728.90

 eigenvalue-minimisations  : 83168
 total energy-change (2. order) : 0.4040577E+04  (-0.2093142E+05)
 number of electron  352.0000000 magnetization 
 augmentation part   352.0000000 magnetization 

 Free energy of the ion-electron system (eV)
  ---------------------------------------------------
  alpha Z        PSCENC =      2721.07767126
  Ewald energy   TEWEN  =    -29239.39230251
  -1/2 Hartree   DENC   =     -7501.16269958
  -V(xc)+E(xc)   XCENC  =      -358.23006464
  PAW double counting   =     27861.41421209   -26376.63839568
  entropy T*S    EENTRO =        -0.00045243
  eigenvalues    EBANDS =      3736.31176657
  atomic energy  EATOM  =     33197.19690173
  ---------------------------------------------------
  free energy    TOTEN  =      4040.57663682 eV

  energy without entropy =     4040.57708924  energy(sigma->0) =     4040.57686303


--------------------------------------------------------------------------------------------------------




----------------------------------------- Iteration    1(   2)  ---------------------------------------


    EDDAV :  VPU time 3717.84: CPU time 3724.80
    DOS   :  VPU time    0.00: CPU time   -0.00
    ------------------------------------------
      LOOP:  VPU time 3718.04: CPU time 3725.00

 eigenvalue-minimisations  : 83104
 total energy-change (2. order) :-0.3926991E+04  (-0.3753716E+04)
 number of electron  352.0000000 magnetization 
 augmentation part   352.0000000 magnetization 

 Free energy of the ion-electron system (eV)
  ---------------------------------------------------
  alpha Z        PSCENC =      2721.07767126
  Ewald energy   TEWEN  =    -29239.39230251
  -1/2 Hartree   DENC   =     -7501.16269958
  -V(xc)+E(xc)   XCENC  =      -358.23006464
  PAW double counting   =     27861.41421209   -26376.63839568
  entropy T*S    EENTRO =        -0.00039955
  eigenvalues    EBANDS =      -190.67897668
  atomic energy  EATOM  =     33197.19690173
  ---------------------------------------------------
  free energy    TOTEN  =       113.58594644 eV

  energy without entropy =      113.58634599  energy(sigma->0) =      113.58614621


--------------------------------------------------------------------------------------------------------




----------------------------------------- Iteration    1(   3)  ---------------------------------------


    EDDAV :  VPU time 3838.11: CPU time 3844.48
    DOS   :  VPU time   -0.00: CPU time   -0.07
    ------------------------------------------
      LOOP:  VPU time 3838.31: CPU time 3844.75

 eigenvalue-minimisations  : 88148
 total energy-change (2. order) :-0.2023300E+03  (-0.1931471E+03)
 number of electron  352.0000000 magnetization 
 augmentation part   352.0000000 magnetization 

 Free energy of the ion-electron system (eV)
  ---------------------------------------------------
  alpha Z        PSCENC =      2721.07767126
  Ewald energy   TEWEN  =    -29239.39230251
  -1/2 Hartree   DENC   =     -7501.16269958
  -V(xc)+E(xc)   XCENC  =      -358.23006464
  PAW double counting   =     27861.41421209   -26376.63839568
  entropy T*S    EENTRO =        -0.00045482
  eigenvalues    EBANDS =      -393.00889083
  atomic energy  EATOM  =     33197.19690173
  ---------------------------------------------------
  free energy    TOTEN  =       -88.74402298 eV

  energy without entropy =      -88.74356816  energy(sigma->0) =      -88.74379557


--------------------------------------------------------------------------------------------------------




----------------------------------------- Iteration    1(   4)  ---------------------------------------


    EDDAV :  VPU time 3145.12: CPU time 3151.26
    DOS   :  VPU time   -0.00: CPU time   -0.04
    ------------------------------------------
      LOOP:  VPU time 3145.31: CPU time 3151.49

 eigenvalue-minimisations  : 88880
 total energy-change (2. order) :-0.4407024E+01  (-0.4375602E+01)
 number of electron  352.0000000 magnetization 
 augmentation part   352.0000000 magnetization 

 Free energy of the ion-electron system (eV)
  ---------------------------------------------------
  alpha Z        PSCENC =      2721.07767126
  Ewald energy   TEWEN  =    -29239.39230251
  -1/2 Hartree   DENC   =     -7501.16269958
  -V(xc)+E(xc)   XCENC  =      -358.23006464
  PAW double counting   =     27861.41421209   -26376.63839568
  entropy T*S    EENTRO =        -0.00057728
  eigenvalues    EBANDS =      -397.41579238
  atomic energy  EATOM  =     33197.19690173
  ---------------------------------------------------
  free energy    TOTEN  =       -93.15104699 eV

  energy without entropy =      -93.15046971  energy(sigma->0) =      -93.15075835


--------------------------------------------------------------------------------------------------------




----------------------------------------- Iteration    1(   5)  ---------------------------------------


    EDDAV :  VPU time 3561.33: CPU time 3568.95
    DOS   :  VPU time   -0.00: CPU time   -0.10
    CHARGE:  VPU time  129.93: CPU time  132.01
    MIXING:  VPU time    0.03: CPU time    0.03
    ------------------------------------------
      LOOP:  VPU time 3691.49: CPU time 3701.41

 eigenvalue-minimisations  : 88220
 total energy-change (2. order) :-0.3334059E-01  (-0.3329926E-01)
 number of electron  352.0000013 magnetization 
 augmentation part   164.5141670 magnetization 

 Broyden mixing:
  rms(total) = 0.13527E+01    rms(broyden)= 0.13527E+01
  rms(prec ) = 0.20331E+01
  weight for this iteration     100.00

 Free energy of the ion-electron system (eV)
  ---------------------------------------------------
  alpha Z        PSCENC =      2721.07767126
  Ewald energy   TEWEN  =    -29239.39230251
  -1/2 Hartree   DENC   =     -7501.16269958
  -V(xc)+E(xc)   XCENC  =      -358.23006464
  PAW double counting   =     27861.41421209   -26376.63839568
  entropy T*S    EENTRO =        -0.00057756
  eigenvalues    EBANDS =      -397.44913269
  atomic energy  EATOM  =     33197.19690173
  ---------------------------------------------------
  free energy    TOTEN  =       -93.18438758 eV

  energy without entropy =      -93.18381002  energy(sigma->0) =      -93.18409880


--------------------------------------------------------------------------------------------------------




----------------------------------------- Iteration    1(   6)  ---------------------------------------


    POTLOK:  VPU time    1.15: CPU time    1.22
    SETDIJ:  VPU time    1.26: CPU time    1.32
    EDDAV :  VPU time 3758.82: CPU time 3774.91
    DOS   :  VPU time    0.00: CPU time   -0.14
    CHARGE:  VPU time  140.10: CPU time  275.53
    MIXING:  VPU time    0.04: CPU time    0.52
    ------------------------------------------
      LOOP:  VPU time 3901.58: CPU time 4053.99

 eigenvalue-minimisations  : 87320
 total energy-change (2. order) : 0.5424222E+01  (-0.2301059E+01)
 number of electron  352.0000013 magnetization 
 augmentation part   169.5322315 magnetization 

 Broyden mixing:
  rms(total) = 0.25771E+00    rms(broyden)= 0.25771E+00
  rms(prec ) = 0.33484E+00
  weight for this iteration     100.00

 eigenvalues of (default mixing * dielectric matrix)
  average eigenvalue GAMMA=   1.0056
  1.0056

 Free energy of the ion-electron system (eV)
  ---------------------------------------------------
  alpha Z        PSCENC =      2721.07767126
  Ewald energy   TEWEN  =    -29239.39230251
  -1/2 Hartree   DENC   =     -7224.46340909
  -V(xc)+E(xc)   XCENC  =      -368.35735626
  PAW double counting   =     27398.09124277   -25929.03731470
  entropy T*S    EENTRO =        -0.00069758
  eigenvalues    EBANDS =      -642.87490083
  atomic energy  EATOM  =     33197.19690173
  ---------------------------------------------------
  free energy    TOTEN  =       -87.76016521 eV

  energy without entropy =      -87.75946764  energy(sigma->0) =      -87.75981643


--------------------------------------------------------------------------------------------------------




----------------------------------------- Iteration    1(   7)  ---------------------------------------


    POTLOK:  VPU time    1.05: CPU time    1.12
    SETDIJ:  VPU time    1.94: CPU time    2.02
    EDDAV :  VPU time 4314.94: CPU time 4909.63
    DOS   :  VPU time    0.00: CPU time   -0.08
    CHARGE:  VPU time  130.12: CPU time  151.54
    MIXING:  VPU time    0.23: CPU time    0.70
    ------------------------------------------
      LOOP:  VPU time 4448.64: CPU time 5072.09

 eigenvalue-minimisations  : 86192
 total energy-change (2. order) : 0.7211378E-01  (-0.3819093E-01)
 number of electron  352.0000013 magnetization 
 augmentation part   169.6606283 magnetization 

 Broyden mixing:
  rms(total) = 0.15050E+00    rms(broyden)= 0.15050E+00
  rms(prec ) = 0.19357E+00
  weight for this iteration     100.00

 eigenvalues of (default mixing * dielectric matrix)
  average eigenvalue GAMMA=   1.7421
  1.0142  2.4699

 Free energy of the ion-electron system (eV)
  ---------------------------------------------------
  alpha Z        PSCENC =      2721.07767126
  Ewald energy   TEWEN  =    -29239.39230251
  -1/2 Hartree   DENC   =     -7197.37791333
  -V(xc)+E(xc)   XCENC  =      -369.49446623
  PAW double counting   =     27431.68772728   -25976.31143195
  entropy T*S    EENTRO =        -0.00068294
  eigenvalues    EBANDS =      -655.07355475
  atomic energy  EATOM  =     33197.19690173
[...]
     68      -2.1493      2.00000
     69      -2.1489      2.00000
     70      -2.1489      2.00000
     71      -2.1487      2.00000
     72      -2.1487      2.00000
     73      -1.9683      2.00000
     74      -1.9679      2.00000
     75      -1.9669      2.00000
     76      -1.9669      2.00000
     77      -1.9669      2.00000
     78      -1.9669      2.00000
     79      -1.9659      2.00000
     80      -1.9654      2.00000
     81      -1.8968      2.00000
     82      -1.8968      2.00000
     83      -1.8958      2.00000
     84      -1.8957      2.00000
     85      -1.8947      2.00000
     86      -1.8946      2.00000
     87      -1.8946      2.00000
     88      -1.8946      2.00000
     89      -1.8946      2.00000
     90      -1.8946      2.00000
     91      -1.8945      2.00000
     92      -1.8945      2.00000
     93      -1.8945      2.00000
     94      -1.8945      2.00000
     95      -1.8944      2.00000
     96      -1.8944      2.00000
     97      -1.8944      2.00000
     98      -1.8944      2.00000
     99      -1.8944      2.00000
    100      -1.8943      2.00000
    101      -1.8933      2.00000
    102      -1.8931      2.00000
    103      -1.8922      2.00000
    104      -1.8922      2.00000
    105      -1.7000      2.00000
    106      -1.6992      2.00000
    107      -1.6992      2.00000
    108      -1.6980      2.00000
    109      -1.6979      2.00000
    110      -1.6978      2.00000
    111      -1.6978      2.00000
    112      -1.6977      2.00000
    113      -1.6976      2.00000
    114      -1.6976      2.00000
    115      -1.6976      2.00000
    116      -1.6976      2.00000
    117      -1.6975      2.00000
    118      -1.6975      2.00000
    119      -1.6975      2.00000
    120      -1.6975      2.00000
    121      -1.6974      2.00000
    122      -1.6973      2.00000
    123      -1.6973      2.00000
    124      -1.6972      2.00000
    125      -1.6971      2.00000
    126      -1.6958      2.00000
    127      -1.6958      2.00000
    128      -1.6951      2.00000
    129      -1.4816      2.00000
    130      -1.4807      2.00000
    131      -1.4807      2.00000
    132      -1.4807      2.00000
    133      -1.4801      2.00000
    134      -1.4801      2.00000
    135      -1.4800      2.00000
    136      -1.4799      2.00000
    137      -1.4799      2.00000
    138      -1.4798      2.00000
    139      -1.4797      2.00000
    140      -1.4797      2.00000
    141      -1.4791      2.00000
    142      -1.4791      2.00000
    143      -1.4791      2.00000
    144      -1.4782      2.00000
    145      -0.9808      2.00000
    146      -0.9808      2.00000
    147      -0.9806      2.00000
    148      -0.9805      2.00000
    149      -0.9805      2.00000
    150      -0.9805      2.00000
    151      -0.9805      2.00000
    152      -0.9805      2.00000
    153      -0.9804      2.00000
    154      -0.9804      2.00000
    155      -0.9804      2.00000
    156      -0.9803      2.00000
    157      -0.9802      2.00000
    158      -0.9802      2.00000
    159      -0.9802      2.00000
    160      -0.9801      2.00000
    161      -0.9801      2.00000
    162      -0.9801      2.00000
    163      -0.9801      2.00000
    164      -0.9801      2.00000
    165      -0.9801      2.00000
    166      -0.9799      2.00000
    167      -0.9798      2.00000
    168      -0.9798      2.00000
    169       2.7297      0.00000
    170       2.7321      0.00000
    171       2.7321      0.00000
    172       2.7341      0.00000
    173       2.7343      0.00000
    174       2.7345      0.00000
    175       2.7345      0.00000
    176       2.7346      0.00000
    177       2.7346      0.00000
    178       2.7346      0.00000
    179       2.7346      0.00000
    180       2.7346      0.00000
    181       2.7347      0.00000
    182       2.7347      0.00000
    183       2.7347      0.00000
    184       2.7348      0.00000
    185       2.7348      0.00000
    186       2.7348      0.00000
    187       2.7348      0.00000
    188       2.7350      0.00000
    189       2.7352      0.00000
    190       2.7372      0.00000
    191       2.7372      0.00000
    192       2.7397      0.00000
    193       7.1464      0.00000
    194       7.1468      0.00000
    195       7.1483      0.00000
    196       7.1496      0.00000
    197       7.1498      0.00000
    198       7.1500      0.00000
    199       7.1502      0.00000
    200       7.1503      0.00000
    201       7.1503      0.00000
    202       7.1504      0.00000
    203       7.1504      0.00000
    204       7.1504      0.00000
    205       7.1504      0.00000
    206       7.1506      0.00000
    207       7.1507      0.00000
    208       7.1509      0.00000
    209       7.1510      0.00000
    210       7.1519      0.00000
    211       7.1528      0.00000
    212       7.1539      0.00000


--------------------------------------------------------------------------------------------------------


 soft charge-density along one line, spin component           1
         0         1         2         3         4         5         6         7         8         9
 total charge-density along one line
 
 pseudopotential strength for first ion, spin component:           1
-12.629  -0.000   0.000  -0.000  -0.000   0.218   0.000  -0.000
 -0.000 -12.629   0.000  -0.000   0.000   0.000   0.218  -0.000
  0.000   0.000 -12.621   0.000  -0.000  -0.000  -0.000   0.216
 -0.000  -0.000   0.000 -12.629  -0.000   0.000   0.000  -0.000
 -0.000   0.000  -0.000  -0.000 -12.621   0.000  -0.000   0.000
  0.218   0.000  -0.000   0.000   0.000   0.441  -0.000   0.000
  0.000   0.218  -0.000   0.000  -0.000  -0.000   0.441   0.000
 -0.000  -0.000   0.216  -0.000   0.000   0.000   0.000   0.441
  0.000   0.000  -0.000   0.218   0.000  -0.000  -0.000   0.000
  0.000  -0.000   0.000   0.000   0.216  -0.000   0.000  -0.000
  0.000   0.000   0.000   0.000  -0.000  -0.000  -0.000  -0.000
 -0.000  -0.000   0.000  -0.000   0.000   0.000   0.000   0.000
 -0.000  -0.000   0.000  -0.000  -0.000   0.000   0.000  -0.000
 -0.000  -0.000   0.000  -0.000  -0.000   0.000   0.000   0.000
 -0.000  -0.000   0.000  -0.000  -0.000   0.000   0.000  -0.000
  0.000   0.000  -0.000   0.000   0.000  -0.000  -0.000   0.000
  0.000   0.000  -0.000   0.000   0.000  -0.000  -0.000   0.000
  0.000   0.000  -0.000   0.000   0.000  -0.000  -0.000   0.000
 total augmentation occupancy for first ion, spin component:           1
  1.944   0.000  -0.000  -0.000  -0.000  -0.035  -0.000  -0.001   0.000   0.000   0.002  -0.001   0.000   0.000  -0.000  -0.000
  0.000   1.946  -0.001  -0.000  -0.000  -0.000  -0.037   0.001   0.000  -0.000   0.002  -0.001   0.000   0.000  -0.000  -0.000
 -0.000  -0.001   1.968  -0.001  -0.002  -0.001   0.001  -0.059   0.001   0.001   0.011   0.001  -0.000  -0.000  -0.000  -0.000
 -0.000  -0.000  -0.001   1.948  -0.000   0.000   0.000   0.001  -0.040   0.001   0.001  -0.001   0.000   0.000  -0.000  -0.000
 -0.000  -0.000  -0.002  -0.000   1.962   0.000  -0.000   0.001   0.001  -0.054   0.007   0.000   0.000   0.000   0.000   0.000
 -0.035  -0.000  -0.001   0.000   0.000   0.047   0.000   0.001   0.000  -0.000  -0.000   0.001   0.001  -0.000  -0.000  -0.000
 -0.000  -0.037   0.001   0.000  -0.000   0.000   0.049  -0.001  -0.000   0.001   0.001   0.001   0.000  -0.000   0.000   0.000
 -0.001   0.001  -0.059   0.001   0.001   0.001  -0.001   0.041  -0.001  -0.001  -0.008   0.000   0.000   0.000  -0.000   0.000
  0.000   0.000   0.001  -0.040   0.001   0.000  -0.000  -0.001   0.050  -0.001   0.001   0.001  -0.000   0.001   0.000   0.000
  0.000  -0.000   0.001   0.001  -0.054  -0.000   0.001  -0.001  -0.001   0.039  -0.005   0.000  -0.000  -0.000   0.000   0.000
  0.002   0.002   0.011   0.001   0.007  -0.000   0.001  -0.008   0.001  -0.005   0.945  -0.278   0.000  -0.000   0.002  -0.000
 -0.001  -0.001   0.001  -0.001   0.000   0.001   0.001   0.000   0.001   0.000  -0.278   0.126   0.000   0.000  -0.001  -0.000
  0.000   0.000  -0.000   0.000   0.000   0.001   0.000   0.000  -0.000  -0.000   0.000   0.000   0.076   0.000   0.002  -0.004
  0.000   0.000  -0.000   0.000   0.000  -0.000  -0.000   0.000   0.001  -0.000  -0.000   0.000   0.000   0.080  -0.001  -0.000
 -0.000  -0.000  -0.000  -0.000   0.000  -0.000   0.000  -0.000   0.000   0.000   0.002  -0.001   0.002  -0.001   0.078  -0.000
 -0.000  -0.000  -0.000  -0.000   0.000  -0.000   0.000   0.000   0.000   0.000  -0.000  -0.000  -0.004  -0.000  -0.000   0.000
 -0.000  -0.000   0.000  -0.000   0.000   0.000   0.000  -0.000  -0.000   0.000   0.000   0.000  -0.000  -0.004  -0.000   0.000
  0.000  -0.000   0.000   0.000  -0.000  -0.000  -0.000   0.000  -0.000  -0.000  -0.000   0.000  -0.000  -0.000  -0.004   0.000


------------------------ aborting loop because EDIFF is reached ----------------------------------------




--------------------------------------------------------------------------------------------------------


    CHARGE:  VPU time  127.34: CPU time  127.58
    FORLOC:  VPU time    0.14: CPU time    0.14
    FORNL :  VPU time  873.38: CPU time  877.45
    STRESS:  VPU time 3978.85: CPU time 3987.02
    FORCOR:  VPU time    0.85: CPU time    0.89
    FORHAR:  VPU time    0.27: CPU time    0.27
    MIXING:  VPU time    0.03: CPU time    0.29


--------------------------------------------------------------------------------------------------------



  FREE ENERGIE OF THE ION-ELECTRON SYSTEM (eV)
  ---------------------------------------------------
  free  energy   TOTEN  =       -87.647548 eV

  energy  without entropy=      -87.646862  energy(sigma->0) =      -87.647205
 

  FORCE on cell =-STRESS in cart. coord.  units (eV/reduce length):
  Direction    X        Y        Z        XY       YZ       ZX
  --------------------------------------------------------------------------------------
  Alpha Z   2721.08   2721.08   2721.08
  Ewald    -9746.53  -9746.49  -9746.49     -0.00     -0.00     -0.00
  Hartree   2387.85   2387.87   2387.87     -0.00     -0.00     -0.00
  E(xc)    -1851.72  -1851.72  -1851.72      0.00     -0.00     -0.00
  Local     2941.65   2941.59   2941.59     -0.00     -0.00     -0.00
  n-local  -2168.90  -2172.33  -2165.48      1.35      0.70      0.05
  augment   1335.48   1335.48   1335.48     -0.00     -0.00     -0.00
  Kinetic   4345.81   4340.14   4351.49      0.61     -0.66     -1.93
  -------------------------------------------------------------------------------------
  Total      -35.28    -35.29    -35.29     -0.00      0.00     -0.00
  in kB      -84.60    -84.60    -84.60     -0.00      0.00     -0.00
  external pressure =      -84.60 kB  Pullay stress =        0.00 kB


 VOLUME and BASIS-vectors are now :
 -----------------------------------------------------------------------------
  energy-cutoff  :      750.00
  volume of cell :      668.26
      direct lattice vectors                 reciprocal lattice vectors
     8.742772041  0.000000000  0.000000000     0.114380198  0.000000000  0.000000000
     0.000000000  8.742772041  0.000000000     0.000000000  0.114380198  0.000000000
     0.000000000  0.000000000  8.742772041     0.000000000  0.000000000  0.114380198

  length of vectors
     8.742772041  8.742772041  8.742772041     0.114380198  0.114380198  0.114380198


 FORCES acting on ions
    electron-ion (+dipol)            ewald-force                    non-local-force                 convergence-correction
 -----------------------------------------------------------------------------------------------
   0.340E+01 0.349E-13 0.747E-07   -.339E+01 -.284E-13 -.568E-13   -.345E-01 -.203E-19 0.119E-19   0.391E-04 0.152E-12 -.179E-12
   -.886E+00 0.186E-12 -.769E-07   0.894E+00 -.128E-12 -.142E-13   -.703E-02 0.839E-21 -.331E-20   0.281E-04 0.155E-12 -.339E-12
   0.282E+00 -.916E-13 0.352E-10   -.283E+00 -.110E-12 -.355E-14   0.700E-03 0.409E-20 -.402E-20   0.710E-06 -.329E-12 -.851E-13
   -.226E+00 0.807E-12 0.354E-10   0.222E+00 -.114E-12 0.000E+00   0.313E-02 0.795E-20 -.108E-20   -.137E-04 -.320E-12 -.135E-12
   0.282E+00 0.404E-13 0.966E-10   -.283E+00 -.888E-13 0.355E-14   0.700E-03 -.583E-20 -.238E-20   0.113E-05 0.145E-12 -.460E-14
   -.226E+00 -.208E-13 0.978E-10   0.222E+00 -.114E-12 -.568E-13   0.313E-02 -.237E-20 0.866E-22   -.138E-04 0.150E-12 0.148E-12
   0.118E+00 -.982E-13 0.157E-09   -.117E+00 -.924E-13 -.675E-13   -.145E-02 0.510E-20 0.194E-21   0.102E-04 -.325E-12 -.104E-12
   -.109E+00 -.676E-11 0.159E-09   0.109E+00 -.995E-13 -.128E-12   -.345E-03 0.160E-20 -.432E-20   -.689E-05 -.314E-12 -.568E-13
   -.433E+00 -.827E+00 0.159E-10   0.429E+00 0.825E+00 -.249E-13   0.523E-02 0.451E-02 -.123E-20   0.194E-05 0.397E-05 -.259E-12
   -.435E+00 0.821E+00 0.724E-11   0.432E+00 -.819E+00 -.391E-13   0.522E-02 -.448E-02 -.832E-21   -.154E-04 -.199E-05 -.178E-12
   -.433E+00 0.827E+00 0.157E-10   0.429E+00 -.825E+00 -.142E-13   0.523E-02 -.451E-02 -.253E-21   0.194E-05 -.397E-05 -.175E-12
   -.435E+00 -.821E+00 0.232E-10   0.432E+00 0.819E+00 -.142E-13   0.522E-02 0.448E-02 0.509E-20   -.154E-04 0.199E-05 -.133E-12
   -.120E-01 -.680E-01 0.237E-10   0.131E-01 0.678E-01 -.128E-12   -.868E-03 0.222E-03 0.646E-22   0.517E-05 0.470E-05 0.685E-13
   -.133E-01 0.679E-01 0.241E-10   0.144E-01 -.677E-01 -.568E-13   -.866E-03 -.225E-03 -.275E-20   0.227E-05 0.330E-05 -.180E-13
   -.120E-01 0.680E-01 0.239E-10   0.131E-01 -.678E-01 -.142E-13   -.868E-03 -.222E-03 0.829E-21   0.517E-05 -.470E-05 -.193E-13
   -.133E-01 -.679E-01 0.831E-11   0.144E-01 0.677E-01 -.142E-13   -.866E-03 0.225E-03 -.234E-20   0.227E-05 -.330E-05 -.660E-13
   -.433E+00 -.859E-14 -.827E+00   0.429E+00 -.355E-13 0.825E+00   0.523E-02 -.176E-20 0.451E-02   0.186E-05 0.821E-13 0.403E-05
   -.435E+00 0.108E-13 0.821E+00   0.432E+00 -.355E-13 -.819E+00   0.522E-02 -.984E-20 -.448E-02   -.155E-04 0.154E-12 -.205E-05
   -.120E-01 0.812E-12 -.680E-01   0.131E-01 -.604E-13 0.678E-01   -.868E-03 -.284E-20 0.222E-03   0.519E-05 -.255E-12 0.476E-05
   -.133E-01 0.928E-11 0.679E-01   0.144E-01 -.604E-13 -.677E-01   -.866E-03 0.142E-20 -.225E-03   0.229E-05 -.316E-12 0.324E-05
   -.433E+00 0.648E-13 0.827E+00   0.429E+00 -.426E-13 -.825E+00   0.523E-02 0.605E-20 -.451E-02   0.186E-05 0.172E-12 -.403E-05
   -.435E+00 0.394E-13 -.821E+00   0.432E+00 -.711E-13 0.819E+00   0.522E-02 0.114E-20 0.448E-02   -.155E-04 0.202E-12 0.205E-05
   -.120E-01 0.121E-11 0.680E-01   0.131E-01 -.426E-13 -.678E-01   -.868E-03 0.515E-21 -.222E-03   0.519E-05 -.339E-12 -.476E-05
   -.133E-01 -.722E-11 -.679E-01   0.144E-01 -.426E-13 0.677E-01   -.866E-03 0.123E-20 0.225E-03   0.229E-05 -.364E-12 -.324E-05
   0.533E+00 0.192E-02 0.192E-02   -.534E+00 -.192E-02 -.192E-02   0.832E-03 -.117E-04 -.117E-04   -.478E-05 0.601E-05 0.601E-05
   -.299E+00 -.563E-03 -.563E-03   0.300E+00 0.575E-03 0.575E-03   -.633E-03 -.930E-05 -.930E-05   -.491E-06 -.116E-05 -.116E-05
   0.533E+00 -.192E-02 0.192E-02   -.534E+00 0.192E-02 -.192E-02   0.832E-03 0.117E-04 -.117E-04   -.478E-05 -.601E-05 0.601E-05
   -.299E+00 0.563E-03 -.563E-03   0.300E+00 -.575E-03 0.575E-03   -.633E-03 0.930E-05 -.930E-05   -.491E-06 0.116E-05 -.116E-05
   0.533E+00 0.192E-02 -.192E-02   -.534E+00 -.192E-02 0.192E-02   0.832E-03 -.117E-04 0.117E-04   -.478E-05 0.601E-05 -.601E-05
   -.299E+00 -.563E-03 0.563E-03   0.300E+00 0.575E-03 -.575E-03   -.633E-03 -.930E-05 0.930E-05   -.491E-06 -.116E-05 0.116E-05
   0.533E+00 -.192E-02 -.192E-02   -.534E+00 0.192E-02 0.192E-02   0.832E-03 0.117E-04 0.117E-04   -.478E-05 -.601E-05 -.601E-05
   -.299E+00 0.563E-03 0.563E-03   0.300E+00 -.575E-03 -.575E-03   -.633E-03 0.930E-05 0.930E-05   -.491E-06 0.116E-05 0.116E-05
 -----------------------------------------------------------------------------------------------
   0.759E-06 0.299E-12 -.500E-09   0.507E-13 -.469E-13 0.133E-12   -.110E-04 0.356E-19 -.661E-19   -.543E-06 -.692E-12 -.913E-12
 
 
 POSITION                                       TOTAL-FORCE (eV/Angst)
 -----------------------------------------------------------------------------------
      0.01000      0.00000      0.00000        -0.017967     -0.000000     -0.000000
      4.37139      0.00000      0.00000         0.000936     -0.000000     -0.000000
      0.00000      4.37139      0.00000        -0.000281      0.000000     -0.000000
      4.37139      4.37139      0.00000        -0.000498     -0.000000      0.000000
      0.00000      0.00000      4.37139        -0.000281      0.000000     -0.000000
      4.37139      0.00000      4.37139        -0.000498      0.000000      0.000000
      0.00000      4.37139      4.37139         0.000057      0.000000      0.000000
      4.37139      4.37139      4.37139        -0.000105     -0.000000     -0.000000
      2.18569      2.18569      0.00000         0.002073      0.002401      0.000000
      6.55708      2.18569      0.00000         0.001972     -0.002274     -0.000000
      2.18569      6.55708      0.00000         0.002073     -0.002401      0.000000
      6.55708      6.55708      0.00000         0.001972      0.002274     -0.000000
      2.18569      2.18569      4.37139         0.000225      0.000041      0.000000
      6.55708      2.18569      4.37139         0.000224     -0.000041      0.000000
      2.18569      6.55708      4.37139         0.000225     -0.000041      0.000000
      6.55708      6.55708      4.37139         0.000224      0.000041     -0.000000
      2.18569      0.00000      2.18569         0.002073      0.000000      0.002401
      6.55708      0.00000      2.18569         0.001972     -0.000000     -0.002274
      2.18569      4.37139      2.18569         0.000225     -0.000000      0.000041
      6.55708      4.37139      2.18569         0.000224     -0.000000     -0.000041
      2.18569      0.00000      6.55708         0.002073      0.000000     -0.002401
      6.55708      0.00000      6.55708         0.001972      0.000000      0.002274
      2.18569      4.37139      6.55708         0.000225      0.000000     -0.000041
      6.55708      4.37139      6.55708         0.000224      0.000000      0.000041
      0.00000      2.18569      2.18569        -0.000348     -0.000001     -0.000001
      4.37139      2.18569      2.18569         0.000513      0.000002      0.000002
      0.00000      6.55708      2.18569        -0.000348      0.000001     -0.000001
      4.37139      6.55708      2.18569         0.000513     -0.000002      0.000002
      0.00000      2.18569      6.55708        -0.000348     -0.000001      0.000001
      4.37139      2.18569      6.55708         0.000513      0.000002     -0.000002
      0.00000      6.55708      6.55708        -0.000348      0.000001      0.000001
      4.37139      6.55708      6.55708         0.000513     -0.000002     -0.000002
 -----------------------------------------------------------------------------------
    total drift:                               -0.000011     -0.000000     -0.000000


--------------------------------------------------------------------------------------------------------



 mean value of Nose-termostat <S>:     1.000 mean value of <T> :     0.000
 mean temperature <T/S>/<1/S>  :     0.000

     LOOP+:  VPU time57353.21: CPU time58384.42
  
  
 General timing and accounting informations for this job:
 ========================================================
  
                  Total CPU time used (sec):    57943.735
                            User time (sec):    56949.919
                          System time (sec):      993.816
                         Elapsed time (sec):    58976.246
  
                   Maximum memory used (kb):     9886656.
                   Average memory used (kb):           0.
  
                          Minor page faults:      4240230
                          Major page faults:       182723
                 Voluntary context switches:       285329
