<?xml version="1.0" encoding="ISO-8859-1"?>
<modeling>
 <generator>
  <i name="program" type="string">vasp</i>
  <i name="version" type="string">4.6.28 </i>
  <i name="subversion" type="string">25Jul05 complex  parallel</i>
  <i name="platform" type="string">LinuxIFC</i>
  <i name="date" type="string">2017 01 10</i>
  <i name="time" type="string">17:27:04</i>
 </generator>
 <incar>
  <i type="string" name="PREC">accurate</i>
  <i type="int" name="IALGO">    38</i>
  <i type="logical" name="ADDGRID"> T  </i>
  <i name="EDIFF">      0.00000001</i>
  <i type="int" name="IBRION">    -1</i>
  <i name="ENCUT">    750.00000000</i>
  <i type="logical" name="LREAL"> F  </i>
  <i type="int" name="ISMEAR">     0</i>
  <i name="SIGMA">      0.01000000</i>
  <i type="logical" name="LWAVE"> F  </i>
  <i type="logical" name="LCHARG"> F  </i>
 </incar>
 <kpoints>
  <generation param="Gamma">
   <v type="int" name="divisions">      12      12      12</v>
   <v name="usershift">      0.00000000      0.00000000      0.00000000</v>
   <v name="genvec1">      0.08333333      0.00000000      0.00000000</v>
   <v name="genvec2">      0.00000000      0.08333333      0.00000000</v>
   <v name="genvec3">      0.00000000      0.00000000      0.08333333</v>
   <v name="shift">      0.00000000      0.00000000      0.00000000</v>
  </generation>
  <varray name="kpointlist" >
   <v>       0.00000000      0.00000000      0.00000000</v>
   <v>       0.08333333      0.00000000      0.00000000</v>
   <v>       0.16666667      0.00000000      0.00000000</v>
   <v>       0.25000000      0.00000000      0.00000000</v>
   <v>       0.33333333      0.00000000      0.00000000</v>
   <v>       0.41666667      0.00000000      0.00000000</v>
   <v>       0.50000000      0.00000000      0.00000000</v>
   <v>       0.00000000      0.08333333      0.00000000</v>
   <v>       0.08333333      0.08333333      0.00000000</v>
   <v>       0.16666667      0.08333333      0.00000000</v>
   <v>       0.25000000      0.08333333      0.00000000</v>
   <v>       0.33333333      0.08333333      0.00000000</v>
   <v>       0.41666667      0.08333333      0.00000000</v>
   <v>       0.50000000      0.08333333      0.00000000</v>
   <v>       0.00000000      0.16666667      0.00000000</v>
   <v>       0.08333333      0.16666667      0.00000000</v>
   <v>       0.16666667      0.16666667      0.00000000</v>
   <v>       0.25000000      0.16666667      0.00000000</v>
   <v>       0.33333333      0.16666667      0.00000000</v>
   <v>       0.41666667      0.16666667      0.00000000</v>
   <v>       0.50000000      0.16666667      0.00000000</v>
   <v>       0.00000000      0.25000000      0.00000000</v>
   <v>       0.08333333      0.25000000      0.00000000</v>
   <v>       0.16666667      0.25000000      0.00000000</v>
   <v>       0.25000000      0.25000000      0.00000000</v>
   <v>       0.33333333      0.25000000      0.00000000</v>
   <v>       0.41666667      0.25000000      0.00000000</v>
   <v>       0.50000000      0.25000000      0.00000000</v>
   <v>       0.00000000      0.33333333      0.00000000</v>
   <v>       0.08333333      0.33333333      0.00000000</v>
   <v>       0.16666667      0.33333333      0.00000000</v>
   <v>       0.25000000      0.33333333      0.00000000</v>
   <v>       0.33333333      0.33333333      0.00000000</v>
   <v>       0.41666667      0.33333333      0.00000000</v>
   <v>       0.50000000      0.33333333      0.00000000</v>
   <v>       0.00000000      0.41666667      0.00000000</v>
   <v>       0.08333333      0.41666667      0.00000000</v>
   <v>       0.16666667      0.41666667      0.00000000</v>
   <v>       0.25000000      0.41666667      0.00000000</v>
   <v>       0.33333333      0.41666667      0.00000000</v>
   <v>       0.41666667      0.41666667      0.00000000</v>
   <v>       0.50000000      0.41666667      0.00000000</v>
   <v>       0.00000000      0.50000000      0.00000000</v>
   <v>       0.08333333      0.50000000      0.00000000</v>
   <v>       0.16666667      0.50000000      0.00000000</v>
   <v>       0.25000000      0.50000000      0.00000000</v>
   <v>       0.33333333      0.50000000      0.00000000</v>
   <v>       0.41666667      0.50000000      0.00000000</v>
   <v>       0.50000000      0.50000000      0.00000000</v>
   <v>       0.00000000      0.08333333      0.08333333</v>
   <v>       0.08333333      0.08333333      0.08333333</v>
   <v>       0.16666667      0.08333333      0.08333333</v>
   <v>       0.25000000      0.08333333      0.08333333</v>
   <v>       0.33333333      0.08333333      0.08333333</v>
   <v>       0.41666667      0.08333333      0.08333333</v>
   <v>       0.50000000      0.08333333      0.08333333</v>
   <v>       0.00000000      0.16666667      0.08333333</v>
   <v>       0.08333333      0.16666667      0.08333333</v>
   <v>       0.16666667      0.16666667      0.08333333</v>
   <v>       0.25000000      0.16666667      0.08333333</v>
   <v>       0.33333333      0.16666667      0.08333333</v>
   <v>       0.41666667      0.16666667      0.08333333</v>
   <v>       0.50000000      0.16666667      0.08333333</v>
   <v>       0.00000000      0.25000000      0.08333333</v>
   <v>       0.08333333      0.25000000      0.08333333</v>
   <v>       0.16666667      0.25000000      0.08333333</v>
   <v>       0.25000000      0.25000000      0.08333333</v>
   <v>       0.33333333      0.25000000      0.08333333</v>
   <v>       0.41666667      0.25000000      0.08333333</v>
   <v>       0.50000000      0.25000000      0.08333333</v>
   <v>       0.00000000      0.33333333      0.08333333</v>
   <v>       0.08333333      0.33333333      0.08333333</v>
   <v>       0.16666667      0.33333333      0.08333333</v>
   <v>       0.25000000      0.33333333      0.08333333</v>
   <v>       0.33333333      0.33333333      0.08333333</v>
   <v>       0.41666667      0.33333333      0.08333333</v>
   <v>       0.50000000      0.33333333      0.08333333</v>
   <v>       0.00000000      0.41666667      0.08333333</v>
   <v>       0.08333333      0.41666667      0.08333333</v>
   <v>       0.16666667      0.41666667      0.08333333</v>
   <v>       0.25000000      0.41666667      0.08333333</v>
   <v>       0.33333333      0.41666667      0.08333333</v>
   <v>       0.41666667      0.41666667      0.08333333</v>
   <v>       0.50000000      0.41666667      0.08333333</v>
   <v>       0.00000000      0.50000000      0.08333333</v>
   <v>       0.08333333      0.50000000      0.08333333</v>
   <v>       0.16666667      0.50000000      0.08333333</v>
   <v>       0.25000000      0.50000000      0.08333333</v>
   <v>       0.33333333      0.50000000      0.08333333</v>
   <v>       0.41666667      0.50000000      0.08333333</v>
   <v>       0.50000000      0.50000000      0.08333333</v>
   <v>       0.00000000      0.16666667      0.16666667</v>
   <v>       0.08333333      0.16666667      0.16666667</v>
   <v>       0.16666667      0.16666667      0.16666667</v>
   <v>       0.25000000      0.16666667      0.16666667</v>
   <v>       0.33333333      0.16666667      0.16666667</v>
   <v>       0.41666667      0.16666667      0.16666667</v>
   <v>       0.50000000      0.16666667      0.16666667</v>
   <v>       0.00000000      0.25000000      0.16666667</v>
   <v>       0.08333333      0.25000000      0.16666667</v>
   <v>       0.16666667      0.25000000      0.16666667</v>
   <v>       0.25000000      0.25000000      0.16666667</v>
   <v>       0.33333333      0.25000000      0.16666667</v>
   <v>       0.41666667      0.25000000      0.16666667</v>
   <v>       0.50000000      0.25000000      0.16666667</v>
   <v>       0.00000000      0.33333333      0.16666667</v>
   <v>       0.08333333      0.33333333      0.16666667</v>
   <v>       0.16666667      0.33333333      0.16666667</v>
   <v>       0.25000000      0.33333333      0.16666667</v>
   <v>       0.33333333      0.33333333      0.16666667</v>
   <v>       0.41666667      0.33333333      0.16666667</v>
   <v>       0.50000000      0.33333333      0.16666667</v>
   <v>       0.00000000      0.41666667      0.16666667</v>
   <v>       0.08333333      0.41666667      0.16666667</v>
   <v>       0.16666667      0.41666667      0.16666667</v>
   <v>       0.25000000      0.41666667      0.16666667</v>
   <v>       0.33333333      0.41666667      0.16666667</v>
   <v>       0.41666667      0.41666667      0.16666667</v>
   <v>       0.50000000      0.41666667      0.16666667</v>
   <v>       0.00000000      0.50000000      0.16666667</v>
   <v>       0.08333333      0.50000000      0.16666667</v>
   <v>       0.16666667      0.50000000      0.16666667</v>
   <v>       0.25000000      0.50000000      0.16666667</v>
   <v>       0.33333333      0.50000000      0.16666667</v>
   <v>       0.41666667      0.50000000      0.16666667</v>
   <v>       0.50000000      0.50000000      0.16666667</v>
   <v>       0.00000000      0.25000000      0.25000000</v>
   <v>       0.08333333      0.25000000      0.25000000</v>
   <v>       0.16666667      0.25000000      0.25000000</v>
   <v>       0.25000000      0.25000000      0.25000000</v>
   <v>       0.33333333      0.25000000      0.25000000</v>
   <v>       0.41666667      0.25000000      0.25000000</v>
   <v>       0.50000000      0.25000000      0.25000000</v>
   <v>       0.00000000      0.33333333      0.25000000</v>
   <v>       0.08333333      0.33333333      0.25000000</v>
   <v>       0.16666667      0.33333333      0.25000000</v>
   <v>       0.25000000      0.33333333      0.25000000</v>
   <v>       0.33333333      0.33333333      0.25000000</v>
   <v>       0.41666667      0.33333333      0.25000000</v>
   <v>       0.50000000      0.33333333      0.25000000</v>
   <v>       0.00000000      0.41666667      0.25000000</v>
   <v>       0.08333333      0.41666667      0.25000000</v>
   <v>       0.16666667      0.41666667      0.25000000</v>
   <v>       0.25000000      0.41666667      0.25000000</v>
   <v>       0.33333333      0.41666667      0.25000000</v>
   <v>       0.41666667      0.41666667      0.25000000</v>
   <v>       0.50000000      0.41666667      0.25000000</v>
   <v>       0.00000000      0.50000000      0.25000000</v>
   <v>       0.08333333      0.50000000      0.25000000</v>
   <v>       0.16666667      0.50000000      0.25000000</v>
   <v>       0.25000000      0.50000000      0.25000000</v>
   <v>       0.33333333      0.50000000      0.25000000</v>
   <v>       0.41666667      0.50000000      0.25000000</v>
   <v>       0.50000000      0.50000000      0.25000000</v>
   <v>       0.00000000      0.33333333      0.33333333</v>
   <v>       0.08333333      0.33333333      0.33333333</v>
   <v>       0.16666667      0.33333333      0.33333333</v>
   <v>       0.25000000      0.33333333      0.33333333</v>
   <v>       0.33333333      0.33333333      0.33333333</v>
   <v>       0.41666667      0.33333333      0.33333333</v>
   <v>       0.50000000      0.33333333      0.33333333</v>
   <v>       0.00000000      0.41666667      0.33333333</v>
   <v>       0.08333333      0.41666667      0.33333333</v>
   <v>       0.16666667      0.41666667      0.33333333</v>
   <v>       0.25000000      0.41666667      0.33333333</v>
   <v>       0.33333333      0.41666667      0.33333333</v>
   <v>       0.41666667      0.41666667      0.33333333</v>
   <v>       0.50000000      0.41666667      0.33333333</v>
   <v>       0.00000000      0.50000000      0.33333333</v>
   <v>       0.08333333      0.50000000      0.33333333</v>
   <v>       0.16666667      0.50000000      0.33333333</v>
   <v>       0.25000000      0.50000000      0.33333333</v>
   <v>       0.33333333      0.50000000      0.33333333</v>
   <v>       0.41666667      0.50000000      0.33333333</v>
   <v>       0.50000000      0.50000000      0.33333333</v>
   <v>       0.00000000      0.41666667      0.41666667</v>
   <v>       0.08333333      0.41666667      0.41666667</v>
   <v>       0.16666667      0.41666667      0.41666667</v>
   <v>       0.25000000      0.41666667      0.41666667</v>
   <v>       0.33333333      0.41666667      0.41666667</v>
   <v>       0.41666667      0.41666667      0.41666667</v>
   <v>       0.50000000      0.41666667      0.41666667</v>
   <v>       0.00000000      0.50000000      0.41666667</v>
   <v>       0.08333333      0.50000000      0.41666667</v>
   <v>       0.16666667      0.50000000      0.41666667</v>
   <v>       0.25000000      0.50000000      0.41666667</v>
   <v>       0.33333333      0.50000000      0.41666667</v>
   <v>       0.41666667      0.50000000      0.41666667</v>
   <v>       0.50000000      0.50000000      0.41666667</v>
   <v>       0.00000000      0.50000000      0.50000000</v>
   <v>       0.08333333      0.50000000      0.50000000</v>
   <v>       0.16666667      0.50000000      0.50000000</v>
   <v>       0.25000000      0.50000000      0.50000000</v>
   <v>       0.33333333      0.50000000      0.50000000</v>
   <v>       0.41666667      0.50000000      0.50000000</v>
   <v>       0.50000000      0.50000000      0.50000000</v>
  </varray>
  <varray name="weights" >
   <v>       0.00057870</v>
   <v>       0.00115741</v>
   <v>       0.00115741</v>
   <v>       0.00115741</v>
   <v>       0.00115741</v>
   <v>       0.00115741</v>
   <v>       0.00057870</v>
   <v>       0.00231481</v>
   <v>       0.00462963</v>
   <v>       0.00462963</v>
   <v>       0.00462963</v>
   <v>       0.00462963</v>
   <v>       0.00462963</v>
   <v>       0.00231481</v>
   <v>       0.00231481</v>
   <v>       0.00462963</v>
   <v>       0.00462963</v>
   <v>       0.00462963</v>
   <v>       0.00462963</v>
   <v>       0.00462963</v>
   <v>       0.00231481</v>
   <v>       0.00231481</v>
   <v>       0.00462963</v>
   <v>       0.00462963</v>
   <v>       0.00462963</v>
   <v>       0.00462963</v>
   <v>       0.00462963</v>
   <v>       0.00231481</v>
   <v>       0.00231481</v>
   <v>       0.00462963</v>
   <v>       0.00462963</v>
   <v>       0.00462963</v>
   <v>       0.00462963</v>
   <v>       0.00462963</v>
   <v>       0.00231481</v>
   <v>       0.00231481</v>
   <v>       0.00462963</v>
   <v>       0.00462963</v>
   <v>       0.00462963</v>
   <v>       0.00462963</v>
   <v>       0.00462963</v>
   <v>       0.00231481</v>
   <v>       0.00115741</v>
   <v>       0.00231481</v>
   <v>       0.00231481</v>
   <v>       0.00231481</v>
   <v>       0.00231481</v>
   <v>       0.00231481</v>
   <v>       0.00115741</v>
   <v>       0.00231481</v>
   <v>       0.00462963</v>
   <v>       0.00462963</v>
   <v>       0.00462963</v>
   <v>       0.00462963</v>
   <v>       0.00462963</v>
   <v>       0.00231481</v>
   <v>       0.00462963</v>
   <v>       0.00925926</v>
   <v>       0.00925926</v>
   <v>       0.00925926</v>
   <v>       0.00925926</v>
   <v>       0.00925926</v>
   <v>       0.00462963</v>
   <v>       0.00462963</v>
   <v>       0.00925926</v>
   <v>       0.00925926</v>
   <v>       0.00925926</v>
   <v>       0.00925926</v>
   <v>       0.00925926</v>
   <v>       0.00462963</v>
   <v>       0.00462963</v>
   <v>       0.00925926</v>
   <v>       0.00925926</v>
   <v>       0.00925926</v>
   <v>       0.00925926</v>
   <v>       0.00925926</v>
   <v>       0.00462963</v>
   <v>       0.00462963</v>
   <v>       0.00925926</v>
   <v>       0.00925926</v>
   <v>       0.00925926</v>
   <v>       0.00925926</v>
   <v>       0.00925926</v>
   <v>       0.00462963</v>
   <v>       0.00231481</v>
   <v>       0.00462963</v>
   <v>       0.00462963</v>
   <v>       0.00462963</v>
   <v>       0.00462963</v>
   <v>       0.00462963</v>
   <v>       0.00231481</v>
   <v>       0.00231481</v>
   <v>       0.00462963</v>
   <v>       0.00462963</v>
   <v>       0.00462963</v>
   <v>       0.00462963</v>
   <v>       0.00462963</v>
   <v>       0.00231481</v>
   <v>       0.00462963</v>
   <v>       0.00925926</v>
   <v>       0.00925926</v>
   <v>       0.00925926</v>
   <v>       0.00925926</v>
   <v>       0.00925926</v>
   <v>       0.00462963</v>
   <v>       0.00462963</v>
   <v>       0.00925926</v>
   <v>       0.00925926</v>
   <v>       0.00925926</v>
   <v>       0.00925926</v>
   <v>       0.00925926</v>
   <v>       0.00462963</v>
   <v>       0.00462963</v>
   <v>       0.00925926</v>
   <v>       0.00925926</v>
   <v>       0.00925926</v>
   <v>       0.00925926</v>
   <v>       0.00925926</v>
   <v>       0.00462963</v>
   <v>       0.00231481</v>
   <v>       0.00462963</v>
   <v>       0.00462963</v>
   <v>       0.00462963</v>
   <v>       0.00462963</v>
   <v>       0.00462963</v>
   <v>       0.00231481</v>
   <v>       0.00231481</v>
   <v>       0.00462963</v>
   <v>       0.00462963</v>
   <v>       0.00462963</v>
   <v>       0.00462963</v>
   <v>       0.00462963</v>
   <v>       0.00231481</v>
   <v>       0.00462963</v>
   <v>       0.00925926</v>
   <v>       0.00925926</v>
   <v>       0.00925926</v>
   <v>       0.00925926</v>
   <v>       0.00925926</v>
   <v>       0.00462963</v>
   <v>       0.00462963</v>
   <v>       0.00925926</v>
   <v>       0.00925926</v>
   <v>       0.00925926</v>
   <v>       0.00925926</v>
   <v>       0.00925926</v>
   <v>       0.00462963</v>
   <v>       0.00231481</v>
   <v>       0.00462963</v>
   <v>       0.00462963</v>
   <v>       0.00462963</v>
   <v>       0.00462963</v>
   <v>       0.00462963</v>
   <v>       0.00231481</v>
   <v>       0.00231481</v>
   <v>       0.00462963</v>
   <v>       0.00462963</v>
   <v>       0.00462963</v>
   <v>       0.00462963</v>
   <v>       0.00462963</v>
   <v>       0.00231481</v>
   <v>       0.00462963</v>
   <v>       0.00925926</v>
   <v>       0.00925926</v>
   <v>       0.00925926</v>
   <v>       0.00925926</v>
   <v>       0.00925926</v>
   <v>       0.00462963</v>
   <v>       0.00231481</v>
   <v>       0.00462963</v>
   <v>       0.00462963</v>
   <v>       0.00462963</v>
   <v>       0.00462963</v>
   <v>       0.00462963</v>
   <v>       0.00231481</v>
   <v>       0.00231481</v>
   <v>       0.00462963</v>
   <v>       0.00462963</v>
   <v>       0.00462963</v>
   <v>       0.00462963</v>
   <v>       0.00462963</v>
   <v>       0.00231481</v>
   <v>       0.00231481</v>
   <v>       0.00462963</v>
   <v>       0.00462963</v>
   <v>       0.00462963</v>
   <v>       0.00462963</v>
   <v>       0.00462963</v>
   <v>       0.00231481</v>
   <v>       0.00057870</v>
   <v>       0.00115741</v>
   <v>       0.00115741</v>
   <v>       0.00115741</v>
   <v>       0.00115741</v>
   <v>       0.00115741</v>
   <v>       0.00057870</v>
  </varray>
 </kpoints>
 <parameters>
  <separator name="general" >
   <i type="string" name="SYSTEM">unknown system</i>
   <i type="logical" name="LCOMPAT"> F  </i>
  </separator>
  <separator name="electronic" >
   <i type="string" name="PREC">accura</i>
   <i name="ENMAX">    750.00000000</i>
   <i name="ENAUG">    412.49600000</i>
   <i name="EDIFF">      0.00000001</i>
   <i type="int" name="IALGO">    38</i>
   <i type="int" name="IWAVPR">    10</i>
   <i type="int" name="NBANDS">   211</i>
   <i name="NELECT">    352.00000000</i>
   <separator name="electronic smearing" >
    <i type="int" name="ISMEAR">     0</i>
    <i name="SIGMA">      0.01000000</i>
   </separator>
   <separator name="electronic projectors" >
    <i type="logical" name="LREAL"> F  </i>
    <v name="ROPT">      0.00000000</v>
    <i type="int" name="LMAXPAW">  -100</i>
    <i type="int" name="LMAXMIX">     2</i>
   </separator>
   <separator name="electronic startup" >
    <i type="int" name="ISTART">     0</i>
    <i type="int" name="ICHARG">     2</i>
    <i type="int" name="INIWAV">     1</i>
   </separator>
   <separator name="electronic spin" >
    <i type="int" name="ISPIN">     1</i>
    <i type="logical" name="LNONCOLLINEAR"> F  </i>
    <v name="MAGMOM">      1.00000000      1.00000000      1.00000000      1.00000000      1.00000000      1.00000000      1.00000000      1.00000000      1.00000000      1.00000000      1.00000000      1.00000000      1.00000000      1.00000000      1.00000000      1.00000000      1.00000000      1.00000000      1.00000000      1.00000000
      1.00000000      1.00000000      1.00000000      1.00000000      1.00000000      1.00000000      1.00000000      1.00000000      1.00000000      1.00000000      1.00000000      1.00000000</v>
    <i name="NUPDOWN">     -1.00000000</i>
    <i type="logical" name="LSORBIT"> F  </i>
    <v name="SAXIS">      0.00000000      0.00000000      1.00000000</v>
    <i type="logical" name="LSPIRAL"> F  </i>
    <v name="QSPIRAL">      0.00000000      0.00000000      0.00000000</v>
    <i type="logical" name="LZEROZ"> F  </i>
   </separator>
   <separator name="electronic exchange-correlation" >
    <i type="string" name="GGA">--</i>
    <i type="int" name="VOSKOWN">     0</i>
    <i type="logical" name="LASPH"> F  </i>
    <i type="logical" name="LMETAGGA"> F  </i>
    <i type="string" name="GGA2">--</i>
   </separator>
   <separator name="electronic convergence" >
    <i type="int" name="NELM">    60</i>
    <i type="int" name="NELMDL">     0</i>
    <i type="int" name="NELMIN">     2</i>
    <i name="ENINI">    750.00000000</i>
    <separator name="electronic convergence detail" >
     <i type="logical" name="LDIAG"> T  </i>
     <i name="WEIMIN">      0.00000000</i>
     <i name="EBREAK">      0.00000000</i>
     <i name="DEPER">      0.30000000</i>
     <i type="int" name="NRMM">     4</i>
     <i name="TIME">      0.10000000</i>
    </separator>
   </separator>
   <separator name="electronic mixer" >
    <i name="AMIX">      0.40000000</i>
    <i name="BMIX">      1.00000000</i>
    <i name="AMIN">      0.10000000</i>
    <i name="AMIX_MAG">      1.60000000</i>
    <i name="BMIX_MAG">      1.00000000</i>
    <separator name="electronic mixer details" >
     <i type="int" name="IMIX">     4</i>
     <i type="int" name="MAXMIX">   -45</i>
     <i name="WC">    100.00000000</i>
     <i type="int" name="INIMIX">     1</i>
     <i type="int" name="MIXPRE">     1</i>
     <i type="int" name="MREMOVE">     5</i>
    </separator>
   </separator>
   <separator name="electronic dipolcorrection" >
    <i type="int" name="IDIPOL">     0</i>
    <i type="logical" name="LDIPOL"> F  </i>
    <v name="DIPOL">   -100.00000000</v>
    <i name="EFIELD">      0.00000000</i>
   </separator>
  </separator>
  <separator name="grids" >
   <i type="int" name="NGX">    80</i>
   <i type="int" name="NGY">    80</i>
   <i type="int" name="NGZ">    80</i>
   <i type="int" name="NGXF">   160</i>
   <i type="int" name="NGYF">   160</i>
   <i type="int" name="NGZF">   160</i>
   <i type="logical" name="ADDGRID"> T  </i>
  </separator>
  <separator name="ionic" >
   <i type="int" name="NSW">     0</i>
   <i type="int" name="IBRION">    -1</i>
   <i type="int" name="ISIF">     2</i>
   <i name="PSTRESS">      0.00000000</i>
   <i name="EDIFFG">      0.00000010</i>
   <i type="int" name="NFREE">     0</i>
   <i name="POTIM">      0.50000000</i>
   <i name="SMASS">     -3.00000000</i>
  </separator>
  <separator name="ionic md" >
   <i name="TEBEG">      0.00010000</i>
   <i name="TEEND">      0.00010000</i>
   <i type="int" name="NBLOCK">     1</i>
   <i type="int" name="KBLOCK">     1</i>
   <i type="int" name="NPACO">   256</i>
   <i name="APACO">     16.00000000</i>
  </separator>
  <separator name="symmetry" >
   <i type="int" name="ISYM">     2</i>
   <i name="SYMPREC">      0.00001000</i>
  </separator>
  <separator name="dos" >
   <i type="logical" name="LORBIT"> F  </i>
   <v name="RWIGS">     -1.00000000</v>
   <i type="int" name="NEDOS">   301</i>
   <i name="EMIN">     10.00000000</i>
   <i name="EMAX">    -10.00000000</i>
  </separator>
  <separator name="writing" >
   <i type="int" name="NWRITE">     2</i>
   <i type="logical" name="LWAVE"> F  </i>
   <i type="logical" name="LCHARG"> F  </i>
   <i type="logical" name="LPARD"> F  </i>
   <i type="logical" name="LVTOT"> F  </i>
   <i type="logical" name="LELF"> F  </i>
   <i type="logical" name="LOPTICS"> F  </i>
   <i name="STM">      0.00000000</i>
  </separator>
  <separator name="performance" >
   <i type="int" name="NPAR">     4</i>
   <i type="int" name="NSIM">     4</i>
   <i type="int" name="NBLK">   256</i>
   <i type="logical" name="LPLANE"> T  </i>
   <i type="logical" name="LCRITICAL_MEM"> F  </i>
   <i type="logical" name="LSCALAPACK"> F  </i>
   <i type="logical" name="LSCALU"> F  </i>
   <i type="logical" name="LASYNC"> F  </i>
  </separator>
  <separator name="miscellaneous" >
   <i type="int" name="IDIOT">     3</i>
   <i type="logical" name="LMUSIC"> F  </i>
   <v name="POMASS">    107.86800000</v>
   <i type="logical" name="LCORR"> T  </i>
  </separator>
  <i type="logical" name="LREAL_COMPAT"> F  </i>
  <i type="logical" name="GGA_COMPAT"> T  </i>
  <i type="logical" name="LBERRY"> F  </i>
  <i type="int" name="ICORELEVEL">     0</i>
  <i type="logical" name="LDAU"> F  </i>
  <i type="int" name="I_CONSTRAINED_M">     0</i>
 </parameters>
 <atominfo>
  <atoms>      32</atoms>
  <types>       1</types>
  <array name="atoms" >
   <dimension dim="1">ion</dimension>
   <field type="string">element</field>
   <field type="int">atomtype</field>
   <set>
    <rc><c>Ag</c><c>   1</c></rc>
    <rc><c>Ag</c><c>   1</c></rc>
    <rc><c>Ag</c><c>   1</c></rc>
    <rc><c>Ag</c><c>   1</c></rc>
    <rc><c>Ag</c><c>   1</c></rc>
    <rc><c>Ag</c><c>   1</c></rc>
    <rc><c>Ag</c><c>   1</c></rc>
    <rc><c>Ag</c><c>   1</c></rc>
    <rc><c>Ag</c><c>   1</c></rc>
    <rc><c>Ag</c><c>   1</c></rc>
    <rc><c>Ag</c><c>   1</c></rc>
    <rc><c>Ag</c><c>   1</c></rc>
    <rc><c>Ag</c><c>   1</c></rc>
    <rc><c>Ag</c><c>   1</c></rc>
    <rc><c>Ag</c><c>   1</c></rc>
    <rc><c>Ag</c><c>   1</c></rc>
    <rc><c>Ag</c><c>   1</c></rc>
    <rc><c>Ag</c><c>   1</c></rc>
    <rc><c>Ag</c><c>   1</c></rc>
    <rc><c>Ag</c><c>   1</c></rc>
    <rc><c>Ag</c><c>   1</c></rc>
    <rc><c>Ag</c><c>   1</c></rc>
    <rc><c>Ag</c><c>   1</c></rc>
    <rc><c>Ag</c><c>   1</c></rc>
    <rc><c>Ag</c><c>   1</c></rc>
    <rc><c>Ag</c><c>   1</c></rc>
    <rc><c>Ag</c><c>   1</c></rc>
    <rc><c>Ag</c><c>   1</c></rc>
    <rc><c>Ag</c><c>   1</c></rc>
    <rc><c>Ag</c><c>   1</c></rc>
    <rc><c>Ag</c><c>   1</c></rc>
    <rc><c>Ag</c><c>   1</c></rc>
   </set>
  </array>
  <array name="atomtypes" >
   <dimension dim="1">type</dimension>
   <field type="int">atomspertype</field>
   <field type="string">element</field>
   <field>mass</field>
   <field>valence</field>
   <field type="string">pseudopotential</field>
   <set>
    <rc><c>  32</c><c>Ag</c><c>    107.86800000</c><c>     11.00000000</c><c> PAW_PBE Ag 06Sep2000                   </c></rc>
   </set>
  </array>
 </atominfo>
 <structure name="initialpos" >
  <crystal>
   <varray name="basis" >
    <v>       8.74277204      0.00000000      0.00000000</v>
    <v>       0.00000000      8.74277204      0.00000000</v>
    <v>       0.00000000      0.00000000      8.74277204</v>
   </varray>
   <i name="volume">    668.26307427</i>
   <varray name="rec_basis" >
    <v>       0.11438020      0.00000000      0.00000000</v>
    <v>       0.00000000      0.11438020      0.00000000</v>
    <v>       0.00000000      0.00000000      0.11438020</v>
   </varray>
  </crystal>
  <varray name="positions" >
   <v>       0.00114380      0.00000000      0.00000000</v>
   <v>       0.50000000      0.00000000      0.00000000</v>
   <v>       0.00000000      0.50000000      0.00000000</v>
   <v>       0.50000000      0.50000000      0.00000000</v>
   <v>       0.00000000      0.00000000      0.50000000</v>
   <v>       0.50000000      0.00000000      0.50000000</v>
   <v>       0.00000000      0.50000000      0.50000000</v>
   <v>       0.50000000      0.50000000      0.50000000</v>
   <v>       0.25000000      0.25000000      0.00000000</v>
   <v>       0.75000000      0.25000000      0.00000000</v>
   <v>       0.25000000      0.75000000      0.00000000</v>
   <v>       0.75000000      0.75000000      0.00000000</v>
   <v>       0.25000000      0.25000000      0.50000000</v>
   <v>       0.75000000      0.25000000      0.50000000</v>
   <v>       0.25000000      0.75000000      0.50000000</v>
   <v>       0.75000000      0.75000000      0.50000000</v>
   <v>       0.25000000      0.00000000      0.25000000</v>
   <v>       0.75000000      0.00000000      0.25000000</v>
   <v>       0.25000000      0.50000000      0.25000000</v>
   <v>       0.75000000      0.50000000      0.25000000</v>
   <v>       0.25000000      0.00000000      0.75000000</v>
   <v>       0.75000000      0.00000000      0.75000000</v>
   <v>       0.25000000      0.50000000      0.75000000</v>
   <v>       0.75000000      0.50000000      0.75000000</v>
   <v>       0.00000000      0.25000000      0.25000000</v>
   <v>       0.50000000      0.25000000      0.25000000</v>
   <v>       0.00000000      0.75000000      0.25000000</v>
   <v>       0.50000000      0.75000000      0.25000000</v>
   <v>       0.00000000      0.25000000      0.75000000</v>
   <v>       0.50000000      0.25000000      0.75000000</v>
   <v>       0.00000000      0.75000000      0.75000000</v>
   <v>       0.50000000      0.75000000      0.75000000</v>
  </varray>
 </structure>
 <calculation>
  <scstep>
   <time name="dav"> 3716.46 3726.87</time>
   <time name="total"> 3718.49 3728.90</time>
   <energy>
    <i name="alphaZ">   2721.07767126</i>
    <i name="ewald"> -29239.39230251</i>
    <i name="hartreedc">  -7501.16269958</i>
    <i name="XCdc">   -358.23006464</i>
    <i name="pawpsdc">  27861.41421209</i>
    <i name="pawaedc"> -26376.63839568</i>
    <i name="eentropy">     -0.00045243</i>
    <i name="bandstr">   3736.31176657</i>
    <i name="atom">  33197.19690173</i>
    <i name="e_fr_energy">   4040.57663682</i>
    <i name="e_wo_entrp">   4040.57708924</i>
    <i name="e_0_energy">   4040.57686303</i>
   </energy>
  </scstep>
  <scstep>
   <time name="dav"> 3717.84 3724.80</time>
   <time name="total"> 3718.04 3725.00</time>
   <energy>
    <i name="e_fr_energy">    113.58594644</i>
    <i name="e_wo_entrp">    113.58634599</i>
    <i name="e_0_energy">    113.58614621</i>
   </energy>
  </scstep>
  <scstep>
   <time name="dav"> 3838.11 3844.48</time>
   <time name="total"> 3838.31 3844.75</time>
   <energy>
    <i name="e_fr_energy">    -88.74402298</i>
    <i name="e_wo_entrp">    -88.74356816</i>
    <i name="e_0_energy">    -88.74379557</i>
   </energy>
  </scstep>
  <scstep>
   <time name="dav"> 3145.12 3151.26</time>
   <time name="total"> 3145.31 3151.49</time>
   <energy>
    <i name="e_fr_energy">    -93.15104699</i>
    <i name="e_wo_entrp">    -93.15046971</i>
    <i name="e_0_energy">    -93.15075835</i>
   </energy>
  </scstep>
  <scstep>
   <time name="dav"> 3561.33 3568.95</time>
   <time name="total"> 3691.49 3701.41</time>
   <energy>
    <i name="e_fr_energy">    -93.18438758</i>
    <i name="e_wo_entrp">    -93.18381002</i>
    <i name="e_0_energy">    -93.18409880</i>
   </energy>
  </scstep>
  <scstep>
   <time name="dav"> 3758.82 3774.91</time>
   <time name="total"> 3901.58 4053.99</time>
   <energy>
    <i name="e_fr_energy">    -87.76016521</i>
    <i name="e_wo_entrp">    -87.75946764</i>
    <i name="e_0_energy">    -87.75981643</i>
   </energy>
  </scstep>
  <scstep>
   <time name="dav"> 4314.94 4909.63</time>
   <time name="total"> 4448.64 5072.09</time>
   <energy>
    <i name="e_fr_energy">    -87.68805144</i>
    <i name="e_wo_entrp">    -87.68736850</i>
    <i name="e_0_energy">    -87.68770997</i>
   </energy>
  </scstep>
  <scstep>
   <time name="dav"> 3842.28 3931.08</time>
   <time name="total"> 3977.39 4071.97</time>
   <energy>
    <i name="e_fr_energy">    -87.64669395</i>
    <i name="e_wo_entrp">    -87.64601360</i>
    <i name="e_0_energy">    -87.64635377</i>
   </energy>
  </scstep>
  <scstep>
   <time name="dav"> 3848.17 3863.83</time>
   <time name="total"> 3981.71 4002.05</time>
   <energy>
    <i name="e_fr_energy">    -87.64755132</i>
    <i name="e_wo_entrp">    -87.64686496</i>
    <i name="e_0_energy">    -87.64720814</i>
   </energy>
  </scstep>
  <scstep>
   <time name="dav"> 3803.03 3812.95</time>
   <time name="total"> 3938.39 3950.55</time>
   <energy>
    <i name="e_fr_energy">    -87.64755449</i>
    <i name="e_wo_entrp">    -87.64686798</i>
    <i name="e_0_energy">    -87.64721123</i>
   </energy>
  </scstep>
  <scstep>
   <time name="dav"> 3859.79 3867.75</time>
   <time name="total"> 3994.23 4004.81</time>
   <energy>
    <i name="e_fr_energy">    -87.64755299</i>
    <i name="e_wo_entrp">    -87.64686650</i>
    <i name="e_0_energy">    -87.64720975</i>
   </energy>
  </scstep>
  <scstep>
   <time name="dav"> 3825.32 3833.69</time>
   <time name="total"> 3960.38 3971.09</time>
   <energy>
    <i name="e_fr_energy">    -87.64755012</i>
    <i name="e_wo_entrp">    -87.64686357</i>
    <i name="e_0_energy">    -87.64720685</i>
   </energy>
  </scstep>
  <scstep>
   <time name="dav"> 3494.40 3528.43</time>
   <time name="total"> 3626.95 3663.71</time>
   <energy>
    <i name="e_fr_energy">    -87.64754838</i>
    <i name="e_wo_entrp">    -87.64686180</i>
    <i name="e_0_energy">    -87.64720509</i>
   </energy>
  </scstep>
  <scstep>
   <time name="dav"> 2428.96 2445.23</time>
   <time name="total"> 2431.25 2447.71</time>
   <energy>
    <i name="alphaZ">   2721.07767126</i>
    <i name="ewald"> -29239.39230251</i>
    <i name="hartreedc">  -7163.59839121</i>
    <i name="XCdc">   -370.94226385</i>
    <i name="pawpsdc">  27526.93108655</i>
    <i name="pawaedc"> -26088.37402894</i>
    <i name="eentropy">     -0.00068659</i>
    <i name="bandstr">   -670.54553482</i>
    <i name="atom">  33197.19690173</i>
    <i name="e_fr_energy">    -87.64754838</i>
    <i name="e_wo_entrp">    -87.64686179</i>
    <i name="e_0_energy">    -87.64720509</i>
   </energy>
  </scstep>
  <structure>
   <crystal>
    <varray name="basis" >
     <v>       8.74277204      0.00000000      0.00000000</v>
     <v>       0.00000000      8.74277204      0.00000000</v>
     <v>       0.00000000      0.00000000      8.74277204</v>
    </varray>
    <i name="volume">    668.26307427</i>
    <varray name="rec_basis" >
     <v>       0.11438020      0.00000000      0.00000000</v>
     <v>       0.00000000      0.11438020      0.00000000</v>
     <v>       0.00000000      0.00000000      0.11438020</v>
    </varray>
   </crystal>
   <varray name="positions" >
    <v>       0.00114380      0.00000000      0.00000000</v>
    <v>       0.50000000      0.00000000      0.00000000</v>
    <v>       0.00000000      0.50000000      0.00000000</v>
    <v>       0.50000000      0.50000000      0.00000000</v>
    <v>       0.00000000      0.00000000      0.50000000</v>
    <v>       0.50000000      0.00000000      0.50000000</v>
    <v>       0.00000000      0.50000000      0.50000000</v>
    <v>       0.50000000      0.50000000      0.50000000</v>
    <v>       0.25000000      0.25000000      0.00000000</v>
    <v>       0.75000000      0.25000000      0.00000000</v>
    <v>       0.25000000      0.75000000      0.00000000</v>
    <v>       0.75000000      0.75000000      0.00000000</v>
    <v>       0.25000000      0.25000000      0.50000000</v>
    <v>       0.75000000      0.25000000      0.50000000</v>
    <v>       0.25000000      0.75000000      0.50000000</v>
    <v>       0.75000000      0.75000000      0.50000000</v>
    <v>       0.25000000      0.00000000      0.25000000</v>
    <v>       0.75000000      0.00000000      0.25000000</v>
    <v>       0.25000000      0.50000000      0.25000000</v>
    <v>       0.75000000      0.50000000      0.25000000</v>
    <v>       0.25000000      0.00000000      0.75000000</v>
    <v>       0.75000000      0.00000000      0.75000000</v>
    <v>       0.25000000      0.50000000      0.75000000</v>
    <v>       0.75000000      0.50000000      0.75000000</v>
    <v>       0.00000000      0.25000000      0.25000000</v>
    <v>       0.50000000      0.25000000      0.25000000</v>
    <v>       0.00000000      0.75000000      0.25000000</v>
    <v>       0.50000000      0.75000000      0.25000000</v>
    <v>       0.00000000      0.25000000      0.75000000</v>
    <v>       0.50000000      0.25000000      0.75000000</v>
    <v>       0.00000000      0.75000000      0.75000000</v>
    <v>       0.50000000      0.75000000      0.75000000</v>
   </varray>
  </structure>
  <varray name="forces" >
   <v>      -0.01796729     -0.00000000     -0.00000000</v>
   <v>       0.00093558     -0.00000000     -0.00000000</v>
   <v>      -0.00028126      0.00000000     -0.00000000</v>
   <v>      -0.00049767     -0.00000000      0.00000000</v>
   <v>      -0.00028126      0.00000000     -0.00000000</v>
   <v>      -0.00049767      0.00000000      0.00000000</v>
   <v>       0.00005708      0.00000000      0.00000000</v>
   <v>      -0.00010456     -0.00000000     -0.00000000</v>
   <v>       0.00207295      0.00240078      0.00000000</v>
   <v>       0.00197170     -0.00227394     -0.00000000</v>
   <v>       0.00207295     -0.00240078      0.00000000</v>
   <v>       0.00197170      0.00227394     -0.00000000</v>
   <v>       0.00022519      0.00004149      0.00000000</v>
   <v>       0.00022442     -0.00004114      0.00000000</v>
   <v>       0.00022519     -0.00004149      0.00000000</v>
   <v>       0.00022442      0.00004114     -0.00000000</v>
   <v>       0.00207295      0.00000000      0.00240078</v>
   <v>       0.00197170     -0.00000000     -0.00227394</v>
   <v>       0.00022519     -0.00000000      0.00004149</v>
   <v>       0.00022442     -0.00000000     -0.00004114</v>
   <v>       0.00207295      0.00000000     -0.00240078</v>
   <v>       0.00197170      0.00000000      0.00227394</v>
   <v>       0.00022519      0.00000000     -0.00004149</v>
   <v>       0.00022442      0.00000000      0.00004114</v>
   <v>      -0.00034825     -0.00000129     -0.00000129</v>
   <v>       0.00051325      0.00000178      0.00000178</v>
   <v>      -0.00034825      0.00000129     -0.00000129</v>
   <v>       0.00051325     -0.00000178      0.00000178</v>
   <v>      -0.00034825     -0.00000129      0.00000129</v>
   <v>       0.00051325      0.00000178     -0.00000178</v>
   <v>      -0.00034825      0.00000129      0.00000129</v>
   <v>       0.00051325     -0.00000178     -0.00000178</v>
  </varray>
  <varray name="stress" >
   <v>     -84.59663136      0.00000000     -0.00000000</v>
   <v>      -0.00000000    -84.59690823      0.00000000</v>
   <v>       0.00000000      0.00000000    -84.59690823</v>
  </varray>
  <energy>
   <i name="e_fr_energy">    -87.64754838</i>
   <i name="e_wo_entrp">    -87.64720509</i>
   <i name="e_0_energy">     -0.00068659</i>
  </energy>
  <eigenvalues>
   <array>
    <dimension dim="1">band</dimension>
    <dimension dim="2">kpoint</dimension>
    <dimension dim="3">spin</dimension>
    <field>eigene</field>
    <field>occ</field>
    <set>
     <set comment="spin 1">
      <set comment="kpoint 1">
       <r>  -4.4916  1.0000</r>
       <r>  -3.4132  1.0000</r>
       <r>  -3.4132  1.0000</r>
       <r>  -3.4132  1.0000</r>
       <r>  -3.4019  1.0000</r>
       <r>  -3.4019  1.0000</r>
       <r>  -3.4019  1.0000</r>
       <r>  -3.4019  1.0000</r>
       <r>  -3.3397  1.0000</r>
       <r>  -3.3397  1.0000</r>
       <r>  -3.3397  1.0000</r>
       <r>  -3.0254  1.0000</r>
       <r>  -3.0240  1.0000</r>
       <r>  -3.0240  1.0000</r>
       <r>  -3.0240  1.0000</r>
       <r>  -3.0240  1.0000</r>
       <r>  -3.0226  1.0000</r>
       <r>  -2.8658  1.0000</r>
       <r>  -2.8646  1.0000</r>
       <r>  -2.8646  1.0000</r>
       <r>  -2.8646  1.0000</r>
       <r>  -2.8646  1.0000</r>
       <r>  -2.8635  1.0000</r>
       <r>  -2.8400  1.0000</r>
       <r>  -2.8388  1.0000</r>
       <r>  -2.8388  1.0000</r>
       <r>  -2.8388  1.0000</r>
       <r>  -2.8388  1.0000</r>
       <r>  -2.8376  1.0000</r>
       <r>  -2.6438  1.0000</r>
       <r>  -2.6438  1.0000</r>
       <r>  -2.6436  1.0000</r>
       <r>  -2.6431  1.0000</r>
       <r>  -2.6428  1.0000</r>
       <r>  -2.6428  1.0000</r>
       <r>  -2.6428  1.0000</r>
       <r>  -2.6428  1.0000</r>
       <r>  -2.6425  1.0000</r>
       <r>  -2.6420  1.0000</r>
       <r>  -2.6417  1.0000</r>
       <r>  -2.6417  1.0000</r>
       <r>  -2.4942  1.0000</r>
       <r>  -2.4928  1.0000</r>
       <r>  -2.4928  1.0000</r>
       <r>  -2.4921  1.0000</r>
       <r>  -2.4921  1.0000</r>
       <r>  -2.4921  1.0000</r>
       <r>  -2.4921  1.0000</r>
       <r>  -2.4921  1.0000</r>
       <r>  -2.4921  1.0000</r>
       <r>  -2.4914  1.0000</r>
       <r>  -2.4914  1.0000</r>
       <r>  -2.4900  1.0000</r>
       <r>  -2.4480  1.0000</r>
       <r>  -2.4480  1.0000</r>
       <r>  -2.4466  1.0000</r>
       <r>  -2.4466  1.0000</r>
       <r>  -2.4466  1.0000</r>
       <r>  -2.4466  1.0000</r>
       <r>  -2.4466  1.0000</r>
       <r>  -2.4466  1.0000</r>
       <r>  -2.4466  1.0000</r>
       <r>  -2.4465  1.0000</r>
       <r>  -2.4452  1.0000</r>
       <r>  -2.4452  1.0000</r>
       <r>  -2.3036  1.0000</r>
       <r>  -2.3036  1.0000</r>
       <r>  -2.3036  1.0000</r>
       <r>  -2.3035  1.0000</r>
       <r>  -2.3035  1.0000</r>
       <r>  -2.3035  1.0000</r>
       <r>  -2.3035  1.0000</r>
       <r>  -2.3035  1.0000</r>
       <r>  -2.2941  1.0000</r>
       <r>  -2.2941  1.0000</r>
       <r>  -2.2941  1.0000</r>
       <r>  -2.1452  1.0000</r>
       <r>  -2.1437  1.0000</r>
       <r>  -2.1435  1.0000</r>
       <r>  -2.1435  1.0000</r>
       <r>  -2.1433  1.0000</r>
       <r>  -2.1433  1.0000</r>
       <r>  -2.1433  1.0000</r>
       <r>  -2.1433  1.0000</r>
       <r>  -2.1432  1.0000</r>
       <r>  -2.1432  1.0000</r>
       <r>  -2.1430  1.0000</r>
       <r>  -2.1415  1.0000</r>
       <r>  -1.8231  1.0000</r>
       <r>  -1.8227  1.0000</r>
       <r>  -1.8220  1.0000</r>
       <r>  -1.8220  1.0000</r>
       <r>  -1.8217  1.0000</r>
       <r>  -1.8217  1.0000</r>
       <r>  -1.8217  1.0000</r>
       <r>  -1.8217  1.0000</r>
       <r>  -1.8214  1.0000</r>
       <r>  -1.8214  1.0000</r>
       <r>  -1.8208  1.0000</r>
       <r>  -1.8204  1.0000</r>
       <r>  -1.6747  1.0000</r>
       <r>  -1.6747  1.0000</r>
       <r>  -1.6733  1.0000</r>
       <r>  -1.6733  1.0000</r>
       <r>  -1.6732  1.0000</r>
       <r>  -1.6732  1.0000</r>
       <r>  -1.6732  1.0000</r>
       <r>  -1.6732  1.0000</r>
       <r>  -1.6731  1.0000</r>
       <r>  -1.6731  1.0000</r>
       <r>  -1.6717  1.0000</r>
       <r>  -1.6717  1.0000</r>
       <r>  -1.5759  1.0000</r>
       <r>  -1.5759  1.0000</r>
       <r>  -1.5583  1.0000</r>
       <r>  -1.5583  1.0000</r>
       <r>  -1.5569  1.0000</r>
       <r>  -1.5567  1.0000</r>
       <r>  -1.5567  1.0000</r>
       <r>  -1.5566  1.0000</r>
       <r>  -1.5566  1.0000</r>
       <r>  -1.5566  1.0000</r>
       <r>  -1.5566  1.0000</r>
       <r>  -1.5564  1.0000</r>
       <r>  -1.5551  1.0000</r>
       <r>  -1.5551  1.0000</r>
       <r>  -1.5470  1.0000</r>
       <r>  -1.5463  1.0000</r>
       <r>  -1.5463  1.0000</r>
       <r>  -1.5461  1.0000</r>
       <r>  -1.5461  1.0000</r>
       <r>  -1.5453  1.0000</r>
       <r>  -1.3864  1.0000</r>
       <r>  -1.3850  1.0000</r>
       <r>  -1.3850  1.0000</r>
       <r>  -1.3850  1.0000</r>
       <r>  -1.3850  1.0000</r>
       <r>  -1.3835  1.0000</r>
       <r>  -1.3159  1.0000</r>
       <r>  -1.3152  1.0000</r>
       <r>  -1.3152  1.0000</r>
       <r>  -1.3152  1.0000</r>
       <r>  -1.3152  1.0000</r>
       <r>  -1.3146  1.0000</r>
       <r>  -1.0442  1.0000</r>
       <r>  -1.0442  1.0000</r>
       <r>  -1.0441  1.0000</r>
       <r>  -1.0196  1.0000</r>
       <r>  -1.0195  1.0000</r>
       <r>  -1.0195  1.0000</r>
       <r>  -1.0195  1.0000</r>
       <r>  -1.0195  1.0000</r>
       <r>  -1.0195  1.0000</r>
       <r>  -1.0195  1.0000</r>
       <r>  -1.0195  1.0000</r>
       <r>  -0.8758  1.0000</r>
       <r>  -0.8756  1.0000</r>
       <r>  -0.8756  1.0000</r>
       <r>  -0.8756  1.0000</r>
       <r>  -0.8756  1.0000</r>
       <r>  -0.8756  1.0000</r>
       <r>  -0.8750  1.0000</r>
       <r>  -0.8750  1.0000</r>
       <r>  -0.8750  1.0000</r>
       <r>  -0.8750  1.0000</r>
       <r>  -0.8750  1.0000</r>
       <r>  -0.8748  1.0000</r>
       <r>   1.2542  1.0000</r>
       <r>   1.2554  1.0000</r>
       <r>   1.2554  1.0000</r>
       <r>   1.2562  1.0000</r>
       <r>   1.2565  1.0000</r>
       <r>   1.2565  1.0000</r>
       <r>   1.2565  1.0000</r>
       <r>   1.2565  1.0000</r>
       <r>   1.2567  1.0000</r>
       <r>   1.2576  1.0000</r>
       <r>   1.2576  1.0000</r>
       <r>   1.2588  1.0000</r>
       <r>   2.0185  0.0000</r>
       <r>   2.0185  0.0000</r>
       <r>   2.0185  0.0000</r>
       <r>   2.0185  0.0000</r>
       <r>   3.6999  0.0000</r>
       <r>   3.6999  0.0000</r>
       <r>   3.7000  0.0000</r>
       <r>   4.5299  0.0000</r>
       <r>   4.5299  0.0000</r>
       <r>   4.5299  0.0000</r>
       <r>   4.5299  0.0000</r>
       <r>   7.1683  0.0000</r>
       <r>   7.1683  0.0000</r>
       <r>   7.1707  0.0000</r>
       <r>   7.1707  0.0000</r>
       <r>   7.1708  0.0000</r>
       <r>   7.1709  0.0000</r>
       <r>   7.1709  0.0000</r>
       <r>   7.1709  0.0000</r>
       <r>   7.1712  0.0000</r>
       <r>   7.1712  0.0000</r>
       <r>   7.1736  0.0000</r>
       <r>   7.1736  0.0000</r>
       <r>   7.2329  0.0000</r>
       <r>   7.2329  0.0000</r>
       <r>   7.2330  0.0000</r>
       <r>   7.6339  0.0000</r>
       <r>   7.6340  0.0000</r>
       <r>   7.6340  0.0000</r>
       <r>   7.6340  0.0000</r>
       <r>   7.6340  0.0000</r>
       <r>   7.6340  0.0000</r>
       <r>   9.0663  0.0000</r>
      </set>
      <set comment="kpoint 2">
       <r>  -4.4761  1.0000</r>
       <r>  -3.4076  1.0000</r>
       <r>  -3.4060  1.0000</r>
       <r>  -3.4060  1.0000</r>
       <r>  -3.3951  1.0000</r>
       <r>  -3.3951  1.0000</r>
       <r>  -3.3951  1.0000</r>
       <r>  -3.3951  1.0000</r>
       <r>  -3.3356  1.0000</r>
       <r>  -3.3333  1.0000</r>
       <r>  -3.3333  1.0000</r>
       <r>  -3.0949  1.0000</r>
       <r>  -3.0146  1.0000</r>
       <r>  -3.0145  1.0000</r>
       <r>  -3.0145  1.0000</r>
       <r>  -3.0145  1.0000</r>
       <r>  -3.0056  1.0000</r>
       <r>  -2.9065  1.0000</r>
       <r>  -2.8778  1.0000</r>
       <r>  -2.8777  1.0000</r>
       <r>  -2.8596  1.0000</r>
       <r>  -2.8596  1.0000</r>
       <r>  -2.8596  1.0000</r>
       <r>  -2.8595  1.0000</r>
       <r>  -2.8352  1.0000</r>
       <r>  -2.8352  1.0000</r>
       <r>  -2.8352  1.0000</r>
       <r>  -2.8352  1.0000</r>
       <r>  -2.7704  1.0000</r>
       <r>  -2.6913  1.0000</r>
       <r>  -2.6913  1.0000</r>
       <r>  -2.6912  1.0000</r>
       <r>  -2.6912  1.0000</r>
       <r>  -2.6607  1.0000</r>
       <r>  -2.6607  1.0000</r>
       <r>  -2.6607  1.0000</r>
       <r>  -2.6607  1.0000</r>
       <r>  -2.6208  1.0000</r>
       <r>  -2.6208  1.0000</r>
       <r>  -2.6208  1.0000</r>
       <r>  -2.6208  1.0000</r>
       <r>  -2.5847  1.0000</r>
       <r>  -2.5847  1.0000</r>
       <r>  -2.5223  1.0000</r>
       <r>  -2.5222  1.0000</r>
       <r>  -2.5222  1.0000</r>
       <r>  -2.5222  1.0000</r>
       <r>  -2.4699  1.0000</r>
       <r>  -2.4689  1.0000</r>
       <r>  -2.4689  1.0000</r>
       <r>  -2.4689  1.0000</r>
       <r>  -2.4683  1.0000</r>
       <r>  -2.4683  1.0000</r>
       <r>  -2.4683  1.0000</r>
       <r>  -2.4674  1.0000</r>
       <r>  -2.4485  1.0000</r>
       <r>  -2.4485  1.0000</r>
       <r>  -2.4485  1.0000</r>
       <r>  -2.4485  1.0000</r>
       <r>  -2.4460  1.0000</r>
       <r>  -2.4460  1.0000</r>
       <r>  -2.4460  1.0000</r>
       <r>  -2.4459  1.0000</r>
       <r>  -2.3055  1.0000</r>
       <r>  -2.3055  1.0000</r>
       <r>  -2.3055  1.0000</r>
       <r>  -2.3055  1.0000</r>
       <r>  -2.2995  1.0000</r>
       <r>  -2.2995  1.0000</r>
       <r>  -2.2990  1.0000</r>
       <r>  -2.2987  1.0000</r>
       <r>  -2.2987  1.0000</r>
       <r>  -2.2985  1.0000</r>
       <r>  -2.2985  1.0000</r>
       <r>  -2.2893  1.0000</r>
       <r>  -2.2893  1.0000</r>
       <r>  -2.1783  1.0000</r>
       <r>  -2.1783  1.0000</r>
       <r>  -2.1783  1.0000</r>
       <r>  -2.1783  1.0000</r>
       <r>  -2.1554  1.0000</r>
       <r>  -2.1554  1.0000</r>
       <r>  -2.1553  1.0000</r>
       <r>  -2.1553  1.0000</r>
       <r>  -2.1091  1.0000</r>
       <r>  -2.1091  1.0000</r>
       <r>  -2.1091  1.0000</r>
       <r>  -2.1091  1.0000</r>
       <r>  -1.8445  1.0000</r>
       <r>  -1.8444  1.0000</r>
       <r>  -1.8444  1.0000</r>
       <r>  -1.8444  1.0000</r>
       <r>  -1.8126  1.0000</r>
       <r>  -1.8126  1.0000</r>
       <r>  -1.8126  1.0000</r>
       <r>  -1.8126  1.0000</r>
       <r>  -1.7896  1.0000</r>
       <r>  -1.7896  1.0000</r>
       <r>  -1.7896  1.0000</r>
       <r>  -1.7895  1.0000</r>
       <r>  -1.7623  1.0000</r>
       <r>  -1.7623  1.0000</r>
       <r>  -1.7290  1.0000</r>
       <r>  -1.7290  1.0000</r>
       <r>  -1.7290  1.0000</r>
       <r>  -1.7289  1.0000</r>
       <r>  -1.6736  1.0000</r>
       <r>  -1.6736  1.0000</r>
       <r>  -1.6736  1.0000</r>
       <r>  -1.6735  1.0000</r>
       <r>  -1.5981  1.0000</r>
       <r>  -1.5981  1.0000</r>
       <r>  -1.5980  1.0000</r>
       <r>  -1.5980  1.0000</r>
       <r>  -1.5939  1.0000</r>
       <r>  -1.5811  1.0000</r>
       <r>  -1.5811  1.0000</r>
       <r>  -1.5807  1.0000</r>
       <r>  -1.5737  1.0000</r>
       <r>  -1.5464  1.0000</r>
       <r>  -1.5463  1.0000</r>
       <r>  -1.5463  1.0000</r>
       <r>  -1.5463  1.0000</r>
       <r>  -1.5339  1.0000</r>
       <r>  -1.5339  1.0000</r>
       <r>  -1.5330  1.0000</r>
       <r>  -1.5329  1.0000</r>
       <r>  -1.5329  1.0000</r>
       <r>  -1.5328  1.0000</r>
       <r>  -1.5047  1.0000</r>
       <r>  -1.5047  1.0000</r>
       <r>  -1.5046  1.0000</r>
       <r>  -1.5046  1.0000</r>
       <r>  -1.3499  1.0000</r>
       <r>  -1.3464  1.0000</r>
       <r>  -1.3464  1.0000</r>
       <r>  -1.3464  1.0000</r>
       <r>  -1.3463  1.0000</r>
       <r>  -1.2929  1.0000</r>
       <r>  -1.2929  1.0000</r>
       <r>  -1.2929  1.0000</r>
       <r>  -1.2929  1.0000</r>
       <r>  -1.2805  1.0000</r>
       <r>  -1.0938  1.0000</r>
       <r>  -1.0505  1.0000</r>
       <r>  -1.0505  1.0000</r>
       <r>  -1.0465  1.0000</r>
       <r>  -1.0341  1.0000</r>
       <r>  -1.0341  1.0000</r>
       <r>  -1.0341  1.0000</r>
       <r>  -1.0341  1.0000</r>
       <r>  -1.0253  1.0000</r>
       <r>  -1.0253  1.0000</r>
       <r>  -1.0253  1.0000</r>
       <r>  -1.0253  1.0000</r>
       <r>  -0.8970  1.0000</r>
       <r>  -0.8970  1.0000</r>
       <r>  -0.8837  1.0000</r>
       <r>  -0.8837  1.0000</r>
       <r>  -0.8837  1.0000</r>
       <r>  -0.8837  1.0000</r>
       <r>  -0.8835  1.0000</r>
       <r>  -0.8835  1.0000</r>
       <r>  -0.8758  1.0000</r>
       <r>  -0.8756  1.0000</r>
       <r>  -0.8750  1.0000</r>
       <r>  -0.8748  1.0000</r>
       <r>   0.9150  1.0000</r>
       <r>   0.9150  1.0000</r>
       <r>   0.9150  1.0000</r>
       <r>   0.9151  1.0000</r>
       <r>   1.2629  1.0000</r>
       <r>   1.2629  1.0000</r>
       <r>   1.2629  1.0000</r>
       <r>   1.2629  1.0000</r>
       <r>   1.6270  1.0000</r>
       <r>   1.6270  1.0000</r>
       <r>   1.6270  1.0000</r>
       <r>   1.6270  1.0000</r>
       <r>   1.9898  0.0002</r>
       <r>   1.9898  0.0002</r>
       <r>   1.9898  0.0002</r>
       <r>   1.9898  0.0002</r>
       <r>   3.5598  0.0000</r>
       <r>   3.7351  0.0000</r>
       <r>   3.7351  0.0000</r>
       <r>   4.5968  0.0000</r>
       <r>   4.5968  0.0000</r>
       <r>   4.5968  0.0000</r>
       <r>   4.5968  0.0000</r>
       <r>   6.7315  0.0000</r>
       <r>   6.7315  0.0000</r>
       <r>   6.7983  0.0000</r>
       <r>   6.7983  0.0000</r>
       <r>   6.7983  0.0000</r>
       <r>   6.7983  0.0000</r>
       <r>   7.1940  0.0000</r>
       <r>   7.1940  0.0000</r>
       <r>   7.1940  0.0000</r>
       <r>   7.1940  0.0000</r>
       <r>   7.2366  0.0000</r>
       <r>   7.2366  0.0000</r>
       <r>   7.3994  0.0000</r>
       <r>   7.6199  0.0000</r>
       <r>   7.6199  0.0000</r>
       <r>   7.6212  0.0000</r>
       <r>   7.6212  0.0000</r>
       <r>   7.8842  0.0000</r>
       <r>   7.8842  0.0000</r>
       <r>   7.8842  0.0000</r>
       <r>   7.8842  0.0000</r>
       <r>   9.1062  0.0000</r>
      </set>
      <set comment="kpoint 3">
       <r>  -4.4297  1.0000</r>
       <r>  -3.3911  1.0000</r>
       <r>  -3.3846  1.0000</r>
       <r>  -3.3846  1.0000</r>
       <r>  -3.3748  1.0000</r>
       <r>  -3.3748  1.0000</r>
       <r>  -3.3748  1.0000</r>
       <r>  -3.3747  1.0000</r>
       <r>  -3.3233  1.0000</r>
       <r>  -3.3142  1.0000</r>
       <r>  -3.3142  1.0000</r>
       <r>  -3.2228  1.0000</r>
       <r>  -3.0246  1.0000</r>
       <r>  -2.9866  1.0000</r>
       <r>  -2.9866  1.0000</r>
       <r>  -2.9866  1.0000</r>
       <r>  -2.9866  1.0000</r>
       <r>  -2.9723  1.0000</r>
       <r>  -2.9148  1.0000</r>
       <r>  -2.9148  1.0000</r>
       <r>  -2.8449  1.0000</r>
       <r>  -2.8449  1.0000</r>
       <r>  -2.8449  1.0000</r>
       <r>  -2.8449  1.0000</r>
       <r>  -2.8244  1.0000</r>
       <r>  -2.8244  1.0000</r>
       <r>  -2.8244  1.0000</r>
       <r>  -2.8243  1.0000</r>
       <r>  -2.7855  1.0000</r>
       <r>  -2.7854  1.0000</r>
       <r>  -2.7854  1.0000</r>
       <r>  -2.7854  1.0000</r>
       <r>  -2.7127  1.0000</r>
       <r>  -2.7127  1.0000</r>
       <r>  -2.7024  1.0000</r>
       <r>  -2.6744  1.0000</r>
       <r>  -2.6744  1.0000</r>
       <r>  -2.6744  1.0000</r>
       <r>  -2.6744  1.0000</r>
       <r>  -2.5980  1.0000</r>
       <r>  -2.5980  1.0000</r>
       <r>  -2.5980  1.0000</r>
       <r>  -2.5980  1.0000</r>
       <r>  -2.5578  1.0000</r>
       <r>  -2.5577  1.0000</r>
       <r>  -2.5577  1.0000</r>
       <r>  -2.5577  1.0000</r>
       <r>  -2.4535  1.0000</r>
       <r>  -2.4535  1.0000</r>
       <r>  -2.4535  1.0000</r>
       <r>  -2.4534  1.0000</r>
       <r>  -2.4515  1.0000</r>
       <r>  -2.4512  1.0000</r>
       <r>  -2.4511  1.0000</r>
       <r>  -2.4511  1.0000</r>
       <r>  -2.4442  1.0000</r>
       <r>  -2.4442  1.0000</r>
       <r>  -2.4442  1.0000</r>
       <r>  -2.4441  1.0000</r>
       <r>  -2.4386  1.0000</r>
       <r>  -2.4386  1.0000</r>
       <r>  -2.4386  1.0000</r>
       <r>  -2.4384  1.0000</r>
       <r>  -2.3135  1.0000</r>
       <r>  -2.3113  1.0000</r>
       <r>  -2.3113  1.0000</r>
       <r>  -2.3113  1.0000</r>
       <r>  -2.3113  1.0000</r>
       <r>  -2.2844  1.0000</r>
       <r>  -2.2844  1.0000</r>
       <r>  -2.2844  1.0000</r>
       <r>  -2.2843  1.0000</r>
       <r>  -2.2750  1.0000</r>
       <r>  -2.2750  1.0000</r>
       <r>  -2.2380  1.0000</r>
       <r>  -2.2380  1.0000</r>
       <r>  -2.2380  1.0000</r>
       <r>  -2.2380  1.0000</r>
       <r>  -2.2065  1.0000</r>
       <r>  -2.2065  1.0000</r>
       <r>  -2.2065  1.0000</r>
       <r>  -2.2065  1.0000</r>
       <r>  -2.1440  1.0000</r>
       <r>  -2.1440  1.0000</r>
       <r>  -2.0188  1.0000</r>
       <r>  -2.0188  1.0000</r>
       <r>  -2.0188  1.0000</r>
       <r>  -2.0188  1.0000</r>
       <r>  -1.8968  1.0000</r>
       <r>  -1.8967  1.0000</r>
       <r>  -1.8967  1.0000</r>
       <r>  -1.8967  1.0000</r>
       <r>  -1.8473  1.0000</r>
       <r>  -1.8473  1.0000</r>
       <r>  -1.8344  1.0000</r>
       <r>  -1.8344  1.0000</r>
       <r>  -1.8344  1.0000</r>
       <r>  -1.8344  1.0000</r>
       <r>  -1.7654  1.0000</r>
       <r>  -1.7654  1.0000</r>
       <r>  -1.7654  1.0000</r>
       <r>  -1.7654  1.0000</r>
       <r>  -1.7392  1.0000</r>
       <r>  -1.7392  1.0000</r>
       <r>  -1.7392  1.0000</r>
       <r>  -1.7392  1.0000</r>
       <r>  -1.7169  1.0000</r>
       <r>  -1.6746  1.0000</r>
       <r>  -1.6746  1.0000</r>
       <r>  -1.6746  1.0000</r>
       <r>  -1.6746  1.0000</r>
       <r>  -1.6291  1.0000</r>
       <r>  -1.6291  1.0000</r>
       <r>  -1.6291  1.0000</r>
       <r>  -1.6291  1.0000</r>
       <r>  -1.5951  1.0000</r>
       <r>  -1.5672  1.0000</r>
       <r>  -1.5468  1.0000</r>
       <r>  -1.5468  1.0000</r>
       <r>  -1.5468  1.0000</r>
       <r>  -1.5468  1.0000</r>
       <r>  -1.4990  1.0000</r>
       <r>  -1.4990  1.0000</r>
       <r>  -1.4876  1.0000</r>
       <r>  -1.4876  1.0000</r>
       <r>  -1.4780  1.0000</r>
       <r>  -1.4779  1.0000</r>
       <r>  -1.4779  1.0000</r>
       <r>  -1.4779  1.0000</r>
       <r>  -1.4429  1.0000</r>
       <r>  -1.4429  1.0000</r>
       <r>  -1.4429  1.0000</r>
       <r>  -1.4429  1.0000</r>
       <r>  -1.3837  1.0000</r>
       <r>  -1.3498  1.0000</r>
       <r>  -1.3498  1.0000</r>
       <r>  -1.3498  1.0000</r>
       <r>  -1.3498  1.0000</r>
       <r>  -1.2461  1.0000</r>
       <r>  -1.1681  1.0000</r>
       <r>  -1.1681  1.0000</r>
       <r>  -1.1681  1.0000</r>
       <r>  -1.1681  1.0000</r>
       <r>  -1.0771  1.0000</r>
       <r>  -1.0771  1.0000</r>
       <r>  -1.0771  1.0000</r>
       <r>  -1.0771  1.0000</r>
       <r>  -1.0695  1.0000</r>
       <r>  -1.0695  1.0000</r>
       <r>  -1.0536  1.0000</r>
       <r>  -1.0424  1.0000</r>
       <r>  -1.0424  1.0000</r>
       <r>  -1.0424  1.0000</r>
       <r>  -1.0424  1.0000</r>
       <r>  -0.9592  1.0000</r>
       <r>  -0.9592  1.0000</r>
       <r>  -0.9093  1.0000</r>
       <r>  -0.9093  1.0000</r>
       <r>  -0.9093  1.0000</r>
       <r>  -0.9093  1.0000</r>
       <r>  -0.9070  1.0000</r>
       <r>  -0.9070  1.0000</r>
       <r>  -0.8758  1.0000</r>
       <r>  -0.8756  1.0000</r>
       <r>  -0.8750  1.0000</r>
       <r>  -0.8748  1.0000</r>
       <r>  -0.7350  1.0000</r>
       <r>   0.6012  1.0000</r>
       <r>   0.6012  1.0000</r>
       <r>   0.6012  1.0000</r>
       <r>   0.6012  1.0000</r>
       <r>   1.2822  1.0000</r>
       <r>   1.2822  1.0000</r>
       <r>   1.2822  1.0000</r>
       <r>   1.2822  1.0000</r>
       <r>   1.9135  1.0000</r>
       <r>   1.9135  1.0000</r>
       <r>   1.9135  1.0000</r>
       <r>   1.9135  1.0000</r>
       <r>   2.0277  0.0000</r>
       <r>   2.0277  0.0000</r>
       <r>   2.0277  0.0000</r>
       <r>   2.0277  0.0000</r>
       <r>   3.2001  0.0000</r>
       <r>   3.8384  0.0000</r>
       <r>   3.8384  0.0000</r>
       <r>   4.7873  0.0000</r>
       <r>   4.7873  0.0000</r>
       <r>   4.7873  0.0000</r>
       <r>   4.7873  0.0000</r>
       <r>   6.2244  0.0000</r>
       <r>   6.2244  0.0000</r>
       <r>   6.2244  0.0000</r>
       <r>   6.2244  0.0000</r>
       <r>   6.3054  0.0000</r>
       <r>   6.3054  0.0000</r>
       <r>   7.2478  0.0000</r>
       <r>   7.2478  0.0000</r>
       <r>   7.2627  0.0000</r>
       <r>   7.2627  0.0000</r>
       <r>   7.2627  0.0000</r>
       <r>   7.2627  0.0000</r>
       <r>   7.5820  0.0000</r>
       <r>   7.5820  0.0000</r>
       <r>   7.8383  0.0000</r>
       <r>   8.0793  0.0000</r>
       <r>   8.0793  0.0000</r>
       <r>   8.1204  0.0000</r>
       <r>   8.1204  0.0000</r>
       <r>   8.1204  0.0000</r>
       <r>   8.1204  0.0000</r>
       <r>   8.6569  0.0000</r>
      </set>
      <set comment="kpoint 4">
       <r>  -4.3529  1.0000</r>
       <r>  -3.3937  1.0000</r>
       <r>  -3.3640  1.0000</r>
       <r>  -3.3496  1.0000</r>
       <r>  -3.3496  1.0000</r>
       <r>  -3.3410  1.0000</r>
       <r>  -3.3410  1.0000</r>
       <r>  -3.3410  1.0000</r>
       <r>  -3.3409  1.0000</r>
       <r>  -3.3030  1.0000</r>
       <r>  -3.2824  1.0000</r>
       <r>  -3.2824  1.0000</r>
       <r>  -3.0657  1.0000</r>
       <r>  -3.0352  1.0000</r>
       <r>  -2.9702  1.0000</r>
       <r>  -2.9701  1.0000</r>
       <r>  -2.9413  1.0000</r>
       <r>  -2.9413  1.0000</r>
       <r>  -2.9413  1.0000</r>
       <r>  -2.9413  1.0000</r>
       <r>  -2.8880  1.0000</r>
       <r>  -2.8880  1.0000</r>
       <r>  -2.8880  1.0000</r>
       <r>  -2.8880  1.0000</r>
       <r>  -2.8298  1.0000</r>
       <r>  -2.8298  1.0000</r>
       <r>  -2.8217  1.0000</r>
       <r>  -2.8217  1.0000</r>
       <r>  -2.8217  1.0000</r>
       <r>  -2.8217  1.0000</r>
       <r>  -2.8065  1.0000</r>
       <r>  -2.8065  1.0000</r>
       <r>  -2.8065  1.0000</r>
       <r>  -2.8065  1.0000</r>
       <r>  -2.6852  1.0000</r>
       <r>  -2.6852  1.0000</r>
       <r>  -2.6852  1.0000</r>
       <r>  -2.6851  1.0000</r>
       <r>  -2.6360  1.0000</r>
       <r>  -2.5970  1.0000</r>
       <r>  -2.5970  1.0000</r>
       <r>  -2.5970  1.0000</r>
       <r>  -2.5970  1.0000</r>
       <r>  -2.5841  1.0000</r>
       <r>  -2.5841  1.0000</r>
       <r>  -2.5841  1.0000</r>
       <r>  -2.5841  1.0000</r>
       <r>  -2.4596  1.0000</r>
       <r>  -2.4596  1.0000</r>
       <r>  -2.4596  1.0000</r>
       <r>  -2.4596  1.0000</r>
       <r>  -2.4424  1.0000</r>
       <r>  -2.4417  1.0000</r>
       <r>  -2.4417  1.0000</r>
       <r>  -2.4416  1.0000</r>
       <r>  -2.4401  1.0000</r>
       <r>  -2.4401  1.0000</r>
       <r>  -2.4401  1.0000</r>
       <r>  -2.4393  1.0000</r>
       <r>  -2.4161  1.0000</r>
       <r>  -2.4161  1.0000</r>
       <r>  -2.4161  1.0000</r>
       <r>  -2.4161  1.0000</r>
       <r>  -2.3373  1.0000</r>
       <r>  -2.3205  1.0000</r>
       <r>  -2.3205  1.0000</r>
       <r>  -2.3205  1.0000</r>
       <r>  -2.3205  1.0000</r>
       <r>  -2.3036  1.0000</r>
       <r>  -2.3036  1.0000</r>
       <r>  -2.3036  1.0000</r>
       <r>  -2.3036  1.0000</r>
       <r>  -2.2641  1.0000</r>
       <r>  -2.2640  1.0000</r>
       <r>  -2.2640  1.0000</r>
       <r>  -2.2640  1.0000</r>
       <r>  -2.2606  1.0000</r>
       <r>  -2.2606  1.0000</r>
       <r>  -2.2606  1.0000</r>
       <r>  -2.2605  1.0000</r>
       <r>  -2.2513  1.0000</r>
       <r>  -2.2513  1.0000</r>
       <r>  -1.9824  1.0000</r>
       <r>  -1.9824  1.0000</r>
       <r>  -1.9591  1.0000</r>
       <r>  -1.9591  1.0000</r>
       <r>  -1.9591  1.0000</r>
       <r>  -1.9591  1.0000</r>
       <r>  -1.9444  1.0000</r>
       <r>  -1.9444  1.0000</r>
       <r>  -1.9444  1.0000</r>
       <r>  -1.9444  1.0000</r>
       <r>  -1.9270  1.0000</r>
       <r>  -1.9270  1.0000</r>
       <r>  -1.8965  1.0000</r>
       <r>  -1.8965  1.0000</r>
       <r>  -1.8964  1.0000</r>
       <r>  -1.8964  1.0000</r>
       <r>  -1.7691  1.0000</r>
       <r>  -1.7013  1.0000</r>
       <r>  -1.7013  1.0000</r>
       <r>  -1.7013  1.0000</r>
       <r>  -1.7013  1.0000</r>
       <r>  -1.6882  1.0000</r>
       <r>  -1.6882  1.0000</r>
       <r>  -1.6882  1.0000</r>
       <r>  -1.6882  1.0000</r>
       <r>  -1.6761  1.0000</r>
       <r>  -1.6761  1.0000</r>
       <r>  -1.6761  1.0000</r>
       <r>  -1.6760  1.0000</r>
       <r>  -1.6509  1.0000</r>
       <r>  -1.6509  1.0000</r>
       <r>  -1.6509  1.0000</r>
       <r>  -1.6509  1.0000</r>
       <r>  -1.6180  1.0000</r>
       <r>  -1.5564  1.0000</r>
       <r>  -1.5489  1.0000</r>
       <r>  -1.5489  1.0000</r>
       <r>  -1.5489  1.0000</r>
       <r>  -1.5489  1.0000</r>
       <r>  -1.4472  1.0000</r>
       <r>  -1.4472  1.0000</r>
       <r>  -1.4163  1.0000</r>
       <r>  -1.4112  1.0000</r>
       <r>  -1.4112  1.0000</r>
       <r>  -1.4112  1.0000</r>
       <r>  -1.4110  1.0000</r>
       <r>  -1.3943  1.0000</r>
       <r>  -1.3943  1.0000</r>
       <r>  -1.3742  1.0000</r>
       <r>  -1.3742  1.0000</r>
       <r>  -1.3741  1.0000</r>
       <r>  -1.3741  1.0000</r>
       <r>  -1.3732  1.0000</r>
       <r>  -1.3732  1.0000</r>
       <r>  -1.3731  1.0000</r>
       <r>  -1.3731  1.0000</r>
       <r>  -1.2128  1.0000</r>
       <r>  -1.1469  1.0000</r>
       <r>  -1.1469  1.0000</r>
       <r>  -1.1469  1.0000</r>
       <r>  -1.1469  1.0000</r>
       <r>  -1.1005  1.0000</r>
       <r>  -1.1005  1.0000</r>
       <r>  -1.0706  1.0000</r>
       <r>  -1.0706  1.0000</r>
       <r>  -1.0706  1.0000</r>
       <r>  -1.0706  1.0000</r>
       <r>  -1.0652  1.0000</r>
       <r>  -1.0565  1.0000</r>
       <r>  -1.0565  1.0000</r>
       <r>  -1.0063  1.0000</r>
       <r>  -1.0063  1.0000</r>
       <r>  -1.0063  1.0000</r>
       <r>  -1.0063  1.0000</r>
       <r>  -0.9506  1.0000</r>
       <r>  -0.9506  1.0000</r>
       <r>  -0.9505  1.0000</r>
       <r>  -0.9505  1.0000</r>
       <r>  -0.9452  1.0000</r>
       <r>  -0.9452  1.0000</r>
       <r>  -0.8758  1.0000</r>
       <r>  -0.8755  1.0000</r>
       <r>  -0.8751  1.0000</r>
       <r>  -0.8748  1.0000</r>
       <r>  -0.3235  1.0000</r>
       <r>   0.3129  1.0000</r>
       <r>   0.3129  1.0000</r>
       <r>   0.3129  1.0000</r>
       <r>   0.3129  1.0000</r>
       <r>   1.3151  1.0000</r>
       <r>   1.3151  1.0000</r>
       <r>   1.3151  1.0000</r>
       <r>   1.3151  1.0000</r>
       <r>   1.8103  1.0000</r>
       <r>   1.8103  1.0000</r>
       <r>   1.8103  1.0000</r>
       <r>   1.8103  1.0000</r>
       <r>   2.4588  0.0000</r>
       <r>   2.4588  0.0000</r>
       <r>   2.4588  0.0000</r>
       <r>   2.4588  0.0000</r>
       <r>   2.7233  0.0000</r>
       <r>   4.0042  0.0000</r>
       <r>   4.0042  0.0000</r>
       <r>   5.0788  0.0000</r>
       <r>   5.0788  0.0000</r>
       <r>   5.0788  0.0000</r>
       <r>   5.0788  0.0000</r>
       <r>   5.6303  0.0000</r>
       <r>   5.6303  0.0000</r>
       <r>   5.6303  0.0000</r>
       <r>   5.6303  0.0000</r>
       <r>   5.8957  0.0000</r>
       <r>   5.8957  0.0000</r>
       <r>   7.2665  0.0000</r>
       <r>   7.2665  0.0000</r>
       <r>   7.3757  0.0000</r>
       <r>   7.3757  0.0000</r>
       <r>   7.3757  0.0000</r>
       <r>   7.3757  0.0000</r>
       <r>   7.5302  0.0000</r>
       <r>   7.5303  0.0000</r>
       <r>   8.0359  0.0000</r>
       <r>   8.0359  0.0000</r>
       <r>   8.0359  0.0000</r>
       <r>   8.0359  0.0000</r>
       <r>   8.2688  0.0000</r>
       <r>   8.2688  0.0000</r>
       <r>   8.2688  0.0000</r>
       <r>   8.2749  0.0000</r>
      </set>
      <set comment="kpoint 5">
       <r>  -4.2468  1.0000</r>
       <r>  -3.5846  1.0000</r>
       <r>  -3.3273  1.0000</r>
       <r>  -3.3024  1.0000</r>
       <r>  -3.3024  1.0000</r>
       <r>  -3.2941  1.0000</r>
       <r>  -3.2941  1.0000</r>
       <r>  -3.2941  1.0000</r>
       <r>  -3.2940  1.0000</r>
       <r>  -3.2749  1.0000</r>
       <r>  -3.2379  1.0000</r>
       <r>  -3.2379  1.0000</r>
       <r>  -3.1182  1.0000</r>
       <r>  -3.0942  1.0000</r>
       <r>  -3.0367  1.0000</r>
       <r>  -3.0367  1.0000</r>
       <r>  -2.9878  1.0000</r>
       <r>  -2.9878  1.0000</r>
       <r>  -2.9878  1.0000</r>
       <r>  -2.9878  1.0000</r>
       <r>  -2.9355  1.0000</r>
       <r>  -2.9355  1.0000</r>
       <r>  -2.8807  1.0000</r>
       <r>  -2.8807  1.0000</r>
       <r>  -2.8807  1.0000</r>
       <r>  -2.8807  1.0000</r>
       <r>  -2.7925  1.0000</r>
       <r>  -2.7925  1.0000</r>
       <r>  -2.7925  1.0000</r>
       <r>  -2.7925  1.0000</r>
       <r>  -2.7823  1.0000</r>
       <r>  -2.7823  1.0000</r>
       <r>  -2.7823  1.0000</r>
       <r>  -2.7823  1.0000</r>
       <r>  -2.6959  1.0000</r>
       <r>  -2.6959  1.0000</r>
       <r>  -2.6959  1.0000</r>
       <r>  -2.6959  1.0000</r>
       <r>  -2.6380  1.0000</r>
       <r>  -2.6380  1.0000</r>
       <r>  -2.6380  1.0000</r>
       <r>  -2.6380  1.0000</r>
       <r>  -2.5990  1.0000</r>
       <r>  -2.5990  1.0000</r>
       <r>  -2.5990  1.0000</r>
       <r>  -2.5990  1.0000</r>
       <r>  -2.5725  1.0000</r>
       <r>  -2.4636  1.0000</r>
       <r>  -2.4636  1.0000</r>
       <r>  -2.4636  1.0000</r>
       <r>  -2.4636  1.0000</r>
       <r>  -2.4389  1.0000</r>
       <r>  -2.4385  1.0000</r>
       <r>  -2.4385  1.0000</r>
       <r>  -2.4384  1.0000</r>
       <r>  -2.4342  1.0000</r>
       <r>  -2.4342  1.0000</r>
       <r>  -2.4342  1.0000</r>
       <r>  -2.4338  1.0000</r>
       <r>  -2.3974  1.0000</r>
       <r>  -2.3974  1.0000</r>
       <r>  -2.3974  1.0000</r>
       <r>  -2.3974  1.0000</r>
       <r>  -2.3700  1.0000</r>
       <r>  -2.3645  1.0000</r>
       <r>  -2.3645  1.0000</r>
       <r>  -2.3645  1.0000</r>
       <r>  -2.3644  1.0000</r>
       <r>  -2.3327  1.0000</r>
       <r>  -2.3327  1.0000</r>
       <r>  -2.3327  1.0000</r>
       <r>  -2.3327  1.0000</r>
       <r>  -2.2925  1.0000</r>
       <r>  -2.2925  1.0000</r>
       <r>  -2.2925  1.0000</r>
       <r>  -2.2925  1.0000</r>
       <r>  -2.2280  1.0000</r>
       <r>  -2.2280  1.0000</r>
       <r>  -2.2280  1.0000</r>
       <r>  -2.2280  1.0000</r>
       <r>  -2.2184  1.0000</r>
       <r>  -2.2184  1.0000</r>
       <r>  -2.0478  1.0000</r>
       <r>  -2.0478  1.0000</r>
       <r>  -2.0478  1.0000</r>
       <r>  -2.0477  1.0000</r>
       <r>  -2.0225  1.0000</r>
       <r>  -2.0225  1.0000</r>
       <r>  -2.0225  1.0000</r>
       <r>  -2.0225  1.0000</r>
       <r>  -2.0005  1.0000</r>
       <r>  -2.0005  1.0000</r>
       <r>  -1.8166  1.0000</r>
       <r>  -1.8166  1.0000</r>
       <r>  -1.7745  1.0000</r>
       <r>  -1.7596  1.0000</r>
       <r>  -1.7596  1.0000</r>
       <r>  -1.7596  1.0000</r>
       <r>  -1.7596  1.0000</r>
       <r>  -1.6775  1.0000</r>
       <r>  -1.6775  1.0000</r>
       <r>  -1.6775  1.0000</r>
       <r>  -1.6774  1.0000</r>
       <r>  -1.6650  1.0000</r>
       <r>  -1.6650  1.0000</r>
       <r>  -1.6650  1.0000</r>
       <r>  -1.6650  1.0000</r>
       <r>  -1.6484  1.0000</r>
       <r>  -1.6439  1.0000</r>
       <r>  -1.6438  1.0000</r>
       <r>  -1.6438  1.0000</r>
       <r>  -1.6438  1.0000</r>
       <r>  -1.6333  1.0000</r>
       <r>  -1.6333  1.0000</r>
       <r>  -1.6333  1.0000</r>
       <r>  -1.6332  1.0000</r>
       <r>  -1.5542  1.0000</r>
       <r>  -1.5542  1.0000</r>
       <r>  -1.5542  1.0000</r>
       <r>  -1.5542  1.0000</r>
       <r>  -1.5416  1.0000</r>
       <r>  -1.4468  1.0000</r>
       <r>  -1.4093  1.0000</r>
       <r>  -1.4093  1.0000</r>
       <r>  -1.4093  1.0000</r>
       <r>  -1.4093  1.0000</r>
       <r>  -1.3852  1.0000</r>
       <r>  -1.3852  1.0000</r>
       <r>  -1.3421  1.0000</r>
       <r>  -1.3421  1.0000</r>
       <r>  -1.3421  1.0000</r>
       <r>  -1.3421  1.0000</r>
       <r>  -1.3030  1.0000</r>
       <r>  -1.3030  1.0000</r>
       <r>  -1.2979  1.0000</r>
       <r>  -1.2979  1.0000</r>
       <r>  -1.2979  1.0000</r>
       <r>  -1.2979  1.0000</r>
       <r>  -1.2404  1.0000</r>
       <r>  -1.2403  1.0000</r>
       <r>  -1.2403  1.0000</r>
       <r>  -1.2403  1.0000</r>
       <r>  -1.1815  1.0000</r>
       <r>  -1.1815  1.0000</r>
       <r>  -1.1811  1.0000</r>
       <r>  -1.1427  1.0000</r>
       <r>  -1.1427  1.0000</r>
       <r>  -1.1090  1.0000</r>
       <r>  -1.1090  1.0000</r>
       <r>  -1.1090  1.0000</r>
       <r>  -1.1090  1.0000</r>
       <r>  -1.0811  1.0000</r>
       <r>  -1.0052  1.0000</r>
       <r>  -1.0052  1.0000</r>
       <r>  -1.0051  1.0000</r>
       <r>  -1.0051  1.0000</r>
       <r>  -0.9968  1.0000</r>
       <r>  -0.9968  1.0000</r>
       <r>  -0.8757  1.0000</r>
       <r>  -0.8755  1.0000</r>
       <r>  -0.8751  1.0000</r>
       <r>  -0.8749  1.0000</r>
       <r>  -0.8268  1.0000</r>
       <r>  -0.8268  1.0000</r>
       <r>  -0.8268  1.0000</r>
       <r>  -0.8268  1.0000</r>
       <r>   0.0477  1.0000</r>
       <r>   0.0477  1.0000</r>
       <r>   0.0477  1.0000</r>
       <r>   0.0477  1.0000</r>
       <r>   0.1298  1.0000</r>
       <r>   1.3622  1.0000</r>
       <r>   1.3622  1.0000</r>
       <r>   1.3622  1.0000</r>
       <r>   1.3622  1.0000</r>
       <r>   1.6998  1.0000</r>
       <r>   1.6998  1.0000</r>
       <r>   1.6998  1.0000</r>
       <r>   1.6998  1.0000</r>
       <r>   2.1981  0.0000</r>
       <r>   2.9202  0.0000</r>
       <r>   2.9202  0.0000</r>
       <r>   2.9202  0.0000</r>
       <r>   2.9202  0.0000</r>
       <r>   4.2248  0.0000</r>
       <r>   4.2248  0.0000</r>
       <r>   5.0438  0.0000</r>
       <r>   5.0438  0.0000</r>
       <r>   5.0438  0.0000</r>
       <r>   5.0438  0.0000</r>
       <r>   5.4486  0.0000</r>
       <r>   5.4486  0.0000</r>
       <r>   5.4486  0.0000</r>
       <r>   5.4486  0.0000</r>
       <r>   5.5055  0.0000</r>
       <r>   5.5055  0.0000</r>
       <r>   7.2930  0.0000</r>
       <r>   7.2930  0.0000</r>
       <r>   7.4439  0.0000</r>
       <r>   7.4439  0.0000</r>
       <r>   7.4439  0.0000</r>
       <r>   7.4439  0.0000</r>
       <r>   7.4738  0.0000</r>
       <r>   7.4738  0.0000</r>
       <r>   7.5310  0.0000</r>
       <r>   7.5310  0.0000</r>
       <r>   7.5310  0.0000</r>
       <r>   7.5310  0.0000</r>
       <r>   8.3910  0.0000</r>
       <r>   8.3913  0.0000</r>
       <r>   8.3917  0.0000</r>
       <r>   8.3976  0.0000</r>
      </set>
      <set comment="kpoint 6">
       <r>  -4.1131  1.0000</r>
       <r>  -3.7758  1.0000</r>
       <r>  -3.2822  1.0000</r>
       <r>  -3.2447  1.0000</r>
       <r>  -3.2446  1.0000</r>
       <r>  -3.2394  1.0000</r>
       <r>  -3.2345  1.0000</r>
       <r>  -3.2345  1.0000</r>
       <r>  -3.2345  1.0000</r>
       <r>  -3.2345  1.0000</r>
       <r>  -3.1809  1.0000</r>
       <r>  -3.1809  1.0000</r>
       <r>  -3.1748  1.0000</r>
       <r>  -3.1484  1.0000</r>
       <r>  -3.1080  1.0000</r>
       <r>  -3.1080  1.0000</r>
       <r>  -3.0802  1.0000</r>
       <r>  -3.0802  1.0000</r>
       <r>  -3.0802  1.0000</r>
       <r>  -3.0802  1.0000</r>
       <r>  -3.0295  1.0000</r>
       <r>  -3.0295  1.0000</r>
       <r>  -2.8080  1.0000</r>
       <r>  -2.8080  1.0000</r>
       <r>  -2.8080  1.0000</r>
       <r>  -2.8080  1.0000</r>
       <r>  -2.7611  1.0000</r>
       <r>  -2.7610  1.0000</r>
       <r>  -2.7610  1.0000</r>
       <r>  -2.7610  1.0000</r>
       <r>  -2.7522  1.0000</r>
       <r>  -2.7522  1.0000</r>
       <r>  -2.7522  1.0000</r>
       <r>  -2.7522  1.0000</r>
       <r>  -2.7105  1.0000</r>
       <r>  -2.7105  1.0000</r>
       <r>  -2.7105  1.0000</r>
       <r>  -2.7105  1.0000</r>
       <r>  -2.6787  1.0000</r>
       <r>  -2.6787  1.0000</r>
       <r>  -2.6787  1.0000</r>
       <r>  -2.6787  1.0000</r>
       <r>  -2.6530  1.0000</r>
       <r>  -2.6530  1.0000</r>
       <r>  -2.6530  1.0000</r>
       <r>  -2.6530  1.0000</r>
       <r>  -2.5130  1.0000</r>
       <r>  -2.4608  1.0000</r>
       <r>  -2.4608  1.0000</r>
       <r>  -2.4608  1.0000</r>
       <r>  -2.4608  1.0000</r>
       <r>  -2.4359  1.0000</r>
       <r>  -2.4353  1.0000</r>
       <r>  -2.4353  1.0000</r>
       <r>  -2.4353  1.0000</r>
       <r>  -2.4322  1.0000</r>
       <r>  -2.4321  1.0000</r>
       <r>  -2.4321  1.0000</r>
       <r>  -2.4316  1.0000</r>
       <r>  -2.4133  1.0000</r>
       <r>  -2.4133  1.0000</r>
       <r>  -2.4133  1.0000</r>
       <r>  -2.4133  1.0000</r>
       <r>  -2.4107  1.0000</r>
       <r>  -2.3800  1.0000</r>
       <r>  -2.3800  1.0000</r>
       <r>  -2.3800  1.0000</r>
       <r>  -2.3800  1.0000</r>
       <r>  -2.3472  1.0000</r>
       <r>  -2.3472  1.0000</r>
       <r>  -2.3472  1.0000</r>
       <r>  -2.3472  1.0000</r>
       <r>  -2.2732  1.0000</r>
       <r>  -2.2732  1.0000</r>
       <r>  -2.2732  1.0000</r>
       <r>  -2.2732  1.0000</r>
       <r>  -2.1870  1.0000</r>
       <r>  -2.1870  1.0000</r>
       <r>  -2.1870  1.0000</r>
       <r>  -2.1869  1.0000</r>
       <r>  -2.1764  1.0000</r>
       <r>  -2.1764  1.0000</r>
       <r>  -2.1402  1.0000</r>
       <r>  -2.1401  1.0000</r>
       <r>  -2.1401  1.0000</r>
       <r>  -2.1401  1.0000</r>
       <r>  -2.0830  1.0000</r>
       <r>  -2.0830  1.0000</r>
       <r>  -2.0830  1.0000</r>
       <r>  -2.0830  1.0000</r>
       <r>  -2.0670  1.0000</r>
       <r>  -2.0670  1.0000</r>
       <r>  -1.7538  1.0000</r>
       <r>  -1.6837  1.0000</r>
       <r>  -1.6781  1.0000</r>
       <r>  -1.6781  1.0000</r>
       <r>  -1.6781  1.0000</r>
       <r>  -1.6781  1.0000</r>
       <r>  -1.6732  1.0000</r>
       <r>  -1.6732  1.0000</r>
       <r>  -1.6732  1.0000</r>
       <r>  -1.6732  1.0000</r>
       <r>  -1.6494  1.0000</r>
       <r>  -1.6493  1.0000</r>
       <r>  -1.6189  1.0000</r>
       <r>  -1.6189  1.0000</r>
       <r>  -1.6189  1.0000</r>
       <r>  -1.6189  1.0000</r>
       <r>  -1.6084  1.0000</r>
       <r>  -1.6084  1.0000</r>
       <r>  -1.6084  1.0000</r>
       <r>  -1.6084  1.0000</r>
       <r>  -1.5676  1.0000</r>
       <r>  -1.5675  1.0000</r>
       <r>  -1.5675  1.0000</r>
       <r>  -1.5675  1.0000</r>
       <r>  -1.5648  1.0000</r>
       <r>  -1.5648  1.0000</r>
       <r>  -1.5648  1.0000</r>
       <r>  -1.5648  1.0000</r>
       <r>  -1.5228  1.0000</r>
       <r>  -1.4751  1.0000</r>
       <r>  -1.4539  1.0000</r>
       <r>  -1.4539  1.0000</r>
       <r>  -1.4539  1.0000</r>
       <r>  -1.4539  1.0000</r>
       <r>  -1.3535  1.0000</r>
       <r>  -1.3535  1.0000</r>
       <r>  -1.3535  1.0000</r>
       <r>  -1.3535  1.0000</r>
       <r>  -1.3266  1.0000</r>
       <r>  -1.3266  1.0000</r>
       <r>  -1.3193  1.0000</r>
       <r>  -1.3193  1.0000</r>
       <r>  -1.2750  1.0000</r>
       <r>  -1.2750  1.0000</r>
       <r>  -1.2750  1.0000</r>
       <r>  -1.2750  1.0000</r>
       <r>  -1.2202  1.0000</r>
       <r>  -1.2202  1.0000</r>
       <r>  -1.2201  1.0000</r>
       <r>  -1.2201  1.0000</r>
       <r>  -1.2155  1.0000</r>
       <r>  -1.2155  1.0000</r>
       <r>  -1.1947  1.0000</r>
       <r>  -1.1947  1.0000</r>
       <r>  -1.1567  1.0000</r>
       <r>  -1.1567  1.0000</r>
       <r>  -1.1567  1.0000</r>
       <r>  -1.1567  1.0000</r>
       <r>  -1.1515  1.0000</r>
       <r>  -1.1011  1.0000</r>
       <r>  -1.0704  1.0000</r>
       <r>  -1.0704  1.0000</r>
       <r>  -1.0704  1.0000</r>
       <r>  -1.0704  1.0000</r>
       <r>  -1.0604  1.0000</r>
       <r>  -1.0604  1.0000</r>
       <r>  -0.8757  1.0000</r>
       <r>  -0.8754  1.0000</r>
       <r>  -0.8752  1.0000</r>
       <r>  -0.8749  1.0000</r>
       <r>  -0.6324  1.0000</r>
       <r>  -0.6324  1.0000</r>
       <r>  -0.6324  1.0000</r>
       <r>  -0.6324  1.0000</r>
       <r>  -0.1967  1.0000</r>
       <r>  -0.1967  1.0000</r>
       <r>  -0.1967  1.0000</r>
       <r>  -0.1967  1.0000</r>
       <r>   0.6165  1.0000</r>
       <r>   1.4243  1.0000</r>
       <r>   1.4243  1.0000</r>
       <r>   1.4244  1.0000</r>
       <r>   1.4244  1.0000</r>
       <r>   1.5948  1.0000</r>
       <r>   1.5948  1.0000</r>
       <r>   1.5948  1.0000</r>
       <r>   1.5948  1.0000</r>
       <r>   1.6604  1.0000</r>
       <r>   3.4110  0.0000</r>
       <r>   3.4110  0.0000</r>
       <r>   3.4111  0.0000</r>
       <r>   3.4111  0.0000</r>
       <r>   4.4753  0.0000</r>
       <r>   4.4753  0.0000</r>
       <r>   4.4754  0.0000</r>
       <r>   4.4754  0.0000</r>
       <r>   4.4923  0.0000</r>
       <r>   4.4923  0.0000</r>
       <r>   5.1384  0.0000</r>
       <r>   5.1384  0.0000</r>
       <r>   5.8799  0.0000</r>
       <r>   5.8799  0.0000</r>
       <r>   5.8799  0.0000</r>
       <r>   5.8799  0.0000</r>
       <r>   6.8842  0.0000</r>
       <r>   6.8842  0.0000</r>
       <r>   6.8842  0.0000</r>
       <r>   6.8842  0.0000</r>
       <r>   7.3275  0.0000</r>
       <r>   7.3275  0.0000</r>
       <r>   7.4191  0.0000</r>
       <r>   7.4191  0.0000</r>
       <r>   7.7258  0.0000</r>
       <r>   7.7258  0.0000</r>
       <r>   7.7258  0.0000</r>
       <r>   7.7258  0.0000</r>
[...]
       <r>  -1.8283  1.0000</r>
       <r>  -1.8283  1.0000</r>
       <r>  -1.8283  1.0000</r>
       <r>  -1.8283  1.0000</r>
       <r>  -1.8164  1.0000</r>
       <r>  -1.8161  1.0000</r>
       <r>  -1.8161  1.0000</r>
       <r>  -1.8161  1.0000</r>
       <r>  -1.8112  1.0000</r>
       <r>  -1.8112  1.0000</r>
       <r>  -1.8112  1.0000</r>
       <r>  -1.8110  1.0000</r>
       <r>  -1.7670  1.0000</r>
       <r>  -1.7670  1.0000</r>
       <r>  -1.7669  1.0000</r>
       <r>  -1.7669  1.0000</r>
       <r>  -1.7669  1.0000</r>
       <r>  -1.7668  1.0000</r>
       <r>  -1.7667  1.0000</r>
       <r>  -1.7667  1.0000</r>
       <r>  -1.6040  1.0000</r>
       <r>  -1.6039  1.0000</r>
       <r>  -1.6039  1.0000</r>
       <r>  -1.6039  1.0000</r>
       <r>  -1.5660  1.0000</r>
       <r>  -1.5660  1.0000</r>
       <r>  -1.5660  1.0000</r>
       <r>  -1.5660  1.0000</r>
       <r>  -1.5510  1.0000</r>
       <r>  -1.5510  1.0000</r>
       <r>  -1.5507  1.0000</r>
       <r>  -1.5507  1.0000</r>
       <r>  -1.5507  1.0000</r>
       <r>  -1.5506  1.0000</r>
       <r>  -1.5504  1.0000</r>
       <r>  -1.5504  1.0000</r>
       <r>  -1.4297  1.0000</r>
       <r>  -1.4297  1.0000</r>
       <r>  -1.4297  1.0000</r>
       <r>  -1.4297  1.0000</r>
       <r>  -1.3500  1.0000</r>
       <r>  -1.3500  1.0000</r>
       <r>  -1.3500  1.0000</r>
       <r>  -1.3499  1.0000</r>
       <r>  -1.3209  1.0000</r>
       <r>  -1.3209  1.0000</r>
       <r>  -1.3209  1.0000</r>
       <r>  -1.3209  1.0000</r>
       <r>  -1.0098  1.0000</r>
       <r>  -1.0098  1.0000</r>
       <r>  -1.0097  1.0000</r>
       <r>  -1.0097  1.0000</r>
       <r>  -1.0097  1.0000</r>
       <r>  -1.0097  1.0000</r>
       <r>  -1.0096  1.0000</r>
       <r>  -1.0096  1.0000</r>
       <r>  -1.0014  1.0000</r>
       <r>  -1.0014  1.0000</r>
       <r>  -1.0014  1.0000</r>
       <r>  -1.0014  1.0000</r>
       <r>  -0.9925  1.0000</r>
       <r>  -0.9925  1.0000</r>
       <r>  -0.9925  1.0000</r>
       <r>  -0.9925  1.0000</r>
       <r>  -0.9887  1.0000</r>
       <r>  -0.9887  1.0000</r>
       <r>  -0.9886  1.0000</r>
       <r>  -0.9886  1.0000</r>
       <r>  -0.9886  1.0000</r>
       <r>  -0.9886  1.0000</r>
       <r>  -0.9885  1.0000</r>
       <r>  -0.9885  1.0000</r>
       <r>   1.6754  1.0000</r>
       <r>   1.6754  1.0000</r>
       <r>   1.6755  1.0000</r>
       <r>   1.6755  1.0000</r>
       <r>   2.3749  0.0000</r>
       <r>   2.3749  0.0000</r>
       <r>   2.3751  0.0000</r>
       <r>   2.3751  0.0000</r>
       <r>   2.3751  0.0000</r>
       <r>   2.3751  0.0000</r>
       <r>   2.3753  0.0000</r>
       <r>   2.3753  0.0000</r>
       <r>   3.1903  0.0000</r>
       <r>   3.1903  0.0000</r>
       <r>   3.1908  0.0000</r>
       <r>   3.1908  0.0000</r>
       <r>   3.1908  0.0000</r>
       <r>   3.1908  0.0000</r>
       <r>   3.1913  0.0000</r>
       <r>   3.1913  0.0000</r>
       <r>   3.8786  0.0000</r>
       <r>   3.8786  0.0000</r>
       <r>   3.8786  0.0000</r>
       <r>   3.8786  0.0000</r>
       <r>   6.2090  0.0000</r>
       <r>   6.2090  0.0000</r>
       <r>   6.2093  0.0000</r>
       <r>   6.2093  0.0000</r>
       <r>   6.2093  0.0000</r>
       <r>   6.2093  0.0000</r>
       <r>   6.2095  0.0000</r>
       <r>   6.2095  0.0000</r>
       <r>   6.7716  0.0000</r>
       <r>   6.7716  0.0000</r>
       <r>   6.7716  0.0000</r>
       <r>   6.7716  0.0000</r>
       <r>   7.6538  0.0000</r>
       <r>   7.6538  0.0000</r>
       <r>   7.6538  0.0000</r>
       <r>   7.6538  0.0000</r>
       <r>   8.2011  0.0000</r>
       <r>   8.2011  0.0000</r>
       <r>   8.2011  0.0000</r>
       <r>   8.2012  0.0000</r>
      </set>
      <set comment="kpoint 195">
       <r>  -3.3957  1.0000</r>
       <r>  -3.3957  1.0000</r>
       <r>  -3.3957  1.0000</r>
       <r>  -3.3957  1.0000</r>
       <r>  -3.3161  1.0000</r>
       <r>  -3.3161  1.0000</r>
       <r>  -3.3161  1.0000</r>
       <r>  -3.3161  1.0000</r>
       <r>  -3.0710  1.0000</r>
       <r>  -3.0708  1.0000</r>
       <r>  -3.0708  1.0000</r>
       <r>  -3.0706  1.0000</r>
       <r>  -3.0705  1.0000</r>
       <r>  -3.0704  1.0000</r>
       <r>  -3.0704  1.0000</r>
       <r>  -3.0704  1.0000</r>
       <r>  -3.0696  1.0000</r>
       <r>  -3.0693  1.0000</r>
       <r>  -3.0693  1.0000</r>
       <r>  -3.0692  1.0000</r>
       <r>  -3.0518  1.0000</r>
       <r>  -3.0518  1.0000</r>
       <r>  -3.0517  1.0000</r>
       <r>  -3.0517  1.0000</r>
       <r>  -3.0391  1.0000</r>
       <r>  -3.0391  1.0000</r>
       <r>  -3.0389  1.0000</r>
       <r>  -3.0389  1.0000</r>
       <r>  -3.0389  1.0000</r>
       <r>  -3.0388  1.0000</r>
       <r>  -3.0386  1.0000</r>
       <r>  -3.0386  1.0000</r>
       <r>  -2.7002  1.0000</r>
       <r>  -2.7002  1.0000</r>
       <r>  -2.6999  1.0000</r>
       <r>  -2.6999  1.0000</r>
       <r>  -2.6999  1.0000</r>
       <r>  -2.6999  1.0000</r>
       <r>  -2.6996  1.0000</r>
       <r>  -2.6996  1.0000</r>
       <r>  -2.6854  1.0000</r>
       <r>  -2.6853  1.0000</r>
       <r>  -2.6853  1.0000</r>
       <r>  -2.6853  1.0000</r>
       <r>  -2.5834  1.0000</r>
       <r>  -2.5834  1.0000</r>
       <r>  -2.5831  1.0000</r>
       <r>  -2.5831  1.0000</r>
       <r>  -2.5831  1.0000</r>
       <r>  -2.5831  1.0000</r>
       <r>  -2.5828  1.0000</r>
       <r>  -2.5828  1.0000</r>
       <r>  -2.5798  1.0000</r>
       <r>  -2.5798  1.0000</r>
       <r>  -2.5798  1.0000</r>
       <r>  -2.5798  1.0000</r>
       <r>  -2.1632  1.0000</r>
       <r>  -2.1631  1.0000</r>
       <r>  -2.1631  1.0000</r>
       <r>  -2.1631  1.0000</r>
       <r>  -2.1610  1.0000</r>
       <r>  -2.1610  1.0000</r>
       <r>  -2.1609  1.0000</r>
       <r>  -2.1609  1.0000</r>
       <r>  -2.1505  1.0000</r>
       <r>  -2.1504  1.0000</r>
       <r>  -2.1504  1.0000</r>
       <r>  -2.1504  1.0000</r>
       <r>  -2.1419  1.0000</r>
       <r>  -2.1419  1.0000</r>
       <r>  -2.1419  1.0000</r>
       <r>  -2.1419  1.0000</r>
       <r>  -2.0782  1.0000</r>
       <r>  -2.0782  1.0000</r>
       <r>  -2.0782  1.0000</r>
       <r>  -2.0782  1.0000</r>
       <r>  -1.9374  1.0000</r>
       <r>  -1.9374  1.0000</r>
       <r>  -1.9365  1.0000</r>
       <r>  -1.9365  1.0000</r>
       <r>  -1.9365  1.0000</r>
       <r>  -1.9365  1.0000</r>
       <r>  -1.9357  1.0000</r>
       <r>  -1.9357  1.0000</r>
       <r>  -1.9334  1.0000</r>
       <r>  -1.9334  1.0000</r>
       <r>  -1.9333  1.0000</r>
       <r>  -1.9333  1.0000</r>
       <r>  -1.8618  1.0000</r>
       <r>  -1.8618  1.0000</r>
       <r>  -1.8612  1.0000</r>
       <r>  -1.8612  1.0000</r>
       <r>  -1.8611  1.0000</r>
       <r>  -1.8611  1.0000</r>
       <r>  -1.8605  1.0000</r>
       <r>  -1.8605  1.0000</r>
       <r>  -1.8545  1.0000</r>
       <r>  -1.8543  1.0000</r>
       <r>  -1.8542  1.0000</r>
       <r>  -1.8542  1.0000</r>
       <r>  -1.8519  1.0000</r>
       <r>  -1.8519  1.0000</r>
       <r>  -1.8518  1.0000</r>
       <r>  -1.8516  1.0000</r>
       <r>  -1.7640  1.0000</r>
       <r>  -1.7639  1.0000</r>
       <r>  -1.7639  1.0000</r>
       <r>  -1.7639  1.0000</r>
       <r>  -1.7392  1.0000</r>
       <r>  -1.7392  1.0000</r>
       <r>  -1.7389  1.0000</r>
       <r>  -1.7389  1.0000</r>
       <r>  -1.7389  1.0000</r>
       <r>  -1.7389  1.0000</r>
       <r>  -1.7386  1.0000</r>
       <r>  -1.7386  1.0000</r>
       <r>  -1.6344  1.0000</r>
       <r>  -1.6344  1.0000</r>
       <r>  -1.6342  1.0000</r>
       <r>  -1.6341  1.0000</r>
       <r>  -1.6341  1.0000</r>
       <r>  -1.6341  1.0000</r>
       <r>  -1.6338  1.0000</r>
       <r>  -1.6338  1.0000</r>
       <r>  -1.6308  1.0000</r>
       <r>  -1.6308  1.0000</r>
       <r>  -1.6308  1.0000</r>
       <r>  -1.6307  1.0000</r>
       <r>  -1.5436  1.0000</r>
       <r>  -1.5436  1.0000</r>
       <r>  -1.5436  1.0000</r>
       <r>  -1.5436  1.0000</r>
       <r>  -1.4599  1.0000</r>
       <r>  -1.4599  1.0000</r>
       <r>  -1.4599  1.0000</r>
       <r>  -1.4599  1.0000</r>
       <r>  -1.4534  1.0000</r>
       <r>  -1.4534  1.0000</r>
       <r>  -1.4534  1.0000</r>
       <r>  -1.4533  1.0000</r>
       <r>  -1.4148  1.0000</r>
       <r>  -1.4148  1.0000</r>
       <r>  -1.4148  1.0000</r>
       <r>  -1.4148  1.0000</r>
       <r>  -0.9918  1.0000</r>
       <r>  -0.9918  1.0000</r>
       <r>  -0.9918  1.0000</r>
       <r>  -0.9917  1.0000</r>
       <r>  -0.9917  1.0000</r>
       <r>  -0.9917  1.0000</r>
       <r>  -0.9917  1.0000</r>
       <r>  -0.9917  1.0000</r>
       <r>  -0.9871  1.0000</r>
       <r>  -0.9871  1.0000</r>
       <r>  -0.9871  1.0000</r>
       <r>  -0.9871  1.0000</r>
       <r>  -0.9819  1.0000</r>
       <r>  -0.9819  1.0000</r>
       <r>  -0.9819  1.0000</r>
       <r>  -0.9819  1.0000</r>
       <r>  -0.9785  1.0000</r>
       <r>  -0.9785  1.0000</r>
       <r>  -0.9784  1.0000</r>
       <r>  -0.9784  1.0000</r>
       <r>  -0.9784  1.0000</r>
       <r>  -0.9784  1.0000</r>
       <r>  -0.9784  1.0000</r>
       <r>  -0.9784  1.0000</r>
       <r>   2.1926  0.0000</r>
       <r>   2.1926  0.0000</r>
       <r>   2.1926  0.0000</r>
       <r>   2.1926  0.0000</r>
       <r>   2.5407  0.0000</r>
       <r>   2.5407  0.0000</r>
       <r>   2.5410  0.0000</r>
       <r>   2.5410  0.0000</r>
       <r>   2.5410  0.0000</r>
       <r>   2.5410  0.0000</r>
       <r>   2.5412  0.0000</r>
       <r>   2.5412  0.0000</r>
       <r>   2.9522  0.0000</r>
       <r>   2.9522  0.0000</r>
       <r>   2.9526  0.0000</r>
       <r>   2.9526  0.0000</r>
       <r>   2.9526  0.0000</r>
       <r>   2.9526  0.0000</r>
       <r>   2.9530  0.0000</r>
       <r>   2.9530  0.0000</r>
       <r>   3.2984  0.0000</r>
       <r>   3.2984  0.0000</r>
       <r>   3.2984  0.0000</r>
       <r>   3.2984  0.0000</r>
       <r>   6.6646  0.0000</r>
       <r>   6.6646  0.0000</r>
       <r>   6.6648  0.0000</r>
       <r>   6.6648  0.0000</r>
       <r>   6.6648  0.0000</r>
       <r>   6.6648  0.0000</r>
       <r>   6.6650  0.0000</r>
       <r>   6.6650  0.0000</r>
       <r>   6.9444  0.0000</r>
       <r>   6.9444  0.0000</r>
       <r>   6.9444  0.0000</r>
       <r>   6.9444  0.0000</r>
       <r>   7.3875  0.0000</r>
       <r>   7.3875  0.0000</r>
       <r>   7.3875  0.0000</r>
       <r>   7.3875  0.0000</r>
       <r>   7.6632  0.0000</r>
       <r>   7.6632  0.0000</r>
       <r>   7.6633  0.0000</r>
       <r>   7.6634  0.0000</r>
      </set>
      <set comment="kpoint 196">
       <r>  -3.3588  1.0000</r>
       <r>  -3.3576  1.0000</r>
       <r>  -3.3575  1.0000</r>
       <r>  -3.3575  1.0000</r>
       <r>  -3.3568  1.0000</r>
       <r>  -3.3568  1.0000</r>
       <r>  -3.3567  1.0000</r>
       <r>  -3.3556  1.0000</r>
       <r>  -3.0606  1.0000</r>
       <r>  -3.0602  1.0000</r>
       <r>  -3.0602  1.0000</r>
       <r>  -3.0600  1.0000</r>
       <r>  -3.0593  1.0000</r>
       <r>  -3.0590  1.0000</r>
       <r>  -3.0589  1.0000</r>
       <r>  -3.0589  1.0000</r>
       <r>  -3.0589  1.0000</r>
       <r>  -3.0588  1.0000</r>
       <r>  -3.0588  1.0000</r>
       <r>  -3.0588  1.0000</r>
       <r>  -3.0587  1.0000</r>
       <r>  -3.0586  1.0000</r>
       <r>  -3.0586  1.0000</r>
       <r>  -3.0586  1.0000</r>
       <r>  -3.0586  1.0000</r>
       <r>  -3.0586  1.0000</r>
       <r>  -3.0585  1.0000</r>
       <r>  -3.0581  1.0000</r>
       <r>  -3.0575  1.0000</r>
       <r>  -3.0573  1.0000</r>
       <r>  -3.0573  1.0000</r>
       <r>  -3.0569  1.0000</r>
       <r>  -2.6399  1.0000</r>
       <r>  -2.6374  1.0000</r>
       <r>  -2.6373  1.0000</r>
       <r>  -2.6373  1.0000</r>
       <r>  -2.6373  1.0000</r>
       <r>  -2.6369  1.0000</r>
       <r>  -2.6367  1.0000</r>
       <r>  -2.6367  1.0000</r>
       <r>  -2.6366  1.0000</r>
       <r>  -2.6365  1.0000</r>
       <r>  -2.6365  1.0000</r>
       <r>  -2.6365  1.0000</r>
       <r>  -2.6365  1.0000</r>
       <r>  -2.6365  1.0000</r>
       <r>  -2.6365  1.0000</r>
       <r>  -2.6364  1.0000</r>
       <r>  -2.6363  1.0000</r>
       <r>  -2.6363  1.0000</r>
       <r>  -2.6361  1.0000</r>
       <r>  -2.6357  1.0000</r>
       <r>  -2.6357  1.0000</r>
       <r>  -2.6357  1.0000</r>
       <r>  -2.6356  1.0000</r>
       <r>  -2.6332  1.0000</r>
       <r>  -2.1504  1.0000</r>
       <r>  -2.1504  1.0000</r>
       <r>  -2.1502  1.0000</r>
       <r>  -2.1500  1.0000</r>
       <r>  -2.1497  1.0000</r>
       <r>  -2.1496  1.0000</r>
       <r>  -2.1496  1.0000</r>
       <r>  -2.1496  1.0000</r>
       <r>  -2.1494  1.0000</r>
       <r>  -2.1494  1.0000</r>
       <r>  -2.1494  1.0000</r>
       <r>  -2.1493  1.0000</r>
       <r>  -2.1489  1.0000</r>
       <r>  -2.1489  1.0000</r>
       <r>  -2.1487  1.0000</r>
       <r>  -2.1487  1.0000</r>
       <r>  -1.9683  1.0000</r>
       <r>  -1.9679  1.0000</r>
       <r>  -1.9669  1.0000</r>
       <r>  -1.9669  1.0000</r>
       <r>  -1.9669  1.0000</r>
       <r>  -1.9669  1.0000</r>
       <r>  -1.9659  1.0000</r>
       <r>  -1.9654  1.0000</r>
       <r>  -1.8968  1.0000</r>
       <r>  -1.8968  1.0000</r>
       <r>  -1.8958  1.0000</r>
       <r>  -1.8957  1.0000</r>
       <r>  -1.8947  1.0000</r>
       <r>  -1.8946  1.0000</r>
       <r>  -1.8946  1.0000</r>
       <r>  -1.8946  1.0000</r>
       <r>  -1.8946  1.0000</r>
       <r>  -1.8946  1.0000</r>
       <r>  -1.8945  1.0000</r>
       <r>  -1.8945  1.0000</r>
       <r>  -1.8945  1.0000</r>
       <r>  -1.8945  1.0000</r>
       <r>  -1.8944  1.0000</r>
       <r>  -1.8944  1.0000</r>
       <r>  -1.8944  1.0000</r>
       <r>  -1.8944  1.0000</r>
       <r>  -1.8944  1.0000</r>
       <r>  -1.8943  1.0000</r>
       <r>  -1.8933  1.0000</r>
       <r>  -1.8931  1.0000</r>
       <r>  -1.8922  1.0000</r>
       <r>  -1.8922  1.0000</r>
       <r>  -1.7000  1.0000</r>
       <r>  -1.6992  1.0000</r>
       <r>  -1.6992  1.0000</r>
       <r>  -1.6980  1.0000</r>
       <r>  -1.6979  1.0000</r>
       <r>  -1.6978  1.0000</r>
       <r>  -1.6978  1.0000</r>
       <r>  -1.6977  1.0000</r>
       <r>  -1.6976  1.0000</r>
       <r>  -1.6976  1.0000</r>
       <r>  -1.6976  1.0000</r>
       <r>  -1.6976  1.0000</r>
       <r>  -1.6975  1.0000</r>
       <r>  -1.6975  1.0000</r>
       <r>  -1.6975  1.0000</r>
       <r>  -1.6975  1.0000</r>
       <r>  -1.6974  1.0000</r>
       <r>  -1.6973  1.0000</r>
       <r>  -1.6973  1.0000</r>
       <r>  -1.6972  1.0000</r>
       <r>  -1.6971  1.0000</r>
       <r>  -1.6958  1.0000</r>
       <r>  -1.6958  1.0000</r>
       <r>  -1.6951  1.0000</r>
       <r>  -1.4816  1.0000</r>
       <r>  -1.4807  1.0000</r>
       <r>  -1.4807  1.0000</r>
       <r>  -1.4807  1.0000</r>
       <r>  -1.4801  1.0000</r>
       <r>  -1.4801  1.0000</r>
       <r>  -1.4800  1.0000</r>
       <r>  -1.4799  1.0000</r>
       <r>  -1.4799  1.0000</r>
       <r>  -1.4798  1.0000</r>
       <r>  -1.4797  1.0000</r>
       <r>  -1.4797  1.0000</r>
       <r>  -1.4791  1.0000</r>
       <r>  -1.4791  1.0000</r>
       <r>  -1.4791  1.0000</r>
       <r>  -1.4782  1.0000</r>
       <r>  -0.9808  1.0000</r>
       <r>  -0.9808  1.0000</r>
       <r>  -0.9806  1.0000</r>
       <r>  -0.9805  1.0000</r>
       <r>  -0.9805  1.0000</r>
       <r>  -0.9805  1.0000</r>
       <r>  -0.9805  1.0000</r>
       <r>  -0.9805  1.0000</r>
       <r>  -0.9804  1.0000</r>
       <r>  -0.9804  1.0000</r>
       <r>  -0.9804  1.0000</r>
       <r>  -0.9803  1.0000</r>
       <r>  -0.9802  1.0000</r>
       <r>  -0.9802  1.0000</r>
       <r>  -0.9802  1.0000</r>
       <r>  -0.9801  1.0000</r>
       <r>  -0.9801  1.0000</r>
       <r>  -0.9801  1.0000</r>
       <r>  -0.9801  1.0000</r>
       <r>  -0.9801  1.0000</r>
       <r>  -0.9801  1.0000</r>
       <r>  -0.9799  1.0000</r>
       <r>  -0.9798  1.0000</r>
       <r>  -0.9798  1.0000</r>
       <r>   2.7297  0.0000</r>
       <r>   2.7321  0.0000</r>
       <r>   2.7321  0.0000</r>
       <r>   2.7341  0.0000</r>
       <r>   2.7343  0.0000</r>
       <r>   2.7345  0.0000</r>
       <r>   2.7345  0.0000</r>
       <r>   2.7346  0.0000</r>
       <r>   2.7346  0.0000</r>
       <r>   2.7346  0.0000</r>
       <r>   2.7346  0.0000</r>
       <r>   2.7346  0.0000</r>
       <r>   2.7347  0.0000</r>
       <r>   2.7347  0.0000</r>
       <r>   2.7347  0.0000</r>
       <r>   2.7348  0.0000</r>
       <r>   2.7348  0.0000</r>
       <r>   2.7348  0.0000</r>
       <r>   2.7348  0.0000</r>
       <r>   2.7350  0.0000</r>
       <r>   2.7352  0.0000</r>
       <r>   2.7372  0.0000</r>
       <r>   2.7372  0.0000</r>
       <r>   2.7397  0.0000</r>
       <r>   7.1464  0.0000</r>
       <r>   7.1468  0.0000</r>
       <r>   7.1483  0.0000</r>
       <r>   7.1496  0.0000</r>
       <r>   7.1498  0.0000</r>
       <r>   7.1500  0.0000</r>
       <r>   7.1502  0.0000</r>
       <r>   7.1503  0.0000</r>
       <r>   7.1503  0.0000</r>
       <r>   7.1504  0.0000</r>
       <r>   7.1504  0.0000</r>
       <r>   7.1504  0.0000</r>
       <r>   7.1504  0.0000</r>
       <r>   7.1506  0.0000</r>
       <r>   7.1507  0.0000</r>
       <r>   7.1509  0.0000</r>
       <r>   7.1510  0.0000</r>
       <r>   7.1519  0.0000</r>
       <r>   7.1528  0.0000</r>
       <r>   7.1539  0.0000</r>
      </set>
     </set>
    </set>
   </array>
  </eigenvalues>
 </calculation>
 <structure name="finalpos" >
  <crystal>
   <varray name="basis" >
    <v>       8.74277204      0.00000000      0.00000000</v>
    <v>       0.00000000      8.74277204      0.00000000</v>
    <v>       0.00000000      0.00000000      8.74277204</v>
   </varray>
   <i name="volume">    668.26307427</i>
   <varray name="rec_basis" >
    <v>       0.11438020      0.00000000      0.00000000</v>
    <v>       0.00000000      0.11438020      0.00000000</v>
    <v>       0.00000000      0.00000000      0.11438020</v>
   </varray>
  </crystal>
  <varray name="positions" >
   <v>       0.00114380      0.00000000      0.00000000</v>
   <v>       0.50000000      0.00000000      0.00000000</v>
   <v>       0.00000000      0.50000000      0.00000000</v>
   <v>       0.50000000      0.50000000      0.00000000</v>
   <v>       0.00000000      0.00000000      0.50000000</v>
   <v>       0.50000000      0.00000000      0.50000000</v>
   <v>       0.00000000      0.50000000      0.50000000</v>
   <v>       0.50000000      0.50000000      0.50000000</v>
   <v>       0.25000000      0.25000000      0.00000000</v>
   <v>       0.75000000      0.25000000      0.00000000</v>
   <v>       0.25000000      0.75000000      0.00000000</v>
   <v>       0.75000000      0.75000000      0.00000000</v>
   <v>       0.25000000      0.25000000      0.50000000</v>
   <v>       0.75000000      0.25000000      0.50000000</v>
   <v>       0.25000000      0.75000000      0.50000000</v>
   <v>       0.75000000      0.75000000      0.50000000</v>
   <v>       0.25000000      0.00000000      0.25000000</v>
   <v>       0.75000000      0.00000000      0.25000000</v>
   <v>       0.25000000      0.50000000      0.25000000</v>
   <v>       0.75000000      0.50000000      0.25000000</v>
   <v>       0.25000000      0.00000000      0.75000000</v>
   <v>       0.75000000      0.00000000      0.75000000</v>
   <v>       0.25000000      0.50000000      0.75000000</v>
   <v>       0.75000000      0.50000000      0.75000000</v>
   <v>       0.00000000      0.25000000      0.25000000</v>
   <v>       0.50000000      0.25000000      0.25000000</v>
   <v>       0.00000000      0.75000000      0.25000000</v>
   <v>       0.50000000      0.75000000      0.25000000</v>
   <v>       0.00000000      0.25000000      0.75000000</v>
   <v>       0.50000000      0.25000000      0.75000000</v>
   <v>       0.00000000      0.75000000      0.75000000</v>
   <v>       0.50000000      0.75000000      0.75000000</v>
  </varray>
 </structure>
</modeling>
