32   
1    

1    
  0.0100000000000000   0.0000000000000000   0.0000000000000000
  -0.0191454600    0.0000000000    0.0000000000
   0.0037236200    0.0000000000   -0.0000000000
  -0.0005525700   -0.0000000000   -0.0000000000
  -0.0019838400    0.0000000000   -0.0000000000
  -0.0005525700   -0.0000000000    0.0000000000
  -0.0019838400   -0.0000000000   -0.0000000000
   0.0003233500   -0.0000000000   -0.0000000000
  -0.0001653200   -0.0000000000   -0.0000000000
   0.0030253600    0.0041173900    0.0000000000
   0.0028729800   -0.0039131000    0.0000000000
   0.0030253600   -0.0041173900    0.0000000000
   0.0028729800    0.0039131000    0.0000000000
   0.0002561100    0.0000290800   -0.0000000000
   0.0002553500   -0.0000272000    0.0000000000
   0.0002561100   -0.0000290800    0.0000000000
   0.0002553500    0.0000272000    0.0000000000
   0.0030253600    0.0000000000    0.0041173900
   0.0028729800   -0.0000000000   -0.0039131000
   0.0002561100   -0.0000000000    0.0000290800
   0.0002553500   -0.0000000000   -0.0000272000
   0.0030253600    0.0000000000   -0.0041173900
   0.0028729800   -0.0000000000    0.0039131000
   0.0002561100    0.0000000000   -0.0000290800
   0.0002553500   -0.0000000000    0.0000272000
  -0.0020377700    0.0000017100    0.0000017100
   0.0007121300    0.0000028100    0.0000028100
  -0.0020377700   -0.0000017100    0.0000017100
   0.0007121300   -0.0000028100    0.0000028100
  -0.0020377700    0.0000017100   -0.0000017100
   0.0007121300    0.0000028100   -0.0000028100
  -0.0020377700   -0.0000017100   -0.0000017100
   0.0007121300   -0.0000028100   -0.0000028100
