mesh: [    48,    48,    48 ]
nqpoint: 2600   
reciprocal_lattice:
- [   0.23042717,   0.00000000,   0.00000000 ] # a*
- [   0.00000000,   0.23042717,   0.00000000 ] # b*
- [   0.00000000,   0.00000000,   0.23042717 ] # c*
natom:   4      
lattice:
- [     4.339765978407462,     0.000000000000000,     0.000000000000000 ] # a
- [     0.000000000000000,     4.339765978407462,     0.000000000000000 ] # b
- [     0.000000000000000,     0.000000000000000,     4.339765978407462 ] # c
points:
- symbol: Au # 1
  coordinates: [  0.000000000000000,  0.000000000000000,  0.000000000000000 ]
  mass: 196.966569
- symbol: Au # 2
  coordinates: [  0.500000000000000,  0.500000000000000,  0.000000000000000 ]
  mass: 196.966569
- symbol: Au # 3
  coordinates: [  0.500000000000000,  0.000000000000000,  0.500000000000000 ]
  mass: 196.966569
- symbol: Au # 4
  coordinates: [  0.000000000000000,  0.500000000000000,  0.500000000000000 ]
  mass: 196.966569
phonon:
- q-position: [    0.0104167,    0.0104167,    0.0104167 ]
  weight: 8    
  band:
  - # 1
    frequency:     0.0219215458
  - # 2
    frequency:     0.0219215458
  - # 3
    frequency:     0.0832206387
  - # 4
    frequency:     1.3645101727
  - # 5
    frequency:     1.3645101727
  - # 6
    frequency:     1.3645101727
  - # 7
    frequency:     1.3660829781
  - # 8
    frequency:     1.3660829781
  - # 9
    frequency:     1.3660829781
  - # 10
    frequency:     2.5214008307
  - # 11
    frequency:     2.5214008307
  - # 12
    frequency:     2.5214008307

- q-position: [    0.0312500,    0.0104167,    0.0104167 ]
  weight: 24   
  band:
  - # 1
    frequency:     0.0400168686
  - # 2
    frequency:     0.0411882038
  - # 3
    frequency:     0.1600520520
  - # 4
    frequency:     1.3615674157
  - # 5
    frequency:     1.3615674157
  - # 6
    frequency:     1.3619977880
  - # 7
    frequency:     1.3635672919
  - # 8
    frequency:     1.3673869251
  - # 9
    frequency:     1.3673869251
  - # 10
    frequency:     2.5180657643
  - # 11
    frequency:     2.5180657643
  - # 12
    frequency:     2.5197326835

- q-position: [    0.0520833,    0.0104167,    0.0104167 ]
  weight: 24   
  band:
  - # 1
    frequency:     0.0622486086
  - # 2
    frequency:     0.0632310666
  - # 3
    frequency:     0.2510255198
  - # 4
    frequency:     1.3564197589
  - # 5
    frequency:     1.3564197589
  - # 6
    frequency:     1.3569834123
  - # 7
    frequency:     1.3585463580
  - # 8
    frequency:     1.3693144571
  - # 9
    frequency:     1.3693144571
  - # 10
    frequency:     2.5114150484
  - # 11
    frequency:     2.5114150484
  - # 12
    frequency:     2.5163869874

- q-position: [    0.0729167,    0.0104167,    0.0104167 ]
  weight: 24   
  band:
  - # 1
    frequency:     0.0858155212
  - # 2
    frequency:     0.0866424442
  - # 3
    frequency:     0.3446258565
  - # 4
    frequency:     1.3489176654
  - # 5
    frequency:     1.3489176654
  - # 6
    frequency:     1.3494877848
  - # 7
    frequency:     1.3510410040
  - # 8
    frequency:     1.3721291893
  - # 9
    frequency:     1.3721291893
  - # 10
    frequency:     2.5014874482
  - # 11
    frequency:     2.5014874482
  - # 12
    frequency:     2.5113450990

- q-position: [    0.0937500,    0.0104167,    0.0104167 ]
  weight: 24   
  band:
  - # 1
    frequency:     0.1102832245
  - # 2
    frequency:     0.1110191363
  - # 3
    frequency:     0.4386716036
  - # 4
    frequency:     1.3390955593
  - # 5
    frequency:     1.3390955593
  - # 6
    frequency:     1.3395418935
  - # 7
    frequency:     1.3410823464
  - # 8
    frequency:     1.3759655394
  - # 9
    frequency:     1.3759655394
  - # 10
    frequency:     2.4883409366
  - # 11
    frequency:     2.4883409366
  - # 12
    frequency:     2.5045794499

- q-position: [    0.1145833,    0.0104167,    0.0104167 ]
  weight: 24   
  band:
  - # 1
    frequency:     0.1356074057
  - # 2
    frequency:     0.1362926770
  - # 3
    frequency:     0.5323897269
  - # 4
    frequency:     1.3270553067
  - # 5
    frequency:     1.3270553067
  - # 6
    frequency:     1.3271868304
  - # 7
    frequency:     1.3287116419
  - # 8
    frequency:     1.3809425342
  - # 9
    frequency:     1.3809425342
  - # 10
    frequency:     2.4720524850
  - # 11
    frequency:     2.4720524850
  - # 12
    frequency:     2.4960540136

- q-position: [    0.1354167,    0.0104167,    0.0104167 ]
  weight: 24   
  band:
  - # 1
    frequency:     0.1618331336
  - # 2
    frequency:     0.1624923476
  - # 3
    frequency:     0.6253675827
  - # 4
    frequency:     1.3124736003
  - # 5
    frequency:     1.3129388495
  - # 6
    frequency:     1.3129388495
  - # 7
    frequency:     1.3139800902
  - # 8
    frequency:     1.3871875966
  - # 9
    frequency:     1.3871875966
  - # 10
    frequency:     2.4527177802
  - # 11
    frequency:     2.4527177802
  - # 12
    frequency:     2.4857249134

- q-position: [    0.1562500,    0.0104167,    0.0104167 ]
  weight: 24   
  band:
  - # 1
    frequency:     0.1890233997
  - # 2
    frequency:     0.1896720872
  - # 3
    frequency:     0.7173205215
  - # 4
    frequency:     1.2954628809
  - # 5
    frequency:     1.2969215419
  - # 6
    frequency:     1.2969215419
  - # 7
    frequency:     1.2969485886
  - # 8
    frequency:     1.3948388056
  - # 9
    frequency:     1.3948388056
  - # 10
    frequency:     2.4304508665
  - # 11
    frequency:     2.4304508665
  - # 12
    frequency:     2.4735411585

- q-position: [    0.1770833,    0.0104167,    0.0104167 ]
  weight: 24   
  band:
  - # 1
    frequency:     0.2172360964
  - # 2
    frequency:     0.2178844700
  - # 3
    frequency:     0.8080211823
  - # 4
    frequency:     1.2762247377
  - # 5
    frequency:     1.2776874403
  - # 6
    frequency:     1.2792102441
  - # 7
    frequency:     1.2792102441
  - # 8
    frequency:     1.4040416382
  - # 9
    frequency:     1.4040416382
  - # 10
    frequency:     2.4053837108
  - # 11
    frequency:     2.4053837108
  - # 12
    frequency:     2.4594454961

- q-position: [    0.1979167,    0.0104167,    0.0104167 ]
  weight: 24   
  band:
  - # 1
    frequency:     0.2465151656
  - # 2
    frequency:     0.2471701829
  - # 3
    frequency:     0.8972733533
  - # 4
    frequency:     1.2548382928
  - # 5
    frequency:     1.2562760171
  - # 6
    frequency:     1.2600426148
  - # 7
    frequency:     1.2600426148
  - # 8
    frequency:     1.4149438376
  - # 9
    frequency:     1.4149438376
  - # 10
    frequency:     2.3776656842
  - # 11
    frequency:     2.3776656842
  - # 12
    frequency:     2.4433753609

- q-position: [    0.2187500,    0.0104167,    0.0104167 ]
  weight: 24   
  band:
  - # 1
    frequency:     0.2768870205
  - # 2
    frequency:     0.2775535725
  - # 3
    frequency:     0.9849010299
  - # 4
    frequency:     1.2313913495
  - # 5
    frequency:     1.2328023766
  - # 6
    frequency:     1.2396865976
  - # 7
    frequency:     1.2396865976
  - # 8
    frequency:     1.4276895091
  - # 9
    frequency:     1.4276895091
  - # 10
    frequency:     2.3474629569
  - # 11
    frequency:     2.3474629569
  - # 12
    frequency:     2.4252639077

- q-position: [    0.2395833,    0.0104167,    0.0104167 ]
  weight: 24   
  band:
  - # 1
    frequency:     0.3083593314
  - # 2
    frequency:     0.3090409583
  - # 3
    frequency:     1.0707434801
  - # 4
    frequency:     1.2059799718
  - # 5
    frequency:     1.2073628376
  - # 6
    frequency:     1.2184396881
  - # 7
    frequency:     1.2184396881
  - # 8
    frequency:     1.4424129620
  - # 9
    frequency:     1.4424129620
  - # 10
    frequency:     2.3149577976
  - # 11
    frequency:     2.3149577976
  - # 12
    frequency:     2.4050411067

- q-position: [    0.2604167,    0.0104167,    0.0104167 ]
  weight: 24   
  band:
  - # 1
    frequency:     0.3409210254
  - # 2
    frequency:     0.3416203660
  - # 3
    frequency:     1.1546529503
  - # 4
    frequency:     1.1787080222
  - # 5
    frequency:     1.1800615115
  - # 6
    frequency:     1.1966277015
  - # 7
    frequency:     1.1966277015
  - # 8
    frequency:     1.4592326610
  - # 9
    frequency:     1.4592326610
  - # 10
    frequency:     2.2803477689
  - # 11
    frequency:     2.2803477689
  - # 12
    frequency:     2.3826348860

- q-position: [    0.2812500,    0.0104167,    0.0104167 ]
  weight: 24   
  band:
  - # 1
    frequency:     0.3745429621
  - # 2
    frequency:     0.3752620440
  - # 3
    frequency:     1.1496866567
  - # 4
    frequency:     1.1510097938
  - # 5
    frequency:     1.1746027686
  - # 6
    frequency:     1.1746027686
  - # 7
    frequency:     1.2364936208
  - # 8
    frequency:     1.4782456082
  - # 9
    frequency:     1.4782456082
  - # 10
    frequency:     2.2438448081
  - # 11
    frequency:     2.2438448081
  - # 12
    frequency:     2.3579723014

- q-position: [    0.3020833,    0.0104167,    0.0104167 ]
  weight: 24   
  band:
  - # 1
    frequency:     0.4091789949
  - # 2
    frequency:     0.4099194283
  - # 3
    frequency:     1.1190337792
  - # 4
    frequency:     1.1203258148
  - # 5
    frequency:     1.1527402643
  - # 6
    frequency:     1.1527402643
  - # 7
    frequency:     1.3161411823
  - # 8
    frequency:     1.4995224352
  - # 9
    frequency:     1.4995224352
  - # 10
    frequency:     2.2056741788
  - # 11
    frequency:     2.2056741788
  - # 12
    frequency:     2.3309807175

- q-position: [    0.3229167,    0.0104167,    0.0104167 ]
  weight: 24   
  band:
  - # 1
    frequency:     0.4447672502
  - # 2
    frequency:     0.4455303582
  - # 3
    frequency:     1.0868734551
  - # 4
    frequency:     1.0881338506
  - # 5
    frequency:     1.1314343468
  - # 6
    frequency:     1.1314343468
  - # 7
    frequency:     1.3934827230
  - # 8
    frequency:     1.5231034425
  - # 9
    frequency:     1.5231034425
  - # 10
    frequency:     2.1660732789
  - # 11
    frequency:     2.1660732789
  - # 12
    frequency:     2.3015889834

- q-position: [    0.3437500,    0.0104167,    0.0104167 ]
  weight: 24   
  band:
  - # 1
    frequency:     0.4812315132
  - # 2
    frequency:     0.4820184209
  - # 3
    frequency:     1.0533352866
  - # 4
    frequency:     1.0545636967
  - # 5
    frequency:     1.1110917867
  - # 6
    frequency:     1.1110917867
  - # 7
    frequency:     1.4684167651
  - # 8
    frequency:     1.5489957540
  - # 9
    frequency:     1.5489957540
  - # 10
    frequency:     2.1252902850
  - # 11
    frequency:     2.1252902850
  - # 12
    frequency:     2.2697285876

- q-position: [    0.3645833,    0.0104167,    0.0104167 ]
  weight: 24   
  band:
  - # 1
    frequency:     0.5184826547
  - # 2
    frequency:     0.5192943503
  - # 3
    frequency:     1.0185537487
  - # 4
    frequency:     1.0197500027
  - # 5
    frequency:     1.0921238153
  - # 6
    frequency:     1.0921238153
  - # 7
    frequency:     1.5408533605
  - # 8
    frequency:     1.5771716760
  - # 9
    frequency:     1.5771716760
  - # 10
    frequency:     2.0835826142
  - # 11
    frequency:     2.0835826142
  - # 12
    frequency:     2.2353347789

- q-position: [    0.3854167,    0.0104167,    0.0104167 ]
  weight: 24   
  band:
  - # 1
    frequency:     0.5564200534
  - # 2
    frequency:     0.5572574295
  - # 3
    frequency:     0.9826674868
  - # 4
    frequency:     0.9838315701
  - # 5
    frequency:     1.0749358517
  - # 6
    frequency:     1.0749358517
  - # 7
    frequency:     1.6075682662
  - # 8
    frequency:     1.6075682662
  - # 9
    frequency:     1.6107141926
  - # 10
    frequency:     2.0412151821
  - # 11
    frequency:     2.0412151821
  - # 12
    frequency:     2.1983476406

- q-position: [    0.4062500,    0.0104167,    0.0104167 ]
  weight: 24   
  band:
  - # 1
    frequency:     0.5949329883
  - # 2
    frequency:     0.5957968692
  - # 3
    frequency:     0.9458185779
  - # 4
    frequency:     0.9469506128
  - # 5
    frequency:     1.0599151874
  - # 6
    frequency:     1.0599151874
  - # 7
    frequency:     1.6400880325
  - # 8
    frequency:     1.6400880325
  - # 9
    frequency:     1.6779326524
  - # 10
    frequency:     1.9984584398
  - # 11
    frequency:     1.9984584398
  - # 12
    frequency:     2.1587131069

- q-position: [    0.4270833,    0.0104167,    0.0104167 ]
  weight: 24   
  band:
  - # 1
    frequency:     0.6339019846
  - # 2
    frequency:     0.6347931432
  - # 3
    frequency:     0.9081517525
  - # 4
    frequency:     0.9092519804
  - # 5
    frequency:     1.0474170276
  - # 6
    frequency:     1.0474170276
  - # 7
    frequency:     1.6746006051
  - # 8
    frequency:     1.6746006051
  - # 9
    frequency:     1.7424538664
  - # 10
    frequency:     1.9555861893
  - # 11
    frequency:     1.9555861893
  - # 12
    frequency:     2.1163839140

- q-position: [    0.4479167,    0.0104167,    0.0104167 ]
  weight: 24   
  band:
  - # 1
    frequency:     0.6732001059
  - # 2
    frequency:     0.6741192736
  - # 3
    frequency:     0.8698135798
  - # 4
    frequency:     0.8708823440
  - # 5
    frequency:     1.0377496745
  - # 6
    frequency:     1.0377496745
  - # 7
    frequency:     1.7109451045
  - # 8
    frequency:     1.7109451045
  - # 9
    frequency:     1.8042346634
  - # 10
    frequency:     1.9128732487
  - # 11
    frequency:     1.9128732487
  - # 12
    frequency:     2.0713204755

- q-position: [    0.4687500,    0.0104167,    0.0104167 ]
  weight: 24   
  band:
  - # 1
    frequency:     0.7126941905
  - # 2
    frequency:     0.7136420609
  - # 3
    frequency:     0.8309516131
  - # 4
    frequency:     0.8319893434
  - # 5
    frequency:     1.0311600123
  - # 6
    frequency:     1.0311600123
  - # 7
    frequency:     1.7489324230
  - # 8
    frequency:     1.7489324230
  - # 9
    frequency:     1.8632434685
  - # 10
    frequency:     1.8705935365
  - # 11
    frequency:     1.8705935365
  - # 12
    frequency:     2.0234916794

- q-position: [    0.4895833,    0.0104167,    0.0104167 ]
  weight: 24   
  band:
  - # 1
    frequency:     0.7522460304
  - # 2
    frequency:     0.7532232586
  - # 3
    frequency:     0.7917134968
  - # 4
    frequency:     0.7927206950
  - # 5
    frequency:     1.0278207256
  - # 6
    frequency:     1.0278207256
  - # 7
    frequency:     1.7883373408
  - # 8
    frequency:     1.7883373408
  - # 9
    frequency:     1.8290284419
  - # 10
    frequency:     1.8290284419
  - # 11
    frequency:     1.9194601198
  - # 12
    frequency:     1.9728755995

- q-position: [    0.0312500,    0.0312500,    0.0104167 ]
  weight: 24   
  band:
  - # 1
    frequency:     0.0523362250
  - # 2
    frequency:     0.0571785592
  - # 3
    frequency:     0.2096390198
  - # 4
    frequency:     1.3566098178
  - # 5
    frequency:     1.3590695847
  - # 6
    frequency:     1.3590695847
  - # 7
    frequency:     1.3648683886
  - # 8
    frequency:     1.3648683886
  - # 9
    frequency:     1.3707413945
  - # 10
    frequency:     2.5147312469
  - # 11
    frequency:     2.5164263856
  - # 12
    frequency:     2.5164263856

- q-position: [    0.0520833,    0.0312500,    0.0104167 ]
  weight: 48   
  band:
  - # 1
    frequency:     0.0706576899
  - # 2
    frequency:     0.0767313635
  - # 3
    frequency:     0.2847409034
  - # 4
    frequency:     1.3498597660
  - # 5
    frequency:     1.3539537435
  - # 6
    frequency:     1.3540842933
  - # 7
    frequency:     1.3598418630
  - # 8
    frequency:     1.3667872421
  - # 9
    frequency:     1.3743419786
  - # 10
    frequency:     2.5080816301
  - # 11
    frequency:     2.5098330978
  - # 12
    frequency:     2.5131379224

- q-position: [    0.0729167,    0.0312500,    0.0104167 ]
  weight: 48   
  band:
  - # 1
    frequency:     0.0919262291
  - # 2
    frequency:     0.0980367926
  - # 3
    frequency:     0.3697108231
  - # 4
    frequency:     1.3413115670
  - # 5
    frequency:     1.3464997737
  - # 6
    frequency:     1.3466322283
  - # 7
    frequency:     1.3523283937
  - # 8
    frequency:     1.3695878770
  - # 9
    frequency:     1.3783070558
  - # 10
    frequency:     2.4981556801
  - # 11
    frequency:     2.4999913662
  - # 12
    frequency:     2.5081811316

- q-position: [    0.0937500,    0.0312500,    0.0104167 ]
  weight: 48   
  band:
  - # 1
    frequency:     0.1149222281
  - # 2
    frequency:     0.1208727871
  - # 3
    frequency:     0.4585388626
  - # 4
    frequency:     1.3308535492
  - # 5
    frequency:     1.3367406603
  - # 6
    frequency:     1.3367442820
  - # 7
    frequency:     1.3423594265
  - # 8
    frequency:     1.3734053217
  - # 9
    frequency:     1.3829150965
  - # 10
    frequency:     2.4850113729
  - # 11
    frequency:     2.4869588350
  - # 12
    frequency:     2.5015275674

- q-position: [    0.1145833,    0.0312500,    0.0104167 ]
  weight: 48   
  band:
  - # 1
    frequency:     0.1392255740
  - # 2
    frequency:     0.1450408565
  - # 3
    frequency:     0.5488027693
  - # 4
    frequency:     1.3184600184
  - # 5
    frequency:     1.3244613894
  - # 6
    frequency:     1.3247766643
  - # 7
    frequency:     1.3299766618
  - # 8
    frequency:     1.3783590813
  - # 9
    frequency:     1.3884100507
  - # 10
    frequency:     2.4687256841
  - # 11
    frequency:     2.4708120359
  - # 12
    frequency:     2.4931400733

- q-position: [    0.1354167,    0.0312500,    0.0104167 ]
  weight: 48   
  band:
  - # 1
    frequency:     0.1647001070
  - # 2
    frequency:     0.1704301041
  - # 3
    frequency:     0.6393340122
  - # 4
    frequency:     1.3041864024
  - # 5
    frequency:     1.3098343106
  - # 6
    frequency:     1.3107478260
  - # 7
    frequency:     1.3152318628
  - # 8
    frequency:     1.3845770357
  - # 9
    frequency:     1.3950026968
  - # 10
    frequency:     2.4493943071
  - # 11
    frequency:     2.4516461029
  - # 12
    frequency:     2.4829734208

- q-position: [    0.1562500,    0.0312500,    0.0104167 ]
  weight: 48   
  band:
  - # 1
    frequency:     0.1913140201
  - # 2
    frequency:     0.1969940166
  - # 3
    frequency:     0.7294632558
  - # 4
    frequency:     1.2881524493
  - # 5
    frequency:     1.2929233617
  - # 6
    frequency:     1.2948272295
  - # 7
    frequency:     1.2981866182
  - # 8
    frequency:     1.3921977474
  - # 9
    frequency:     1.4028831267
  - # 10
    frequency:     2.4271312968
  - # 11
    frequency:     2.4295744140
  - # 12
    frequency:     2.4709750829

- q-position: [    0.1770833,    0.0312500,    0.0104167 ]
  weight: 48   
  band:
  - # 1
    frequency:     0.2190715124
  - # 2
    frequency:     0.2247181359
  - # 3
    frequency:     0.8187490012
  - # 4
    frequency:     1.2705293363
  - # 5
    frequency:     1.2737980948
  - # 6
    frequency:     1.2772190591
  - # 7
    frequency:     1.2789120628
  - # 8
    frequency:     1.4013672146
  - # 9
    frequency:     1.4122285721
  - # 10
    frequency:     2.4020686345
  - # 11
    frequency:     2.4047281531
  - # 12
    frequency:     2.4570861242

- q-position: [    0.1979167,    0.0312500,    0.0104167 ]
  weight: 48   
  band:
  - # 1
    frequency:     0.2479839195
  - # 2
    frequency:     0.2535986958
  - # 3
    frequency:     0.9068669569
  - # 4
    frequency:     1.2515313192
  - # 5
    frequency:     1.2525369279
  - # 6
    frequency:     1.2574885567
  - # 7
    frequency:     1.2581578676
  - # 8
    frequency:     1.4122337332
  - # 9
    frequency:     1.4232060176
  - # 10
    frequency:     2.3743557126
  - # 11
    frequency:     2.3772557893
  - # 12
    frequency:     2.4412421924

- q-position: [    0.2187500,    0.0312500,    0.0104167 ]
  weight: 48   
  band:
  - # 1
    frequency:     0.2780566006
  - # 2
    frequency:     0.2836303193
  - # 3
    frequency:     0.9935599730
  - # 4
    frequency:     1.2292267264
  - # 5
    frequency:     1.2314104182
  - # 6
    frequency:     1.2340053253
  - # 7
    frequency:     1.2379080484
  - # 8
    frequency:     1.4249419809
  - # 9
    frequency:     1.4359711992
  - # 10
    frequency:     2.3441587302
  - # 11
    frequency:     2.3473224683
  - # 12
    frequency:     2.4233745913

- q-position: [    0.2395833,    0.0312500,    0.0104167 ]
  weight: 48   
  band:
  - # 1
    frequency:     0.3092828568
  - # 2
    frequency:     0.3147993039
  - # 3
    frequency:     1.0786134504
  - # 4
    frequency:     1.2039623377
  - # 5
    frequency:     1.2085600613
  - # 6
    frequency:     1.2104527384
  - # 7
    frequency:     1.2167630982
  - # 8
    frequency:     1.4396268413
  - # 9
    frequency:     1.4506654789
  - # 10
    frequency:     2.3116599957
  - # 11
    frequency:     2.3151093085
  - # 12
    frequency:     2.4034114172

- q-position: [    0.2604167,    0.0312500,    0.0104167 ]
  weight: 48   
  band:
  - # 1
    frequency:     0.3416412920
  - # 2
    frequency:     0.3470801875
  - # 3
    frequency:     1.1618424785
  - # 4
    frequency:     1.1768460825
  - # 5
    frequency:     1.1812584892
  - # 6
    frequency:     1.1889754158
  - # 7
    frequency:     1.1950443959
  - # 8
    frequency:     1.4564073362
  - # 9
    frequency:     1.4674116850
  - # 10
    frequency:     2.2770571256
  - # 11
    frequency:     2.2808125928
  - # 12
    frequency:     2.3812787388

- q-position: [    0.2812500,    0.0312500,    0.0104167 ]
  weight: 48   
  band:
  - # 1
    frequency:     0.3750949809
  - # 2
    frequency:     0.3804342465
  - # 3
    frequency:     1.1479872061
  - # 4
    frequency:     1.1522138892
  - # 5
    frequency:     1.1673234568
  - # 6
    frequency:     1.1730992325
  - # 7
    frequency:     1.2430847803
  - # 8
    frequency:     1.4753809855
  - # 9
    frequency:     1.4863096825
  - # 10
    frequency:     2.2405621296
  - # 11
    frequency:     2.2446428451
  - # 12
    frequency:     2.3569018030

- q-position: [    0.3020833,    0.0312500,    0.0104167 ]
  weight: 48   
  band:
  - # 1
    frequency:     0.4095916303
  - # 2
    frequency:     0.4148091456
  - # 3
    frequency:     1.1175012993
  - # 4
    frequency:     1.1215465755
  - # 5
    frequency:     1.1458659063
  - # 6
    frequency:     1.1512978047
  - # 7
    frequency:     1.3221967042
  - # 8
    frequency:     1.4966188783
  - # 9
    frequency:     1.5074322226
  - # 10
    frequency:     2.2024003697
  - # 11
    frequency:     2.2068237805
  - # 12
    frequency:     2.3302062489

- q-position: [    0.3229167,    0.0312500,    0.0104167 ]
  weight: 48   
  band:
  - # 1
    frequency:     0.4450642934
  - # 2
    frequency:     0.4501392796
  - # 3
    frequency:     1.0855097027
  - # 4
    frequency:     1.0893833158
  - # 5
    frequency:     1.1249908689
  - # 6
    frequency:     1.1300288610
  - # 7
    frequency:     1.3990508865
  - # 8
    frequency:     1.5201616887
  - # 9
    frequency:     1.5308214553
  - # 10
    frequency:     2.1628093785
  - # 11
    frequency:     2.1675911132
  - # 12
    frequency:     2.3011193125

- q-position: [    0.3437500,    0.0312500,    0.0104167 ]
  weight: 48   
  band:
  - # 1
    frequency:     0.4814323862
  - # 2
    frequency:     0.4863465271
  - # 3
    frequency:     1.0521389158
  - # 4
    frequency:     1.0558566724
  - # 5
    frequency:     1.1050989775
  - # 6
    frequency:     1.1096936873
  - # 7
    frequency:     1.4735348591
  - # 8
    frequency:     1.5460168044
  - # 9
    frequency:     1.5564863630
  - # 10
    frequency:     2.1220375227
  - # 11
    frequency:     2.1271912076
  - # 12
    frequency:     2.2695710098

- q-position: [    0.3645833,    0.0312500,    0.0104167 ]
  weight: 48   
  band:
  - # 1
    frequency:     0.5186028600
  - # 2
    frequency:     0.5233412450
  - # 3
    frequency:     1.0175200410
  - # 4
    frequency:     1.0211042361
  - # 5
    frequency:     1.0865949999
  - # 6
    frequency:     1.0906981708
  - # 7
    frequency:     1.5455502003
  - # 8
    frequency:     1.5741566507
  - # 9
    frequency:     1.5844012534
  - # 10
    frequency:     2.0803424990
  - # 11
    frequency:     2.0858795611
  - # 12
    frequency:     2.2354952812

- q-position: [    0.3854167,    0.0312500,    0.0104167 ]
  weight: 48   
  band:
  - # 1
    frequency:     0.5564714397
  - # 2
    frequency:     0.5610233923
  - # 3
    frequency:     0.9817882900
  - # 4
    frequency:     0.9852677265
  - # 5
    frequency:     1.0698774285
  - # 6
    frequency:     1.0734427969
  - # 7
    frequency:     1.6045181974
  - # 8
    frequency:     1.6145053317
  - # 9
    frequency:     1.6150119958
  - # 10
    frequency:     2.0379896648
  - # 11
    frequency:     2.0439191138
  - # 12
    frequency:     2.1988310888

- q-position: [    0.4062500,    0.0312500,    0.0104167 ]
  weight: 48   
  band:
  - # 1
    frequency:     0.5949238784
  - # 2
    frequency:     0.5992837140
  - # 3
    frequency:     0.9450825642
  - # 4
    frequency:     0.9484919471
  - # 5
    frequency:     1.0553261335
  - # 6
    frequency:     1.0583106516
  - # 7
    frequency:     1.6370035232
  - # 8
    frequency:     1.6467032410
  - # 9
    frequency:     1.6818484696
  - # 10
    frequency:     1.9952502437
  - # 11
    frequency:     2.0015784182
  - # 12
    frequency:     2.1595234555

- q-position: [    0.4270833,    0.0312500,    0.0104167 ]
  weight: 48   
  band:
  - # 1
    frequency:     0.6338372026
  - # 2
    frequency:     0.6380049344
  - # 3
    frequency:     0.9075450732
  - # 4
    frequency:     0.9109236315
  - # 5
    frequency:     1.0432884901
  - # 6
    frequency:     1.0456538021
  - # 7
    frequency:     1.6714811277
  - # 8
    frequency:     1.6808662332
  - # 9
    frequency:     1.7460006977
  - # 10
    frequency:     1.9523996087
  - # 11
    frequency:     1.9591298161
  - # 12
    frequency:     2.1175244363

- q-position: [    0.4479167,    0.0312500,    0.0104167 ]
  weight: 48   
  band:
  - # 1
    frequency:     0.6730809418
  - # 2
    frequency:     0.6770629240
  - # 3
    frequency:     0.8693209023
  - # 4
    frequency:     0.8727102682
  - # 5
    frequency:     1.0340647656
  - # 6
    frequency:     1.0357788036
  - # 7
    frequency:     1.7077871060
  - # 8
    frequency:     1.7168328366
  - # 9
    frequency:     1.8074223481
  - # 10
    frequency:     1.9097165888
  - # 11
    frequency:     1.9168483090
  - # 12
    frequency:     2.0727940177

- q-position: [    0.4687500,    0.0312500,    0.0104167 ]
  weight: 48   
  band:
  - # 1
    frequency:     0.7125183520
  - # 2
    frequency:     0.7163278041
  - # 3
    frequency:     0.8305574034
  - # 4
    frequency:     0.8339990306
  - # 5
    frequency:     1.0278939209
  - # 6
    frequency:     1.0289324448
  - # 7
    frequency:     1.7457217819
  - # 8
    frequency:     1.7544023478
  - # 9
    frequency:     1.8660794096
  - # 10
    frequency:     1.8674902677
  - # 11
    frequency:     1.8750153089
  - # 12
    frequency:     2.0253009393

- q-position: [    0.4895833,    0.0312500,    0.0104167 ]
  weight: 48   
  band:
  - # 1
    frequency:     0.7520076551
  - # 2
    frequency:     0.7556649548
  - # 3
    frequency:     0.7914033210
  - # 4
    frequency:     0.7949358965
  - # 5
    frequency:     1.0249412258
  - # 6
    frequency:     1.0252891141
  - # 7
    frequency:     1.7849820469
  - # 8
    frequency:     1.7931872769
  - # 9
    frequency:     1.8261679484
  - # 10
    frequency:     1.8339868114
  - # 11
    frequency:     1.9219498857
  - # 12
    frequency:     1.9750234337

- q-position: [    0.0520833,    0.0520833,    0.0104167 ]
  weight: 24   
  band:
  - # 1
    frequency:     0.0848442436
  - # 2
    frequency:     0.0954008912
  - # 3
    frequency:     0.3430917681
  - # 4
    frequency:     1.3410368572
  - # 5
    frequency:     1.3490321231
  - # 6
    frequency:     1.3490321231
  - # 7
    frequency:     1.3617434967
  - # 8
    frequency:     1.3617434967
  - # 9
    frequency:     1.3801553470
  - # 10
    frequency:     2.5014342125
  - # 11
    frequency:     2.5066588754
  - # 12
    frequency:     2.5066588754

- q-position: [    0.0729167,    0.0520833,    0.0104167 ]
  weight: 48   
  band:
  - # 1
    frequency:     0.1028890850
  - # 2
    frequency:     0.1157420572
  - # 3
    frequency:     0.4158041869
  - # 4
    frequency:     1.3306236713
  - # 5
    frequency:     1.3416745347
  - # 6
    frequency:     1.3416756473
  - # 7
    frequency:     1.3542045448
  - # 8
    frequency:     1.3645160829
  - # 9
    frequency:     1.3861918715
  - # 10
    frequency:     2.4915115648
  - # 11
    frequency:     2.4969879419
  - # 12
    frequency:     2.5018719266

- q-position: [    0.0937500,    0.0520833,    0.0104167 ]
  weight: 48   
  band:
  - # 1
    frequency:     0.1234959603
  - # 2
    frequency:     0.1374513106
  - # 3
    frequency:     0.4961291812
  - # 4
    frequency:     1.3186569826
  - # 5
    frequency:     1.3319152620
  - # 6
    frequency:     1.3320416437
  - # 7
    frequency:     1.3442022612
  - # 8
    frequency:     1.3682958820
  - # 9
    frequency:     1.3925775622
  - # 10
    frequency:     2.4783716679
  - # 11
    frequency:     2.4841820882
  - # 12
    frequency:     2.4954420332

- q-position: [    0.1145833,    0.0520833,    0.0104167 ]
  weight: 48   
  band:
  - # 1
    frequency:     0.1460030739
  - # 2
    frequency:     0.1605440752
  - # 3
    frequency:     0.5803561320
  - # 4
    frequency:     1.3051267594
  - # 5
    frequency:     1.3197918963
  - # 6
    frequency:     1.3202305212
  - # 7
    frequency:     1.3317789412
  - # 8
    frequency:     1.3732033628
  - # 9
    frequency:     1.3995355240
  - # 10
    frequency:     2.4620915061
  - # 11
    frequency:     2.4683169381
  - # 12
    frequency:     2.4873297572

- q-position: [    0.1354167,    0.0520833,    0.0104167 ]
  weight: 48   
  band:
  - # 1
    frequency:     0.1700915750