 vasp.4.6.28 25Jul05 complex 
 executed on             LinuxIFC date 2016.10.19  17:43:52
 running on    8 nodes
 distr:  one band on    1 nodes,    8 groups


--------------------------------------------------------------------------------------------------------


 INCAR:
 POTCAR:   PAW_PBE Al 04Jan2001                   
 POTCAR:   PAW_PBE Al 04Jan2001                   
   VRHFIN =Al: s2p1                                                             
   LEXCH  = PE                                                                  
   EATOM  =    53.5387 eV,    3.9350 Ry                                         
                                                                                
   TITEL  = PAW_PBE Al 04Jan2001                                                
   LULTRA =        F    use ultrasoft PP ?                                      
   IUNSCR =        1    unscreen: 0-lin 1-nonlin 2-no                           
   RPACOR =    1.500    partial core radius                                     
   POMASS =   26.982; ZVAL   =    3.000    mass and valenz                      
   RCORE  =    1.900    outmost cutoff radius                                   
   RWIGS  =    2.650; RWIGS  =    1.402    wigner-seitz radius (au A)           
   ENMAX  =  240.300; ENMIN  =  180.225 eV                                      
   ICORE  =        2    local potential                                         
   LCOR   =        T    correct aug charges                                     
   LPAW   =        T    paw PP                                                  
   EAUG   =  291.052                                                            
   DEXC   =    -.041                                                            
   RMAX   =    2.974    core radius for proj-oper                               
   RAUG   =    1.300    factor for augmentation sphere                          
   RDEP   =    1.966    radius for radial grids                                 
   QCUT   =   -4.203; QGAM   =    8.405    optimization parameters              
                                                                                
   Description                                                                  
     l     E      TYP  RCUT    TYP  RCUT                                        
     0   .000     23  1.900                                                     
     0   .000     23  1.900                                                     
     1   .000     23  1.900                                                     
     1  1.000     23  1.900                                                     
     2   .000      7  1.900                                                     
  local pseudopotential read in
  partial core-charges read in
  atomic valenz-charges read in
  non local Contribution for L=           0  read in
    real space projection operators read in
  non local Contribution for L=           0  read in
    real space projection operators read in
  non local Contribution for L=           1  read in
    real space projection operators read in
  non local Contribution for L=           1  read in
    real space projection operators read in
    PAW grid and wavefunctions read in
 
   number of l-projection  operators is LMAX  =           4
   number of lm-projection operators is LMMAX =           8
 
 PAW_PBE Al 04Jan2001                   :
 energy of atom  1       EATOM=  -53.5387
 kinetic energy error for atom=    0.0003 (will be added to EATOM!!)
 
 EXHCAR: internal setup
 exchange correlation table for  LEXCH =        8
   RHO(1)=    0.500       N(1)  =     2000
   RHO(2)=  100.500       N(2)  =     4000
 
 POSCAR: Al                                      
  positions in direct lattice
  No initial velocities read in
 


--------------------------------------------------------------------------------------------------------


 ion  position               nearest neighbor table
   1  0.500  0.500  0.000-   2 2.77   3 2.77   4 2.77   2 2.77   3 2.77   2 2.77   4 2.77   2 2.77
                             3 2.77   4 2.77   3 2.77   4 2.77
   2  0.500  0.000  0.500-   1 2.77   3 2.77   4 2.77   1 2.77   4 2.77   1 2.77   3 2.77   1 2.77
                             3 2.77   4 2.77   4 2.77   3 2.77
   3  0.000  0.500  0.500-   1 2.77   2 2.77   4 2.77   1 2.77   4 2.77   2 2.77   4 2.77   4 2.77
                             1 2.77   2 2.77   1 2.77   2 2.77
   4  0.000  0.000  0.000-   1 2.77   2 2.77   3 2.77   2 2.77   3 2.77   1 2.77   3 2.77   3 2.77
                             1 2.77   2 2.77   2 2.77   1 2.77
 
  LATTYP: Found a simple cubic cell.
 ALAT       =     3.9161871786
  
  Lattice vectors:
  
 A1 = (   3.9161871786,   0.0000000000,   0.0000000000)
 A2 = (   0.0000000000,   3.9161871786,   0.0000000000)
 A3 = (   0.0000000000,   0.0000000000,   3.9161871786)
 Subroutine PRICEL returns following result:
 
  LATTYP: Found a face centered cubic cell.
 ALAT       =     3.9161871786
  
  Lattice vectors:
  
 A1 = (   1.9580935893,   1.9580935893,   0.0000000000)
 A2 = (   1.9580935893,   0.0000000000,  -1.9580935893)
 A3 = (   0.0000000000,   1.9580935893,  -1.9580935893)
 
   4 primitive cells build up your supercell.
 

Analysis of symmetry for initial positions (statically):

 Routine SETGRP: Setting up the symmetry group for a 
 simple cubic supercell.


 Subroutine GETGRP returns: Found 48 space group operations
 (whereof 48 operations were pure point group operations)
 out of a pool of 48 trial point group operations.


The static configuration has the point symmetry O_h .

Analysis of symmetry for dynamics (positions and initial velocities):

 Subroutine DYNSYM returns: Found 48 space group operations
 (whereof 48 operations were pure point group operations)
 out of a pool of 48 trial space group operations
 (whereof 48 operations were pure point group operations)
 and found also     4 'primitive' translations


The dynamic configuration has the point symmetry O_h .
 
 
 KPOINTS: Automatic mesh                          

Automatic generation of k-mesh.
 generate k-points for:  13  13  13
 
 Subroutine IBZKPT returns following result:
 ===========================================
 
 Found     84 irreducible k-points:
 
 Following reciprocal coordinates:
            Coordinates               Weight
  0.000000  0.000000  0.000000      1.000000
  0.076923  0.000000  0.000000      6.000000
  0.153846  0.000000  0.000000      6.000000
  0.230769  0.000000  0.000000      6.000000
  0.307692  0.000000  0.000000      6.000000
  0.384615  0.000000  0.000000      6.000000
  0.461538  0.000000  0.000000      6.000000
  0.076923  0.076923  0.000000     12.000000
  0.153846  0.076923  0.000000     24.000000
  0.230769  0.076923  0.000000     24.000000
  0.307692  0.076923  0.000000     24.000000
  0.384615  0.076923  0.000000     24.000000
  0.461538  0.076923  0.000000     24.000000
  0.153846  0.153846  0.000000     12.000000
  0.230769  0.153846  0.000000     24.000000
  0.307692  0.153846  0.000000     24.000000
  0.384615  0.153846  0.000000     24.000000
  0.461538  0.153846  0.000000     24.000000
  0.230769  0.230769  0.000000     12.000000
  0.307692  0.230769  0.000000     24.000000
  0.384615  0.230769  0.000000     24.000000
  0.461538  0.230769  0.000000     24.000000
  0.307692  0.307692  0.000000     12.000000
  0.384615  0.307692  0.000000     24.000000
  0.461538  0.307692  0.000000     24.000000
  0.384615  0.384615  0.000000     12.000000
  0.461538  0.384615  0.000000     24.000000
  0.461538  0.461538  0.000000     12.000000
  0.076923  0.076923  0.076923      8.000000
  0.153846  0.076923  0.076923     24.000000
  0.230769  0.076923  0.076923     24.000000
  0.307692  0.076923  0.076923     24.000000
  0.384615  0.076923  0.076923     24.000000
  0.461538  0.076923  0.076923     24.000000
  0.153846  0.153846  0.076923     24.000000
  0.230769  0.153846  0.076923     48.000000
  0.307692  0.153846  0.076923     48.000000
  0.384615  0.153846  0.076923     48.000000
  0.461538  0.153846  0.076923     48.000000
  0.230769  0.230769  0.076923     24.000000
  0.307692  0.230769  0.076923     48.000000
  0.384615  0.230769  0.076923     48.000000
  0.461538  0.230769  0.076923     48.000000
  0.307692  0.307692  0.076923     24.000000
  0.384615  0.307692  0.076923     48.000000
  0.461538  0.307692  0.076923     48.000000
  0.384615  0.384615  0.076923     24.000000
  0.461538  0.384615  0.076923     48.000000
  0.461538  0.461538  0.076923     24.000000
  0.153846  0.153846  0.153846      8.000000
  0.230769  0.153846  0.153846     24.000000
  0.307692  0.153846  0.153846     24.000000
  0.384615  0.153846  0.153846     24.000000
  0.461538  0.153846  0.153846     24.000000
  0.230769  0.230769  0.153846     24.000000
  0.307692  0.230769  0.153846     48.000000
  0.384615  0.230769  0.153846     48.000000
  0.461538  0.230769  0.153846     48.000000
  0.307692  0.307692  0.153846     24.000000
  0.384615  0.307692  0.153846     48.000000
  0.461538  0.307692  0.153846     48.000000
  0.384615  0.384615  0.153846     24.000000
  0.461538  0.384615  0.153846     48.000000
  0.461538  0.461538  0.153846     24.000000
  0.230769  0.230769  0.230769      8.000000
  0.307692  0.230769  0.230769     24.000000
  0.384615  0.230769  0.230769     24.000000
  0.461538  0.230769  0.230769     24.000000
  0.307692  0.307692  0.230769     24.000000
  0.384615  0.307692  0.230769     48.000000
  0.461538  0.307692  0.230769     48.000000
  0.384615  0.384615  0.230769     24.000000
  0.461538  0.384615  0.230769     48.000000
  0.461538  0.461538  0.230769     24.000000
  0.307692  0.307692  0.307692      8.000000
  0.384615  0.307692  0.307692     24.000000
  0.461538  0.307692  0.307692     24.000000
  0.384615  0.384615  0.307692     24.000000
  0.461538  0.384615  0.307692     48.000000
  0.461538  0.461538  0.307692     24.000000
  0.384615  0.384615  0.384615      8.000000
  0.461538  0.384615  0.384615     24.000000
  0.461538  0.461538  0.384615     24.000000
  0.461538  0.461538  0.461538      8.000000
 
 Following cartesian coordinates:
            Coordinates               Weight
  0.000000  0.000000  0.000000      1.000000
  0.019053  0.000000  0.000000      6.000000
  0.038106  0.000000  0.000000      6.000000
  0.057159  0.000000  0.000000      6.000000
  0.076212  0.000000  0.000000      6.000000
  0.095265  0.000000  0.000000      6.000000
  0.114318  0.000000  0.000000      6.000000
  0.019053  0.019053  0.000000     12.000000
  0.038106  0.019053  0.000000     24.000000
  0.057159  0.019053  0.000000     24.000000
  0.076212  0.019053  0.000000     24.000000
  0.095265  0.019053  0.000000     24.000000
  0.114318  0.019053  0.000000     24.000000
  0.038106  0.038106  0.000000     12.000000
  0.057159  0.038106  0.000000     24.000000
  0.076212  0.038106  0.000000     24.000000
  0.095265  0.038106  0.000000     24.000000
  0.114318  0.038106  0.000000     24.000000
  0.057159  0.057159  0.000000     12.000000
  0.076212  0.057159  0.000000     24.000000
  0.095265  0.057159  0.000000     24.000000
  0.114318  0.057159  0.000000     24.000000
  0.076212  0.076212  0.000000     12.000000
  0.095265  0.076212  0.000000     24.000000
  0.114318  0.076212  0.000000     24.000000
  0.095265  0.095265  0.000000     12.000000
  0.114318  0.095265  0.000000     24.000000
  0.114318  0.114318  0.000000     12.000000
  0.019053  0.019053  0.019053      8.000000
  0.038106  0.019053  0.019053     24.000000
  0.057159  0.019053  0.019053     24.000000
  0.076212  0.019053  0.019053     24.000000
  0.095265  0.019053  0.019053     24.000000
  0.114318  0.019053  0.019053     24.000000
  0.038106  0.038106  0.019053     24.000000
  0.057159  0.038106  0.019053     48.000000
  0.076212  0.038106  0.019053     48.000000
  0.095265  0.038106  0.019053     48.000000
  0.114318  0.038106  0.019053     48.000000
  0.057159  0.057159  0.019053     24.000000
  0.076212  0.057159  0.019053     48.000000
  0.095265  0.057159  0.019053     48.000000
  0.114318  0.057159  0.019053     48.000000
  0.076212  0.076212  0.019053     24.000000
  0.095265  0.076212  0.019053     48.000000
  0.114318  0.076212  0.019053     48.000000
  0.095265  0.095265  0.019053     24.000000
  0.114318  0.095265  0.019053     48.000000
  0.114318  0.114318  0.019053     24.000000
  0.038106  0.038106  0.038106      8.000000
  0.057159  0.038106  0.038106     24.000000
  0.076212  0.038106  0.038106     24.000000
  0.095265  0.038106  0.038106     24.000000
  0.114318  0.038106  0.038106     24.000000
  0.057159  0.057159  0.038106     24.000000
  0.076212  0.057159  0.038106     48.000000
  0.095265  0.057159  0.038106     48.000000
  0.114318  0.057159  0.038106     48.000000
  0.076212  0.076212  0.038106     24.000000
  0.095265  0.076212  0.038106     48.000000
  0.114318  0.076212  0.038106     48.000000
  0.095265  0.095265  0.038106     24.000000
  0.114318  0.095265  0.038106     48.000000
  0.114318  0.114318  0.038106     24.000000
  0.057159  0.057159  0.057159      8.000000
  0.076212  0.057159  0.057159     24.000000
  0.095265  0.057159  0.057159     24.000000
  0.114318  0.057159  0.057159     24.000000
  0.076212  0.076212  0.057159     24.000000
  0.095265  0.076212  0.057159     48.000000
  0.114318  0.076212  0.057159     48.000000
  0.095265  0.095265  0.057159     24.000000
  0.114318  0.095265  0.057159     48.000000
  0.114318  0.114318  0.057159     24.000000
  0.076212  0.076212  0.076212      8.000000
  0.095265  0.076212  0.076212     24.000000
  0.114318  0.076212  0.076212     24.000000
  0.095265  0.095265  0.076212     24.000000
  0.114318  0.095265  0.076212     48.000000
  0.114318  0.114318  0.076212     24.000000
  0.095265  0.095265  0.095265      8.000000
  0.114318  0.095265  0.095265     24.000000
  0.114318  0.114318  0.095265     24.000000
  0.114318  0.114318  0.114318      8.000000
 


--------------------------------------------------------------------------------------------------------




 Dimension of arrays:
   k-Points           NKPTS =     84   number of bands    NBANDS=     16
   number of dos      NEDOS =    301   number of ions     NIONS =      4
   non local maximal  LDIM  =      4   non local SUM 2l+1 LMDIM =      8
   total plane-waves  NPLWV =  27000
   max r-space proj   IRMAX =      1   max aug-charges    IRDMAX=  17694
   dimension x,y,z NGX =    30 NGY =   30 NGZ =   30
   dimension x,y,z NGXF=    60 NGYF=   60 NGZF=   60
   support grid    NGXF=    60 NGYF=   60 NGZF=   60
   ions per type =               4
 NGX,Y,Z   is equivalent  to a cutoff of  12.74, 12.74, 12.74 a.u.
 NGXF,Y,Z  is equivalent  to a cutoff of  25.47, 25.47, 25.47 a.u.


 I would recommend the setting:
   dimension x,y,z NGX =    29 NGY =   29 NGZ =   29
 SYSTEM =  unknown system                          
 POSCAR =  Al                                      

 Startparameter for this run:
   NWRITE =      2    write-flag & timer
   PREC   = accura    medium, high low
   ISTART =      0    job   : 0-new  1-cont  2-samecut
   ICHARG =      2    charge: 1-file 2-atom 10-const
   ISPIN  =      1    spin polarized calculation?
   LNONCOLLINEAR =      F non collinear calculations
   LSORBIT =      F    spin-orbit coupling
   INIWAV =      1    electr: 0-lowe 1-rand  2-diag
   LASPH  =      F    aspherical Exc in radial PAW
   METAGGA=      F    non-selfconsistent MetaGGA calc.

 Electronic Relaxation 1
   ENCUT  =  500.0 eV  36.75 Ry    6.06 a.u.   7.14  7.14  7.14*2*pi/ulx,y,z
   ENINI  =  500.0     initial cutoff
   ENAUG  =  291.1 eV  augmentation charge cutoff
   NELM   =     60;   NELMIN=  2; NELMDL=  0     # of ELM steps 
   EDIFF  = 0.1E-07   stopping-criterion for ELM
   LREAL  =      F    real-space projection
   LCOMPAT=      F    compatible to vasp.4.4
   LREAL_COMPAT= F    compatible to vasp.4.5.1-3
   GGA_COMPAT  = T    GGA compatible to vasp.4.4-vasp.4.6
   LMAXPAW     = -100 max onsite density
   LMAXMIX     =    2 max onsite mixed and CHGCAR
   VOSKOWN=      0    Vosko Wilk Nusair interpolation
   ROPT   =    0.00000
 Ionic relaxation
   EDIFFG = 0.1E-06   stopping-criterion for IOM
   NSW    =      0    number of steps for IOM
   NBLOCK =      1;   KBLOCK =      1    inner block; outer block 
   IBRION =     -1    ionic relax: 0-MD 1-quasi-New 2-CG
   NFREE  =      0    steps in history (QN), initial steepest desc. (CG)
   ISIF   =      2    stress and relaxation
   IWAVPR =     10    prediction:  0-non 1-charg 2-wave 3-comb
   ISYM   =      2    0-nonsym 1-usesym 2-fastsym
   LCORR  =      T    Harris-Foulkes like correction to forces

   POTIM  =   0.50    time-step for ionic-motion
   TEIN   =    0.0    initial temperature
   TEBEG  =    0.0;   TEEND  =   0.0 temperature during run
   SMASS  =  -3.00    Nose mass-parameter (am)
   estimated Nose-frequenzy (Omega)   =  0.10E-29 period in steps =****** mass=  -0.350E-27a.u.
   NPACO  =    256;   APACO  = 16.0  distance and # of slots for P.C.
   PSTRESS=    0.0 pullay stress

  Mass of Ions in am
   POMASS =  26.98
  Ionic Valenz
   ZVAL   =   3.00
  Atomic Wigner-Seitz radii
   RWIGS  =  -1.00
   NELECT =      12.0000    total number of electrons
   NUPDOWN=      -1.0000    fix difference up-down

 DOS related values:
   EMIN   =  10.00;   EMAX   =-10.00  energy-range for DOS
   ISMEAR =     0;   SIGMA  =   0.01  broadening in eV -4-tet -1-fermi 0-gaus

 Electronic relaxation 2 (details)
   IALGO  =     38    algorithm
   LDIAG  =      T    sub-space diagonalisation
   IMIX   =      4    mixing-type and parameters
     AMIX     =   0.40;   BMIX     =  1.00
     AMIX_MAG =   1.60;   BMIX_MAG =  1.00
     AMIN     =   0.10
     WC   =   100.;   INIMIX=   1;  MIXPRE=   1

 Intra band minimization:
   WEIMIN = 0.0000     energy-eigenvalue tresh-hold
   EBREAK =  0.25E-09  absolut break condition
   DEPER  =   0.30     relativ break condition  

   TIME   =   0.10     timestep for ELM

  volume/ion in A,a.u.               =      15.02       101.33
  Fermi-wavevector in a.u.,eV,Ry     =   0.957058 12.462405  0.915961

 Second variation
   LSECVAR=     F    do a second variation
 
 Write flags
   LWAVE  =      F    write WAVECAR
   LCHARG =      F    write CHGCAR
   LVTOT  =      F    write LOCPOT, local potential
   LELF   =      F    write electronic localiz. function (ELF)
   LORBIT =      0    0 simple, 1 ext, 2 COOP (PROOUT)


 Dipole corrections
   IDIPOL =      0    1-x, 2-y, 3-z
   LDIPOL =      F    correct potential



--------------------------------------------------------------------------------------------------------


 Static calculation
 charge density will be updated during run
 non-spin polarized calculation
 Variant of blocked Davidson
 Davidson routine will perform the subspace rotation
 performe sub-space diagonalisation
    after iterative eigenvector-optimisation
 modified Broyden-mixing scheme, WC =      100.0
 initial mixing is a Kerker type mixing with AMIX =  0.4000 and BMIX =      1.0000
 Hartree-type preconditioning will be used
 using additional bands           10
 reciprocal scheme for non local part
 use partial core corrections
 calculate Harris-corrections to forces 
   (improved forces if not selfconsistent)
 use gradient corrections 
 use of overlap-Matrix (Vanderbilt PP)
 Gauss-broadening in eV      SIGMA  =   0.01


--------------------------------------------------------------------------------------------------------


  energy-cutoff  :      500.00
  volume of cell :       60.06
      direct lattice vectors                 reciprocal lattice vectors
     3.916187179  0.000000000  0.000000000     0.255350410  0.000000000  0.000000000
     0.000000000  3.916187179  0.000000000     0.000000000  0.255350410  0.000000000
     0.000000000  0.000000000  3.916187179     0.000000000  0.000000000  0.255350410

  length of vectors
     3.916187179  3.916187179  3.916187179     0.255350410  0.255350410  0.255350410


 
 k-points in units of 2pi/SCALE and weight: Automatic mesh                          
   0.00000000  0.00000000  0.00000000       0.000
   0.01905307  0.00000000  0.00000000       0.003
   0.03810614  0.00000000  0.00000000       0.003
   0.05715921  0.00000000  0.00000000       0.003
   0.07621228  0.00000000  0.00000000       0.003
   0.09526535  0.00000000  0.00000000       0.003
   0.11431841  0.00000000  0.00000000       0.003
   0.01905307  0.01905307  0.00000000       0.005
   0.03810614  0.01905307  0.00000000       0.011
   0.05715921  0.01905307  0.00000000       0.011
   0.07621228  0.01905307  0.00000000       0.011
   0.09526535  0.01905307  0.00000000       0.011
   0.11431841  0.01905307  0.00000000       0.011
   0.03810614  0.03810614  0.00000000       0.005
   0.05715921  0.03810614  0.00000000       0.011
   0.07621228  0.03810614  0.00000000       0.011
   0.09526535  0.03810614  0.00000000       0.011
   0.11431841  0.03810614  0.00000000       0.011
   0.05715921  0.05715921  0.00000000       0.005
   0.07621228  0.05715921  0.00000000       0.011
   0.09526535  0.05715921  0.00000000       0.011
   0.11431841  0.05715921  0.00000000       0.011
   0.07621228  0.07621228  0.00000000       0.005
   0.09526535  0.07621228  0.00000000       0.011
   0.11431841  0.07621228  0.00000000       0.011
   0.09526535  0.09526535  0.00000000       0.005
   0.11431841  0.09526535  0.00000000       0.011
   0.11431841  0.11431841  0.00000000       0.005
   0.01905307  0.01905307  0.01905307       0.004
   0.03810614  0.01905307  0.01905307       0.011
   0.05715921  0.01905307  0.01905307       0.011
   0.07621228  0.01905307  0.01905307       0.011
   0.09526535  0.01905307  0.01905307       0.011
   0.11431841  0.01905307  0.01905307       0.011
   0.03810614  0.03810614  0.01905307       0.011
   0.05715921  0.03810614  0.01905307       0.022
   0.07621228  0.03810614  0.01905307       0.022
   0.09526535  0.03810614  0.01905307       0.022
   0.11431841  0.03810614  0.01905307       0.022
   0.05715921  0.05715921  0.01905307       0.011
   0.07621228  0.05715921  0.01905307       0.022
   0.09526535  0.05715921  0.01905307       0.022
   0.11431841  0.05715921  0.01905307       0.022
   0.07621228  0.07621228  0.01905307       0.011
   0.09526535  0.07621228  0.01905307       0.022
   0.11431841  0.07621228  0.01905307       0.022
   0.09526535  0.09526535  0.01905307       0.011
   0.11431841  0.09526535  0.01905307       0.022
   0.11431841  0.11431841  0.01905307       0.011
   0.03810614  0.03810614  0.03810614       0.004
   0.05715921  0.03810614  0.03810614       0.011
   0.07621228  0.03810614  0.03810614       0.011
   0.09526535  0.03810614  0.03810614       0.011
   0.11431841  0.03810614  0.03810614       0.011
   0.05715921  0.05715921  0.03810614       0.011
   0.07621228  0.05715921  0.03810614       0.022
   0.09526535  0.05715921  0.03810614       0.022
   0.11431841  0.05715921  0.03810614       0.022
   0.07621228  0.07621228  0.03810614       0.011
   0.09526535  0.07621228  0.03810614       0.022
   0.11431841  0.07621228  0.03810614       0.022
   0.09526535  0.09526535  0.03810614       0.011
   0.11431841  0.09526535  0.03810614       0.022
   0.11431841  0.11431841  0.03810614       0.011
   0.05715921  0.05715921  0.05715921       0.004
   0.07621228  0.05715921  0.05715921       0.011
   0.09526535  0.05715921  0.05715921       0.011
   0.11431841  0.05715921  0.05715921       0.011
   0.07621228  0.07621228  0.05715921       0.011
   0.09526535  0.07621228  0.05715921       0.022
   0.11431841  0.07621228  0.05715921       0.022
   0.09526535  0.09526535  0.05715921       0.011
   0.11431841  0.09526535  0.05715921       0.022
   0.11431841  0.11431841  0.05715921       0.011
   0.07621228  0.07621228  0.07621228       0.004
   0.09526535  0.07621228  0.07621228       0.011
   0.11431841  0.07621228  0.07621228       0.011
   0.09526535  0.09526535  0.07621228       0.011
   0.11431841  0.09526535  0.07621228       0.022
   0.11431841  0.11431841  0.07621228       0.011
   0.09526535  0.09526535  0.09526535       0.004
   0.11431841  0.09526535  0.09526535       0.011
   0.11431841  0.11431841  0.09526535       0.011
   0.11431841  0.11431841  0.11431841       0.004
 
 k-points in reciprocal lattice and weights: Automatic mesh                          
   0.00000000  0.00000000  0.00000000       0.000
   0.07692308  0.00000000  0.00000000       0.003
   0.15384615  0.00000000  0.00000000       0.003
   0.23076923  0.00000000  0.00000000       0.003
   0.30769231  0.00000000  0.00000000       0.003
   0.38461538  0.00000000  0.00000000       0.003
   0.46153846  0.00000000  0.00000000       0.003
   0.07692308  0.07692308  0.00000000       0.005
   0.15384615  0.07692308  0.00000000       0.011
   0.23076923  0.07692308  0.00000000       0.011
   0.30769231  0.07692308  0.00000000       0.011
   0.38461538  0.07692308  0.00000000       0.011
   0.46153846  0.07692308  0.00000000       0.011
   0.15384615  0.15384615  0.00000000       0.005
   0.23076923  0.15384615  0.00000000       0.011
   0.30769231  0.15384615  0.00000000       0.011
   0.38461538  0.15384615  0.00000000       0.011
   0.46153846  0.15384615  0.00000000       0.011
   0.23076923  0.23076923  0.00000000       0.005
   0.30769231  0.23076923  0.00000000       0.011
   0.38461538  0.23076923  0.00000000       0.011
   0.46153846  0.23076923  0.00000000       0.011
   0.30769231  0.30769231  0.00000000       0.005
   0.38461538  0.30769231  0.00000000       0.011
   0.46153846  0.30769231  0.00000000       0.011
   0.38461538  0.38461538  0.00000000       0.005
   0.46153846  0.38461538  0.00000000       0.011
   0.46153846  0.46153846  0.00000000       0.005
   0.07692308  0.07692308  0.07692308       0.004
   0.15384615  0.07692308  0.07692308       0.011
   0.23076923  0.07692308  0.07692308       0.011
   0.30769231  0.07692308  0.07692308       0.011
   0.38461538  0.07692308  0.07692308       0.011
   0.46153846  0.07692308  0.07692308       0.011
   0.15384615  0.15384615  0.07692308       0.011
   0.23076923  0.15384615  0.07692308       0.022
   0.30769231  0.15384615  0.07692308       0.022
   0.38461538  0.15384615  0.07692308       0.022
   0.46153846  0.15384615  0.07692308       0.022
   0.23076923  0.23076923  0.07692308       0.011
   0.30769231  0.23076923  0.07692308       0.022
   0.38461538  0.23076923  0.07692308       0.022
   0.46153846  0.23076923  0.07692308       0.022
   0.30769231  0.30769231  0.07692308       0.011
   0.38461538  0.30769231  0.07692308       0.022
   0.46153846  0.30769231  0.07692308       0.022
   0.38461538  0.38461538  0.07692308       0.011
   0.46153846  0.38461538  0.07692308       0.022
   0.46153846  0.46153846  0.07692308       0.011
   0.15384615  0.15384615  0.15384615       0.004
   0.23076923  0.15384615  0.15384615       0.011
   0.30769231  0.15384615  0.15384615       0.011
   0.38461538  0.15384615  0.15384615       0.011
   0.46153846  0.15384615  0.15384615       0.011
   0.23076923  0.23076923  0.15384615       0.011
   0.30769231  0.23076923  0.15384615       0.022
   0.38461538  0.23076923  0.15384615       0.022
   0.46153846  0.23076923  0.15384615       0.022
   0.30769231  0.30769231  0.15384615       0.011
   0.38461538  0.30769231  0.15384615       0.022
   0.46153846  0.30769231  0.15384615       0.022
   0.38461538  0.38461538  0.15384615       0.011
   0.46153846  0.38461538  0.15384615       0.022
   0.46153846  0.46153846  0.15384615       0.011
   0.23076923  0.23076923  0.23076923       0.004
   0.30769231  0.23076923  0.23076923       0.011
   0.38461538  0.23076923  0.23076923       0.011
   0.46153846  0.23076923  0.23076923       0.011
   0.30769231  0.30769231  0.23076923       0.011
   0.38461538  0.30769231  0.23076923       0.022
   0.46153846  0.30769231  0.23076923       0.022
   0.38461538  0.38461538  0.23076923       0.011
   0.46153846  0.38461538  0.23076923       0.022
   0.46153846  0.46153846  0.23076923       0.011
   0.30769231  0.30769231  0.30769231       0.004
   0.38461538  0.30769231  0.30769231       0.011
   0.46153846  0.30769231  0.30769231       0.011
   0.38461538  0.38461538  0.30769231       0.011
   0.46153846  0.38461538  0.30769231       0.022
   0.46153846  0.46153846  0.30769231       0.011
   0.38461538  0.38461538  0.38461538       0.004
   0.46153846  0.38461538  0.38461538       0.011
   0.46153846  0.46153846  0.38461538       0.011
   0.46153846  0.46153846  0.46153846       0.004
 
 position of ions in fractional coordinates (direct lattice) 
   0.50000000  0.50000000  0.00000000
   0.50000000  0.00000000  0.50000000
   0.00000000  0.50000000  0.50000000
   0.00000000  0.00000000  0.00000000
 
 position of ions in cartesian coordinates  (Angst):
   1.95809359  1.95809359  0.00000000
   1.95809359  0.00000000  1.95809359
   0.00000000  1.95809359  1.95809359
   0.00000000  0.00000000  0.00000000
 


--------------------------------------------------------------------------------------------------------


 k-point  1 :  0.00000.00000.0000  plane waves:   1503
 k-point  2 :  0.07690.00000.0000  plane waves:   1523
 k-point  3 :  0.15380.00000.0000  plane waves:   1514
 k-point  4 :  0.23080.00000.0000  plane waves:   1514
 k-point  5 :  0.30770.00000.0000  plane waves:   1526
 k-point  6 :  0.38460.00000.0000  plane waves:   1522
 k-point  7 :  0.46150.00000.0000  plane waves:   1514
 k-point  8 :  0.07690.07690.0000  plane waves:   1506
 k-point  9 :  0.15380.07690.0000  plane waves:   1512
 k-point 10 :  0.23080.07690.0000  plane waves:   1512
 k-point 11 :  0.30770.07690.0000  plane waves:   1518
 k-point 12 :  0.38460.07690.0000  plane waves:   1516
 k-point 13 :  0.46150.07690.0000  plane waves:   1507
 k-point 14 :  0.15380.15380.0000  plane waves:   1514
 k-point 15 :  0.23080.15380.0000  plane waves:   1520
 k-point 16 :  0.30770.15380.0000  plane waves:   1525
 k-point 17 :  0.38460.15380.0000  plane waves:   1528
 k-point 18 :  0.46150.15380.0000  plane waves:   1522
 k-point 19 :  0.23080.23080.0000  plane waves:   1530
 k-point 20 :  0.30770.23080.0000  plane waves:   1532
 k-point 21 :  0.38460.23080.0000  plane waves:   1538
 k-point 22 :  0.46150.23080.0000  plane waves:   1529
 k-point 23 :  0.30770.30770.0000  plane waves:   1530
 k-point 24 :  0.38460.30770.0000  plane waves:   1528
 k-point 25 :  0.46150.30770.0000  plane waves:   1535
 k-point 26 :  0.38460.38460.0000  plane waves:   1526
 k-point 27 :  0.46150.38460.0000  plane waves:   1532
 k-point 28 :  0.46150.46150.0000  plane waves:   1530
 k-point 29 :  0.07690.07690.0769  plane waves:   1518
 k-point 30 :  0.15380.07690.0769  plane waves:   1509
 k-point 31 :  0.23080.07690.0769  plane waves:   1505
 k-point 32 :  0.30770.07690.0769  plane waves:   1521
 k-point 33 :  0.38460.07690.0769  plane waves:   1516
 k-point 34 :  0.46150.07690.0769  plane waves:   1518
 k-point 35 :  0.15380.15380.0769  plane waves:   1510
 k-point 36 :  0.23080.15380.0769  plane waves:   1522
 k-point 37 :  0.30770.15380.0769  plane waves:   1526
 k-point 38 :  0.38460.15380.0769  plane waves:   1527
 k-point 39 :  0.46150.15380.0769  plane waves:   1518
 k-point 40 :  0.23080.23080.0769  plane waves:   1525
 k-point 41 :  0.30770.23080.0769  plane waves:   1529
 k-point 42 :  0.38460.23080.0769  plane waves:   1528
 k-point 43 :  0.46150.23080.0769  plane waves:   1530
 k-point 44 :  0.30770.30770.0769  plane waves:   1532
 k-point 45 :  0.38460.30770.0769  plane waves:   1533
 k-point 46 :  0.46150.30770.0769  plane waves:   1534
 k-point 47 :  0.38460.38460.0769  plane waves:   1537
 k-point 48 :  0.46150.38460.0769  plane waves:   1538
 k-point 49 :  0.46150.46150.0769  plane waves:   1532
 k-point 50 :  0.15380.15380.1538  plane waves:   1508
 k-point 51 :  0.23080.15380.1538  plane waves:   1520
 k-point 52 :  0.30770.15380.1538  plane waves:   1520
 k-point 53 :  0.38460.15380.1538  plane waves:   1532
 k-point 54 :  0.46150.15380.1538  plane waves:   1526
 k-point 55 :  0.23080.23080.1538  plane waves:   1523
 k-point 56 :  0.30770.23080.1538  plane waves:   1528
 k-point 57 :  0.38460.23080.1538  plane waves:   1524
 k-point 58 :  0.46150.23080.1538  plane waves:   1525
 k-point 59 :  0.30770.30770.1538  plane waves:   1529
 k-point 60 :  0.38460.30770.1538  plane waves:   1525
 k-point 61 :  0.46150.30770.1538  plane waves:   1528
 k-point 62 :  0.38460.38460.1538  plane waves:   1522
 k-point 63 :  0.46150.38460.1538  plane waves:   1528
 k-point 64 :  0.46150.46150.1538  plane waves:   1528
 k-point 65 :  0.23080.23080.2308  plane waves:   1523
 k-point 66 :  0.30770.23080.2308  plane waves:   1530
 k-point 67 :  0.38460.23080.2308  plane waves:   1526
 k-point 68 :  0.46150.23080.2308  plane waves:   1521
 k-point 69 :  0.30770.30770.2308  plane waves:   1519
 k-point 70 :  0.38460.30770.2308  plane waves:   1517
 k-point 71 :  0.46150.30770.2308  plane waves:   1524
 k-point 72 :  0.38460.38460.2308  plane waves:   1526
 k-point 73 :  0.46150.38460.2308  plane waves:   1526
 k-point 74 :  0.46150.46150.2308  plane waves:   1530
 k-point 75 :  0.30770.30770.3077  plane waves:   1523
 k-point 76 :  0.38460.30770.3077  plane waves:   1525
 k-point 77 :  0.46150.30770.3077  plane waves:   1524
 k-point 78 :  0.38460.38460.3077  plane waves:   1519
 k-point 79 :  0.46150.38460.3077  plane waves:   1520
 k-point 80 :  0.46150.46150.3077  plane waves:   1525
 k-point 81 :  0.38460.38460.3846  plane waves:   1529
 k-point 82 :  0.46150.38460.3846  plane waves:   1532
 k-point 83 :  0.46150.46150.3846  plane waves:   1530
 k-point 84 :  0.46150.46150.4615  plane waves:   1538

 maximum and minimum number of plane-waves per node :   1538  1503

 maximum number of plane-waves:   1538
 maximal index in each direction: 
   IXMAX=  7   IYMAX=  7   IZMAX=  7
   IXMIN= -7   IYMIN= -7   IZMIN= -7

 NGX is ok and might be reduce to  30
 NGY is ok and might be reduce to  30
 NGZ is ok and might be reduce to  30

 parallel 3dFFT wavefunction:
    minimum data exchange during FFTs selected (reduces bandwidth)
 parallel 3dFFT charge:
    minimum data exchange during FFTs selected (reduces bandwidth)

 For storing wavefunctions   32.76 MBYTES are necessary
 For predicting wavefunctions    1.14 MBYTES are necessary
Broyden mixing: mesh for mixing (old mesh)
   NGX = 15   NGY = 15   NGZ = 15
  (NGX  = 60   NGY  = 60   NGZ  = 60)
 gives a total of   3375 points
 initial charge density was supplied:
 charge density of overlapping atoms calculated
 number of electron   12.0000000 magnetization 
 keeping initial charge density in first step


--------------------------------------------------------------------------------------------------------


 Maximum index for augmentation-charges         2484 (set IRDMAX)


--------------------------------------------------------------------------------------------------------


 First call to EWALD:  gamma=   0.453
 Maximum number of real-space cells 3x 3x 3
 Maximum number of reciprocal cells 3x 3x 3

    FEWALD:  VPU time    0.00: CPU time    0.00


----------------------------------------- Iteration    1(   1)  ---------------------------------------


    POTLOK:  VPU time    0.02: CPU time    0.02
    SETDIJ:  VPU time    0.00: CPU time    0.00
    EDDAV :  VPU time    0.80: CPU time    0.83
    DOS   :  VPU time    0.00: CPU time   -0.00
    ------------------------------------------
      LOOP:  VPU time    0.82: CPU time    0.85

 eigenvalue-minimisations  :  2688
 total energy-change (2. order) : 0.6344841E+01  (-0.4060671E+03)
 number of electron   12.0000000 magnetization 
 augmentation part    12.0000000 magnetization 

 Free energy of the ion-electron system (eV)
  ---------------------------------------------------
  alpha Z        PSCENC =        -0.89477812
  Ewald energy   TEWEN  =      -303.45298716
  -1/2 Hartree   DENC   =        -0.29941578
  -V(xc)+E(xc)   XCENC  =      -104.26831635
  PAW double counting   =       142.21701965      -14.39593217
  entropy T*S    EENTRO =        -0.00012129
  eigenvalues    EBANDS =        73.28573117
  atomic energy  EATOM  =       214.15364153
  ---------------------------------------------------
  free energy    TOTEN  =         6.34484147 eV

  energy without entropy =        6.34496276  energy(sigma->0) =        6.34490212


--------------------------------------------------------------------------------------------------------




----------------------------------------- Iteration    1(   2)  ---------------------------------------


    EDDAV :  VPU time    1.00: CPU time    1.00
    DOS   :  VPU time    0.00: CPU time   -0.00
    ------------------------------------------
      LOOP:  VPU time    1.00: CPU time    1.00

 eigenvalue-minimisations  :  3624
 total energy-change (2. order) :-0.2065237E+02  (-0.1954709E+02)
 number of electron   12.0000000 magnetization 
 augmentation part    12.0000000 magnetization 

 Free energy of the ion-electron system (eV)
  ---------------------------------------------------
  alpha Z        PSCENC =        -0.89477812
  Ewald energy   TEWEN  =      -303.45298716
  -1/2 Hartree   DENC   =        -0.29941578
  -V(xc)+E(xc)   XCENC  =      -104.26831635
  PAW double counting   =       142.21701965      -14.39593217
  entropy T*S    EENTRO =        -0.00009621
  eigenvalues    EBANDS =        52.63333492
  atomic energy  EATOM  =       214.15364153
  ---------------------------------------------------
  free energy    TOTEN  =       -14.30752970 eV

  energy without entropy =      -14.30743349  energy(sigma->0) =      -14.30748159


--------------------------------------------------------------------------------------------------------




----------------------------------------- Iteration    1(   3)  ---------------------------------------


    EDDAV :  VPU time    0.96: CPU time    0.96
    DOS   :  VPU time    0.00: CPU time   -0.00
    ------------------------------------------
      LOOP:  VPU time    0.96: CPU time    0.96

 eigenvalue-minimisations  :  3464
 total energy-change (2. order) :-0.6237765E+00  (-0.6216692E+00)
 number of electron   12.0000000 magnetization 
 augmentation part    12.0000000 magnetization 

 Free energy of the ion-electron system (eV)
  ---------------------------------------------------
  alpha Z        PSCENC =        -0.89477812
  Ewald energy   TEWEN  =      -303.45298716
  -1/2 Hartree   DENC   =        -0.29941578
  -V(xc)+E(xc)   XCENC  =      -104.26831635
  PAW double counting   =       142.21701965      -14.39593217
  entropy T*S    EENTRO =        -0.00010900
  eigenvalues    EBANDS =        52.00957125
  atomic energy  EATOM  =       214.15364153
  ---------------------------------------------------
  free energy    TOTEN  =       -14.93130616 eV

  energy without entropy =      -14.93119716  energy(sigma->0) =      -14.93125166


--------------------------------------------------------------------------------------------------------




----------------------------------------- Iteration    1(   4)  ---------------------------------------


    EDDAV :  VPU time    0.93: CPU time    0.93
    DOS   :  VPU time    0.00: CPU time   -0.00
    ------------------------------------------
      LOOP:  VPU time    0.94: CPU time    0.94

 eigenvalue-minimisations  :  3352
 total energy-change (2. order) :-0.3815089E-02  (-0.3814946E-02)
 number of electron   12.0000000 magnetization 
 augmentation part    12.0000000 magnetization 

 Free energy of the ion-electron system (eV)
  ---------------------------------------------------
  alpha Z        PSCENC =        -0.89477812
  Ewald energy   TEWEN  =      -303.45298716
  -1/2 Hartree   DENC   =        -0.29941578
  -V(xc)+E(xc)   XCENC  =      -104.26831635
  PAW double counting   =       142.21701965      -14.39593217
  entropy T*S    EENTRO =        -0.00010949
  eigenvalues    EBANDS =        52.00575664
  atomic energy  EATOM  =       214.15364153
  ---------------------------------------------------
  free energy    TOTEN  =       -14.93512125 eV

  energy without entropy =      -14.93501176  energy(sigma->0) =      -14.93506651


--------------------------------------------------------------------------------------------------------




----------------------------------------- Iteration    1(   5)  ---------------------------------------


    EDDAV :  VPU time    0.96: CPU time    0.96
    DOS   :  VPU time    0.00: CPU time   -0.00
    CHARGE:  VPU time    0.03: CPU time    0.03
    MIXING:  VPU time    0.00: CPU time    0.00
    ------------------------------------------
      LOOP:  VPU time    1.00: CPU time    1.00

 eigenvalue-minimisations  :  3480
 total energy-change (2. order) :-0.4628141E-04  (-0.4628058E-04)
 number of electron   12.0000000 magnetization 
 augmentation part    -0.1418007 magnetization 

 Broyden mixing:
  rms(total) = 0.19466E+00    rms(broyden)= 0.19466E+00
  rms(prec ) = 0.44688E+00
  weight for this iteration     100.00

 Free energy of the ion-electron system (eV)
  ---------------------------------------------------
  alpha Z        PSCENC =        -0.89477812
  Ewald energy   TEWEN  =      -303.45298716
  -1/2 Hartree   DENC   =        -0.29941578
  -V(xc)+E(xc)   XCENC  =      -104.26831635
  PAW double counting   =       142.21701965      -14.39593217
  entropy T*S    EENTRO =        -0.00010949
  eigenvalues    EBANDS =        52.00571037
  atomic energy  EATOM  =       214.15364153
  ---------------------------------------------------
  free energy    TOTEN  =       -14.93516753 eV

  energy without entropy =      -14.93505804  energy(sigma->0) =      -14.93511279


--------------------------------------------------------------------------------------------------------




----------------------------------------- Iteration    1(   6)  ---------------------------------------


    POTLOK:  VPU time    0.02: CPU time    0.02
    SETDIJ:  VPU time    0.00: CPU time    0.00
    EDDAV :  VPU time    0.89: CPU time    0.89
    DOS   :  VPU time    0.00: CPU time   -0.00
    CHARGE:  VPU time    0.03: CPU time    0.03
    MIXING:  VPU time    0.00: CPU time    0.00
    ------------------------------------------
      LOOP:  VPU time    0.95: CPU time    0.95

 eigenvalue-minimisations  :  3168
 total energy-change (2. order) : 0.5743026E-01  (-0.4494242E-03)
 number of electron   12.0000000 magnetization 
 augmentation part    -0.1436376 magnetization 

 Broyden mixing:
  rms(total) = 0.12105E+00    rms(broyden)= 0.12105E+00
  rms(prec ) = 0.27972E+00
  weight for this iteration     100.00

 eigenvalues of (default mixing * dielectric matrix)
  average eigenvalue GAMMA=   2.6359
  2.6359

 Free energy of the ion-electron system (eV)
  ---------------------------------------------------
  alpha Z        PSCENC =        -0.89477812
  Ewald energy   TEWEN  =      -303.45298716
  -1/2 Hartree   DENC   =        -0.30216324
  -V(xc)+E(xc)   XCENC  =      -104.09686742
  PAW double counting   =       142.92193524      -15.14142640
  entropy T*S    EENTRO =        -0.00010918
  eigenvalues    EBANDS =        51.93501748
  atomic energy  EATOM  =       214.15364153
  ---------------------------------------------------
  free energy    TOTEN  =       -14.87773728 eV

  energy without entropy =      -14.87762810  energy(sigma->0) =      -14.87768269


--------------------------------------------------------------------------------------------------------




----------------------------------------- Iteration    1(   7)  ---------------------------------------


    POTLOK:  VPU time    0.02: CPU time    0.02
    SETDIJ:  VPU time    0.00: CPU time    0.00
    EDDAV :  VPU time    0.84: CPU time    0.84
    DOS   :  VPU time    0.00: CPU time   -0.00
    CHARGE:  VPU time    0.03: CPU time    0.03
    MIXING:  VPU time    0.00: CPU time    0.00
    ------------------------------------------
      LOOP:  VPU time    0.89: CPU time    0.90

 eigenvalue-minimisations  :  2944
 total energy-change (2. order) : 0.4167139E-01  (-0.1444359E-02)
 number of electron   12.0000000 magnetization 
 augmentation part    -0.1474275 magnetization 

 Broyden mixing:
  rms(total) = 0.49042E-02    rms(broyden)= 0.49042E-02
  rms(prec ) = 0.75052E-02
  weight for this iteration     100.00

 eigenvalues of (default mixing * dielectric matrix)
  average eigenvalue GAMMA=   2.5048
  2.5048  2.5048

 Free energy of the ion-electron system (eV)
  ---------------------------------------------------
  alpha Z        PSCENC =        -0.89477812
  Ewald energy   TEWEN  =      -303.45298716
  -1/2 Hartree   DENC   =        -0.48592320
  -V(xc)+E(xc)   XCENC  =      -103.75673001
  PAW double counting   =       143.97642926      -16.27118922
  entropy T*S    EENTRO =        -0.00011116
  eigenvalues    EBANDS =        51.89558220
  atomic energy  EATOM  =       214.15364153
  ---------------------------------------------------
  free energy    TOTEN  =       -14.83606589 eV

  energy without entropy =      -14.83595473  energy(sigma->0) =      -14.83601031


--------------------------------------------------------------------------------------------------------




----------------------------------------- Iteration    1(   8)  ---------------------------------------


    POTLOK:  VPU time    0.02: CPU time    0.02
    SETDIJ:  VPU time    0.00: CPU time    0.00
    EDDAV :  VPU time    1.03: CPU time    1.03
    DOS   :  VPU time    0.00: CPU time   -0.00
    CHARGE:  VPU time    0.03: CPU time    0.03
    MIXING:  VPU time    0.00: CPU time    0.00
    ------------------------------------------
      LOOP:  VPU time    1.08: CPU time    1.08

 eigenvalue-minimisations  :  3752
 total energy-change (2. order) :-0.3709988E-04  (-0.1265770E-04)
 number of electron   12.0000000 magnetization 
 augmentation part    -0.1476532 magnetization 

 Broyden mixing:
  rms(total) = 0.12882E-02    rms(broyden)= 0.12882E-02
  rms(prec ) = 0.24690E-02
  weight for this iteration     100.00

 eigenvalues of (default mixing * dielectric matrix)
  average eigenvalue GAMMA=   2.0977
  1.0460  2.7048  2.5424

 Free energy of the ion-electron system (eV)
  ---------------------------------------------------
  alpha Z        PSCENC =        -0.89477812
  Ewald energy   TEWEN  =      -303.45298716
  -1/2 Hartree   DENC   =        -0.48951603
  -V(xc)+E(xc)   XCENC  =      -103.75246771
  PAW double counting   =       144.00493578      -16.30262285
  entropy T*S    EENTRO =        -0.00011138
  eigenvalues    EBANDS =        51.89780296
  atomic energy  EATOM  =       214.15364153
  ---------------------------------------------------
  free energy    TOTEN  =       -14.83610299 eV

  energy without entropy =      -14.83599161  energy(sigma->0) =      -14.83604730


--------------------------------------------------------------------------------------------------------




----------------------------------------- Iteration    1(   9)  ---------------------------------------


    POTLOK:  VPU time    0.02: CPU time    0.02
    SETDIJ:  VPU time    0.00: CPU time    0.00
    EDDAV :  VPU time    0.95: CPU time    0.95
    DOS   :  VPU time    0.00: CPU time   -0.00
    CHARGE:  VPU time    0.03: CPU time    0.03
    MIXING:  VPU time    0.00: CPU time    0.00
    ------------------------------------------
      LOOP:  VPU time    1.01: CPU time    1.01

 eigenvalue-minimisations  :  3440
 total energy-change (2. order) :-0.3685900E-05  (-0.4088339E-06)
 number of electron   12.0000000 magnetization 
 augmentation part    -0.1477521 magnetization 

 Broyden mixing:
  rms(total) = 0.12628E-03    rms(broyden)= 0.12627E-03
  rms(prec ) = 0.18980E-03
  weight for this iteration     100.00

 eigenvalues of (default mixing * dielectric matrix)
  average eigenvalue GAMMA=   2.0754
  0.9964  2.6202  2.6202  2.0650

 Free energy of the ion-electron system (eV)
  ---------------------------------------------------
  alpha Z        PSCENC =        -0.89477812
  Ewald energy   TEWEN  =      -303.45298716
  -1/2 Hartree   DENC   =        -0.49328657
  -V(xc)+E(xc)   XCENC  =      -103.74779665
  PAW double counting   =       144.01529755      -16.31458141
  entropy T*S    EENTRO =        -0.00011152
  eigenvalues    EBANDS =        51.89849568
  atomic energy  EATOM  =       214.15364153
  ---------------------------------------------------
  free energy    TOTEN  =       -14.83610668 eV

  energy without entropy =      -14.83599516  energy(sigma->0) =      -14.83605092


--------------------------------------------------------------------------------------------------------




----------------------------------------- Iteration    1(  10)  ---------------------------------------


    POTLOK:  VPU time    0.02: CPU time    0.02
    SETDIJ:  VPU time    0.00: CPU time    0.00
    EDDAV :  VPU time    1.02: CPU time    1.02
    DOS   :  VPU time    0.00: CPU time   -0.00
    CHARGE:  VPU time    0.03: CPU time    0.03
    MIXING:  VPU time    0.00: CPU time    0.00
    ------------------------------------------
      LOOP:  VPU time    1.07: CPU time    1.08

 eigenvalue-minimisations  :  3736
 total energy-change (2. order) : 0.6096129E-06  (-0.4865545E-08)
 number of electron   12.0000000 magnetization 
 augmentation part    -0.1477522 magnetization 

 Broyden mixing:
  rms(total) = 0.39038E-04    rms(broyden)= 0.39037E-04
  rms(prec ) = 0.70499E-04
  weight for this iteration     100.00

 eigenvalues of (default mixing * dielectric matrix)
  average eigenvalue GAMMA=   1.9710
  2.6856  2.6856  2.5001  1.0311  0.9524

 Free energy of the ion-electron system (eV)
  ---------------------------------------------------
  alpha Z        PSCENC =        -0.89477812
  Ewald energy   TEWEN  =      -303.45298716
  -1/2 Hartree   DENC   =        -0.49321819
  -V(xc)+E(xc)   XCENC  =      -103.74789336
  PAW double counting   =       144.00736265      -16.30646820
  entropy T*S    EENTRO =        -0.00011152
  eigenvalues    EBANDS =        51.89834630
  atomic energy  EATOM  =       214.15364153
  ---------------------------------------------------
  free energy    TOTEN  =       -14.83610607 eV

  energy without entropy =      -14.83599455  energy(sigma->0) =      -14.83605031


--------------------------------------------------------------------------------------------------------




----------------------------------------- Iteration    1(  11)  ---------------------------------------


    POTLOK:  VPU time    0.02: CPU time    0.02
    SETDIJ:  VPU time    0.00: CPU time    0.00
    EDDAV :  VPU time    0.71: CPU time    0.71
    DOS   :  VPU time    0.00: CPU time   -0.00
    CHARGE:  VPU time    0.03: CPU time    0.03
    MIXING:  VPU time    0.00: CPU time    0.00
    ------------------------------------------
      LOOP:  VPU time    0.76: CPU time    0.76

 eigenvalue-minimisations  :  2440
 total energy-change (2. order) : 0.1264456E-06  (-0.1241771E-09)
 number of electron   12.0000000 magnetization 
 augmentation part    -0.1477532 magnetization 

 Broyden mixing:
  rms(total) = 0.27540E-05    rms(broyden)= 0.27536E-05
  rms(prec ) = 0.35172E-05
  weight for this iteration     100.00

 eigenvalues of (default mixing * dielectric matrix)
  average eigenvalue GAMMA=   1.9965
  0.9954  0.9954  2.6817  2.6817  2.5140  2.1108

 Free energy of the ion-electron system (eV)
  ---------------------------------------------------
  alpha Z        PSCENC =        -0.89477812
  Ewald energy   TEWEN  =      -303.45298716
  -1/2 Hartree   DENC   =        -0.49330291
  -V(xc)+E(xc)   XCENC  =      -103.74779147
  PAW double counting   =       144.00559491      -16.30468429
  entropy T*S    EENTRO =        -0.00011152
  eigenvalues    EBANDS =        51.89831310
  atomic energy  EATOM  =       214.15364153
  ---------------------------------------------------
  free energy    TOTEN  =       -14.83610594 eV

  energy without entropy =      -14.83599442  energy(sigma->0) =      -14.83605018


--------------------------------------------------------------------------------------------------------




----------------------------------------- Iteration    1(  12)  ---------------------------------------


    POTLOK:  VPU time    0.01: CPU time    0.02
    SETDIJ:  VPU time    0.00: CPU time    0.00
    EDDAV :  VPU time    0.64: CPU time    0.64
    DOS   :  VPU time    0.00: CPU time   -0.00
    ------------------------------------------
      LOOP:  VPU time    0.66: CPU time    0.66

 eigenvalue-minimisations  :  2136
 total energy-change (2. order) :-0.9484438E-08  (-0.1162145E-10)
 number of electron   12.0000000 magnetization 
 augmentation part    -0.1477532 magnetization 

 Free energy of the ion-electron system (eV)
  ---------------------------------------------------
  alpha Z        PSCENC =        -0.89477812
  Ewald energy   TEWEN  =      -303.45298716
  -1/2 Hartree   DENC   =        -0.49330314
  -V(xc)+E(xc)   XCENC  =      -103.74779330
  PAW double counting   =       144.00580225      -16.30489428
  entropy T*S    EENTRO =        -0.00011152
  eigenvalues    EBANDS =        51.89831780
  atomic energy  EATOM  =       214.15364153
  ---------------------------------------------------
  free energy    TOTEN  =       -14.83610595 eV

  energy without entropy =      -14.83599443  energy(sigma->0) =      -14.83605019


--------------------------------------------------------------------------------------------------------




 average (electrostatic) potential at core
  the test charge radii are     1.0406
  (the norm of the test charge is              1.0000)
       1 -71.4733       2 -71.4733       3 -71.4733       4 -71.4733
 
 
 
 E-fermi :   9.0035     XC(G=0): -10.5429     alpha+bet :-16.3475
   add alpha+bet to get absolut eigen values

 k-point   1 :       0.0000    0.0000    0.0000
  band No.  band energies     occupation 
      1      -2.7825      2.00000
      2       5.8678      2.00000
      3       5.8678      2.00000
      4       5.8678      2.00000
      5       7.3863      2.00000
      6       7.3863      2.00000
      7       7.3863      2.00000
      8      14.2967      0.00000
      9      14.2967      0.00000
     10      14.2967      0.00000
     11      15.0760      0.00000
     12      15.0760      0.00000
     13      15.0760      0.00000
     14      15.0760      0.00000
     15      15.0760      0.00000
     16      15.0760      0.00000

 k-point   2 :       0.0769    0.0000    0.0000
  band No.  band energies     occupation 
      1      -2.7255      2.00000
      2       5.0797      2.00000
      3       5.9194      2.00000
      4       5.9194      2.00000
      5       7.4396      2.00000
      6       7.4396      2.00000
      7       8.2711      2.00000
      8      13.3211      0.00000
      9      13.3211      0.00000
     10      14.3531      0.00000
     11      14.7038      0.00000
     12      14.7038      0.00000
     13      15.1234      0.00000
     14      15.1234      0.00000
     15      16.1574      0.00000
     16      16.1574      0.00000

 k-point   3 :       0.1538    0.0000    0.0000
  band No.  band energies     occupation 
      1      -2.5544      2.00000
      2       3.9148      2.00000
      3       6.0743      2.00000
      4       6.0743      2.00000
      5       7.5982      2.00000
      6       7.5982      2.00000
      7       9.7262      0.00000
      8      12.1434      0.00000
      9      12.1434      0.00000
     10      13.8885      0.00000
     11      13.8885      0.00000
     12      14.5223      0.00000
     13      15.2656      0.00000
     14      15.2656      0.00000
     15      17.6520      0.00000
     16      17.6520      0.00000

 k-point   4 :       0.2308    0.0000    0.0000
  band No.  band energies     occupation 
      1      -2.2697      2.00000
      2       2.7923      2.00000
      3       6.3326      2.00000
      4       6.3326      2.00000
      5       7.8575      2.00000
      6       7.8575      2.00000
      7      11.0543      0.00000
      8      11.0543      0.00000
      9      11.3317      0.00000
     10      12.9661      0.00000
     11      12.9661      0.00000
     12      14.8039      0.00000
     13      15.5027      0.00000
     14      15.5027      0.00000
     15      19.2680      0.00000
     16      19.2680      0.00000

 k-point   5 :       0.3077    0.0000    0.0000
  band No.  band energies     occupation 
      1      -1.8723      2.00000
      2       1.7566      2.00000
      3       6.6945      2.00000
      4       6.6945      2.00000
      5       8.2055      2.00000
      6       8.2055      2.00000
      7      10.0668      0.00000
      8      10.0668      0.00000
      9      12.0758      0.00000
     10      12.0758      0.00000
     11      13.0427      0.00000
     12      15.1975      0.00000
     13      15.8348      0.00000
     14      15.8348      0.00000
     15      18.7811      0.00000
     16      18.9107      0.00000

 k-point   6 :       0.3846    0.0000    0.0000
  band No.  band energies     occupation 
      1      -1.3631      2.00000
      2       0.8189      2.00000
      3       7.1602      2.00000
      4       7.1602      2.00000
      5       8.6096      2.00000
      6       8.6096      2.00000
      7       9.1832      0.00000
      8       9.1832      0.00000
      9      11.2958      0.00000
     10      11.2958      0.00000
     11      14.8461      0.00000
     12      15.7021      0.00000
     13      16.2621      0.00000
     14      16.2621      0.00000
     15      17.8620      0.00000
     16      18.1109      0.00000

 k-point   7 :       0.4615    0.0000    0.0000
  band No.  band energies     occupation 
      1      -0.7436      2.00000
      2      -0.0155      2.00000
      3       7.7301      2.00000
      4       7.7301      2.00000
      5       8.4044      2.00000
      6       8.4044      2.00000
      7       8.9562      2.00000
      8       8.9562      2.00000
      9      10.7579      0.00000
     10      10.7579      0.00000
     11      16.3163      0.00000
     12      16.7334      0.00000
     13      16.7843      0.00000
     14      16.7843      0.00000
     15      17.0377      0.00000
     16      17.4011      0.00000

 k-point   8 :       0.0769    0.0769    0.0000
  band No.  band energies     occupation 
      1      -2.6684      2.00000
      2       5.1326      2.00000
      3       5.1326      2.00000
      4       5.9711      2.00000
      5       7.4922      2.00000
      6       8.3227      2.00000
      7       8.3227      2.00000
      8      12.5757      0.00000
      9      13.3743      0.00000
     10      13.3743      0.00000
     11      14.7529      0.00000
     12      14.7529      0.00000
     13      15.1719      0.00000
     14      16.1307      0.00000
     15      16.2080      0.00000
     16      16.2080      0.00000

 k-point   9 :       0.1538    0.0769    0.0000
  band No.  band energies     occupation 
      1      -2.4974      2.00000
      2       3.9686      2.00000
      3       5.2912      2.00000
      4       6.1260      2.00000
      5       7.6481      2.00000
      6       8.4761      2.00000
      7       9.7752      0.00000
      8      11.4706      0.00000
      9      12.1960      0.00000
     10      13.5337      0.00000
     11      13.9410      0.00000
     12      14.6084      0.00000
     13      14.9003      0.00000
     14      16.3597      0.00000
     15      17.2546      0.00000
     16      17.7030      0.00000

 k-point  10 :       0.2308    0.0769    0.0000
  band No.  band energies     occupation 
      1      -2.2129      2.00000
      2       2.8468      2.00000
      3       5.5549      2.00000
      4       6.3843      2.00000
      5       7.8985      2.00000
      6       8.7258      2.00000
      7      10.4168      0.00000
      8      11.1067      0.00000
      9      11.3764      0.00000
     10      13.0242      0.00000
     11      13.6976      0.00000
     12      13.7991      0.00000
     13      15.1468      0.00000
     14      16.6127      0.00000
     15      18.5282      0.00000
     16      18.7988      0.00000

 k-point  11 :       0.3077    0.0769    0.0000
  band No.  band energies     occupation 
      1      -1.8156      2.00000
      2       1.8116      2.00000
      3       5.9229      2.00000
      4       6.7462      2.00000
      5       8.2055      2.00000
      6       9.0564      0.00000
      7       9.4903      0.00000
      8      10.1190      0.00000
      9      12.1461      0.00000
     10      12.7973      0.00000
     11      13.0775      0.00000
     12      14.1699      0.00000
     13      15.4959      0.00000
     14      16.9670      0.00000
     15      17.5620      0.00000
     16      18.5476      0.00000

 k-point  12 :       0.3846    0.0769    0.0000
  band No.  band energies     occupation 
      1      -1.3066      2.00000
      2       0.8744      2.00000
      3       6.3936      2.00000
      4       7.2120      2.00000
      5       8.2343      2.00000
      6       9.0202      0.01847
      7       9.2353      0.00000
      8       9.4149      0.00000
      9      11.4074      0.00000
     10      11.9828      0.00000
     11      14.6453      0.00000
     12      14.8439      0.00000
     13      15.9686      0.00000
     14      16.6856      0.00000
     15      17.4225      0.00000
     16      17.7408      0.00000

 k-point  13 :       0.4615    0.0769    0.0000
  band No.  band energies     occupation 
      1      -0.6874      2.00000
      2       0.0404      2.00000
      3       6.9626      2.00000
      4       7.6151      2.00000
      5       7.7820      2.00000
      6       8.4563      2.00000
      7       9.3273      0.00000
      8       9.5906      0.00000
      9      11.0414      0.00000
     10      11.3261      0.00000
     11      15.2243      0.00000
     12      15.9052      0.00000
     13      16.2864      0.00000
     14      16.9455      0.00000
     15      17.0093      0.00000
     16      17.9784      0.00000

 k-point  14 :       0.1538    0.1538    0.0000
  band No.  band energies     occupation 
      1      -2.3266      2.00000
      2       4.1300      2.00000
      3       4.1300      2.00000
      4       6.2810      2.00000
      5       7.7916      2.00000
      6       9.9198      0.00000
      7       9.9198      0.00000
      8      10.4080      0.00000
      9      12.3537      0.00000
     10      12.3537      0.00000
     11      14.0999      0.00000
     12      14.0999      0.00000
     13      15.4596      0.00000
     14      16.8812      0.00000
     15      17.8559      0.00000
     16      17.8559      0.00000

 k-point  15 :       0.2308    0.1538    0.0000
  band No.  band energies     occupation 
      1      -2.0425      2.00000
      2       3.0102      2.00000
      3       4.3984      2.00000
      4       6.5394      2.00000
      5       7.9894      2.00000
      6       9.4175      0.00000
      7      10.1485      0.00000
      8      11.2637      0.00000
      9      11.5036      0.00000
     10      12.6165      0.00000
     11      13.2036      0.00000
     12      14.3707      0.00000
     13      14.9712      0.00000
     14      17.3524      0.00000
     15      17.9626      0.00000
     16      18.1105      0.00000

 k-point  16 :       0.3077    0.1538    0.0000
  band No.  band energies     occupation 
      1      -1.6457      2.00000
      2       1.9766      2.00000
      3       4.7729      2.00000
      4       6.9015      2.00000
      5       7.9326      2.00000
      6       8.8633      2.00000
      7      10.2756      0.00000
      8      10.4186      0.00000
      9      12.3823      0.00000
     10      12.9840      0.00000
     11      13.1541      0.00000
     12      14.1225      0.00000
     13      14.7802      0.00000
     14      16.3738      0.00000
     15      17.7554      0.00000
     16      18.4662      0.00000

 k-point  17 :       0.3846    0.1538    0.0000
  band No.  band energies     occupation 
      1      -1.1375      2.00000
      2       1.0407      2.00000
      3       5.2520      2.00000
      4       7.2574      2.00000
      5       7.3675      2.00000
      6       9.1172      0.00000
      7       9.3916      0.00000
      8      10.5382      0.00000
      9      11.8756      0.00000
     10      13.3047      0.00000
     11      13.4560      0.00000
     12      14.6452      0.00000
     13      15.4923      0.00000
     14      15.5401      0.00000
     15      16.9395      0.00000
     16      18.9221      0.00000

 k-point  18 :       0.4615    0.1538    0.0000
  band No.  band energies     occupation 
      1      -0.5190      2.00000
      2       0.2078      2.00000
      3       5.8327      2.00000
      4       6.5086      2.00000
      5       7.9377      2.00000
      6       8.6123      2.00000
      7       9.6232      0.00000
      8      10.1817      0.00000
      9      12.0303      0.00000
     10      12.5848      0.00000
     11      14.0319      0.00000
     12      14.7111      0.00000
     13      15.4972      0.00000
     14      16.1934      0.00000
     15      17.1199      0.00000
     16      19.0248      0.00000

 k-point  19 :       0.2308    0.2308    0.0000
  band No.  band energies     occupation 
      1      -1.7590      2.00000
      2       3.2820      2.00000
      3       3.2820      2.00000
      4       6.7980      2.00000
      5       7.8290      2.00000
      6       8.7868      2.00000
      7      11.5254      0.00000
      8      11.5254      0.00000
      9      11.6756      0.00000
     10      11.6756      0.00000
     11      13.5342      0.00000
     12      13.5342      0.00000
     13      15.9398      0.00000
     14      16.2691      0.00000
     15      17.5723      0.00000
     16      17.7356      0.00000

 k-point  20 :       0.3077    0.2308    0.0000
  band No.  band energies     occupation 
      1      -1.3631      2.00000
      2       2.2510      2.00000
      3       3.6613      2.00000
      4       7.0617      2.00000
      5       7.1604      2.00000
      6       8.9432      2.00000
      7      10.5366      0.00000
      8      11.7052      0.00000
      9      11.8917      0.00000
     10      12.9526      0.00000
     11      13.0806      0.00000
     12      14.1946      0.00000
     13      15.2836      0.00000
     14      15.5615      0.00000
     15      16.8550      0.00000
     16      18.7001      0.00000

 k-point  21 :       0.3846    0.2308    0.0000
  band No.  band energies     occupation 
      1      -0.8560      2.00000
      2       1.3173      2.00000
      3       4.1469      2.00000
      4       6.2105      2.00000
      5       7.6267      2.00000
      6       9.3770      0.00000
      7       9.6521      0.00000
      8      11.2486      0.00000
      9      12.3625      0.00000
     10      13.0174      0.00000
     11      13.9456      0.00000
     12      14.3988      0.00000
     13      14.8114      0.00000
     14      15.5867      0.00000
     15      16.0313      0.00000
     16      20.3808      0.00000

 k-point  22 :       0.4615    0.2308    0.0000
  band No.  band energies     occupation 
      1      -0.2389      2.00000
      2       0.4863      2.00000
      3       4.7368      2.00000
      4       5.4272      2.00000
      5       8.1973      2.00000
      6       8.8723      2.00000
      7       9.9353      0.00000
      8      10.5794      0.00000
      9      12.9375      0.00000
     10      13.4744      0.00000
     11      13.6165      0.00000
     12      14.0934      0.00000
     13      14.5964      0.00000
     14      15.2789      0.00000
     15      17.3721      0.00000
     16      19.2877      0.00000

 k-point  23 :       0.3077    0.3077    0.0000
  band No.  band energies     occupation 
      1      -0.9685      2.00000
      2       2.6341      2.00000
      3       2.6341      2.00000
      4       6.1090      2.00000
      5       7.5231      2.00000
      6       9.2828      0.00000
      7      10.9021      0.00000
      8      10.9021      0.00000
      9      12.5110      0.00000
     10      12.5110      0.00000
     11      14.2130      0.00000
     12      14.2130      0.00000
     13      14.2944      0.00000
     14      15.9676      0.00000
     15      16.6137      0.00000
     16      18.3980      0.00000

 k-point  24 :       0.3846    0.3077    0.0000
  band No.  band energies     occupation 
      1      -0.4629      2.00000
      2       1.7036      2.00000
      3       3.1248      2.00000
      4       5.2200      2.00000
      5       7.9899      2.00000
      6       9.7529      0.00000
      7      10.0169      0.00000
      8      11.3721      0.00000
      9      11.7443      0.00000
     10      13.0935      0.00000
     11      13.4080      0.00000
     12      14.5829      0.00000
     13      15.1364      0.00000
     14      15.8871      0.00000
     15      16.3559      0.00000
     16      19.5879      0.00000

 k-point  25 :       0.4615    0.3077    0.0000
  band No.  band energies     occupation 
      1       0.1522      2.00000
      2       0.8752      2.00000
      3       3.7213      2.00000
      4       4.4212      2.00000
      5       8.5609      2.00000
      6       9.2365      0.00000
      7      10.3297      0.00000
      8      10.9999      0.00000
      9      11.9464      0.00000
     10      12.6252      0.00000
     11      13.7001      0.00000
     12      14.3787      0.00000
     13      15.1019      0.00000
     14      15.7156      0.00000
     15      17.7099      0.00000
     16      19.6025      0.00000

 k-point  26 :       0.3846    0.3846    0.0000
  band No.  band energies     occupation 
      1       0.0407      2.00000
      2       2.1984      2.00000
      3       2.1984      2.00000
      4       4.3153      2.00000
      5       8.4572      2.00000
      6      10.2357      0.00000
      7      10.4862      0.00000
      8      10.4862      0.00000
      9      12.2629      0.00000
     10      12.2629      0.00000
     11      12.5209      0.00000
     12      14.2982      0.00000
     13      16.3112      0.00000
     14      16.3112      0.00000
     15      17.4821      0.00000
     16      19.3981      0.00000

 k-point  27 :       0.4615    0.3846    0.0000
  band No.  band energies     occupation 
      1       0.6534      2.00000
      2       1.3734      2.00000
      3       2.8002      2.00000
      4       3.5069      2.00000
      5       9.0288      0.00034
      6       9.7051      0.00000
      7      10.8199      0.00000
      8      11.0599      0.00000
      9      11.4989      0.00000
     10      11.7382      0.00000
     11      12.8565      0.00000
     12      13.5354      0.00000
     13      16.8209      0.00000
     14      17.3479      0.00000
     15      18.1190      0.00000
     16      19.9091      0.00000

 k-point  28 :       0.4615    0.4615    0.0000
  band No.  band energies     occupation 
      1       1.2631      2.00000
      2       1.9795      2.00000
      3       1.9795      2.00000
      4       2.6916      2.00000
      5       9.6011      0.00000
      6      10.2781      0.00000
      7      10.2781      0.00000
      8      10.9558      0.00000
      9      11.4072      0.00000
     10      12.0883      0.00000
     11      12.0883      0.00000
     12      12.7687      0.00000
     13      18.5336      0.00000
     14      18.5336      0.00000
     15      18.5459      0.00000
     16      19.8048      0.00000

 k-point  29 :       0.0769    0.0769    0.0769
  band No.  band energies     occupation 
      1      -2.6114      2.00000
      2       5.1855      2.00000
      3       5.1855      2.00000
      4       5.1855      2.00000
      5       8.3734      2.00000
      6       8.3734      2.00000
      7       8.3734      2.00000
      8      12.6293      0.00000
      9      12.6293      0.00000
     10      12.6293      0.00000
     11      15.2193      0.00000
     12      15.2193      0.00000
     13      15.2193      0.00000
     14      16.1842      0.00000
     15      16.1842      0.00000
     16      16.1842      0.00000

 k-point  30 :       0.1538    0.0769    0.0769
  band No.  band energies     occupation 
      1      -2.4405      2.00000
      2       4.0224      2.00000
      3       5.3439      2.00000
      4       5.3439      2.00000
      5       8.5228      2.00000
      6       8.5228      2.00000
      7       9.8222      0.00000
      8      11.5265      0.00000
      9      11.5265      0.00000
     10      12.7907      0.00000
     11      14.6590      0.00000
     12      14.6590      0.00000
     13      15.3615      0.00000
     14      16.3447      0.00000
     15      17.3069      0.00000
     16      17.3069      0.00000

 k-point  31 :       0.2308    0.0769    0.0769
  band No.  band energies     occupation 
      1      -2.1560      2.00000
      2       2.9013      2.00000
      3       5.6072      2.00000
      4       5.6072      2.00000
      5       8.7568      2.00000
      6       8.7568      2.00000
      7      10.4821      0.00000
      8      10.4821      0.00000
      9      11.4130      0.00000
     10      13.0651      0.00000
     11      13.7518      0.00000
     12      13.7518      0.00000
     13      15.5988      0.00000
     14      16.6120      0.00000
     15      17.7153      0.00000
     16      18.8501      0.00000

 k-point  32 :       0.3077    0.0769    0.0769
  band No.  band energies     occupation 
      1      -1.7590      2.00000
      2       1.8666      2.00000
      3       5.9744      2.00000
      4       5.9744      2.00000
      5       8.9590      2.00000
      6       8.9590      2.00000
      7       9.6499      0.00000
      8       9.6499      0.00000
      9      12.8577      0.00000
     10      12.8577      0.00000
     11      13.0271      0.00000
     12      13.5245      0.00000
     13      15.9311      0.00000
     14      16.7558      0.00000
     15      16.9864      0.00000
     16      19.0096      0.00000

 k-point  33 :       0.3846    0.0769    0.0769
  band No.  band energies     occupation 
      1      -1.2502      2.00000
      2       0.9299      2.00000
      3       6.4419      2.00000
      4       6.4419      2.00000
      5       8.4633      2.00000
      6       8.4633      2.00000
      7       9.6854      0.00000
      8       9.6854      0.00000
      9      12.0609      0.00000
     10      12.0609      0.00000
     11      13.8326      0.00000
     12      14.9832      0.00000
     13      15.8849      0.00000
     14      16.3586      0.00000
     15      17.4698      0.00000
     16      18.2089      0.00000

 k-point  34 :       0.4615    0.0769    0.0769
  band No.  band energies     occupation 
      1      -0.6313      2.00000
      2       0.0962      2.00000
      3       6.9892      2.00000
      4       6.9892      2.00000
      5       7.7485      2.00000
      6       7.7485      2.00000
      7      10.0329      0.00000
      8      10.0329      0.00000
      9      11.4820      0.00000
     10      11.4820      0.00000
     11      14.4275      0.00000
     12      15.1084      0.00000
     13      16.8158      0.00000
     14      16.8812      0.00000
     15      17.4984      0.00000
     16      18.0784      0.00000

 k-point  35 :       0.1538    0.1538    0.0769
  band No.  band energies     occupation 
      1      -2.2697      2.00000
      2       4.1837      2.00000
      3       4.1837      2.00000
      4       5.5017      2.00000
      5       8.6516      2.00000
      6       9.9546      0.00000
      7       9.9546      0.00000
      8      10.4764      0.00000
      9      11.6996      0.00000
     10      11.6996      0.00000
     11      14.8110      0.00000
     12      14.8110      0.00000
     13      15.5071      0.00000
     14      16.9366      0.00000
     15      17.4636      0.00000
     16      17.4636      0.00000

 k-point  36 :       0.2308    0.1538    0.0769
  band No.  band energies     occupation 
      1      -1.9857      2.00000
      2       3.0646      2.00000
      3       4.4518      2.00000
      4       5.7636      2.00000
      5       8.7461      2.00000
      6       9.5854      0.00000
      7      10.0802      0.00000
      8      10.7513      0.00000
      9      11.4445      0.00000
     10      12.0672      0.00000
     11      13.9162      0.00000
     12      15.0218      0.00000
     13      15.0658      0.00000
     14      16.6085      0.00000
     15      17.7244      0.00000
     16      18.0154      0.00000

 k-point  37 :       0.3077    0.1538    0.0769
  band No.  band energies     occupation 
      1      -1.5892      2.00000
      2       2.0315      2.00000
      3       4.8258      2.00000
      4       6.1264      2.00000
      5       8.2124      2.00000
      6       9.5057      0.00000
      7       9.5124      0.00000
      8      10.6590      0.00000
      9      12.2190      0.00000
     10      13.0481      0.00000
     11      13.3492      0.00000
     12      14.1765      0.00000
     13      15.4298      0.00000
     14      15.6419      0.00000
     15      18.0885      0.00000
     16      18.5022      0.00000

 k-point  38 :       0.3846    0.1538    0.0769
  band No.  band energies     occupation 
      1      -1.0811      2.00000
      2       1.0961      2.00000
      3       5.3036      2.00000
      4       6.5681      2.00000
      5       7.4166      2.00000
      6       8.6696      2.00000
      7       9.8994      0.00000
      8      10.9352      0.00000
      9      12.3489      0.00000
     10      12.7246      0.00000
     11      13.3644      0.00000
     12      14.7671      0.00000
     13      15.0360      0.00000
     14      15.9502      0.00000
     15      17.6870      0.00000
     16      18.5551      0.00000

 k-point  39 :       0.4615    0.1538    0.0769
  band No.  band energies     occupation 
      1      -0.4630      2.00000
      2       0.2635      2.00000
      3       5.8799      2.00000
      4       6.5230      2.00000
      5       7.2641      2.00000
      6       7.9022      2.00000
      7      10.4073      0.00000
      8      10.8841      0.00000
      9      12.1921      0.00000
     10      12.6616      0.00000
     11      13.3083      0.00000
     12      13.9886      0.00000
     13      16.2364      0.00000
     14      16.9451      0.00000
     15      17.1565      0.00000
     16      18.9933      0.00000

 k-point  40 :       0.2308    0.2308    0.0769
  band No.  band energies     occupation 
      1      -1.7023      2.00000
      2       3.3362      2.00000
      3       3.3362      2.00000
      4       6.0210      2.00000
      5       8.1189      2.00000
      6       9.4233      0.00000
      7      10.7672      0.00000
      8      10.7672      0.00000
      9      11.8965      0.00000
     10      11.8965      0.00000
     11      14.2007      0.00000
     12      14.2007      0.00000
     13      15.5519      0.00000
     14      15.9874      0.00000
     15      17.6274      0.00000
     16      18.5042      0.00000

 k-point  41 :       0.3077    0.2308    0.0769
  band No.  band energies     occupation 
      1      -1.3067      2.00000
      2       2.3058      2.00000
      3       3.7152      2.00000
      4       6.3574      2.00000
      5       7.2275      2.00000
      6       9.7295      0.00000
      7       9.8203      0.00000
      8      11.1759      0.00000
      9      12.0846      0.00000
     10      13.4305      0.00000
     11      13.4545      0.00000
     12      14.5792      0.00000
     13      14.6626      0.00000
     14      15.6119      0.00000
     15      17.6230      0.00000
     16      18.7522      0.00000

 k-point  42 :       0.3846    0.2308    0.0769
  band No.  band energies     occupation 
[...]
     16      20.0926      0.00000

 k-point  64 :       0.4615    0.4615    0.1538
  band No.  band energies     occupation 
      1       1.4841      2.00000
      2       2.1990      2.00000
      3       2.1990      2.00000
      4       2.9092      2.00000
      5       7.7980      2.00000
      6       8.4848      2.00000
      7       8.4848      2.00000
      8       9.1713      0.00000
      9      13.5877      0.00000
     10      14.2520      0.00000
     11      14.2520      0.00000
     12      14.9187      0.00000
     13      18.7260      0.00000
     14      18.7260      0.00000
     15      18.7367      0.00000
     16      19.9946      0.00000

 k-point  65 :       0.2308    0.2308    0.2308
  band No.  band energies     occupation 
      1      -1.2502      2.00000
      2       3.7684      2.00000
      3       3.7684      2.00000
      4       3.7684      2.00000
      5       8.6391      2.00000
      6       8.6391      2.00000
      7       8.6391      2.00000
      8      12.3477      0.00000
      9      12.3477      0.00000
     10      12.3477      0.00000
     11      13.4100      0.00000
     12      16.3682      0.00000
     13      16.3682      0.00000
     14      16.3682      0.00000
     15      18.0647      0.00000
     16      18.0647      0.00000

 k-point  66 :       0.3077    0.2308    0.2308
  band No.  band energies     occupation 
      1      -0.8560      2.00000
      2       2.7431      2.00000
      3       4.1439      2.00000
      4       4.1439      2.00000
      5       7.6563      2.00000
      6       7.6563      2.00000
      7       9.0176      0.04622
      8      12.4341      0.00000
      9      12.7009      0.00000
     10      12.7009      0.00000
     11      14.0314      0.00000
     12      16.0169      0.00000
     13      16.0169      0.00000
     14      16.7018      0.00000
     15      18.4430      0.00000
     16      19.1650      0.00000

 k-point  67 :       0.3846    0.2308    0.2308
  band No.  band energies     occupation 
      1      -0.3508      2.00000
      2       1.8137      2.00000
      3       4.6198      2.00000
      4       4.6198      2.00000
      5       6.7706      2.00000
      6       6.7706      2.00000
      7       9.4975      0.00000
      8      11.5506      0.00000
      9      13.1317      0.00000
     10      13.1317      0.00000
     11      15.3054      0.00000
     12      15.3054      0.00000
     13      15.8019      0.00000
     14      17.1310      0.00000
     15      18.9238      0.00000
     16      18.9915      0.00000

 k-point  68 :       0.4615    0.2308    0.2308
  band No.  band energies     occupation 
      1       0.2638      2.00000
      2       0.9861      2.00000
      3       5.1618      2.00000
      4       5.1618      2.00000
      5       6.0226      2.00000
      6       6.0226      2.00000
      7      10.0801      0.00000
      8      10.7650      0.00000
      9      13.5613      0.00000
     10      13.5613      0.00000
     11      14.7102      0.00000
     12      14.7102      0.00000
     13      17.6291      0.00000
     14      17.6559      0.00000
     15      18.2764      0.00000
     16      19.3920      0.00000

 k-point  69 :       0.3077    0.3077    0.2308
  band No.  band energies     occupation 
      1      -0.4629      2.00000
      2       3.1239      2.00000
      3       3.1239      2.00000
      4       4.5125      2.00000
      5       6.6704      2.00000
      6       8.0298      2.00000
      7       8.0298      2.00000
      8      11.4545      0.00000
      9      13.0749      0.00000
     10      14.3717      0.00000
     11      14.3717      0.00000
     12      16.3783      0.00000
     13      16.3783      0.00000
     14      17.0429      0.00000
     15      18.8749      0.00000
     16      19.3841      0.00000

 k-point  70 :       0.3846    0.3077    0.2308
  band No.  band energies     occupation 
      1       0.0407      2.00000
      2       2.1982      2.00000
      3       3.6104      2.00000
      4       4.9492      2.00000
      5       5.8157      2.00000
      6       7.1366      2.00000
      7       8.5088      2.00000
      8      10.5677      0.00000
      9      13.5343      0.00000
     10      14.7116      0.00000
     11      15.7606      0.00000
     12      16.0711      0.00000
     13      16.8067      0.00000
     14      16.8947      0.00000
     15      18.6250      0.00000
     16      19.9673      0.00000

 k-point  71 :       0.4615    0.3077    0.2308
  band No.  band energies     occupation 
      1       0.6535      2.00000
      2       1.3734      2.00000
      3       4.1970      2.00000
      4       4.8487      2.00000
      5       5.7031      2.00000
      6       6.3488      2.00000
      7       9.0924      0.00000
      8       9.7793      0.00000
      9      14.0688      0.00000
     10      14.6067      0.00000
     11      15.6896      0.00000
     12      16.1984      0.00000
     13      17.2129      0.00000
     14      17.9007      0.00000
     15      18.1290      0.00000
     16      19.9267      0.00000

 k-point  72 :       0.3846    0.3846    0.2308
  band No.  band energies     occupation 
      1       0.5423      2.00000
      2       2.6903      2.00000
      3       2.6903      2.00000
      4       4.7439      2.00000
      5       5.5959      2.00000
      6       7.6141      2.00000
      7       7.6141      2.00000
      8       9.6779      0.00000
      9      14.0093      0.00000
     10      15.8413      0.00000
     11      15.8413      0.00000
     12      16.8452      0.00000
     13      16.8452      0.00000
     14      17.8842      0.00000
     15      17.9118      0.00000
     16      19.8470      0.00000

 k-point  73 :       0.4615    0.3846    0.2308
  band No.  band energies     occupation 
      1       1.1526      2.00000
      2       1.8695      2.00000
      3       3.2876      2.00000
      4       3.9840      2.00000
      5       6.1362      2.00000
      6       6.8207      2.00000
      7       8.1983      2.00000
      8       8.8870      2.00000
      9      14.5675      0.00000
     10      15.1985      0.00000
     11      16.4982      0.00000
     12      17.1617      0.00000
     13      17.2855      0.00000
     14      17.7914      0.00000
     15      18.5503      0.00000
     16      20.3122      0.00000

 k-point  74 :       0.4615    0.4615    0.2308
  band No.  band energies     occupation 
      1       1.7597      2.00000
      2       2.4725      2.00000
      3       2.4725      2.00000
      4       3.1796      2.00000
      5       6.7148      2.00000
      6       7.4044      2.00000
      7       7.4044      2.00000
      8       8.0942      2.00000
      9      15.1372      0.00000
     10      15.7856      0.00000
     11      15.7856      0.00000
     12      16.4405      0.00000
     13      18.9649      0.00000
     14      18.9649      0.00000
     15      18.9751      0.00000
     16      20.2304      0.00000

 k-point  75 :       0.3077    0.3077    0.3077
  band No.  band energies     occupation 
      1      -0.0710      2.00000
      2       3.5020      2.00000
      3       3.5020      2.00000
      4       3.5020      2.00000
      5       7.0369      2.00000
      6       7.0369      2.00000
      7       7.0369      2.00000
      8      10.4712      0.00000
      9      14.7548      0.00000
     10      14.7548      0.00000
     11      14.7548      0.00000
     12      17.3771      0.00000
     13      17.3771      0.00000
     14      17.3771      0.00000
     15      19.2369      0.00000
     16      19.2369      0.00000

 k-point  76 :       0.3846    0.3077    0.3077
  band No.  band energies     occupation 
      1       0.4311      2.00000
      2       2.5810      2.00000
      3       3.9816      2.00000
      4       3.9816      2.00000
      5       6.1435      2.00000
      6       6.1435      2.00000
      7       7.5149      2.00000
      8       9.5808      0.00000
      9      15.1968      0.00000
     10      15.1968      0.00000
     11      16.5143      0.00000
     12      17.1630      0.00000
     13      17.1630      0.00000
     14      17.8074      0.00000
     15      19.6738      0.00000
     16      19.6884      0.00000

 k-point  77 :       0.4615    0.3077    0.3077
  band No.  band energies     occupation 
      1       1.0419      2.00000
      2       1.7594      2.00000
      3       4.5297      2.00000
      4       4.5297      2.00000
      5       5.3876      2.00000
      6       5.3876      2.00000
      7       8.0998      2.00000
      8       8.7892      2.00000
      9      15.6440      0.00000
     10      15.6440      0.00000
     11      16.6344      0.00000
     12      16.6344      0.00000
     13      18.3214      0.00000
     14      18.3337      0.00000
     15      18.9560      0.00000
     16      20.0434      0.00000

 k-point  78 :       0.3846    0.3846    0.3077
  band No.  band energies     occupation 
      1       0.9311      2.00000
      2       3.0702      2.00000
      3       3.0702      2.00000
      4       4.4232      2.00000
      5       5.2812      2.00000
      6       6.6165      2.00000
      7       6.6165      2.00000
      8       8.6871      2.00000
      9      15.6752      0.00000
     10      16.8864      0.00000
     11      16.8864      0.00000
     12      17.6650      0.00000
     13      17.6650      0.00000
     14      18.2464      0.00000
     15      19.3457      0.00000
     16      20.1785      0.00000

 k-point  79 :       0.4615    0.3846    0.3077
  band No.  band energies     occupation 
      1       1.5393      2.00000
      2       2.2535      2.00000
      3       3.6605      2.00000
      4       4.3188      2.00000
      5       5.1714      2.00000
      6       5.8238      2.00000
      7       7.2015      2.00000
      8       7.8928      2.00000
      9      16.2119      0.00000
     10      16.7615      0.00000
     11      17.6850      0.00000
     12      18.0090      0.00000
     13      18.1389      0.00000
     14      18.6737      0.00000
     15      18.8711      0.00000
     16      20.5718      0.00000

 k-point  80 :       0.4615    0.4615    0.3077
  band No.  band energies     occupation 
      1       2.1441      2.00000
      2       2.8534      2.00000
      3       2.8534      2.00000
      4       3.5531      2.00000
      5       5.7167      2.00000
      6       6.4047      2.00000
      7       6.4047      2.00000
      8       7.0964      2.00000
      9      16.7768      0.00000
     10      17.3932      0.00000
     11      17.3932      0.00000
     12      18.0274      0.00000
     13      19.2949      0.00000
     14      19.2949      0.00000
     15      19.3084      0.00000
     16      20.5545      0.00000

 k-point  81 :       0.3846    0.3846    0.3846
  band No.  band energies     occupation 
      1       1.4290      2.00000
      2       3.5524      2.00000
      3       3.5524      2.00000
      4       3.5524      2.00000
      5       5.7186      2.00000
      6       5.7186      2.00000
      7       5.7186      2.00000
      8       7.7898      2.00000
      9      17.4107      0.00000
     10      17.4107      0.00000
     11      17.4107      0.00000
     12      18.6768      0.00000
     13      18.6768      0.00000
     14      18.6768      0.00000
     15      20.5403      0.00000
     16      20.5491      0.00000

 k-point  82 :       0.4615    0.3846    0.3846
  band No.  band energies     occupation 
      1       2.0344      2.00000
      2       2.7444      2.00000
      3       4.1058      2.00000
      4       4.1058      2.00000
      5       4.9565      2.00000
      6       4.9565      2.00000
      7       6.3002      2.00000
      8       6.9927      2.00000
      9      17.8786      0.00000
     10      17.8786      0.00000
     11      18.6131      0.00000
     12      18.6131      0.00000
     13      19.1700      0.00000
     14      19.2031      0.00000
     15      19.8245      0.00000
     16      20.7127      0.00000

 k-point  83 :       0.4615    0.4615    0.3846
  band No.  band energies     occupation 
      1       2.6355      2.00000
      2       3.3369      2.00000
      3       3.3369      2.00000
      4       3.9998      2.00000
      5       4.8476      2.00000
      6       5.5046      2.00000
      7       5.5046      2.00000
      8       6.1942      2.00000
      9      18.4611      0.00000
     10      18.9877      0.00000
     11      18.9877      0.00000
     12      19.5859      0.00000
     13      19.7072      0.00000
     14      19.7072      0.00000
     15      19.7355      0.00000
     16      20.9280      0.00000

 k-point  84 :       0.4615    0.4615    0.4615
  band No.  band energies     occupation 
      1       3.2288      2.00000
      2       3.8933      2.00000
      3       3.8933      2.00000
      4       3.8933      2.00000
      5       4.7391      2.00000
      6       4.7391      2.00000
      7       4.7391      2.00000
      8       5.3976      2.00000
      9      20.0932      0.00000
     10      20.0932      0.00000
     11      20.0932      0.00000
     12      20.2514      0.00000
     13      20.2514      0.00000
     14      20.2514      0.00000
     15      20.8196      0.00000
     16      20.8196      0.00000


--------------------------------------------------------------------------------------------------------


 soft charge-density along one line, spin component           1
         0         1         2         3         4         5         6         7         8         9
 total charge-density along one line
 
 pseudopotential strength for first ion, spin component:           1
  8.413  -0.008  -0.000   0.000  -0.000  -0.000   0.000  -0.000
 -0.008   0.000  -0.000   0.000  -0.000   0.000  -0.000   0.000
 -0.000  -0.000   1.993   0.000   0.000  -0.030  -0.000  -0.000
  0.000   0.000   0.000   1.993   0.000  -0.000  -0.030  -0.000
 -0.000  -0.000   0.000   0.000   1.993  -0.000  -0.000  -0.030
 -0.000   0.000  -0.030  -0.000  -0.000  -0.011  -0.000  -0.000
  0.000  -0.000  -0.000  -0.030  -0.000  -0.000  -0.011  -0.000
 -0.000   0.000  -0.000  -0.000  -0.030  -0.000  -0.000  -0.011
 total augmentation occupancy for first ion, spin component:           1
  1.304  -0.586  -0.000  -0.000  -0.000  -0.000  -0.000   0.000
 -0.586   0.590  -0.000  -0.000  -0.000   0.000  -0.000   0.000
 -0.000  -0.000   0.797  -0.059   0.036  -0.179   0.015   0.003
 -0.000  -0.000  -0.059   0.899   0.005   0.015  -0.148   0.007
 -0.000  -0.000   0.036   0.005   0.730   0.004   0.007  -0.188
 -0.000   0.000  -0.179   0.015   0.004   0.045  -0.003  -0.002
 -0.000  -0.000   0.015  -0.148   0.007  -0.003   0.027  -0.002
  0.000   0.000   0.003   0.007  -0.188  -0.002  -0.002   0.055


------------------------ aborting loop because EDIFF is reached ----------------------------------------




--------------------------------------------------------------------------------------------------------


    CHARGE:  VPU time    0.03: CPU time    0.03
    FORLOC:  VPU time    0.00: CPU time    0.00
    FORNL :  VPU time    0.06: CPU time    0.06
    STRESS:  VPU time    0.43: CPU time    0.43
    FORCOR:  VPU time    0.01: CPU time    0.02
    FORHAR:  VPU time    0.00: CPU time    0.00
    MIXING:  VPU time    0.00: CPU time    0.00


--------------------------------------------------------------------------------------------------------



  FREE ENERGIE OF THE ION-ELECTRON SYSTEM (eV)
  ---------------------------------------------------
  free  energy   TOTEN  =       -14.836106 eV

  energy  without entropy=      -14.835994  energy(sigma->0) =      -14.836050
 

  FORCE on cell =-STRESS in cart. coord.  units (eV/reduce length):
  Direction    X        Y        Z        XY       YZ       ZX
  --------------------------------------------------------------------------------------
  Alpha Z     -0.89     -0.89     -0.89
  Ewald     -101.15   -101.15   -101.15      0.00      0.00      0.00
  Hartree      0.16      0.16      0.16     -0.00     -0.00     -0.00
  E(xc)      -35.33    -35.33    -35.33     -0.00     -0.00      0.00
  Local        2.94      2.94      2.94      0.00     -0.00     -0.00
  n-local     76.26     77.16     79.64      0.52      1.42      0.58
  augment     -3.93     -3.93     -3.93      0.00      0.00      0.00
  Kinetic     60.90     63.39     67.33      2.05     -8.65     -1.14
  -------------------------------------------------------------------------------------
  Total        3.36      3.36      3.36      0.00      0.00     -0.00
  in kB       89.51     89.51     89.51      0.00      0.00     -0.00
  external pressure =       89.51 kB  Pullay stress =        0.00 kB


 VOLUME and BASIS-vectors are now :
 -----------------------------------------------------------------------------
  energy-cutoff  :      500.00
  volume of cell :       60.06
      direct lattice vectors                 reciprocal lattice vectors
     3.916187179  0.000000000  0.000000000     0.255350410  0.000000000  0.000000000
     0.000000000  3.916187179  0.000000000     0.000000000  0.255350410  0.000000000
     0.000000000  0.000000000  3.916187179     0.000000000  0.000000000  0.255350410

  length of vectors
     3.916187179  3.916187179  3.916187179     0.255350410  0.255350410  0.255350410


 FORCES acting on ions
    electron-ion (+dipol)            ewald-force                    non-local-force                 convergence-correction
 -----------------------------------------------------------------------------------------------
   -.456E-14 -.149E-13 -.153E-13   0.115E-14 0.871E-15 -.672E-15   -.808E-26 -.323E-26 0.000E+00   -.528E-15 0.300E-17 0.161E-15
   -.386E-14 0.966E-15 0.298E-13   0.125E-14 -.103E-14 0.353E-15   0.485E-26 -.283E-26 0.000E+00   -.513E-15 -.501E-17 -.163E-15
   0.256E-14 -.360E-14 -.230E-14   -.111E-14 0.920E-15 0.347E-15   0.353E-26 -.285E-26 0.000E+00   0.513E-15 0.987E-17 -.161E-15
   0.265E-14 0.143E-14 -.110E-14   -.101E-14 -.976E-15 -.552E-16   -.646E-26 0.323E-26 0.162E-26   0.506E-15 -.325E-17 0.160E-15
 -----------------------------------------------------------------------------------------------
   -.321E-14 -.161E-13 0.111E-13   0.285E-15 -.210E-15 -.265E-16   -.616E-26 -.568E-26 0.162E-26   -.222E-16 0.461E-17 -.266E-17
 
 
 POSITION                                       TOTAL-FORCE (eV/Angst)
 -----------------------------------------------------------------------------------
      1.95809      1.95809      0.00000        -0.000000      0.000000     -0.000000
      1.95809      0.00000      1.95809        -0.000000     -0.000000      0.000000
      0.00000      1.95809      1.95809         0.000000     -0.000000     -0.000000
      0.00000      0.00000      0.00000         0.000000      0.000000      0.000000
 -----------------------------------------------------------------------------------
    total drift:                               -0.000000     -0.000000      0.000000


--------------------------------------------------------------------------------------------------------



 mean value of Nose-termostat <S>:     1.000 mean value of <T> :     0.000
 mean temperature <T/S>/<1/S>  :     0.000

     LOOP+:  VPU time   11.69: CPU time   11.82
  
  
 General timing and accounting informations for this job:
 ========================================================
  
                  Total CPU time used (sec):       12.215
                            User time (sec):        8.499
                          System time (sec):        3.716
                         Elapsed time (sec):       12.348
  
                   Maximum memory used (kb):      155684.
                   Average memory used (kb):           0.
  
                          Minor page faults:        36169
                          Major page faults:            0
                 Voluntary context switches:          856
