       N       E                     dE             d eps       ncg     rms          rms(c)
DAV:   1     0.499360879266E+04    0.49936E+04   -0.17188E+05 53832   0.181E+03
DAV:   2     0.911031161591E+02   -0.49025E+04   -0.48264E+04 53136   0.639E+02
DAV:   3    -0.292087028980E+03   -0.38319E+03   -0.36044E+03 77632   0.162E+02
DAV:   4    -0.323543546969E+03   -0.31457E+02   -0.30578E+02 72712   0.404E+01
DAV:   5    -0.324469783599E+03   -0.92624E+00   -0.90609E+00 69528   0.622E+00    0.358E+01
DAV:   6    -0.286115461408E+03    0.38354E+02   -0.11924E+02 57928   0.371E+01    0.911E+00
DAV:   7    -0.284203335464E+03    0.19121E+01   -0.15479E+01 70088   0.116E+01    0.353E+00
DAV:   8    -0.284283579515E+03   -0.80244E-01   -0.28367E+00 70472   0.677E+00    0.378E+00
DAV:   9    -0.284108899171E+03    0.17468E+00   -0.97842E-01 74552   0.449E+00    0.175E+00
DAV:  10    -0.284045934799E+03    0.62964E-01   -0.15923E-01 71384   0.146E+00    0.991E-01
DAV:  11    -0.284016530182E+03    0.29405E-01   -0.21103E-01 62904   0.157E+00    0.247E-01
DAV:  12    -0.284017298947E+03   -0.76876E-03   -0.98257E-03 71784   0.369E-01    0.261E-01
DAV:  13    -0.284015991418E+03    0.13075E-02   -0.39903E-03 67520   0.233E-01    0.103E-01
DAV:  14    -0.284015807232E+03    0.18419E-03   -0.68263E-04 71040   0.115E-01    0.519E-02
DAV:  15    -0.284015764753E+03    0.42479E-04   -0.12342E-04 72840   0.535E-02    0.343E-02
DAV:  16    -0.284015744882E+03    0.19871E-04   -0.40311E-05 73760   0.302E-02    0.251E-02
DAV:  17    -0.284015712611E+03    0.32271E-04   -0.27171E-05 69336   0.197E-02    0.130E-02
DAV:  18    -0.284015697389E+03    0.15222E-04   -0.90965E-06 71224   0.129E-02    0.519E-03
DAV:  19    -0.284015689649E+03    0.77403E-05   -0.21625E-06 72496   0.589E-03    0.215E-03
DAV:  20    -0.284015687364E+03    0.22849E-05   -0.45667E-07 73160   0.305E-03    0.526E-04
DAV:  21    -0.284015687040E+03    0.32335E-06   -0.64419E-08 53800   0.107E-03    0.475E-04
DAV:  22    -0.284015687082E+03   -0.41546E-07   -0.15427E-08 38552   0.757E-04    0.258E-04
DAV:  23    -0.284015687503E+03   -0.42130E-06   -0.97016E-09 35848   0.372E-04    0.117E-04
DAV:  24    -0.284015687581E+03   -0.77751E-07   -0.39870E-09 34448   0.287E-04    0.959E-05
DAV:  25    -0.284015687643E+03   -0.61977E-07   -0.15519E-09 33880   0.184E-04    0.574E-05
DAV:  26    -0.284015687658E+03   -0.15352E-07   -0.74604E-10 33488   0.924E-05    0.515E-05
DAV:  27    -0.284015687674E+03   -0.15527E-07   -0.36636E-10 33112   0.777E-05    0.419E-05
DAV:  28    -0.284015687682E+03   -0.81054E-08   -0.15930E-10 32880   0.409E-05
   1 F= -.28401569E+03 E0= -.28401466E+03  d E =-.204924E-02
