  32  32   0   0
  0.1645186E+02  0.8074613E-09  0.8074613E-09  0.8074613E-09  0.5000000E-15
  1.000000000000000E-004
  CAR 
 unknown system                          
     12.63305633     -3.87465430  301      8.00125996      1.00000000
     -3.875  0.0000E+00  0.0000E+00
     -3.820  0.0000E+00  0.0000E+00
     -3.765  0.0000E+00  0.0000E+00
     -3.710  0.0000E+00  0.0000E+00
     -3.655  0.0000E+00  0.0000E+00
     -3.600  0.0000E+00  0.0000E+00
     -3.545  0.0000E+00  0.0000E+00
     -3.489  0.0000E+00  0.0000E+00
     -3.434  0.0000E+00  0.0000E+00
     -3.379  0.0000E+00  0.0000E+00
     -3.324  0.0000E+00  0.0000E+00
     -3.269  0.0000E+00  0.0000E+00
     -3.214  0.0000E+00  0.0000E+00
     -3.159  0.6178E-07  0.3400E-08
     -3.104  0.1679E+00  0.9238E-02
     -3.049  0.9646E+00  0.6231E-01
     -2.994  0.1485E+01  0.1440E+00
     -2.939  0.9647E+00  0.1971E+00
     -2.884  0.1008E+01  0.2525E+00
     -2.829  0.9737E+00  0.3061E+00
     -2.774  0.4029E+01  0.5278E+00
     -2.719  0.4038E+01  0.7500E+00
     -2.664  0.7910E-09  0.7500E+00
     -2.609  0.1916E+01  0.8554E+00
     -2.554  0.3642E+01  0.1056E+01
     -2.499  0.2657E+01  0.1202E+01
     -2.444  0.3087E+01  0.1372E+01
     -2.389  0.3847E+01  0.1584E+01
     -2.334  0.1343E+01  0.1657E+01
     -2.279  0.4038E+01  0.1880E+01
     -2.224  0.8058E+01  0.2323E+01
     -2.169  0.1888E-01  0.2324E+01
     -2.114  0.7606E+00  0.2366E+01
     -2.059  0.3082E+01  0.2536E+01
     -2.004  0.5695E+01  0.2849E+01
     -1.949  0.5634E+01  0.3159E+01
     -1.894  0.4012E+01  0.3380E+01
     -1.839  0.4038E+01  0.3602E+01
     -1.784  0.8070E+01  0.4046E+01
     -1.729  0.3964E+01  0.4264E+01
     -1.674  0.8208E-01  0.4269E+01
     -1.619  0.2015E+01  0.4379E+01
     -1.564  0.2776E+01  0.4532E+01
     -1.509  0.4530E+01  0.4781E+01
     -1.454  0.1189E+02  0.5436E+01
     -1.398  0.5378E+01  0.5731E+01
     -1.343  0.2204E-05  0.5731E+01
     -1.288  0.1205E+02  0.6395E+01
     -1.233  0.7673E+01  0.6817E+01
     -1.178  0.4658E+00  0.6843E+01
     -1.123  0.6615E+00  0.6879E+01
     -1.068  0.1961E+01  0.6987E+01
     -1.013  0.7535E+01  0.7402E+01
     -0.958  0.8019E+01  0.7843E+01
     -0.903  0.8074E+01  0.8287E+01
     -0.848  0.5045E+01  0.8565E+01
     -0.793  0.3995E+01  0.8785E+01
     -0.738  0.1104E+02  0.9392E+01
     -0.683  0.1119E+01  0.9454E+01
     -0.628  0.1102E+01  0.9514E+01
     -0.573  0.3845E+01  0.9726E+01
     -0.518  0.1529E+02  0.1057E+02
     -0.463  0.8037E+01  0.1101E+02
     -0.408  0.4037E+01  0.1123E+02
     -0.353  0.4036E+01  0.1145E+02
     -0.298  0.1196E+02  0.1211E+02
     -0.243  0.7468E+01  0.1252E+02
     -0.188  0.7670E+00  0.1256E+02
     -0.133  0.3656E+00  0.1258E+02
     -0.078  0.1605E+01  0.1267E+02
     -0.023  0.8566E+01  0.1314E+02
      0.032  0.1404E+02  0.1392E+02
      0.087  0.8072E+01  0.1436E+02
      0.142  0.4037E+01  0.1458E+02
      0.197  0.1204E+02  0.1525E+02
      0.252  0.1528E+02  0.1609E+02
      0.307  0.9565E+00  0.1614E+02
      0.362  0.3140E+01  0.1631E+02
      0.417  0.5902E+01  0.1664E+02
      0.472  0.7198E+01  0.1703E+02
      0.527  0.3975E+01  0.1725E+02
      0.582  0.1209E+02  0.1792E+02
      0.637  0.1283E-04  0.1792E+02
      0.692  0.1209E+02  0.1858E+02
      0.748  0.1585E+02  0.1945E+02
      0.803  0.3306E+00  0.1947E+02
      0.858  0.7183E+00  0.1951E+02
      0.913  0.5100E+01  0.1979E+02
      0.968  0.1269E+02  0.2049E+02
      1.023  0.1485E+02  0.2131E+02
      1.078  0.4003E+01  0.2153E+02
      1.133  0.8069E+01  0.2197E+02
      1.188  0.1615E+02  0.2286E+02
      1.243  0.8047E+01  0.2330E+02
      1.298  0.3072E-01  0.2331E+02
      1.353  0.5350E+01  0.2360E+02
      1.408  0.5785E+01  0.2392E+02
      1.463  0.9186E+01  0.2442E+02
      1.518  0.1473E+02  0.2523E+02
      1.573  0.8743E+01  0.2572E+02
      1.628  0.4023E+01  0.2594E+02
      1.683  0.1613E+02  0.2682E+02
      1.738  0.8076E+01  0.2727E+02
      1.793  0.1344E-06  0.2727E+02
      1.848  0.4002E+01  0.2749E+02
      1.903  0.1574E+02  0.2835E+02
      1.958  0.8212E+01  0.2881E+02
      2.013  0.7070E+01  0.2920E+02
      2.068  0.7875E+01  0.2963E+02
      2.123  0.7262E+01  0.3003E+02
      2.178  0.7674E+01  0.3045E+02
      2.233  0.1991E+02  0.3155E+02
      2.288  0.2524E-04  0.3155E+02
      2.343  0.4036E+01  0.3177E+02
      2.398  0.2416E+02  0.3310E+02
      2.453  0.1979E+02  0.3419E+02
      2.508  0.8317E+01  0.3464E+02
      2.563  0.2376E+00  0.3466E+02
      2.618  0.3130E+01  0.3483E+02
      2.673  0.8707E+01  0.3531E+02
      2.728  0.1239E+02  0.3599E+02
      2.783  0.2236E-01  0.3599E+02
      2.838  0.4033E+01  0.3621E+02
      2.894  0.8063E+01  0.3666E+02
      2.949  0.1817E+02  0.3766E+02
      3.004  0.1209E+02  0.3832E+02
      3.059  0.4998E+01  0.3860E+02
      3.114  0.2702E+02  0.4008E+02
      3.169  0.8229E+01  0.4054E+02
      3.224  0.1168E+01  0.4060E+02
      3.279  0.5827E+01  0.4092E+02
      3.334  0.1447E+02  0.4172E+02
      3.389  0.8849E+01  0.4221E+02
      3.444  0.1203E+02  0.4287E+02
      3.499  0.1264E+02  0.4356E+02
      3.554  0.7394E+01  0.4397E+02
      3.609  0.1223E+02  0.4464E+02
      3.664  0.1675E+02  0.4556E+02
      3.719  0.6463E-02  0.4556E+02
      3.774  0.4561E+01  0.4582E+02
      3.829  0.1844E+02  0.4683E+02
      3.884  0.5749E+01  0.4715E+02
      3.939  0.1326E+02  0.4788E+02
      3.994  0.6024E+01  0.4821E+02
      4.049  0.1122E+02  0.4883E+02
      4.104  0.1575E+02  0.4969E+02
      4.159  0.1383E+02  0.5045E+02
      4.214  0.9317E+00  0.5050E+02
      4.269  0.1624E+02  0.5140E+02
      4.324  0.1355E+02  0.5214E+02
      4.379  0.6636E+01  0.5251E+02
      4.434  0.1629E+00  0.5252E+02
      4.489  0.1232E+02  0.5320E+02
      4.544  0.2785E+02  0.5473E+02
      4.599  0.1617E+02  0.5562E+02
      4.654  0.3651E-01  0.5562E+02
      4.709  0.3339E+01  0.5580E+02
      4.764  0.1683E+02  0.5673E+02
      4.819  0.1841E+02  0.5774E+02
      4.874  0.1210E+02  0.5841E+02
      4.929  0.1268E+02  0.5911E+02
      4.984  0.7491E+01  0.5952E+02
      5.040  0.1240E+02  0.6020E+02
      5.095  0.6336E+01  0.6055E+02
      5.150  0.6115E+01  0.6089E+02
      5.205  0.1104E+02  0.6149E+02
      5.260  0.2905E+02  0.6309E+02
      5.315  0.1214E+02  0.6376E+02
      5.370  0.1009E+02  0.6432E+02
      5.425  0.2010E+02  0.6542E+02
      5.480  0.1171E+00  0.6543E+02
      5.535  0.8028E+01  0.6587E+02
      5.590  0.1411E+02  0.6665E+02
      5.645  0.1012E+02  0.6720E+02
      5.700  0.8455E+01  0.6767E+02
      5.755  0.1742E+02  0.6863E+02
      5.810  0.1162E+02  0.6927E+02
      5.865  0.1495E+02  0.7009E+02
      5.920  0.9550E+01  0.7061E+02
      5.975  0.4617E+01  0.7087E+02
      6.030  0.1997E+02  0.7197E+02
      6.085  0.4476E+01  0.7221E+02
      6.140  0.1449E+02  0.7301E+02
      6.195  0.9450E+01  0.7353E+02
      6.250  0.1790E+02  0.7452E+02
      6.305  0.2052E+02  0.7565E+02
      6.360  0.1338E+02  0.7638E+02
      6.415  0.1386E+00  0.7639E+02
      6.470  0.4982E+00  0.7642E+02
      6.525  0.1153E+02  0.7705E+02
      6.580  0.1068E+02  0.7764E+02
      6.635  0.1211E+02  0.7831E+02
      6.690  0.2280E+02  0.7956E+02
      6.745  0.9449E+01  0.8008E+02
      6.800  0.1614E+02  0.8097E+02
      6.855  0.7789E-01  0.8097E+02
      6.910  0.2510E+02  0.8235E+02
      6.965  0.7982E+01  0.8279E+02
      7.020  0.1446E+02  0.8359E+02
      7.075  0.1098E+02  0.8419E+02
      7.130  0.8210E+01  0.8464E+02
      7.186  0.1282E+02  0.8535E+02
      7.241  0.1569E+02  0.8621E+02
      7.296  0.5952E+01  0.8654E+02
      7.351  0.1224E+02  0.8721E+02
      7.406  0.2302E+02  0.8848E+02
      7.461  0.1323E+02  0.8921E+02
      7.516  0.7254E+01  0.8961E+02
      7.571  0.3596E+01  0.8981E+02
      7.626  0.1295E+00  0.8981E+02
      7.681  0.1874E+02  0.9084E+02
      7.736  0.1555E+02  0.9170E+02
      7.791  0.1838E+02  0.9271E+02
      7.846  0.1330E+02  0.9344E+02
      7.901  0.1467E+02  0.9425E+02
      7.956  0.9580E+01  0.9478E+02
      8.011  0.2388E+02  0.9609E+02
      8.066  0.1591E+02  0.9697E+02
      8.121  0.2318E+02  0.9824E+02
      8.176  0.3880E+01  0.9846E+02
      8.231  0.1026E+02  0.9902E+02
      8.286  0.7197E+01  0.9942E+02
      8.341  0.1998E+02  0.1005E+03
      8.396  0.8291E+01  0.1010E+03
      8.451  0.3053E+01  0.1011E+03
      8.506  0.9600E+01  0.1017E+03
      8.561  0.2299E+02  0.1029E+03
      8.616  0.1224E+02  0.1036E+03
      8.671  0.2010E+02  0.1047E+03
      8.726  0.1725E+01  0.1048E+03
      8.781  0.6884E+01  0.1052E+03
      8.836  0.5568E+01  0.1055E+03
      8.891  0.2015E+02  0.1066E+03
      8.946  0.2041E+02  0.1077E+03
      9.001  0.2194E+02  0.1089E+03
      9.056  0.1729E+02  0.1099E+03
      9.111  0.1171E+02  0.1105E+03
      9.166  0.1898E+02  0.1116E+03
      9.221  0.1414E+02  0.1124E+03
      9.276  0.1036E+02  0.1129E+03
      9.332  0.1546E+02  0.1138E+03
      9.387  0.7522E+01  0.1142E+03
      9.442  0.5490E+01  0.1145E+03
      9.497  0.2110E+02  0.1156E+03
      9.552  0.2067E+02  0.1168E+03
      9.607  0.3831E+01  0.1170E+03
      9.662  0.1504E+02  0.1178E+03
      9.717  0.6372E+00  0.1179E+03
      9.772  0.3859E+02  0.1200E+03
      9.827  0.3180E+01  0.1202E+03
      9.882  0.1367E+02  0.1209E+03
      9.937  0.1988E+02  0.1220E+03
      9.992  0.1161E+02  0.1226E+03
     10.047  0.1932E+02  0.1237E+03
     10.102  0.8065E+01  0.1241E+03
     10.157  0.2337E+02  0.1254E+03
     10.212  0.8160E+01  0.1259E+03
     10.267  0.1181E+02  0.1265E+03
     10.322  0.3655E+01  0.1267E+03
     10.377  0.1252E+02  0.1274E+03
     10.432  0.1492E+02  0.1282E+03
     10.487  0.1993E+02  0.1293E+03
     10.542  0.2492E+02  0.1307E+03
     10.597  0.4977E+01  0.1310E+03
     10.652  0.1520E+02  0.1318E+03
     10.707  0.8835E+01  0.1323E+03
     10.762  0.1948E+02  0.1334E+03
     10.817  0.7320E+01  0.1338E+03
     10.872  0.1723E+02  0.1347E+03
     10.927  0.2036E+02  0.1359E+03
     10.982  0.1256E+02  0.1365E+03
     11.037  0.2502E+02  0.1379E+03
     11.092  0.5879E+01  0.1382E+03
     11.147  0.1323E+02  0.1390E+03
     11.202  0.6737E+01  0.1393E+03
     11.257  0.2142E+02  0.1405E+03
     11.312  0.5519E+01  0.1408E+03
     11.367  0.8705E+01  0.1413E+03
     11.422  0.2388E+02  0.1426E+03
     11.478  0.2075E+01  0.1427E+03
     11.533  0.4446E+01  0.1430E+03
     11.588  0.1175E+02  0.1436E+03
     11.643  0.4704E+00  0.1436E+03
     11.698  0.8975E+00  0.1437E+03
     11.753  0.4487E+00  0.1437E+03
     11.808  0.2124E+01  0.1438E+03
     11.863  0.1918E+01  0.1439E+03
     11.918  0.1006E+01  0.1440E+03
     11.973  0.0000E+00  0.1440E+03
     12.028  0.0000E+00  0.1440E+03
     12.083  0.0000E+00  0.1440E+03
     12.138  0.0000E+00  0.1440E+03
     12.193  0.0000E+00  0.1440E+03
     12.248  0.0000E+00  0.1440E+03
     12.303  0.0000E+00  0.1440E+03
     12.358  0.0000E+00  0.1440E+03
     12.413  0.0000E+00  0.1440E+03
     12.468  0.0000E+00  0.1440E+03
     12.523  0.0000E+00  0.1440E+03
     12.578  0.0000E+00  0.1440E+03
     12.633  0.0000E+00  0.1440E+03
