       N       E                     dE             d eps       ncg     rms          rms(c)
DAV:   1     0.119768278345E+03    0.11977E+03   -0.32689E+04  5760   0.104E+03
DAV:   2    -0.107313621684E+03   -0.22708E+03   -0.21059E+03  6768   0.139E+02
DAV:   3    -0.120256186335E+03   -0.12943E+02   -0.12336E+02  7208   0.264E+01
DAV:   4    -0.120490565019E+03   -0.23438E+00   -0.23263E+00  6704   0.380E+00
DAV:   5    -0.120493387031E+03   -0.28220E-02   -0.28205E-02  6760   0.486E-01    0.531E+00
DAV:   6    -0.120069339900E+03    0.42405E+00   -0.51091E-02  6560   0.699E-01    0.330E+00
DAV:   7    -0.119760198541E+03    0.30914E+00   -0.15330E-01  6352   0.113E+00    0.136E-01
DAV:   8    -0.119760310752E+03   -0.11221E-03   -0.12660E-03  6800   0.131E-01    0.466E-02
DAV:   9    -0.119760339494E+03   -0.28742E-04   -0.53263E-05  6712   0.205E-02    0.415E-03
DAV:  10    -0.119760341155E+03   -0.16611E-05   -0.35857E-06  6752   0.563E-03    0.202E-03
DAV:  11    -0.119760338242E+03    0.29124E-05   -0.25366E-07  6760   0.145E-03    0.775E-04
DAV:  12    -0.119760337178E+03    0.10647E-05   -0.24316E-08  4784   0.468E-04    0.145E-04
DAV:  13    -0.119760336971E+03    0.20637E-06   -0.29559E-09  3728   0.187E-04    0.337E-05
DAV:  14    -0.119760336964E+03    0.73674E-08   -0.48769E-10  3648   0.725E-05
   1 F= -.11976034E+03 E0= -.11976006E+03  d E =-.545441E-03
