 vasp.4.6.28 25Jul05 complex 
 executed on             LinuxIFC date 2016.10.19  17:27:07
 running on    8 nodes
 distr:  one band on    1 nodes,    8 groups


--------------------------------------------------------------------------------------------------------


 INCAR:
 POTCAR:   PAW_PBE Al 04Jan2001                   
 POTCAR:   PAW_PBE Al 04Jan2001                   
   VRHFIN =Al: s2p1                                                             
   LEXCH  = PE                                                                  
   EATOM  =    53.5387 eV,    3.9350 Ry                                         
                                                                                
   TITEL  = PAW_PBE Al 04Jan2001                                                
   LULTRA =        F    use ultrasoft PP ?                                      
   IUNSCR =        1    unscreen: 0-lin 1-nonlin 2-no                           
   RPACOR =    1.500    partial core radius                                     
   POMASS =   26.982; ZVAL   =    3.000    mass and valenz                      
   RCORE  =    1.900    outmost cutoff radius                                   
   RWIGS  =    2.650; RWIGS  =    1.402    wigner-seitz radius (au A)           
   ENMAX  =  240.300; ENMIN  =  180.225 eV                                      
   ICORE  =        2    local potential                                         
   LCOR   =        T    correct aug charges                                     
   LPAW   =        T    paw PP                                                  
   EAUG   =  291.052                                                            
   DEXC   =    -.041                                                            
   RMAX   =    2.974    core radius for proj-oper                               
   RAUG   =    1.300    factor for augmentation sphere                          
   RDEP   =    1.966    radius for radial grids                                 
   QCUT   =   -4.203; QGAM   =    8.405    optimization parameters              
                                                                                
   Description                                                                  
     l     E      TYP  RCUT    TYP  RCUT                                        
     0   .000     23  1.900                                                     
     0   .000     23  1.900                                                     
     1   .000     23  1.900                                                     
     1  1.000     23  1.900                                                     
     2   .000      7  1.900                                                     
  local pseudopotential read in
  partial core-charges read in
  atomic valenz-charges read in
  non local Contribution for L=           0  read in
    real space projection operators read in
  non local Contribution for L=           0  read in
    real space projection operators read in
  non local Contribution for L=           1  read in
    real space projection operators read in
  non local Contribution for L=           1  read in
    real space projection operators read in
    PAW grid and wavefunctions read in
 
   number of l-projection  operators is LMAX  =           4
   number of lm-projection operators is LMMAX =           8
 

 ----------------------------------------------------------------------------- 
|                                                                             |
|  ADVICE TO THIS USER RUNNING 'VASP/VAMP'   (HEAR YOUR MASTER'S VOICE ...):  |
|                                                                             |
|      You have a (more or less) 'large supercell' and for larger cells       |
|      it might be more efficient to use real space projection operators      |
|      So try LREAL= Auto  in the INCAR   file.                               |
|      Mind: If you want to do an extremely accurate calculations keep the    |
|      reciprocal projection scheme          (i.e. LREAL=.FALSE.)             |
|                                                                             |
 ----------------------------------------------------------------------------- 

 PAW_PBE Al 04Jan2001                   :
 energy of atom  1       EATOM=  -53.5387
 kinetic energy error for atom=    0.0003 (will be added to EATOM!!)
 
 EXHCAR: internal setup
 exchange correlation table for  LEXCH =        8
   RHO(1)=    0.500       N(1)  =     2000
   RHO(2)=  100.500       N(2)  =     4000
 
 POSCAR: Al                                      
  positions in direct lattice
  No initial velocities read in
 


--------------------------------------------------------------------------------------------------------


 ion  position               nearest neighbor table
   1  0.251  0.250  0.000-  18 2.85  22 2.85  26 2.85  28 2.85   9 2.85  11 2.85  13 2.85  15 2.85
                            25 2.86  21 2.86  27 2.86  17 2.86
   2  0.750  0.250  0.000-  10 2.85  12 2.85  14 2.85  16 2.85  17 2.85  18 2.85  21 2.85  22 2.85
                            25 2.85  26 2.85  27 2.85  28 2.85
   3  0.250  0.750  0.000-   9 2.85  11 2.85  13 2.85  15 2.85  19 2.85  20 2.85  23 2.85  24 2.85
                            25 2.85  26 2.85  27 2.85  28 2.85
   4  0.750  0.750  0.000-  10 2.85  12 2.85  14 2.85  16 2.85  19 2.85  20 2.85  23 2.85  24 2.85
                            25 2.85  26 2.85  27 2.85  28 2.85
   5  0.250  0.250  0.500-   9 2.85  11 2.85  13 2.85  15 2.85  17 2.85  18 2.85  21 2.85  22 2.85
                            29 2.85  30 2.85  31 2.85  32 2.85
   6  0.750  0.250  0.500-  10 2.85  12 2.85  14 2.85  16 2.85  17 2.85  18 2.85  21 2.85  22 2.85
                            29 2.85  30 2.85  31 2.85  32 2.85
   7  0.250  0.750  0.500-   9 2.85  11 2.85  13 2.85  15 2.85  19 2.85  20 2.85  23 2.85  24 2.85
                            29 2.85  30 2.85  31 2.85  32 2.85
   8  0.750  0.750  0.500-  10 2.85  12 2.85  14 2.85  16 2.85  19 2.85  20 2.85  23 2.85  24 2.85
                            29 2.85  30 2.85  31 2.85  32 2.85
   9  0.250  0.000  0.250-   3 2.85   5 2.85   7 2.85  17 2.85  18 2.85  19 2.85  20 2.85  25 2.85
                            26 2.85  29 2.85  30 2.85   1 2.85
  10  0.750  0.000  0.250-   2 2.85   4 2.85   6 2.85   8 2.85  17 2.85  18 2.85  19 2.85  20 2.85
                            25 2.85  26 2.85  29 2.85  30 2.85
  11  0.250  0.500  0.250-   3 2.85   5 2.85   7 2.85  17 2.85  18 2.85  19 2.85  20 2.85  27 2.85
                            28 2.85  31 2.85  32 2.85   1 2.85
  12  0.750  0.500  0.250-   2 2.85   4 2.85   6 2.85   8 2.85  17 2.85  18 2.85  19 2.85  20 2.85
                            27 2.85  28 2.85  31 2.85  32 2.85
  13  0.250  0.000  0.750-   3 2.85   5 2.85   7 2.85  21 2.85  22 2.85  23 2.85  24 2.85  25 2.85
                            26 2.85  29 2.85  30 2.85   1 2.85
  14  0.750  0.000  0.750-   2 2.85   4 2.85   6 2.85   8 2.85  21 2.85  22 2.85  23 2.85  24 2.85
                            25 2.85  26 2.85  29 2.85  30 2.85
  15  0.250  0.500  0.750-   3 2.85   5 2.85   7 2.85  21 2.85  22 2.85  23 2.85  24 2.85  27 2.85
                            28 2.85  31 2.85  32 2.85   1 2.85
  16  0.750  0.500  0.750-   2 2.85   4 2.85   6 2.85   8 2.85  21 2.85  22 2.85  23 2.85  24 2.85
                            27 2.85  28 2.85  31 2.85  32 2.85
  17  0.000  0.250  0.250-   2 2.85   5 2.85   6 2.85   9 2.85  10 2.85  11 2.85  12 2.85  25 2.85
                            27 2.85  29 2.85  31 2.85   1 2.86
  18  0.500  0.250  0.250-   1 2.85   2 2.85   5 2.85   6 2.85   9 2.85  10 2.85  11 2.85  12 2.85
                            26 2.85  28 2.85  30 2.85  32 2.85
  19  0.000  0.750  0.250-   3 2.85   4 2.85   7 2.85   8 2.85   9 2.85  10 2.85  11 2.85  12 2.85
                            25 2.85  27 2.85  29 2.85  31 2.85
  20  0.500  0.750  0.250-   3 2.85   4 2.85   7 2.85   8 2.85   9 2.85  10 2.85  11 2.85  12 2.85
                            26 2.85  28 2.85  30 2.85  32 2.85
  21  0.000  0.250  0.750-   2 2.85   5 2.85   6 2.85  13 2.85  14 2.85  15 2.85  16 2.85  25 2.85
                            27 2.85  29 2.85  31 2.85   1 2.86
  22  0.500  0.250  0.750-   1 2.85   2 2.85   5 2.85   6 2.85  13 2.85  14 2.85  15 2.85  16 2.85
                            26 2.85  28 2.85  30 2.85  32 2.85
  23  0.000  0.750  0.750-   3 2.85   4 2.85   7 2.85   8 2.85  13 2.85  14 2.85  15 2.85  16 2.85
                            25 2.85  27 2.85  29 2.85  31 2.85
  24  0.500  0.750  0.750-   3 2.85   4 2.85   7 2.85   8 2.85  13 2.85  14 2.85  15 2.85  16 2.85
                            26 2.85  28 2.85  30 2.85  32 2.85
  25  0.000  0.000  0.000-   2 2.85   3 2.85   4 2.85   9 2.85  10 2.85  13 2.85  14 2.85  17 2.85
                            19 2.85  21 2.85  23 2.85   1 2.86
  26  0.500  0.000  0.000-   1 2.85   2 2.85   3 2.85   4 2.85   9 2.85  10 2.85  13 2.85  14 2.85
                            18 2.85  20 2.85  22 2.85  24 2.85
  27  0.000  0.500  0.000-   2 2.85   3 2.85   4 2.85  11 2.85  12 2.85  15 2.85  16 2.85  17 2.85
                            19 2.85  21 2.85  23 2.85   1 2.86
  28  0.500  0.500  0.000-   1 2.85   2 2.85   3 2.85   4 2.85  11 2.85  12 2.85  15 2.85  16 2.85
                            18 2.85  20 2.85  22 2.85  24 2.85
  29  0.000  0.000  0.500-   5 2.85   6 2.85   7 2.85   8 2.85   9 2.85  10 2.85  13 2.85  14 2.85
                            17 2.85  19 2.85  21 2.85  23 2.85
  30  0.500  0.000  0.500-   5 2.85   6 2.85   7 2.85   8 2.85   9 2.85  10 2.85  13 2.85  14 2.85
                            18 2.85  20 2.85  22 2.85  24 2.85
  31  0.000  0.500  0.500-   5 2.85   6 2.85   7 2.85   8 2.85  11 2.85  12 2.85  15 2.85  16 2.85
                            17 2.85  19 2.85  21 2.85  23 2.85
  32  0.500  0.500  0.500-   5 2.85   6 2.85   7 2.85   8 2.85  11 2.85  12 2.85  15 2.85  16 2.85
                            18 2.85  20 2.85  22 2.85  24 2.85
 
  LATTYP: Found a simple cubic cell.
 ALAT       =     8.0746127393
  
  Lattice vectors:
  
 A1 = (   8.0746127393,   0.0000000000,   0.0000000000)
 A2 = (   0.0000000000,   8.0746127393,   0.0000000000)
 A3 = (   0.0000000000,   0.0000000000,   8.0746127393)
 Subroutine PRICEL returns:
 Original cell was already a primitive cell.
 

Analysis of symmetry for initial positions (statically):

 Routine SETGRP: Setting up the symmetry group for a 
 simple cubic supercell.


 Subroutine GETGRP returns: Found  8 space group operations
 (whereof  2 operations were pure point group operations)
 out of a pool of 48 trial point group operations.


The static configuration has the point symmetry C_1h.
 The point group associated with its full space group is C_4v.

Analysis of symmetry for dynamics (positions and initial velocities):

 Subroutine DYNSYM returns: Found  8 space group operations
 (whereof  2 operations were pure point group operations)
 out of a pool of  8 trial space group operations
 (whereof  2 operations were pure point group operations)
 and found also     1 'primitive' translations


The dynamic configuration has the point symmetry C_1h.
 The point group associated with its full space group is C_4v.
 
 
 KPOINTS: Automatic mesh                          

Automatic generation of k-mesh.
 generate k-points for:   6   6   6
 
 Subroutine IBZKPT returns following result:
 ===========================================
 
 Found     40 irreducible k-points:
 
 Following reciprocal coordinates:
            Coordinates               Weight
  0.000000  0.000000  0.000000      1.000000
  0.166667  0.000000  0.000000      2.000000
  0.333333  0.000000  0.000000      2.000000
  0.500000  0.000000  0.000000      1.000000
  0.000000  0.166667  0.000000      4.000000
  0.166667  0.166667  0.000000      8.000000
  0.333333  0.166667  0.000000      8.000000
  0.500000  0.166667  0.000000      4.000000
  0.000000  0.333333  0.000000      4.000000
  0.166667  0.333333  0.000000      8.000000
  0.333333  0.333333  0.000000      8.000000
  0.500000  0.333333  0.000000      4.000000
  0.000000  0.500000  0.000000      2.000000
  0.166667  0.500000  0.000000      4.000000
  0.333333  0.500000  0.000000      4.000000
  0.500000  0.500000  0.000000      2.000000
  0.000000  0.166667  0.166667      4.000000
  0.166667  0.166667  0.166667      8.000000
  0.333333  0.166667  0.166667      8.000000
  0.500000  0.166667  0.166667      4.000000
  0.000000  0.333333  0.166667      8.000000
  0.166667  0.333333  0.166667     16.000000
  0.333333  0.333333  0.166667     16.000000
  0.500000  0.333333  0.166667      8.000000
  0.000000  0.500000  0.166667      4.000000
  0.166667  0.500000  0.166667      8.000000
  0.333333  0.500000  0.166667      8.000000
  0.500000  0.500000  0.166667      4.000000
  0.000000  0.333333  0.333333      4.000000
  0.166667  0.333333  0.333333      8.000000
  0.333333  0.333333  0.333333      8.000000
  0.500000  0.333333  0.333333      4.000000
  0.000000  0.500000  0.333333      4.000000
  0.166667  0.500000  0.333333      8.000000
  0.333333  0.500000  0.333333      8.000000
  0.500000  0.500000  0.333333      4.000000
  0.000000  0.500000  0.500000      1.000000
  0.166667  0.500000  0.500000      2.000000
  0.333333  0.500000  0.500000      2.000000
  0.500000  0.500000  0.500000      1.000000
 
 Following cartesian coordinates:
            Coordinates               Weight
  0.000000  0.000000  0.000000      1.000000
  0.020641  0.000000  0.000000      2.000000
  0.041282  0.000000  0.000000      2.000000
  0.061922  0.000000  0.000000      1.000000
  0.000000  0.020641  0.000000      4.000000
  0.020641  0.020641  0.000000      8.000000
  0.041282  0.020641  0.000000      8.000000
  0.061922  0.020641  0.000000      4.000000
  0.000000  0.041282  0.000000      4.000000
  0.020641  0.041282  0.000000      8.000000
  0.041282  0.041282  0.000000      8.000000
  0.061922  0.041282  0.000000      4.000000
  0.000000  0.061922  0.000000      2.000000
  0.020641  0.061922  0.000000      4.000000
  0.041282  0.061922  0.000000      4.000000
  0.061922  0.061922  0.000000      2.000000
  0.000000  0.020641  0.020641      4.000000
  0.020641  0.020641  0.020641      8.000000
  0.041282  0.020641  0.020641      8.000000
  0.061922  0.020641  0.020641      4.000000
  0.000000  0.041282  0.020641      8.000000
  0.020641  0.041282  0.020641     16.000000
  0.041282  0.041282  0.020641     16.000000
  0.061922  0.041282  0.020641      8.000000
  0.000000  0.061922  0.020641      4.000000
  0.020641  0.061922  0.020641      8.000000
  0.041282  0.061922  0.020641      8.000000
  0.061922  0.061922  0.020641      4.000000
  0.000000  0.041282  0.041282      4.000000
  0.020641  0.041282  0.041282      8.000000
  0.041282  0.041282  0.041282      8.000000
  0.061922  0.041282  0.041282      4.000000
  0.000000  0.061922  0.041282      4.000000
  0.020641  0.061922  0.041282      8.000000
  0.041282  0.061922  0.041282      8.000000
  0.061922  0.061922  0.041282      4.000000
  0.000000  0.061922  0.061922      1.000000
  0.020641  0.061922  0.061922      2.000000
  0.041282  0.061922  0.061922      2.000000
  0.061922  0.061922  0.061922      1.000000
 


--------------------------------------------------------------------------------------------------------




 Dimension of arrays:
   k-Points           NKPTS =     40   number of bands    NBANDS=     72
   number of dos      NEDOS =    301   number of ions     NIONS =     32
   non local maximal  LDIM  =      4   non local SUM 2l+1 LMDIM =      8
   total plane-waves  NPLWV = 216000
   max r-space proj   IRMAX =      1   max aug-charges    IRDMAX=  16166
   dimension x,y,z NGX =    60 NGY =   60 NGZ =   60
   dimension x,y,z NGXF=   120 NGYF=  120 NGZF=  120
   support grid    NGXF=   120 NGYF=  120 NGZF=  120
   ions per type =              32
 NGX,Y,Z   is equivalent  to a cutoff of  12.35, 12.35, 12.35 a.u.
 NGXF,Y,Z  is equivalent  to a cutoff of  24.71, 24.71, 24.71 a.u.


 I would recommend the setting:
   dimension x,y,z NGX =    59 NGY =   59 NGZ =   59
 SYSTEM =  unknown system                          
 POSCAR =  Al                                      

 Startparameter for this run:
   NWRITE =      2    write-flag & timer
   PREC   = accura    medium, high low
   ISTART =      0    job   : 0-new  1-cont  2-samecut
   ICHARG =      2    charge: 1-file 2-atom 10-const
   ISPIN  =      1    spin polarized calculation?
   LNONCOLLINEAR =      F non collinear calculations
   LSORBIT =      F    spin-orbit coupling
   INIWAV =      1    electr: 0-lowe 1-rand  2-diag
   LASPH  =      F    aspherical Exc in radial PAW
   METAGGA=      F    non-selfconsistent MetaGGA calc.

 Electronic Relaxation 1
   ENCUT  =  500.0 eV  36.75 Ry    6.06 a.u.  14.72 14.72 14.72*2*pi/ulx,y,z
   ENINI  =  500.0     initial cutoff
   ENAUG  =  291.1 eV  augmentation charge cutoff
   NELM   =     60;   NELMIN=  2; NELMDL=  0     # of ELM steps 
   EDIFF  = 0.1E-07   stopping-criterion for ELM
   LREAL  =      F    real-space projection
   LCOMPAT=      F    compatible to vasp.4.4
   LREAL_COMPAT= F    compatible to vasp.4.5.1-3
   GGA_COMPAT  = T    GGA compatible to vasp.4.4-vasp.4.6
   LMAXPAW     = -100 max onsite density
   LMAXMIX     =    2 max onsite mixed and CHGCAR
   VOSKOWN=      0    Vosko Wilk Nusair interpolation
   ROPT   =    0.00000
 Ionic relaxation
   EDIFFG = 0.1E-06   stopping-criterion for IOM
   NSW    =      0    number of steps for IOM
   NBLOCK =      1;   KBLOCK =      1    inner block; outer block 
   IBRION =     -1    ionic relax: 0-MD 1-quasi-New 2-CG
   NFREE  =      0    steps in history (QN), initial steepest desc. (CG)
   ISIF   =      2    stress and relaxation
   IWAVPR =     10    prediction:  0-non 1-charg 2-wave 3-comb
   ISYM   =      2    0-nonsym 1-usesym 2-fastsym
   LCORR  =      T    Harris-Foulkes like correction to forces

   POTIM  =   0.50    time-step for ionic-motion
   TEIN   =    0.0    initial temperature
   TEBEG  =    0.0;   TEEND  =   0.0 temperature during run
   SMASS  =  -3.00    Nose mass-parameter (am)
   estimated Nose-frequenzy (Omega)   =  0.10E-29 period in steps =****** mass=  -0.149E-26a.u.
   NPACO  =    256;   APACO  = 16.0  distance and # of slots for P.C.
   PSTRESS=    0.0 pullay stress

  Mass of Ions in am
   POMASS =  26.98
  Ionic Valenz
   ZVAL   =   3.00
  Atomic Wigner-Seitz radii
   RWIGS  =  -1.00
   NELECT =      96.0000    total number of electrons
   NUPDOWN=      -1.0000    fix difference up-down

 DOS related values:
   EMIN   =  10.00;   EMAX   =-10.00  energy-range for DOS
   ISMEAR =     0;   SIGMA  =   0.01  broadening in eV -4-tet -1-fermi 0-gaus

 Electronic relaxation 2 (details)
   IALGO  =     38    algorithm
   LDIAG  =      T    sub-space diagonalisation
   IMIX   =      4    mixing-type and parameters
     AMIX     =   0.40;   BMIX     =  1.00
     AMIX_MAG =   1.60;   BMIX_MAG =  1.00
     AMIN     =   0.10
     WC   =   100.;   INIMIX=   1;  MIXPRE=   1

 Intra band minimization:
   WEIMIN = 0.0000     energy-eigenvalue tresh-hold
   EBREAK =  0.38E-10  absolut break condition
   DEPER  =   0.30     relativ break condition  

   TIME   =   0.10     timestep for ELM

  volume/ion in A,a.u.               =      16.45       111.02
  Fermi-wavevector in a.u.,eV,Ry     =   0.928347 11.725877  0.861828

 Second variation
   LSECVAR=     F    do a second variation
 
 Write flags
   LWAVE  =      F    write WAVECAR
   LCHARG =      F    write CHGCAR
   LVTOT  =      F    write LOCPOT, local potential
   LELF   =      F    write electronic localiz. function (ELF)
   LORBIT =      0    0 simple, 1 ext, 2 COOP (PROOUT)


 Dipole corrections
   IDIPOL =      0    1-x, 2-y, 3-z
   LDIPOL =      F    correct potential



--------------------------------------------------------------------------------------------------------


 Static calculation
 charge density will be updated during run
 non-spin polarized calculation
 Variant of blocked Davidson
 Davidson routine will perform the subspace rotation
 performe sub-space diagonalisation
    after iterative eigenvector-optimisation
 modified Broyden-mixing scheme, WC =      100.0
 initial mixing is a Kerker type mixing with AMIX =  0.4000 and BMIX =      1.0000
 Hartree-type preconditioning will be used
 using additional bands           24
 reciprocal scheme for non local part
 use partial core corrections
 calculate Harris-corrections to forces 
   (improved forces if not selfconsistent)
 use gradient corrections 
 use of overlap-Matrix (Vanderbilt PP)
 Gauss-broadening in eV      SIGMA  =   0.01


--------------------------------------------------------------------------------------------------------


  energy-cutoff  :      500.00
  volume of cell :      526.46
      direct lattice vectors                 reciprocal lattice vectors
     8.074612739  0.000000000  0.000000000     0.123844949  0.000000000  0.000000000
     0.000000000  8.074612739  0.000000000     0.000000000  0.123844949  0.000000000
     0.000000000  0.000000000  8.074612739     0.000000000  0.000000000  0.123844949

  length of vectors
     8.074612739  8.074612739  8.074612739     0.123844949  0.123844949  0.123844949


 
 k-points in units of 2pi/SCALE and weight: Automatic mesh                          
   0.00000000  0.00000000  0.00000000       0.005
   0.02064082  0.00000000  0.00000000       0.009
   0.04128165  0.00000000  0.00000000       0.009
   0.06192247  0.00000000  0.00000000       0.005
   0.00000000  0.02064082  0.00000000       0.019
   0.02064082  0.02064082  0.00000000       0.037
   0.04128165  0.02064082  0.00000000       0.037
   0.06192247  0.02064082  0.00000000       0.019
   0.00000000  0.04128165  0.00000000       0.019
   0.02064082  0.04128165  0.00000000       0.037
   0.04128165  0.04128165  0.00000000       0.037
   0.06192247  0.04128165  0.00000000       0.019
   0.00000000  0.06192247  0.00000000       0.009
   0.02064082  0.06192247  0.00000000       0.019
   0.04128165  0.06192247  0.00000000       0.019
   0.06192247  0.06192247  0.00000000       0.009
   0.00000000  0.02064082  0.02064082       0.019
   0.02064082  0.02064082  0.02064082       0.037
   0.04128165  0.02064082  0.02064082       0.037
   0.06192247  0.02064082  0.02064082       0.019
   0.00000000  0.04128165  0.02064082       0.037
   0.02064082  0.04128165  0.02064082       0.074
   0.04128165  0.04128165  0.02064082       0.074
   0.06192247  0.04128165  0.02064082       0.037
   0.00000000  0.06192247  0.02064082       0.019
   0.02064082  0.06192247  0.02064082       0.037
   0.04128165  0.06192247  0.02064082       0.037
   0.06192247  0.06192247  0.02064082       0.019
   0.00000000  0.04128165  0.04128165       0.019
   0.02064082  0.04128165  0.04128165       0.037
   0.04128165  0.04128165  0.04128165       0.037
   0.06192247  0.04128165  0.04128165       0.019
   0.00000000  0.06192247  0.04128165       0.019
   0.02064082  0.06192247  0.04128165       0.037
   0.04128165  0.06192247  0.04128165       0.037
   0.06192247  0.06192247  0.04128165       0.019
   0.00000000  0.06192247  0.06192247       0.005
   0.02064082  0.06192247  0.06192247       0.009
   0.04128165  0.06192247  0.06192247       0.009
   0.06192247  0.06192247  0.06192247       0.005
 
 k-points in reciprocal lattice and weights: Automatic mesh                          
   0.00000000  0.00000000  0.00000000       0.005
   0.16666667  0.00000000  0.00000000       0.009
   0.33333333  0.00000000  0.00000000       0.009
   0.50000000  0.00000000  0.00000000       0.005
   0.00000000  0.16666667  0.00000000       0.019
   0.16666667  0.16666667  0.00000000       0.037
   0.33333333  0.16666667  0.00000000       0.037
   0.50000000  0.16666667  0.00000000       0.019
   0.00000000  0.33333333  0.00000000       0.019
   0.16666667  0.33333333  0.00000000       0.037
   0.33333333  0.33333333  0.00000000       0.037
   0.50000000  0.33333333  0.00000000       0.019
   0.00000000  0.50000000  0.00000000       0.009
   0.16666667  0.50000000  0.00000000       0.019
   0.33333333  0.50000000  0.00000000       0.019
   0.50000000  0.50000000  0.00000000       0.009
   0.00000000  0.16666667  0.16666667       0.019
   0.16666667  0.16666667  0.16666667       0.037
   0.33333333  0.16666667  0.16666667       0.037
   0.50000000  0.16666667  0.16666667       0.019
   0.00000000  0.33333333  0.16666667       0.037
   0.16666667  0.33333333  0.16666667       0.074
   0.33333333  0.33333333  0.16666667       0.074
   0.50000000  0.33333333  0.16666667       0.037
   0.00000000  0.50000000  0.16666667       0.019
   0.16666667  0.50000000  0.16666667       0.037
   0.33333333  0.50000000  0.16666667       0.037
   0.50000000  0.50000000  0.16666667       0.019
   0.00000000  0.33333333  0.33333333       0.019
   0.16666667  0.33333333  0.33333333       0.037
   0.33333333  0.33333333  0.33333333       0.037
   0.50000000  0.33333333  0.33333333       0.019
   0.00000000  0.50000000  0.33333333       0.019
   0.16666667  0.50000000  0.33333333       0.037
   0.33333333  0.50000000  0.33333333       0.037
   0.50000000  0.50000000  0.33333333       0.019
   0.00000000  0.50000000  0.50000000       0.005
   0.16666667  0.50000000  0.50000000       0.009
   0.33333333  0.50000000  0.50000000       0.009
   0.50000000  0.50000000  0.50000000       0.005
 
 position of ions in fractional coordinates (direct lattice) 
   0.25123845  0.25000000  0.00000000
   0.75000000  0.25000000  0.00000000
   0.25000000  0.75000000  0.00000000
   0.75000000  0.75000000  0.00000000
   0.25000000  0.25000000  0.50000000
   0.75000000  0.25000000  0.50000000
   0.25000000  0.75000000  0.50000000
   0.75000000  0.75000000  0.50000000
   0.25000000  0.00000000  0.25000000
   0.75000000  0.00000000  0.25000000
   0.25000000  0.50000000  0.25000000
   0.75000000  0.50000000  0.25000000
   0.25000000  0.00000000  0.75000000
   0.75000000  0.00000000  0.75000000
   0.25000000  0.50000000  0.75000000
   0.75000000  0.50000000  0.75000000
   0.00000000  0.25000000  0.25000000
   0.50000000  0.25000000  0.25000000
   0.00000000  0.75000000  0.25000000
   0.50000000  0.75000000  0.25000000
   0.00000000  0.25000000  0.75000000
   0.50000000  0.25000000  0.75000000
   0.00000000  0.75000000  0.75000000
   0.50000000  0.75000000  0.75000000
   0.00000000  0.00000000  0.00000000
   0.50000000  0.00000000  0.00000000
   0.00000000  0.50000000  0.00000000
   0.50000000  0.50000000  0.00000000
   0.00000000  0.00000000  0.50000000
   0.50000000  0.00000000  0.50000000
   0.00000000  0.50000000  0.50000000
   0.50000000  0.50000000  0.50000000
 
 position of ions in cartesian coordinates  (Angst):
   2.02865318  2.01865318  0.00000000
   6.05595955  2.01865318  0.00000000
   2.01865318  6.05595955  0.00000000
   6.05595955  6.05595955  0.00000000
   2.01865318  2.01865318  4.03730637
   6.05595955  2.01865318  4.03730637
   2.01865318  6.05595955  4.03730637
   6.05595955  6.05595955  4.03730637
   2.01865318  0.00000000  2.01865318
   6.05595955  0.00000000  2.01865318
   2.01865318  4.03730637  2.01865318
   6.05595955  4.03730637  2.01865318
   2.01865318  0.00000000  6.05595955
   6.05595955  0.00000000  6.05595955
   2.01865318  4.03730637  6.05595955
   6.05595955  4.03730637  6.05595955
   0.00000000  2.01865318  2.01865318
   4.03730637  2.01865318  2.01865318
   0.00000000  6.05595955  2.01865318
   4.03730637  6.05595955  2.01865318
   0.00000000  2.01865318  6.05595955
   4.03730637  2.01865318  6.05595955
   0.00000000  6.05595955  6.05595955
   4.03730637  6.05595955  6.05595955
   0.00000000  0.00000000  0.00000000
   4.03730637  0.00000000  0.00000000
   0.00000000  4.03730637  0.00000000
   4.03730637  4.03730637  0.00000000
   0.00000000  0.00000000  4.03730637
   4.03730637  0.00000000  4.03730637
   0.00000000  4.03730637  4.03730637
   4.03730637  4.03730637  4.03730637
 


--------------------------------------------------------------------------------------------------------


 k-point  1 :  0.00000.00000.0000  plane waves:  13301
 k-point  2 :  0.16670.00000.0000  plane waves:  13397
 k-point  3 :  0.33330.00000.0000  plane waves:  13350
 k-point  4 :  0.50000.00000.0000  plane waves:  13350
 k-point  5 :  0.00000.16670.0000  plane waves:  13397
 k-point  6 :  0.16670.16670.0000  plane waves:  13381
 k-point  7 :  0.33330.16670.0000  plane waves:  13347
 k-point  8 :  0.50000.16670.0000  plane waves:  13364
 k-point  9 :  0.00000.33330.0000  plane waves:  13350
 k-point 10 :  0.16670.33330.0000  plane waves:  13347
 k-point 11 :  0.33330.33330.0000  plane waves:  13415
 k-point 12 :  0.50000.33330.0000  plane waves:  13396
 k-point 13 :  0.00000.50000.0000  plane waves:  13350
 k-point 14 :  0.16670.50000.0000  plane waves:  13364
 k-point 15 :  0.33330.50000.0000  plane waves:  13396
 k-point 16 :  0.50000.50000.0000  plane waves:  13448
 k-point 17 :  0.00000.16670.1667  plane waves:  13381
 k-point 18 :  0.16670.16670.1667  plane waves:  13343
 k-point 19 :  0.33330.16670.1667  plane waves:  13366
 k-point 20 :  0.50000.16670.1667  plane waves:  13340
 k-point 21 :  0.00000.33330.1667  plane waves:  13347
 k-point 22 :  0.16670.33330.1667  plane waves:  13366
 k-point 23 :  0.33330.33330.1667  plane waves:  13371
 k-point 24 :  0.50000.33330.1667  plane waves:  13380
 k-point 25 :  0.00000.50000.1667  plane waves:  13364
 k-point 26 :  0.16670.50000.1667  plane waves:  13340
 k-point 27 :  0.33330.50000.1667  plane waves:  13380
 k-point 28 :  0.50000.50000.1667  plane waves:  13400
 k-point 29 :  0.00000.33330.3333  plane waves:  13415
 k-point 30 :  0.16670.33330.3333  plane waves:  13371
 k-point 31 :  0.33330.33330.3333  plane waves:  13361
 k-point 32 :  0.50000.33330.3333  plane waves:  13306
 k-point 33 :  0.00000.50000.3333  plane waves:  13396
 k-point 34 :  0.16670.50000.3333  plane waves:  13380
 k-point 35 :  0.33330.50000.3333  plane waves:  13306
 k-point 36 :  0.50000.50000.3333  plane waves:  13368
 k-point 37 :  0.00000.50000.5000  plane waves:  13448
 k-point 38 :  0.16670.50000.5000  plane waves:  13400
 k-point 39 :  0.33330.50000.5000  plane waves:  13368
 k-point 40 :  0.50000.50000.5000  plane waves:  13264

 maximum and minimum number of plane-waves per node :  13448 13264

 maximum number of plane-waves:  13448
 maximal index in each direction: 
   IXMAX= 14   IYMAX= 14   IZMAX= 14
   IXMIN=-15   IYMIN=-15   IZMIN=-15

 NGX is ok and might be reduce to  60
 NGY is ok and might be reduce to  60
 NGZ is ok and might be reduce to  60

 parallel 3dFFT wavefunction:
    minimum data exchange during FFTs selected (reduces bandwidth)
 parallel 3dFFT charge:
    minimum data exchange during FFTs selected (reduces bandwidth)

 For storing wavefunctions  615.99 MBYTES are necessary
 For predicting wavefunctions   34.21 MBYTES are necessary
Broyden mixing: mesh for mixing (old mesh)
   NGX = 29   NGY = 29   NGZ = 29
  (NGX  =120   NGY  =120   NGZ  =120)
 gives a total of  24389 points
 initial charge density was supplied:
 charge density of overlapping atoms calculated
 number of electron   96.0000000 magnetization 
 keeping initial charge density in first step


--------------------------------------------------------------------------------------------------------


 Maximum index for augmentation-charges         1980 (set IRDMAX)


--------------------------------------------------------------------------------------------------------


 First call to EWALD:  gamma=   0.220
 Maximum number of real-space cells 3x 3x 3
 Maximum number of reciprocal cells 3x 3x 3

    FEWALD:  VPU time    0.00: CPU time    0.00


----------------------------------------- Iteration    1(   1)  ---------------------------------------


    POTLOK:  VPU time    0.13: CPU time    0.13
    SETDIJ:  VPU time    0.01: CPU time    0.01
    EDDAV :  VPU time   19.56: CPU time   19.61
    DOS   :  VPU time    0.00: CPU time   -0.00
    ------------------------------------------
      LOOP:  VPU time   19.70: CPU time   19.76

 eigenvalue-minimisations  :  5760
 total energy-change (2. order) : 0.1197683E+03  (-0.3268917E+04)
 number of electron   96.0000000 magnetization 
 augmentation part    96.0000000 magnetization 

 Free energy of the ion-electron system (eV)
  ---------------------------------------------------
  alpha Z        PSCENC =        -6.53311864
  Ewald energy   TEWEN  =     -2354.79383508
  -1/2 Hartree   DENC   =        -3.21085913
  -V(xc)+E(xc)   XCENC  =      -839.50335709
  PAW double counting   =      1137.73615723     -115.16745734
  entropy T*S    EENTRO =        -0.00052680
  eigenvalues    EBANDS =       588.01214299
  atomic energy  EATOM  =      1713.22913220
  ---------------------------------------------------
  free energy    TOTEN  =       119.76827834 eV

  energy without entropy =      119.76880515  energy(sigma->0) =      119.76854175


--------------------------------------------------------------------------------------------------------




----------------------------------------- Iteration    1(   2)  ---------------------------------------


    EDDAV :  VPU time   21.94: CPU time   21.97
    DOS   :  VPU time    0.00: CPU time   -0.00
    ------------------------------------------
      LOOP:  VPU time   21.94: CPU time   21.98

 eigenvalue-minimisations  :  6768
 total energy-change (2. order) :-0.2270819E+03  (-0.2105938E+03)
 number of electron   96.0000000 magnetization 
 augmentation part    96.0000000 magnetization 

 Free energy of the ion-electron system (eV)
  ---------------------------------------------------
  alpha Z        PSCENC =        -6.53311864
  Ewald energy   TEWEN  =     -2354.79383508
  -1/2 Hartree   DENC   =        -3.21085913
  -V(xc)+E(xc)   XCENC  =      -839.50335709
  PAW double counting   =      1137.73615723     -115.16745734
  entropy T*S    EENTRO =        -0.00067818
  eigenvalues    EBANDS =       360.93039433
  atomic energy  EATOM  =      1713.22913220
  ---------------------------------------------------
  free energy    TOTEN  =      -107.31362168 eV

  energy without entropy =     -107.31294351  energy(sigma->0) =     -107.31328260


--------------------------------------------------------------------------------------------------------




----------------------------------------- Iteration    1(   3)  ---------------------------------------


    EDDAV :  VPU time   23.03: CPU time   23.07
    DOS   :  VPU time    0.00: CPU time   -0.00
    ------------------------------------------
      LOOP:  VPU time   23.04: CPU time   23.07

 eigenvalue-minimisations  :  7208
 total energy-change (2. order) :-0.1294256E+02  (-0.1233565E+02)
 number of electron   96.0000000 magnetization 
 augmentation part    96.0000000 magnetization 

 Free energy of the ion-electron system (eV)
  ---------------------------------------------------
  alpha Z        PSCENC =        -6.53311864
  Ewald energy   TEWEN  =     -2354.79383508
  -1/2 Hartree   DENC   =        -3.21085913
  -V(xc)+E(xc)   XCENC  =      -839.50335709
  PAW double counting   =      1137.73615723     -115.16745734
  entropy T*S    EENTRO =        -0.00029085
  eigenvalues    EBANDS =       347.98744236
  atomic energy  EATOM  =      1713.22913220
  ---------------------------------------------------
  free energy    TOTEN  =      -120.25618634 eV

  energy without entropy =     -120.25589548  energy(sigma->0) =     -120.25604091


--------------------------------------------------------------------------------------------------------




----------------------------------------- Iteration    1(   4)  ---------------------------------------


    EDDAV :  VPU time   21.80: CPU time   21.84
    DOS   :  VPU time    0.00: CPU time   -0.00
    ------------------------------------------
      LOOP:  VPU time   21.80: CPU time   21.85

 eigenvalue-minimisations  :  6704
 total energy-change (2. order) :-0.2343787E+00  (-0.2326326E+00)
 number of electron   96.0000000 magnetization 
 augmentation part    96.0000000 magnetization 

 Free energy of the ion-electron system (eV)
  ---------------------------------------------------
  alpha Z        PSCENC =        -6.53311864
  Ewald energy   TEWEN  =     -2354.79383508
  -1/2 Hartree   DENC   =        -3.21085913
  -V(xc)+E(xc)   XCENC  =      -839.50335709
  PAW double counting   =      1137.73615723     -115.16745734
  entropy T*S    EENTRO =        -0.00036035
  eigenvalues    EBANDS =       347.75313318
  atomic energy  EATOM  =      1713.22913220
  ---------------------------------------------------
  free energy    TOTEN  =      -120.49056502 eV

  energy without entropy =     -120.49020466  energy(sigma->0) =     -120.49038484


--------------------------------------------------------------------------------------------------------




----------------------------------------- Iteration    1(   5)  ---------------------------------------


    EDDAV :  VPU time   21.93: CPU time   22.01
    DOS   :  VPU time    0.00: CPU time   -0.00
    CHARGE:  VPU time    1.32: CPU time    1.33
    MIXING:  VPU time    0.00: CPU time    0.00
    ------------------------------------------
      LOOP:  VPU time   23.26: CPU time   23.34

 eigenvalue-minimisations  :  6760
 total energy-change (2. order) :-0.2822012E-02  (-0.2820492E-02)
 number of electron   96.0000001 magnetization 
 augmentation part    -1.1822227 magnetization 

 Broyden mixing:
  rms(total) = 0.53135E+00    rms(broyden)= 0.53135E+00
  rms(prec ) = 0.76903E+00
  weight for this iteration     100.00

 Free energy of the ion-electron system (eV)
  ---------------------------------------------------
  alpha Z        PSCENC =        -6.53311864
  Ewald energy   TEWEN  =     -2354.79383508
  -1/2 Hartree   DENC   =        -3.21085913
  -V(xc)+E(xc)   XCENC  =      -839.50335709
  PAW double counting   =      1137.73615723     -115.16745734
  entropy T*S    EENTRO =        -0.00035966
  eigenvalues    EBANDS =       347.75031047
  atomic energy  EATOM  =      1713.22913220
  ---------------------------------------------------
  free energy    TOTEN  =      -120.49338703 eV

  energy without entropy =     -120.49302737  energy(sigma->0) =     -120.49320720


--------------------------------------------------------------------------------------------------------




----------------------------------------- Iteration    1(   6)  ---------------------------------------


    POTLOK:  VPU time    0.16: CPU time    0.16
    SETDIJ:  VPU time    0.01: CPU time    0.01
    EDDAV :  VPU time   21.43: CPU time   21.51
    DOS   :  VPU time    0.00: CPU time   -0.00
    CHARGE:  VPU time    1.28: CPU time    1.28
    MIXING:  VPU time    0.00: CPU time    0.00
    ------------------------------------------
      LOOP:  VPU time   22.89: CPU time   22.97

 eigenvalue-minimisations  :  6560
 total energy-change (2. order) : 0.4240471E+00  (-0.5109133E-02)
 number of electron   96.0000001 magnetization 
 augmentation part    -1.1991032 magnetization 

 Broyden mixing:
  rms(total) = 0.33000E+00    rms(broyden)= 0.33000E+00
  rms(prec ) = 0.47941E+00
  weight for this iteration     100.00

 eigenvalues of (default mixing * dielectric matrix)
  average eigenvalue GAMMA=   2.6298
  2.6298

 Free energy of the ion-electron system (eV)
  ---------------------------------------------------
  alpha Z        PSCENC =        -6.53311864
  Ewald energy   TEWEN  =     -2354.79383508
  -1/2 Hartree   DENC   =        -2.69183886
  -V(xc)+E(xc)   XCENC  =      -838.36893283
  PAW double counting   =      1138.85972563     -116.39553952
  entropy T*S    EENTRO =        -0.00036928
  eigenvalues    EBANDS =       346.62543648
  atomic energy  EATOM  =      1713.22913220
  ---------------------------------------------------
  free energy    TOTEN  =      -120.06933990 eV

  energy without entropy =     -120.06897062  energy(sigma->0) =     -120.06915526


--------------------------------------------------------------------------------------------------------




----------------------------------------- Iteration    1(   7)  ---------------------------------------


    POTLOK:  VPU time    0.13: CPU time    0.13
    SETDIJ:  VPU time    0.01: CPU time    0.01
    EDDAV :  VPU time   20.89: CPU time   20.96
    DOS   :  VPU time    0.00: CPU time   -0.00
    CHARGE:  VPU time    1.25: CPU time    1.25
    MIXING:  VPU time    0.00: CPU time    0.00
    ------------------------------------------
      LOOP:  VPU time   22.28: CPU time   22.36

 eigenvalue-minimisations  :  6352
 total energy-change (2. order) : 0.3091414E+00  (-0.1533016E-01)
 number of electron   96.0000001 magnetization 
 augmentation part    -1.2318353 magnetization 

 Broyden mixing:
  rms(total) = 0.13555E-01    rms(broyden)= 0.13555E-01
  rms(prec ) = 0.16182E-01
  weight for this iteration     100.00

 eigenvalues of (default mixing * dielectric matrix)
  average eigenvalue GAMMA=   2.4898
  2.4898  2.4898

 Free energy of the ion-electron system (eV)
  ---------------------------------------------------
  alpha Z        PSCENC =        -6.53311864
  Ewald energy   TEWEN  =     -2354.79383508
  -1/2 Hartree   DENC   =        -3.25250976
  -V(xc)+E(xc)   XCENC  =      -836.06093516
  PAW double counting   =      1140.36404147     -118.12573256
  entropy T*S    EENTRO =        -0.00052635
  eigenvalues    EBANDS =       345.41328534
  atomic energy  EATOM  =      1713.22913220
  ---------------------------------------------------
  free energy    TOTEN  =      -119.76019854 eV

  energy without entropy =     -119.75967219  energy(sigma->0) =     -119.75993536


--------------------------------------------------------------------------------------------------------




----------------------------------------- Iteration    1(   8)  ---------------------------------------


    POTLOK:  VPU time    0.13: CPU time    0.13
    SETDIJ:  VPU time    0.01: CPU time    0.01
    EDDAV :  VPU time   21.91: CPU time   21.99
    DOS   :  VPU time    0.00: CPU time   -0.00
    CHARGE:  VPU time    1.27: CPU time    1.28
    MIXING:  VPU time    0.00: CPU time    0.00
    ------------------------------------------
      LOOP:  VPU time   23.32: CPU time   23.41

 eigenvalue-minimisations  :  6800
 total energy-change (2. order) :-0.1122109E-03  (-0.1266029E-03)
 number of electron   96.0000001 magnetization 
 augmentation part    -1.2340935 magnetization 

 Broyden mixing:
  rms(total) = 0.46607E-02    rms(broyden)= 0.46606E-02
  rms(prec ) = 0.60883E-02
  weight for this iteration     100.00

 eigenvalues of (default mixing * dielectric matrix)
  average eigenvalue GAMMA=   2.0718
  0.9821  2.6726  2.5608

 Free energy of the ion-electron system (eV)
  ---------------------------------------------------
  alpha Z        PSCENC =        -6.53311864
  Ewald energy   TEWEN  =     -2354.79383508
  -1/2 Hartree   DENC   =        -3.29463925
  -V(xc)+E(xc)   XCENC  =      -836.01986172
  PAW double counting   =      1141.15515356     -118.96925065
  entropy T*S    EENTRO =        -0.00053450
  eigenvalues    EBANDS =       345.46664332
  atomic energy  EATOM  =      1713.22913220
  ---------------------------------------------------
  free energy    TOTEN  =      -119.76031075 eV

  energy without entropy =     -119.75977625  energy(sigma->0) =     -119.76004350


--------------------------------------------------------------------------------------------------------




----------------------------------------- Iteration    1(   9)  ---------------------------------------


    POTLOK:  VPU time    0.13: CPU time    0.13
    SETDIJ:  VPU time    0.01: CPU time    0.01
    EDDAV :  VPU time   21.68: CPU time   21.72
    DOS   :  VPU time    0.00: CPU time   -0.00
    CHARGE:  VPU time    1.28: CPU time    1.28
    MIXING:  VPU time    0.00: CPU time    0.00
    ------------------------------------------
      LOOP:  VPU time   23.10: CPU time   23.14

 eigenvalue-minimisations  :  6712
 total energy-change (2. order) :-0.2874169E-04  (-0.5326284E-05)
 number of electron   96.0000001 magnetization 
 augmentation part    -1.2349531 magnetization 

 Broyden mixing:
  rms(total) = 0.41466E-03    rms(broyden)= 0.41465E-03
  rms(prec ) = 0.66070E-03
  weight for this iteration     100.00

 eigenvalues of (default mixing * dielectric matrix)
  average eigenvalue GAMMA=   1.8760
  2.6973  2.5473  0.9288  1.3304

 Free energy of the ion-electron system (eV)
  ---------------------------------------------------
  alpha Z        PSCENC =        -6.53311864
  Ewald energy   TEWEN  =     -2354.79383508
  -1/2 Hartree   DENC   =        -3.32774672
  -V(xc)+E(xc)   XCENC  =      -835.97884982
  PAW double counting   =      1141.47449546     -119.31479026
  entropy T*S    EENTRO =        -0.00054469
  eigenvalues    EBANDS =       345.48491804
  atomic energy  EATOM  =      1713.22913220
  ---------------------------------------------------
  free energy    TOTEN  =      -119.76033949 eV

  energy without entropy =     -119.75979480  energy(sigma->0) =     -119.76006715


--------------------------------------------------------------------------------------------------------




----------------------------------------- Iteration    1(  10)  ---------------------------------------


    POTLOK:  VPU time    0.16: CPU time    0.16
    SETDIJ:  VPU time    0.01: CPU time    0.01
    EDDAV :  VPU time   21.79: CPU time   21.83
    DOS   :  VPU time    0.00: CPU time   -0.00
    CHARGE:  VPU time    1.25: CPU time    1.25
    MIXING:  VPU time    0.00: CPU time    0.00
    ------------------------------------------
      LOOP:  VPU time   23.21: CPU time   23.26

 eigenvalue-minimisations  :  6752
 total energy-change (2. order) :-0.1661060E-05  (-0.3585681E-06)
 number of electron   96.0000001 magnetization 
 augmentation part    -1.2350846 magnetization 

 Broyden mixing:
  rms(total) = 0.20214E-03    rms(broyden)= 0.20214E-03
  rms(prec ) = 0.27443E-03
  weight for this iteration     100.00

 eigenvalues of (default mixing * dielectric matrix)
  average eigenvalue GAMMA=   1.8677
  2.6313  2.6313  2.2491  1.0267  0.7998

 Free energy of the ion-electron system (eV)
  ---------------------------------------------------
  alpha Z        PSCENC =        -6.53311864
  Ewald energy   TEWEN  =     -2354.79383508
  -1/2 Hartree   DENC   =        -3.33029880
  -V(xc)+E(xc)   XCENC  =      -835.97566745
  PAW double counting   =      1141.44845827     -119.28905683
  entropy T*S    EENTRO =        -0.00054523
  eigenvalues    EBANDS =       345.48459041
  atomic energy  EATOM  =      1713.22913220
  ---------------------------------------------------
  free energy    TOTEN  =      -119.76034115 eV

  energy without entropy =     -119.75979593  energy(sigma->0) =     -119.76006854


--------------------------------------------------------------------------------------------------------




----------------------------------------- Iteration    1(  11)  ---------------------------------------


    POTLOK:  VPU time    0.13: CPU time    0.13
    SETDIJ:  VPU time    0.01: CPU time    0.01
    EDDAV :  VPU time   21.82: CPU time   21.87
    DOS   :  VPU time    0.00: CPU time   -0.00
    CHARGE:  VPU time    1.29: CPU time    1.29
    MIXING:  VPU time    0.00: CPU time    0.00
    ------------------------------------------
      LOOP:  VPU time   23.26: CPU time   23.30

 eigenvalue-minimisations  :  6760
 total energy-change (2. order) : 0.2912384E-05  (-0.2536600E-07)
 number of electron   96.0000001 magnetization 
 augmentation part    -1.2351086 magnetization 

 Broyden mixing:
  rms(total) = 0.77536E-04    rms(broyden)= 0.77536E-04
  rms(prec ) = 0.97966E-04
  weight for this iteration     100.00

 eigenvalues of (default mixing * dielectric matrix)
  average eigenvalue GAMMA=   1.8171
  2.6967  2.6967  2.5049  1.0001  1.2189  0.7853

 Free energy of the ion-electron system (eV)
  ---------------------------------------------------
  alpha Z        PSCENC =        -6.53311864
  Ewald energy   TEWEN  =     -2354.79383508
  -1/2 Hartree   DENC   =        -3.33021241
  -V(xc)+E(xc)   XCENC  =      -835.97621983
  PAW double counting   =      1141.39873176     -119.23792437
  entropy T*S    EENTRO =        -0.00054537
  eigenvalues    EBANDS =       345.48365348
  atomic energy  EATOM  =      1713.22913220
  ---------------------------------------------------
  free energy    TOTEN  =      -119.76033824 eV

  energy without entropy =     -119.75979287  energy(sigma->0) =     -119.76006556


--------------------------------------------------------------------------------------------------------




----------------------------------------- Iteration    1(  12)  ---------------------------------------


    POTLOK:  VPU time    0.13: CPU time    0.13
    SETDIJ:  VPU time    0.01: CPU time    0.01
    EDDAV :  VPU time   17.17: CPU time   17.20
    DOS   :  VPU time    0.00: CPU time   -0.00
    CHARGE:  VPU time    1.25: CPU time    1.25
    MIXING:  VPU time    0.00: CPU time    0.00
    ------------------------------------------
      LOOP:  VPU time   18.56: CPU time   18.60

 eigenvalue-minimisations  :  4784
 total energy-change (2. order) : 0.1064724E-05  (-0.2431560E-08)
 number of electron   96.0000001 magnetization 
 augmentation part    -1.2351169 magnetization 

 Broyden mixing:
  rms(total) = 0.14502E-04    rms(broyden)= 0.14502E-04
  rms(prec ) = 0.22334E-04
  weight for this iteration     100.00

 eigenvalues of (default mixing * dielectric matrix)
  average eigenvalue GAMMA=   1.7455
  2.6772  2.6772  2.4828  1.5159  1.0164  1.0699  0.7793

 Free energy of the ion-electron system (eV)
  ---------------------------------------------------
  alpha Z        PSCENC =        -6.53311864
  Ewald energy   TEWEN  =     -2354.79383508
  -1/2 Hartree   DENC   =        -3.33050514
  -V(xc)+E(xc)   XCENC  =      -835.97594493
  PAW double counting   =      1141.37925906     -119.21800491
  entropy T*S    EENTRO =        -0.00054545
  eigenvalues    EBANDS =       345.48322570
  atomic energy  EATOM  =      1713.22913220
  ---------------------------------------------------
  free energy    TOTEN  =      -119.76033718 eV

  energy without entropy =     -119.75979173  energy(sigma->0) =     -119.76006445


--------------------------------------------------------------------------------------------------------




----------------------------------------- Iteration    1(  13)  ---------------------------------------


    POTLOK:  VPU time    0.14: CPU time    0.14
    SETDIJ:  VPU time    0.01: CPU time    0.01
    EDDAV :  VPU time   14.75: CPU time   14.80
    DOS   :  VPU time    0.00: CPU time   -0.00
    CHARGE:  VPU time    1.26: CPU time    1.27
    MIXING:  VPU time    0.00: CPU time    0.00
    ------------------------------------------
      LOOP:  VPU time   16.17: CPU time   16.23

 eigenvalue-minimisations  :  3728
 total energy-change (2. order) : 0.2063709E-06  (-0.2955851E-09)
 number of electron   96.0000001 magnetization 
 augmentation part    -1.2351169 magnetization 

 Broyden mixing:
  rms(total) = 0.33666E-05    rms(broyden)= 0.33666E-05
  rms(prec ) = 0.50031E-05
  weight for this iteration     100.00

 eigenvalues of (default mixing * dielectric matrix)
  average eigenvalue GAMMA=   1.7056
  2.7049  2.7049  2.5033  1.6267  1.3315  1.0566  0.9377  0.7790

 Free energy of the ion-electron system (eV)
  ---------------------------------------------------
  alpha Z        PSCENC =        -6.53311864
  Ewald energy   TEWEN  =     -2354.79383508
  -1/2 Hartree   DENC   =        -3.33047892
  -V(xc)+E(xc)   XCENC  =      -835.97602366
  PAW double counting   =      1141.37641329     -119.21507476
  entropy T*S    EENTRO =        -0.00054544
  eigenvalues    EBANDS =       345.48319403
  atomic energy  EATOM  =      1713.22913220
  ---------------------------------------------------
  free energy    TOTEN  =      -119.76033697 eV

  energy without entropy =     -119.75979153  energy(sigma->0) =     -119.76006425


--------------------------------------------------------------------------------------------------------




----------------------------------------- Iteration    1(  14)  ---------------------------------------


    POTLOK:  VPU time    0.13: CPU time    0.13
    SETDIJ:  VPU time    0.01: CPU time    0.01
    EDDAV :  VPU time   14.55: CPU time   14.59
    DOS   :  VPU time    0.00: CPU time   -0.00
    ------------------------------------------
      LOOP:  VPU time   14.69: CPU time   14.73

 eigenvalue-minimisations  :  3648
 total energy-change (2. order) : 0.7367362E-08  (-0.4876856E-10)
 number of electron   96.0000001 magnetization 
 augmentation part    -1.2351169 magnetization 

 Free energy of the ion-electron system (eV)
  ---------------------------------------------------
  alpha Z        PSCENC =        -6.53311864
  Ewald energy   TEWEN  =     -2354.79383508
  -1/2 Hartree   DENC   =        -3.33049394
  -V(xc)+E(xc)   XCENC  =      -835.97601204
  PAW double counting   =      1141.37624971     -119.21491318
  entropy T*S    EENTRO =        -0.00054544
  eigenvalues    EBANDS =       345.48319943
  atomic energy  EATOM  =      1713.22913220
  ---------------------------------------------------
  free energy    TOTEN  =      -119.76033696 eV

  energy without entropy =     -119.75979152  energy(sigma->0) =     -119.76006424


--------------------------------------------------------------------------------------------------------




 average (electrostatic) potential at core
  the test charge radii are     1.0406
  (the norm of the test charge is              1.0000)
       1 -72.5977       2 -72.5976       3 -72.5977       4 -72.5977       5 -72.5977
       6 -72.5977       7 -72.5977       8 -72.5977       9 -72.5977      10 -72.5977
      11 -72.5977      12 -72.5977      13 -72.5977      14 -72.5977      15 -72.5977
      16 -72.5977      17 -72.5985      18 -72.5970      19 -72.5978      20 -72.5976
      21 -72.5985      22 -72.5970      23 -72.5978      24 -72.5976      25 -72.5985
      26 -72.5970      27 -72.5985      28 -72.5970      29 -72.5978      30 -72.5976
      31 -72.5978      32 -72.5976
 
 
 
 E-fermi :   8.0013     XC(G=0): -10.2076     alpha+bet :-14.9199
   add alpha+bet to get absolut eigen values

 k-point   1 :       0.0000    0.0000    0.0000
  band No.  band energies     occupation 
      1      -3.1243      2.00000
      2      -0.8755      2.00000
      3      -0.8718      2.00000
      4      -0.8718      2.00000
      5      -0.8718      2.00000
      6      -0.8718      2.00000
      7      -0.8681      2.00000
      8       1.3392      2.00000
      9       1.3436      2.00000
     10       1.3436      2.00000
     11       1.3452      2.00000
     12       1.3454      2.00000
     13       1.3454      2.00000
     14       1.3454      2.00000
     15       1.3454      2.00000
     16       1.3456      2.00000
     17       1.3472      2.00000
     18       1.3472      2.00000
     19       1.3517      2.00000
     20       3.4258      2.00000
     21       3.4259      2.00000
     22       3.4259      2.00000
     23       3.4259      2.00000
     24       3.6464      2.00000
     25       3.6464      2.00000
     26       3.6464      2.00000
     27       3.6464      2.00000
     28       5.0993      2.00000
     29       5.0993      2.00000
     30       5.0993      2.00000
     31       6.4292      2.00000
     32       6.4292      2.00000
     33       6.4292      2.00000
     34       7.1760      2.00000
     35       7.1760      2.00000
     36       7.1803      2.00000
     37       7.1803      2.00000
     38       7.1804      2.00000
     39       7.1804      2.00000
     40       7.1804      2.00000
     41       7.1805      2.00000
     42       7.1805      2.00000
     43       7.1805      2.00000
     44       7.1849      2.00000
     45       7.1849      2.00000
     46       8.1913      0.00000
     47       8.1954      0.00000
     48       8.1954      0.00000
     49       8.1954      0.00000
     50       8.1954      0.00000
     51       8.1995      0.00000
     52       9.1520      0.00000
     53       9.1530      0.00000
     54       9.1530      0.00000
     55       9.1530      0.00000
     56       9.1531      0.00000
     57       9.1541      0.00000
     58       9.2640      0.00000
     59       9.2640      0.00000
     60       9.2656      0.00000
     61       9.2679      0.00000
     62       9.2680      0.00000
     63       9.2680      0.00000
     64       9.2680      0.00000
     65       9.2681      0.00000
     66       9.2682      0.00000
     67       9.2705      0.00000
     68       9.2722      0.00000
     69       9.2722      0.00000
     70      10.7902      0.00000
     71      10.7923      0.00000
     72      10.7930      0.00000

 k-point   2 :       0.1667    0.0000    0.0000
  band No.  band energies     occupation 
      1      -3.0613      2.00000
      2      -1.5562      2.00000
      3      -0.8098      2.00000
      4      -0.8098      2.00000
      5      -0.8098      2.00000
      6      -0.8098      2.00000
      7      -0.0676      2.00000
      8       0.6717      2.00000
      9       0.6717      2.00000
     10       0.6717      2.00000
     11       0.6717      2.00000
     12       1.4065      2.00000
     13       1.4065      2.00000
     14       1.4065      2.00000
     15       1.4065      2.00000
     16       2.1370      2.00000
     17       2.1370      2.00000
     18       2.1370      2.00000
     19       2.1370      2.00000
     20       2.8623      2.00000
     21       2.8623      2.00000
     22       2.8623      2.00000
     23       2.8623      2.00000
     24       4.2309      2.00000
     25       4.3268      2.00000
     26       4.3268      2.00000
     27       4.3268      2.00000
     28       4.3268      2.00000
     29       5.1570      2.00000
     30       5.1570      2.00000
     31       6.3457      2.00000
     32       6.3457      2.00000
     33       6.3457      2.00000
     34       6.3457      2.00000
     35       6.4901      2.00000
     36       6.4902      2.00000
     37       6.5437      2.00000
     38       6.5437      2.00000
     39       7.2383      2.00000
     40       7.2383      2.00000
     41       7.2383      2.00000
     42       7.2384      2.00000
     43       7.4068      2.00000
     44       7.8641      2.00000
     45       7.8641      2.00000
     46       7.9338      2.00000
     47       7.9338      2.00000
     48       8.4814      0.00000
     49       8.4814      0.00000
     50       8.4814      0.00000
     51       8.4814      0.00000
     52       8.5883      0.00000
     53       8.5883      0.00000
     54       8.5883      0.00000
     55       8.5884      0.00000
     56       8.6297      0.00000
     57       8.6297      0.00000
     58       8.6297      0.00000
     59       8.6297      0.00000
     60       9.5924      0.00000
     61       9.5924      0.00000
     62       9.7621      0.00000
     63       9.7621      0.00000
     64       9.7621      0.00000
     65       9.7621      0.00000
     66      10.0229      0.00000
     67      10.0229      0.00000
     68      10.0229      0.00000
     69      10.0229      0.00000
     70      10.1485      0.00000
     71      10.1485      0.00000
     72      10.1485      0.00000

 k-point   3 :       0.3333    0.0000    0.0000
  band No.  band energies     occupation 
      1      -2.8722      2.00000
      2      -2.1187      2.00000
      3      -0.6238      2.00000
      4      -0.6237      2.00000
      5      -0.6237      2.00000
      6      -0.6237      2.00000
      7       0.1179      2.00000
      8       0.1180      2.00000
      9       0.1180      2.00000
     10       0.1180      2.00000
     11       0.8536      2.00000
     12       1.5897      2.00000
     13       1.5897      2.00000
     14       1.5897      2.00000
     15       1.5897      2.00000
     16       2.3197      2.00000
     17       2.3197      2.00000
     18       2.3197      2.00000
     19       2.3197      2.00000
     20       3.0251      2.00000
     21       3.0434      2.00000
     22       3.0434      2.00000
     23       3.0434      2.00000
     24       3.0435      2.00000
     25       5.1737      2.00000
     26       5.1737      2.00000
     27       5.1738      2.00000
     28       5.1738      2.00000
     29       5.2191      2.00000
     30       5.2191      2.00000
     31       5.2191      2.00000
     32       5.2191      2.00000
     33       5.3302      2.00000
     34       5.3302      2.00000
     35       6.0232      2.00000
     36       6.0232      2.00000
     37       6.6720      2.00000
     38       6.6720      2.00000
     39       7.3257      2.00000
     40       7.3257      2.00000
     41       7.3257      2.00000
     42       7.3258      2.00000
     43       7.3797      2.00000
     44       7.3798      2.00000
     45       7.4121      2.00000
     46       7.4121      2.00000
     47       7.4122      2.00000
     48       7.4122      2.00000
     49       8.1076      0.00000
     50       8.1076      0.00000
     51       8.1077      0.00000
     52       8.1077      0.00000
     53       8.8040      0.00000
     54       8.8040      0.00000
     55       8.8664      0.00000
     56       8.8664      0.00000
     57       8.8664      0.00000
     58       8.8664      0.00000
     59       8.9398      0.00000
     60       9.6131      0.00000
     61       9.6131      0.00000
     62       9.6131      0.00000
     63       9.6131      0.00000
     64      10.3972      0.00000
     65      10.3972      0.00000
     66      10.8932      0.00000
     67      10.8932      0.00000
     68      10.8943      0.00000
     69      10.8943      0.00000
     70      10.8959      0.00000
     71      10.8959      0.00000
     72      11.1556      0.00000

 k-point   4 :       0.5000    0.0000    0.0000
  band No.  band energies     occupation 
      1      -2.5592      2.00000
      2      -2.5564      2.00000
      3      -0.3182      2.00000
      4      -0.3151      2.00000
      5      -0.3151      2.00000
      6      -0.3143      2.00000
      7      -0.3142      2.00000
      8      -0.3134      2.00000
      9      -0.3134      2.00000
     10      -0.3103      2.00000
     11       1.8855      2.00000
     12       1.8878      2.00000
     13       1.8929      2.00000
     14       1.8933      2.00000
     15       1.8933      2.00000
     16       1.8940      2.00000
     17       1.8950      2.00000
     18       1.8957      2.00000
     19       1.8957      2.00000
     20       1.8981      2.00000
     21       4.0587      2.00000
     22       4.0587      2.00000
     23       4.0587      2.00000
     24       4.0593      2.00000
     25       4.0597      2.00000
     26       4.0603      2.00000
     27       4.0603      2.00000
     28       4.0603      2.00000
     29       5.6173      2.00000
     30       5.6173      2.00000
     31       5.6203      2.00000
     32       5.6203      2.00000
     33       6.2222      2.00000
     34       6.2222      2.00000
     35       6.2227      2.00000
     36       6.2231      2.00000
     37       6.2234      2.00000
     38       6.2238      2.00000
     39       6.2243      2.00000
     40       6.2243      2.00000
     41       6.9696      2.00000
     42       6.9706      2.00000
     43       6.9723      2.00000
     44       6.9734      2.00000
     45       7.6995      2.00000
     46       7.6995      2.00000
     47       7.7004      2.00000
     48       7.7018      2.00000
     49       7.7019      2.00000
     50       7.7033      2.00000
     51       7.7042      2.00000
     52       7.7042      2.00000
     53       9.1859      0.00000
     54       9.1869      0.00000
     55       9.1869      0.00000
     56       9.1871      0.00000
     57       9.1892      0.00000
     58       9.1893      0.00000
     59       9.1893      0.00000
     60       9.1903      0.00000
     61       9.7900      0.00000
     62       9.7900      0.00000
     63       9.7923      0.00000
     64       9.7923      0.00000
     65      10.6214      0.00000
     66      10.6227      0.00000
     67      11.3231      0.00000
     68      11.3236      0.00000
     69      11.3250      0.00000
     70      11.3254      0.00000
     71      11.8812      0.00000
     72      11.8827      0.00000

 k-point   5 :       0.0000    0.1667    0.0000
  band No.  band energies     occupation 
      1      -3.0613      2.00000
      2      -1.5562      2.00000
      3      -0.8126      2.00000
      4      -0.8098      2.00000
      5      -0.8097      2.00000
      6      -0.8069      2.00000
      7      -0.0676      2.00000
      8       0.6688      2.00000
      9       0.6717      2.00000
     10       0.6717      2.00000
     11       0.6746      2.00000
     12       1.4044      2.00000
     13       1.4054      2.00000
     14       1.4077      2.00000
     15       1.4087      2.00000
     16       2.1341      2.00000
     17       2.1370      2.00000
     18       2.1370      2.00000
     19       2.1399      2.00000
     20       2.8601      2.00000
     21       2.8611      2.00000
     22       2.8634      2.00000
     23       2.8644      2.00000
     24       4.2309      2.00000
     25       4.3246      2.00000
     26       4.3257      2.00000
     27       4.3280      2.00000
     28       4.3290      2.00000
     29       5.1570      2.00000
     30       5.1570      2.00000
     31       6.3426      2.00000
     32       6.3457      2.00000
     33       6.3457      2.00000
     34       6.3488      2.00000
     35       6.4901      2.00000
     36       6.4901      2.00000
     37       6.5437      2.00000
     38       6.5437      2.00000
     39       7.2356      2.00000
     40       7.2384      2.00000
     41       7.2384      2.00000
     42       7.2411      2.00000
     43       7.4068      2.00000
     44       7.8641      2.00000
     45       7.8641      2.00000
     46       7.9338      2.00000
     47       7.9338      2.00000
     48       8.4789      0.00000
     49       8.4803      0.00000
     50       8.4826      0.00000
     51       8.4840      0.00000
     52       8.5858      0.00000
     53       8.5883      0.00000
     54       8.5883      0.00000
     55       8.5908      0.00000
     56       8.6269      0.00000
     57       8.6297      0.00000
     58       8.6298      0.00000
     59       8.6324      0.00000
     60       9.5924      0.00000
     61       9.5924      0.00000
     62       9.7603      0.00000
     63       9.7620      0.00000
     64       9.7621      0.00000
     65       9.7639      0.00000
     66      10.0201      0.00000
     67      10.0229      0.00000
     68      10.0229      0.00000
     69      10.0257      0.00000
     70      10.1470      0.00000
     71      10.1485      0.00000
     72      10.1502      0.00000

 k-point   6 :       0.1667    0.1667    0.0000
  band No.  band energies     occupation 
      1      -2.9982      2.00000
      2      -1.4950      2.00000
      3      -1.4927      2.00000
      4      -0.7477      2.00000
      5      -0.7477      2.00000
      6      -0.0076      2.00000
      7      -0.0057      2.00000
      8      -0.0039      2.00000
      9       0.7315      2.00000
     10       0.7324      2.00000
     11       0.7338      2.00000
     12       0.7347      2.00000
     13       1.4666      2.00000
     14       1.4676      2.00000
     15       2.1955      2.00000
     16       2.1967      2.00000
     17       2.1980      2.00000
     18       2.1981      2.00000
     19       2.1993      2.00000
     20       2.2004      2.00000
     21       2.9240      2.00000
     22       3.5425      2.00000
     23       3.5425      2.00000
     24       3.7696      2.00000
     25       3.7696      2.00000
     26       4.2897      2.00000
     27       4.2906      2.00000
     28       5.1012      2.00000
     29       5.1012      2.00000
     30       5.2147      2.00000
     31       5.7040      2.00000
     32       5.7064      2.00000
     33       6.3023      2.00000
     34       6.3023      2.00000
     35       6.5279      2.00000
     36       6.5279      2.00000
     37       6.5507      2.00000
     38       6.6002      2.00000
     39       6.6029      2.00000
     40       7.0750      2.00000
     41       7.0769      2.00000
     42       7.4653      2.00000
     43       7.4663      2.00000
     44       7.8355      2.00000
     45       7.8365      2.00000
     46       7.8379      2.00000
     47       7.8389      2.00000
     48       7.9895      1.90348
     49       7.9917      1.82200
     50       7.9940      1.69741
     51       8.0530      0.00000
     52       8.0546      0.00000
     53       8.7263      0.00000
     54       8.7288      0.00000
     55       9.2394      0.00000
     56       9.2405      0.00000
     57       9.2407      0.00000
     58       9.2417      0.00000
     59       9.3091      0.00000
     60       9.3091      0.00000
     61       9.3833      0.00000
     62       9.3852      0.00000
     63       9.5011      0.00000
     64       9.7346      0.00000
     65       9.7353      0.00000
     66      10.0201      0.00000
     67      10.0201      0.00000
     68      10.4254      0.00000
     69      10.4275      0.00000
     70      10.7779      0.00000
     71      10.9007      0.00000
     72      10.9008      0.00000

 k-point   7 :       0.3333    0.1667    0.0000
  band No.  band energies     occupation 
      1      -2.8093      2.00000
      2      -2.0561      2.00000
      3      -1.3069      2.00000
      4      -0.5631      2.00000
      5      -0.5618      2.00000
      6      -0.5603      2.00000
      7       0.1779      2.00000
      8       0.1796      2.00000
      9       0.1807      2.00000
     10       0.9137      2.00000
     11       0.9166      2.00000
     12       0.9172      2.00000
     13       0.9183      2.00000
     14       1.6511      2.00000
     15       1.6511      2.00000
     16       2.3779      2.00000
     17       2.3798      2.00000
     18       2.3800      2.00000
     19       3.0852      2.00000
     20       3.1015      2.00000
     21       3.1020      2.00000
     22       3.1041      2.00000
     23       3.1048      2.00000
     24       3.8247      2.00000
     25       4.4678      2.00000
     26       4.5219      2.00000
     27       4.5653      2.00000
     28       4.5653      2.00000
     29       5.1765      2.00000
     30       5.2290      2.00000
     31       5.2290      2.00000
     32       5.3879      2.00000
     33       5.9348      2.00000
     34       5.9922      2.00000
     35       5.9922      2.00000
     36       6.0810      2.00000
     37       6.6079      2.00000
     38       6.6080      2.00000
     39       6.6764      2.00000
     40       6.6765      2.00000
     41       6.7310      2.00000
     42       6.7751      2.00000
     43       7.3091      2.00000
     44       7.3091      2.00000
     45       7.3866      2.00000
     46       7.4700      2.00000
     47       7.6420      2.00000
     48       8.0903      0.00000
     49       8.0903      0.00000
     50       8.0980      0.00000
     51       8.1658      0.00000
     52       8.2403      0.00000
     53       8.3211      0.00000
     54       8.8604      0.00000
     55       8.8636      0.00000
     56       8.9647      0.00000
     57       8.9969      0.00000
     58       9.5383      0.00000
     59       9.7626      0.00000
     60       9.7626      0.00000
     61      10.1078      0.00000
     62      10.1128      0.00000
     63      10.1130      0.00000
     64      10.2556      0.00000
     65      10.3655      0.00000
     66      10.4698      0.00000
     67      10.5171      0.00000
     68      10.5171      0.00000
     69      10.6089      0.00000
     70      10.9531      0.00000
     71      11.2329      0.00000
     72      11.2353      0.00000

 k-point   8 :       0.5000    0.1667    0.0000
  band No.  band energies     occupation 
      1      -2.4964      2.00000
      2      -2.4935      2.00000
      3      -0.9973      2.00000
      4      -0.9945      2.00000
      5      -0.2544      2.00000
      6      -0.2533      2.00000
      7      -0.2516      2.00000
      8      -0.2504      2.00000
      9       0.4854      2.00000
     10       0.4882      2.00000
     11       1.2214      2.00000
     12       1.2226      2.00000
     13       1.2243      2.00000
     14       1.2254      2.00000
     15       1.9478      2.00000
     16       1.9491      2.00000
     17       2.6803      2.00000
     18       2.6815      2.00000
     19       2.6832      2.00000
     20       2.6844      2.00000
     21       3.3992      2.00000
     22       3.4006      2.00000
     23       4.1178      2.00000
     24       4.1182      2.00000
     25       4.1191      2.00000
     26       4.1195      2.00000
     27       4.7621      2.00000
     28       4.7651      2.00000
     29       4.8324      2.00000
     30       4.8337      2.00000
     31       5.5695      2.00000
     32       5.5697      2.00000
     33       5.5709      2.00000
     34       5.5711      2.00000
     35       5.6751      2.00000
     36       5.6781      2.00000
     37       6.8964      2.00000
     38       6.8976      2.00000
     39       6.8993      2.00000
     40       6.9005      2.00000
     41       6.9917      2.00000
     42       6.9919      2.00000
     43       6.9931      2.00000
     44       6.9933      2.00000
     45       7.0234      2.00000
     46       7.0261      2.00000
     47       7.0631      2.00000
     48       7.0661      2.00000
     49       7.9301      2.00000
     50       7.9330      2.00000
     51       8.4542      0.00000
     52       8.4573      0.00000
     53       8.5423      0.00000
     54       8.5450      0.00000
     55       9.0274      0.00000
     56       9.0292      0.00000
     57       9.8481      0.00000
     58       9.8504      0.00000
     59       9.9285      0.00000
     60       9.9315      0.00000
     61      10.0934      0.00000
     62      10.0942      0.00000
     63      10.0964      0.00000
     64      10.0971      0.00000
     65      10.6754      0.00000
     66      10.6767      0.00000
     67      11.0935      0.00000
     68      11.0937      0.00000
     69      11.0954      0.00000
     70      11.0955      0.00000
     71      11.2426      0.00000
     72      11.2450      0.00000

 k-point   9 :       0.0000    0.3333    0.0000
  band No.  band energies     occupation 
      1      -2.8722      2.00000
      2      -2.1187      2.00000
      3      -0.6266      2.00000
      4      -0.6237      2.00000
      5      -0.6237      2.00000
      6      -0.6209      2.00000
      7       0.1151      2.00000
      8       0.1179      2.00000
      9       0.1180      2.00000
     10       0.1208      2.00000
     11       0.8536      2.00000
     12       1.5876      2.00000
     13       1.5886      2.00000
     14       1.5909      2.00000
     15       1.5919      2.00000
     16       2.3175      2.00000
     17       2.3185      2.00000
     18       2.3209      2.00000
     19       2.3219      2.00000
     20       3.0251      2.00000
     21       3.0405      2.00000
     22       3.0434      2.00000
     23       3.0434      2.00000
     24       3.0464      2.00000
     25       5.1707      2.00000
     26       5.1738      2.00000
     27       5.1738      2.00000
     28       5.1768      2.00000
     29       5.2169      2.00000
     30       5.2179      2.00000
     31       5.2203      2.00000
     32       5.2213      2.00000
     33       5.3301      2.00000
     34       5.3302      2.00000
     35       6.0232      2.00000
     36       6.0233      2.00000
     37       6.6720      2.00000
     38       6.6720      2.00000
     39       7.3234      2.00000
     40       7.3246      2.00000
     41       7.3269      2.00000
     42       7.3281      2.00000
     43       7.3796      2.00000
     44       7.3797      2.00000
     45       7.4094      2.00000
     46       7.4121      2.00000
     47       7.4123      2.00000
     48       7.4149      2.00000
     49       8.1049      0.00000
     50       8.1077      0.00000
     51       8.1077      0.00000
     52       8.1104      0.00000
     53       8.8039      0.00000
     54       8.8040      0.00000
     55       8.8641      0.00000
     56       8.8664      0.00000
     57       8.8664      0.00000
     58       8.8687      0.00000
     59       8.9398      0.00000
     60       9.6109      0.00000
     61       9.6131      0.00000
     62       9.6131      0.00000
     63       9.6153      0.00000
     64      10.3972      0.00000
     65      10.3972      0.00000
     66      10.8914      0.00000
     67      10.8943      0.00000
     68      10.8943      0.00000
     69      10.8948      0.00000
     70      10.8948      0.00000
     71      10.8972      0.00000
     72      11.1542      0.00000

 k-point  10 :       0.1667    0.3333    0.0000
  band No.  band energies     occupation 
      1      -2.8093      2.00000
      2      -2.0561      2.00000
      3      -1.3069      2.00000
      4      -0.5631      2.00000
      5      -0.5618      2.00000
      6      -0.5603      2.00000
      7       0.1779      2.00000
      8       0.1796      2.00000
      9       0.1807      2.00000
     10       0.9140      2.00000
     11       0.9160      2.00000
     12       0.9172      2.00000
     13       0.9187      2.00000
     14       1.6511      2.00000
     15       1.6511      2.00000
     16       2.3774      2.00000
     17       2.3798      2.00000
     18       2.3806      2.00000
     19       3.0852      2.00000
     20       3.1022      2.00000
     21       3.1024      2.00000
     22       3.1038      2.00000
     23       3.1041      2.00000
     24       3.8247      2.00000
     25       4.4679      2.00000
     26       4.5219      2.00000
     27       4.5653      2.00000
     28       4.5653      2.00000
     29       5.1765      2.00000
     30       5.2290      2.00000
     31       5.2290      2.00000
     32       5.3879      2.00000
     33       5.9349      2.00000
     34       5.9922      2.00000
     35       5.9922      2.00000
     36       6.0810      2.00000
     37       6.6080      2.00000
     38       6.6080      2.00000
     39       6.6764      2.00000
     40       6.6764      2.00000
     41       6.7310      2.00000
     42       6.7751      2.00000
     43       7.3091      2.00000
     44       7.3091      2.00000
     45       7.3866      2.00000
     46       7.4700      2.00000
     47       7.6420      2.00000
     48       8.0903      0.00000
     49       8.0903      0.00000
     50       8.0980      0.00000
     51       8.1658      0.00000
     52       8.2403      0.00000
     53       8.3211      0.00000
     54       8.8612      0.00000
     55       8.8628      0.00000
     56       8.9647      0.00000
     57       8.9969      0.00000
     58       9.5382      0.00000
     59       9.7626      0.00000
     60       9.7626      0.00000
     61      10.1079      0.00000
     62      10.1128      0.00000
     63      10.1128      0.00000
     64      10.2556      0.00000
     65      10.3655      0.00000
     66      10.4698      0.00000
     67      10.5171      0.00000
     68      10.5171      0.00000
     69      10.6089      0.00000
     70      10.9531      0.00000
     71      11.2329      0.00000
     72      11.2468      0.00000

 k-point  11 :       0.3333    0.3333    0.0000
  band No.  band energies     occupation 
      1      -2.6206      2.00000
[...]
      6      -0.4378      2.00000
      7      -0.4378      2.00000
      8      -0.4378      2.00000
      9       1.0391      2.00000
     10       1.0391      2.00000
     11       1.0391      2.00000
     12       1.0391      2.00000
     13       2.4945      2.00000
     14       2.4945      2.00000
     15       2.4945      2.00000
     16       2.4945      2.00000
     17       2.4945      2.00000
     18       2.4945      2.00000
     19       2.4945      2.00000
     20       2.4945      2.00000
     21       3.9349      2.00000
     22       3.9349      2.00000
     23       3.9351      2.00000
     24       3.9351      2.00000
     25       3.9351      2.00000
     26       3.9351      2.00000
     27       3.9353      2.00000
     28       3.9353      2.00000
     29       5.2897      2.00000
     30       5.2897      2.00000
     31       5.2897      2.00000
     32       5.2897      2.00000
     33       5.3952      2.00000
     34       5.3952      2.00000
     35       5.3956      2.00000
     36       5.3956      2.00000
     37       5.3956      2.00000
     38       5.3956      2.00000
     39       5.3960      2.00000
     40       5.3960      2.00000
     41       6.7855      2.00000
     42       6.7855      2.00000
     43       6.7856      2.00000
     44       6.7856      2.00000
     45       8.2189      0.00000
     46       8.2189      0.00000
     47       8.2189      0.00000
     48       8.2189      0.00000
     49       8.5341      0.00000
     50       8.5341      0.00000
     51       8.5341      0.00000
     52       8.5341      0.00000
     53       9.5095      0.00000
     54       9.5095      0.00000
     55       9.5100      0.00000
     56       9.5100      0.00000
     57       9.5100      0.00000
     58       9.5100      0.00000
     59       9.5104      0.00000
     60       9.5104      0.00000
     61       9.6256      0.00000
     62       9.6256      0.00000
     63       9.6256      0.00000
     64       9.6256      0.00000
     65      11.2001      0.00000
     66      11.2001      0.00000
     67      11.2009      0.00000
     68      11.2009      0.00000
     69      11.2009      0.00000
     70      11.2010      0.00000
     71      11.2018      0.00000
     72      11.2018      0.00000

 k-point  39 :       0.3333    0.5000    0.5000
  band No.  band energies     occupation 
      1      -1.7435      2.00000
      2      -1.7434      2.00000
      3      -1.7434      2.00000
      4      -1.7434      2.00000
      5      -0.9959      2.00000
      6      -0.9959      2.00000
      7      -0.9959      2.00000
      8      -0.9959      2.00000
      9       1.9530      2.00000
     10       1.9530      2.00000
     11       1.9530      2.00000
     12       1.9530      2.00000
     13       2.6760      2.00000
     14       2.6760      2.00000
     15       2.6760      2.00000
     16       2.6761      2.00000
     17       2.6761      2.00000
     18       2.6761      2.00000
     19       2.6761      2.00000
     20       2.6761      2.00000
     21       3.3989      2.00000
     22       3.3989      2.00000
     23       3.3990      2.00000
     24       3.3990      2.00000
     25       3.3990      2.00000
     26       3.3990      2.00000
     27       3.3991      2.00000
     28       3.3991      2.00000
     29       4.1035      2.00000
     30       4.1035      2.00000
     31       4.1035      2.00000
     32       4.1035      2.00000
     33       6.2782      2.00000
     34       6.2782      2.00000
     35       6.2785      2.00000
     36       6.2785      2.00000
     37       6.2785      2.00000
     38       6.2785      2.00000
     39       6.2788      2.00000
     40       6.2788      2.00000
     41       6.9746      2.00000
     42       6.9746      2.00000
     43       6.9746      2.00000
     44       6.9746      2.00000
     45       7.6879      2.00000
     46       7.6879      2.00000
     47       7.6879      2.00000
     48       7.6879      2.00000
     49       8.3647      0.00000
     50       8.3647      0.00000
     51       8.3651      0.00000
     52       8.3651      0.00000
     53       8.3651      0.00000
     54       8.3651      0.00000
     55       8.3654      0.00000
     56       8.3654      0.00000
     57      10.0335      0.00000
     58      10.0335      0.00000
     59      10.0335      0.00000
     60      10.0335      0.00000
     61      10.4972      0.00000
     62      10.4972      0.00000
     63      10.4972      0.00000
     64      10.4972      0.00000
     65      11.4011      0.00000
     66      11.4011      0.00000
     67      11.4016      0.00000
     68      11.4016      0.00000
     69      11.4016      0.00000
     70      11.4016      0.00000
     71      11.4022      0.00000
     72      11.4022      0.00000

 k-point  40 :       0.5000    0.5000    0.5000
  band No.  band energies     occupation 
      1      -1.4362      2.00000
      2      -1.4319      2.00000
      3      -1.4319      2.00000
      4      -1.4315      2.00000
      5      -1.4314      2.00000
      6      -1.4311      2.00000
      7      -1.4311      2.00000
      8      -1.4268      2.00000
      9       2.9678      2.00000
     10       2.9739      2.00000
     11       2.9739      2.00000
     12       2.9771      2.00000
     13       2.9775      2.00000
     14       2.9775      2.00000
     15       2.9778      2.00000
     16       2.9778      2.00000
     17       2.9779      2.00000
     18       2.9779      2.00000
     19       2.9779      2.00000
     20       2.9780      2.00000
     21       2.9780      2.00000
     22       2.9780      2.00000
     23       2.9780      2.00000
     24       2.9780      2.00000
     25       2.9782      2.00000
     26       2.9782      2.00000
     27       2.9784      2.00000
     28       2.9785      2.00000
     29       2.9789      2.00000
     30       2.9820      2.00000
     31       2.9820      2.00000
     32       2.9881      2.00000
     33       7.2673      2.00000
     34       7.2673      2.00000
     35       7.2693      2.00000
     36       7.2711      2.00000
     37       7.2725      2.00000
     38       7.2729      2.00000
     39       7.2730      2.00000
     40       7.2730      2.00000
     41       7.2731      2.00000
     42       7.2732      2.00000
     43       7.2732      2.00000
     44       7.2732      2.00000
     45       7.2733      2.00000
     46       7.2733      2.00000
     47       7.2733      2.00000
     48       7.2734      2.00000
     49       7.2736      2.00000
     50       7.2736      2.00000
     51       7.2736      2.00000
     52       7.2740      2.00000
     53       7.2754      2.00000
     54       7.2772      2.00000
     55       7.2792      2.00000
     56       7.2792      2.00000
     57      11.4739      0.00000
     58      11.4741      0.00000
     59      11.4741      0.00000
     60      11.4745      0.00000
     61      11.4761      0.00000
     62      11.4767      0.00000
     63      11.4767      0.00000
     64      11.4770      0.00000
     65      11.6924      0.00000
     66      11.6933      0.00000
     67      11.6941      0.00000
     68      11.6946      0.00000
     69      11.6951      0.00000
     70      11.6952      0.00000
     71      11.6955      0.00000
     72      11.6960      0.00000


--------------------------------------------------------------------------------------------------------


 soft charge-density along one line, spin component           1
         0         1         2         3         4         5         6         7         8         9
 total charge-density along one line
 
 pseudopotential strength for first ion, spin component:           1
  8.443  -0.006  -0.000  -0.000  -0.000  -0.000  -0.000  -0.000
 -0.006   0.000  -0.000  -0.000  -0.000   0.000   0.000   0.000
 -0.000  -0.000   1.988  -0.000  -0.000  -0.027   0.000   0.000
 -0.000  -0.000  -0.000   1.988   0.000   0.000  -0.027  -0.000
 -0.000  -0.000  -0.000   0.000   1.988   0.000  -0.000  -0.027
 -0.000   0.000  -0.027   0.000   0.000  -0.012   0.000   0.000
 -0.000   0.000   0.000  -0.027  -0.000   0.000  -0.012  -0.000
 -0.000   0.000   0.000  -0.000  -0.027   0.000  -0.000  -0.012
 total augmentation occupancy for first ion, spin component:           1
  1.324  -0.482  -0.000   0.000   0.002   0.000  -0.000  -0.001
 -0.482   0.476  -0.000   0.000  -0.003   0.000  -0.000   0.001
 -0.000  -0.000   0.733   0.005   0.009  -0.149  -0.001  -0.001
  0.000   0.000   0.005   0.738   0.002  -0.001  -0.146  -0.001
  0.002  -0.003   0.009   0.002   0.735  -0.001  -0.001  -0.148
  0.000   0.000  -0.149  -0.001  -0.001   0.035   0.000   0.000
 -0.000  -0.000  -0.001  -0.146  -0.001   0.000   0.034   0.000
 -0.001   0.001  -0.001  -0.001  -0.148   0.000   0.000   0.034


------------------------ aborting loop because EDIFF is reached ----------------------------------------




--------------------------------------------------------------------------------------------------------


    CHARGE:  VPU time    1.27: CPU time    1.27
    FORLOC:  VPU time    0.02: CPU time    0.02
    FORNL :  VPU time    5.37: CPU time    5.39
    STRESS:  VPU time   12.01: CPU time   12.05
    FORCOR:  VPU time    0.14: CPU time    0.14
    FORHAR:  VPU time    0.05: CPU time    0.05
    MIXING:  VPU time    0.00: CPU time    0.00


--------------------------------------------------------------------------------------------------------



  FREE ENERGIE OF THE ION-ELECTRON SYSTEM (eV)
  ---------------------------------------------------
  free  energy   TOTEN  =      -119.760337 eV

  energy  without entropy=     -119.759792  energy(sigma->0) =     -119.760064
 

  FORCE on cell =-STRESS in cart. coord.  units (eV/reduce length):
  Direction    X        Y        Z        XY       YZ       ZX
  --------------------------------------------------------------------------------------
  Alpha Z     -6.53     -6.53     -6.53
  Ewald     -784.94   -784.93   -784.93     -0.00     -0.00     -0.00
  Hartree      1.11      1.11      1.11     -0.00     -0.00     -0.00
  E(xc)     -274.25   -274.24   -274.24     -0.00      0.00      0.00
  Local       11.79     11.80     11.80     -0.00      0.00     -0.00
  n-local    604.38    604.02    604.74     -1.21     -0.38      0.45
  augment    -32.94    -32.94    -32.94      0.00      0.00      0.00
  Kinetic    481.38    476.31    486.43      7.72      2.67     -2.38
  -------------------------------------------------------------------------------------
  Total        0.00     -0.00     -0.00     -0.00      0.00      0.00
  in kB        0.01     -0.01     -0.01     -0.00      0.00      0.00
  external pressure =       -0.00 kB  Pullay stress =        0.00 kB


 VOLUME and BASIS-vectors are now :
 -----------------------------------------------------------------------------
  energy-cutoff  :      500.00
  volume of cell :      526.46
      direct lattice vectors                 reciprocal lattice vectors
     8.074612739  0.000000000  0.000000000     0.123844949  0.000000000  0.000000000
     0.000000000  8.074612739  0.000000000     0.000000000  0.123844949  0.000000000
     0.000000000  0.000000000  8.074612739     0.000000000  0.000000000  0.123844949

  length of vectors
     8.074612739  8.074612739  8.074612739     0.123844949  0.123844949  0.123844949


 FORCES acting on ions
    electron-ion (+dipol)            ewald-force                    non-local-force                 convergence-correction
 -----------------------------------------------------------------------------------------------
   0.393E+00 -.737E-13 -.142E-07   -.320E+00 0.133E-14 -.567E-14   -.118E+00 -.370E-19 -.184E-19   -.476E-06 0.184E-14 -.239E-13
   -.844E-01 0.220E-12 -.944E-13   0.844E-01 -.222E-14 -.330E-14   0.359E-02 -.194E-19 -.141E-19   0.214E-05 0.470E-14 -.305E-13
   0.270E-01 0.852E-13 -.941E-13   -.267E-01 -.133E-14 -.153E-14   -.163E-03 -.174E-19 -.947E-20   0.553E-06 -.241E-14 -.218E-13
   -.227E-01 -.337E-12 -.271E-13   0.210E-01 0.577E-14 -.508E-14   0.119E-02 0.844E-20 0.138E-19   -.196E-05 -.536E-14 -.263E-13
   0.270E-01 0.179E-13 -.672E-13   -.267E-01 0.533E-14 -.518E-14   -.163E-03 0.208E-19 0.374E-20   0.561E-06 -.112E-16 0.242E-13
   -.227E-01 -.508E-13 -.146E-13   0.210E-01 0.178E-14 -.163E-14   0.119E-02 -.248E-19 -.241E-20   -.197E-05 0.689E-15 0.308E-13
   0.840E-02 -.167E-13 -.360E-13   -.110E-01 0.178E-14 -.296E-14   0.160E-02 -.228E-22 -.257E-19   -.174E-05 -.558E-15 0.221E-13
   -.132E-01 0.141E-12 0.368E-12   0.103E-01 0.178E-14 0.414E-14   0.105E-02 -.273E-21 -.333E-20   0.206E-05 -.132E-14 0.266E-13
   0.482E-01 -.252E-03 0.252E-03   -.504E-01 0.196E-03 -.196E-03   0.408E-03 0.505E-04 -.505E-04   -.100E-05 -.924E-08 0.923E-08
   -.293E-01 0.112E-03 -.112E-03   0.283E-01 -.588E-04 0.588E-04   0.570E-03 -.968E-05 0.968E-05   0.575E-06 0.604E-07 -.604E-07
   0.482E-01 0.252E-03 0.252E-03   -.504E-01 -.196E-03 -.196E-03   0.408E-03 -.505E-04 -.505E-04   -.100E-05 0.924E-08 0.923E-08
   -.293E-01 -.112E-03 -.112E-03   0.283E-01 0.588E-04 0.588E-04   0.570E-03 0.968E-05 0.968E-05   0.575E-06 -.604E-07 -.604E-07
   0.482E-01 -.252E-03 -.252E-03   -.504E-01 0.196E-03 0.196E-03   0.408E-03 0.505E-04 0.505E-04   -.100E-05 -.924E-08 -.923E-08
   -.293E-01 0.112E-03 0.112E-03   0.283E-01 -.588E-04 -.588E-04   0.570E-03 -.968E-05 -.968E-05   0.575E-06 0.604E-07 0.604E-07
   0.482E-01 0.252E-03 -.252E-03   -.504E-01 -.196E-03 0.196E-03   0.408E-03 -.505E-04 0.505E-04   -.100E-05 0.924E-08 -.923E-08
   -.293E-01 -.112E-03 0.112E-03   0.283E-01 0.588E-04 -.588E-04   0.570E-03 0.968E-05 -.968E-05   0.575E-06 -.604E-07 0.604E-07
   -.490E-01 0.490E-14 0.844E-01   0.408E-01 -.622E-14 -.773E-01   0.140E-01 0.226E-20 -.139E-01   0.787E-07 0.121E-14 -.128E-05
   -.488E-01 -.304E-12 -.852E-01   0.405E-01 -.533E-14 0.779E-01   0.143E-01 -.911E-20 0.143E-01   -.670E-07 0.460E-15 0.126E-05
   0.439E-03 -.519E-14 0.744E-02   0.136E-02 -.444E-14 -.639E-02   -.952E-03 -.351E-20 -.547E-03   0.463E-06 -.179E-14 0.152E-05
   0.491E-03 -.418E-13 -.741E-02   0.123E-02 -.533E-14 0.640E-02   -.936E-03 -.956E-20 0.526E-03   0.172E-06 -.116E-14 -.163E-05
   -.490E-01 0.373E-14 -.844E-01   0.408E-01 -.666E-14 0.773E-01   0.140E-01 -.293E-20 0.139E-01   0.787E-07 0.269E-14 0.128E-05
   -.488E-01 0.905E-13 0.852E-01   0.405E-01 -.711E-14 -.779E-01   0.143E-01 -.147E-20 -.143E-01   -.670E-07 0.283E-14 -.126E-05
   0.439E-03 -.841E-14 -.744E-02   0.136E-02 -.622E-14 0.639E-02   -.952E-03 -.491E-20 0.547E-03   0.463E-06 -.325E-14 -.152E-05
   0.491E-03 0.141E-12 0.741E-02   0.123E-02 -.533E-14 -.640E-02   -.936E-03 0.112E-19 -.526E-03   0.172E-06 -.347E-14 0.163E-05
   -.490E-01 -.844E-01 0.526E-14   0.408E-01 0.773E-01 0.978E-14   0.140E-01 0.139E-01 0.647E-20   0.796E-07 0.128E-05 -.255E-13
   -.488E-01 0.852E-01 0.261E-13   0.405E-01 -.779E-01 0.489E-14   0.143E-01 -.143E-01 -.628E-20   -.661E-07 -.126E-05 -.237E-13
   -.490E-01 0.844E-01 -.145E-14   0.408E-01 -.773E-01 0.223E-14   0.140E-01 -.139E-01 -.123E-19   0.796E-07 -.128E-05 -.270E-13
   -.488E-01 -.852E-01 0.338E-13   0.405E-01 0.779E-01 -.222E-14   0.143E-01 0.143E-01 0.528E-20   -.661E-07 0.126E-05 -.260E-13
   0.439E-03 -.744E-02 -.791E-14   0.136E-02 0.639E-02 -.221E-14   -.952E-03 0.547E-03 -.293E-20   0.462E-06 -.152E-05 0.258E-13
   0.491E-03 0.741E-02 -.110E-12   0.123E-02 -.640E-02 0.222E-14   -.936E-03 -.526E-03 0.244E-20   0.172E-06 0.164E-05 0.241E-13
   0.439E-03 0.744E-02 -.396E-14   0.136E-02 -.639E-02 0.489E-14   -.952E-03 -.547E-03 -.396E-20   0.462E-06 0.152E-05 0.273E-13
   0.491E-03 -.741E-02 0.103E-12   0.123E-02 0.640E-02 0.932E-14   -.936E-03 0.526E-03 0.738E-21   0.172E-06 -.164E-05 0.264E-13
 -----------------------------------------------------------------------------------------------
   -.232E-05 0.422E-12 -.142E-07   0.212E-14 -.234E-13 0.206E-13   -.491E-05 0.347E-17 -.120E-17   0.477E-07 0.315E-16 -.273E-17
 
 
 POSITION                                       TOTAL-FORCE (eV/Angst)
 -----------------------------------------------------------------------------------
      2.02865      2.01865      0.00000        -0.044703      0.000000      0.000000
      6.05596      2.01865      0.00000         0.003515     -0.000000     -0.000000
      2.01865      6.05596      0.00000         0.000128      0.000000      0.000000
      6.05596      6.05596      0.00000        -0.000558     -0.000000      0.000000
      2.01865      2.01865      4.03731         0.000128      0.000000      0.000000
      6.05596      2.01865      4.03731        -0.000558      0.000000      0.000000
      2.01865      6.05596      4.03731        -0.001026      0.000000      0.000000
      6.05596      6.05596      4.03731        -0.001853      0.000000     -0.000000
      2.01865      0.00000      2.01865        -0.001809     -0.000005      0.000005
      6.05596      0.00000      2.01865        -0.000374      0.000044     -0.000044
      2.01865      4.03731      2.01865        -0.001809      0.000005      0.000005
      6.05596      4.03731      2.01865        -0.000374     -0.000044     -0.000044
      2.01865      0.00000      6.05596        -0.001809     -0.000005     -0.000005
      6.05596      0.00000      6.05596        -0.000374      0.000044      0.000044
      2.01865      4.03731      6.05596        -0.001809      0.000005     -0.000005
      6.05596      4.03731      6.05596        -0.000374     -0.000044      0.000044
      0.00000      2.01865      2.01865         0.005777     -0.000000     -0.006717
      4.03731      2.01865      2.01865         0.006001     -0.000000      0.006954
      0.00000      6.05596      2.01865         0.000848     -0.000000      0.000501
      4.03731      6.05596      2.01865         0.000788     -0.000000     -0.000481
      0.00000      2.01865      6.05596         0.005777      0.000000      0.006717
      4.03731      2.01865      6.05596         0.006001      0.000000     -0.006954
      0.00000      6.05596      6.05596         0.000848     -0.000000     -0.000501
      4.03731      6.05596      6.05596         0.000788     -0.000000      0.000481
      0.00000      0.00000      0.00000         0.005777      0.006717      0.000000
      4.03731      0.00000      0.00000         0.006001     -0.006954      0.000000
      0.00000      4.03731      0.00000         0.005777     -0.006717     -0.000000
      4.03731      4.03731      0.00000         0.006001      0.006954     -0.000000
      0.00000      0.00000      4.03731         0.000848     -0.000501      0.000000
      4.03731      0.00000      4.03731         0.000788      0.000481      0.000000
      0.00000      4.03731      4.03731         0.000848      0.000501      0.000000
      4.03731      4.03731      4.03731         0.000788     -0.000481      0.000000
 -----------------------------------------------------------------------------------
    total drift:                               -0.000007      0.000000     -0.000000


--------------------------------------------------------------------------------------------------------



 mean value of Nose-termostat <S>:     1.000 mean value of <T> :     0.000
 mean temperature <T/S>/<1/S>  :     0.000

     LOOP+:  VPU time  316.12: CPU time  316.95
  
  
 General timing and accounting informations for this job:
 ========================================================
  
                  Total CPU time used (sec):      321.573
                            User time (sec):      307.014
                          System time (sec):       14.559
                         Elapsed time (sec):      322.434
  
                   Maximum memory used (kb):      948356.
                   Average memory used (kb):           0.
  
                          Minor page faults:       222085
                          Major page faults:            0
                 Voluntary context switches:          864
