 running on    8 nodes
 distr:  one band on    1 nodes,    8 groups
 vasp.4.6.28 25Jul05 complex 
 POSCAR found :  1 types and   32 ions

 ----------------------------------------------------------------------------- 
|                                                                             |
|  ADVICE TO THIS USER RUNNING 'VASP/VAMP'   (HEAR YOUR MASTER'S VOICE ...):  |
|                                                                             |
|      You have a (more or less) 'large supercell' and for larger cells       |
|      it might be more efficient to use real space projection operators      |
|      So try LREAL= Auto  in the INCAR   file.                               |
|      Mind: If you want to do an extremely accurate calculations keep the    |
|      reciprocal projection scheme          (i.e. LREAL=.FALSE.)             |
|                                                                             |
 ----------------------------------------------------------------------------- 

 LDA part: xc-table for Pade appr. of Perdew
 generate k-points for:   6   6   6
 POSCAR, INCAR and KPOINTS ok, starting setup
 FFT: planning ...           1
 reading WAVECAR
 WARNING: random wavefunctions but no delay for mixing, default for NELMDL
 entering main loop
       N       E                     dE             d eps       ncg     rms          rms(c)
DAV:   1     0.127330692157E+03    0.12733E+03   -0.33126E+04  5760   0.105E+03
DAV:   2    -0.106776025224E+03   -0.23411E+03   -0.21734E+03  6808   0.142E+02
DAV:   3    -0.119785099147E+03   -0.13009E+02   -0.12423E+02  7160   0.269E+01
DAV:   4    -0.120019337533E+03   -0.23424E+00   -0.23246E+00  6680   0.380E+00
DAV:   5    -0.120022081464E+03   -0.27439E-02   -0.27419E-02  6768   0.479E-01    0.545E+00
DAV:   6    -0.119574510382E+03    0.44757E+00   -0.42651E-02  6600   0.639E-01    0.339E+00
DAV:   7    -0.119249485053E+03    0.32503E+00   -0.13031E-01  6248   0.104E+00    0.139E-01
DAV:   8    -0.119249694711E+03   -0.20966E-03   -0.11882E-03  6832   0.132E-01    0.497E-02
DAV:   9    -0.119249721815E+03   -0.27104E-04   -0.57655E-05  6568   0.207E-02    0.435E-03
DAV:  10    -0.119249722751E+03   -0.93567E-06   -0.37988E-06  6816   0.592E-03    0.210E-03
DAV:  11    -0.119249720351E+03    0.23999E-05   -0.24692E-07  6672   0.148E-03    0.810E-04
DAV:  12    -0.119249719298E+03    0.10529E-05   -0.21724E-08  4632   0.462E-04    0.137E-04
DAV:  13    -0.119249719149E+03    0.14886E-06   -0.28441E-09  3712   0.192E-04    0.347E-05
DAV:  14    -0.119249719137E+03    0.11796E-07   -0.49131E-10  3632   0.714E-05    0.910E-06
DAV:  15    -0.119249719147E+03   -0.91850E-08   -0.94232E-11  3560   0.357E-05
   1 F= -.11924972E+03 E0= -.11924891E+03  d E =-.161749E-02
