  32  32   0   0
  0.1548314E+02  0.7912912E-09  0.7912912E-09  0.7912912E-09  0.5000000E-15
  1.000000000000000E-004
  CAR 
 unknown system                          
     13.39785621     -3.67794016  301      8.68123476      1.00000000
     -3.678  0.0000E+00  0.0000E+00
     -3.621  0.0000E+00  0.0000E+00
     -3.564  0.0000E+00  0.0000E+00
     -3.507  0.0000E+00  0.0000E+00
     -3.450  0.0000E+00  0.0000E+00
     -3.393  0.0000E+00  0.0000E+00
     -3.336  0.0000E+00  0.0000E+00
     -3.280  0.0000E+00  0.0000E+00
     -3.223  0.0000E+00  0.0000E+00
     -3.166  0.0000E+00  0.0000E+00
     -3.109  0.0000E+00  0.0000E+00
     -3.052  0.0000E+00  0.0000E+00
     -2.995  0.0000E+00  0.0000E+00
     -2.938  0.2453E-07  0.1396E-08
     -2.881  0.1624E+00  0.9243E-02
     -2.824  0.9321E+00  0.6230E-01
     -2.767  0.1366E+01  0.1401E+00
     -2.710  0.9187E+00  0.1924E+00
     -2.653  0.1036E+01  0.2513E+00
     -2.596  0.9557E+00  0.3057E+00
     -2.540  0.3902E+01  0.5278E+00
     -2.483  0.3904E+01  0.7500E+00
     -2.426  0.8766E-11  0.7500E+00
     -2.369  0.1738E+01  0.8489E+00
     -2.312  0.2711E+01  0.1003E+01
     -2.255  0.2867E+01  0.1166E+01
     -2.198  0.3458E+01  0.1363E+01
     -2.141  0.3866E+01  0.1583E+01
     -2.084  0.1301E+01  0.1657E+01
     -2.027  0.3902E+01  0.1880E+01
     -1.970  0.7685E+01  0.2317E+01
     -1.913  0.1241E+00  0.2324E+01
     -1.857  0.4204E+00  0.2348E+01
     -1.800  0.1274E+01  0.2421E+01
     -1.743  0.7130E+01  0.2826E+01
     -1.686  0.5817E+01  0.3157E+01
     -1.629  0.3903E+01  0.3380E+01
     -1.572  0.3902E+01  0.3602E+01
     -1.515  0.7669E+01  0.4038E+01
     -1.458  0.3384E+01  0.4231E+01
     -1.401  0.6612E+00  0.4269E+01
     -1.344  0.4080E+00  0.4292E+01
     -1.287  0.3537E+01  0.4493E+01
     -1.230  0.4842E+01  0.4769E+01
     -1.173  0.1171E+02  0.5435E+01
     -1.117  0.5203E+01  0.5731E+01
     -1.060  0.1590E-02  0.5731E+01
     -1.003  0.1029E+02  0.6317E+01
     -0.946  0.5604E+01  0.6636E+01
     -0.889  0.3627E+01  0.6843E+01
     -0.832  0.3448E-01  0.6845E+01
     -0.775  0.1924E+01  0.6954E+01
     -0.718  0.7802E+01  0.7398E+01
     -0.661  0.7807E+01  0.7843E+01
     -0.604  0.7774E+01  0.8285E+01
     -0.547  0.4633E+01  0.8549E+01
     -0.490  0.3052E+01  0.8723E+01
     -0.434  0.4714E+01  0.8991E+01
     -0.377  0.8131E+01  0.9454E+01
     -0.320  0.2180E-01  0.9455E+01
     -0.263  0.3885E+01  0.9676E+01
     -0.206  0.1561E+02  0.1056E+02
     -0.149  0.7804E+01  0.1101E+02
     -0.092  0.3853E+01  0.1123E+02
     -0.035  0.3536E+01  0.1143E+02
      0.022  0.7164E+01  0.1184E+02
      0.079  0.6631E+01  0.1221E+02
      0.136  0.6148E+01  0.1256E+02
      0.193  0.2379E-02  0.1256E+02
      0.249  0.1300E+01  0.1264E+02
      0.306  0.8784E+01  0.1314E+02
      0.363  0.1365E+02  0.1392E+02
      0.420  0.7674E+01  0.1435E+02
      0.477  0.3527E+01  0.1455E+02
      0.534  0.7138E+01  0.1496E+02
      0.591  0.8395E+01  0.1544E+02
      0.648  0.1232E+02  0.1614E+02
      0.705  0.2163E-01  0.1614E+02
      0.762  0.7787E+01  0.1658E+02
      0.819  0.7808E+01  0.1703E+02
      0.876  0.3902E+01  0.1725E+02
      0.933  0.1157E+02  0.1791E+02
      0.989  0.1454E+00  0.1792E+02
      1.046  0.7387E+01  0.1834E+02
      1.103  0.8834E+01  0.1884E+02
      1.160  0.1111E+02  0.1947E+02
      1.217  0.1370E-01  0.1947E+02
      1.274  0.9711E+00  0.1953E+02
      1.331  0.1561E+02  0.2042E+02
      1.388  0.1561E+02  0.2131E+02
      1.445  0.3892E+01  0.2153E+02
      1.502  0.7582E+01  0.2196E+02
      1.559  0.1346E+02  0.2272E+02
      1.616  0.6064E+01  0.2307E+02
      1.672  0.4142E+01  0.2331E+02
      1.729  0.3209E+00  0.2332E+02
      1.786  0.5574E+01  0.2364E+02
      1.843  0.7775E+01  0.2408E+02
      1.900  0.1952E+02  0.2519E+02
      1.957  0.9106E+01  0.2571E+02
      2.014  0.3882E+01  0.2593E+02
      2.071  0.1505E+02  0.2679E+02
      2.128  0.6851E+01  0.2718E+02
      2.185  0.1548E+01  0.2727E+02
      2.242  0.9854E+00  0.2732E+02
      2.299  0.3956E+01  0.2755E+02
      2.356  0.1576E+02  0.2845E+02
      2.412  0.7633E+01  0.2888E+02
      2.469  0.1169E+02  0.2955E+02
      2.526  0.7808E+01  0.2999E+02
      2.583  0.7796E+01  0.3043E+02
      2.640  0.1924E+02  0.3153E+02
      2.697  0.2961E+00  0.3155E+02
      2.754  0.2671E+01  0.3170E+02
      2.811  0.1113E+02  0.3233E+02
      2.868  0.1704E+02  0.3330E+02
      2.925  0.1691E+02  0.3426E+02
      2.982  0.6904E+01  0.3466E+02
      3.039  0.2153E-02  0.3466E+02
      3.095  0.7808E+01  0.3510E+02
      3.152  0.1561E+02  0.3599E+02
      3.209  0.3733E-07  0.3599E+02
      3.266  0.3873E+01  0.3621E+02
      3.323  0.7706E+01  0.3665E+02
      3.380  0.1449E+02  0.3747E+02
      3.437  0.1044E+02  0.3807E+02
      3.494  0.5999E+01  0.3841E+02
      3.551  0.1037E+02  0.3900E+02
      3.608  0.2253E+02  0.4028E+02
      3.665  0.5606E+01  0.4060E+02
      3.722  0.3500E+00  0.4062E+02
      3.778  0.1152E+02  0.4128E+02
      3.835  0.1596E+02  0.4219E+02
      3.892  0.1185E+02  0.4286E+02
      3.949  0.1322E+02  0.4361E+02
      4.006  0.6305E+01  0.4397E+02
      4.063  0.1149E+02  0.4463E+02
      4.120  0.1358E+02  0.4540E+02
      4.177  0.2310E+01  0.4553E+02
      4.234  0.4504E+01  0.4579E+02
      4.291  0.6747E+01  0.4617E+02
      4.348  0.1624E+02  0.4710E+02
      4.405  0.8860E+01  0.4760E+02
      4.462  0.7328E+01  0.4802E+02
      4.518  0.3835E+01  0.4823E+02
      4.575  0.1950E+02  0.4934E+02
      4.632  0.1556E+02  0.5023E+02
      4.689  0.7602E+01  0.5066E+02
      4.746  0.1291E+02  0.5140E+02
      4.803  0.1163E+02  0.5206E+02
      4.860  0.6548E+01  0.5243E+02
      4.917  0.3282E+01  0.5262E+02
      4.974  0.5493E+01  0.5293E+02
      5.031  0.1846E+02  0.5398E+02
      5.088  0.1086E+02  0.5460E+02
      5.145  0.1791E+02  0.5562E+02
      5.201  0.2026E+00  0.5563E+02
      5.258  0.8474E+01  0.5611E+02
      5.315  0.1672E+02  0.5707E+02
      5.372  0.2339E+02  0.5840E+02
      5.429  0.1563E+02  0.5929E+02
      5.486  0.3868E+01  0.5951E+02
      5.543  0.7843E+01  0.5995E+02
      5.600  0.6724E+01  0.6034E+02
      5.657  0.5031E+01  0.6062E+02
      5.714  0.1399E+02  0.6142E+02
      5.771  0.2226E+02  0.6269E+02
      5.828  0.1304E+02  0.6343E+02
      5.885  0.8159E+01  0.6389E+02
      5.941  0.1812E+02  0.6492E+02
      5.998  0.8808E+01  0.6543E+02
      6.055  0.6374E+00  0.6546E+02
      6.112  0.1488E+02  0.6631E+02
      6.169  0.1225E+02  0.6701E+02
      6.226  0.7400E+01  0.6743E+02
      6.283  0.1182E+02  0.6810E+02
      6.340  0.1663E+02  0.6905E+02
      6.397  0.1825E+02  0.7009E+02
      6.454  0.9246E+00  0.7014E+02
      6.511  0.1212E+02  0.7083E+02
      6.568  0.7739E+01  0.7127E+02
      6.624  0.1723E+02  0.7225E+02
      6.681  0.1994E+01  0.7236E+02
      6.738  0.1932E+02  0.7346E+02
      6.795  0.7708E+01  0.7390E+02
      6.852  0.2415E+02  0.7528E+02
      6.909  0.1134E+02  0.7592E+02
      6.966  0.8212E+01  0.7639E+02
      7.023  0.2056E-07  0.7639E+02
      7.080  0.1053E+01  0.7645E+02
      7.137  0.1575E+02  0.7735E+02
      7.194  0.1175E+02  0.7801E+02
      7.251  0.9722E+01  0.7857E+02
      7.307  0.2236E+02  0.7984E+02
      7.364  0.1134E+02  0.8049E+02
      7.421  0.8554E+01  0.8097E+02
      7.478  0.3881E+01  0.8119E+02
      7.535  0.2665E+02  0.8271E+02
      7.592  0.4652E+01  0.8297E+02
      7.649  0.1806E+02  0.8400E+02
      7.706  0.1118E+02  0.8464E+02
      7.763  0.6579E+01  0.8501E+02
      7.820  0.1424E+02  0.8582E+02
      7.877  0.8561E+01  0.8631E+02
      7.934  0.1156E+02  0.8697E+02
      7.991  0.1847E+02  0.8802E+02
      8.047  0.1212E+02  0.8871E+02
      8.104  0.1228E+02  0.8941E+02
      8.161  0.3610E+01  0.8961E+02
      8.218  0.3354E+01  0.8981E+02
      8.275  0.3345E+01  0.9000E+02
      8.332  0.2035E+02  0.9115E+02
      8.389  0.1562E+02  0.9204E+02
      8.446  0.1338E+02  0.9281E+02
      8.503  0.1495E+02  0.9366E+02
      8.560  0.1543E+02  0.9453E+02
      8.617  0.2192E+02  0.9578E+02
      8.674  0.1018E+01  0.9584E+02
      8.730  0.2386E+02  0.9720E+02
      8.787  0.1941E+02  0.9830E+02
      8.844  0.4261E+01  0.9855E+02
      8.901  0.1141E+02  0.9919E+02
      8.958  0.2257E+01  0.9932E+02
      9.015  0.1764E+02  0.1003E+03
      9.072  0.5460E+01  0.1006E+03
      9.129  0.1111E+02  0.1013E+03
      9.186  0.1102E+02  0.1019E+03
      9.243  0.1222E+02  0.1026E+03
      9.300  0.2132E+02  0.1038E+03
      9.357  0.1214E+02  0.1045E+03
      9.414  0.7704E+01  0.1049E+03
      9.470  0.9751E+01  0.1055E+03
      9.527  0.9323E+01  0.1060E+03
      9.584  0.7158E+01  0.1064E+03
      9.641  0.2104E+02  0.1076E+03
      9.698  0.2765E+02  0.1092E+03
      9.755  0.1213E+02  0.1099E+03
      9.812  0.1732E+02  0.1109E+03
      9.869  0.6662E+01  0.1113E+03
      9.926  0.2710E+02  0.1128E+03
      9.983  0.9010E+01  0.1133E+03
     10.040  0.1116E+02  0.1139E+03
     10.097  0.2455E+01  0.1141E+03
     10.153  0.1386E+02  0.1149E+03
     10.210  0.2073E+02  0.1161E+03
     10.267  0.7665E+01  0.1165E+03
     10.324  0.2703E+01  0.1166E+03
     10.381  0.1318E+02  0.1174E+03
     10.438  0.1856E+02  0.1185E+03
     10.495  0.1420E+02  0.1193E+03
     10.552  0.1195E+02  0.1199E+03
     10.609  0.4017E+01  0.1202E+03
     10.666  0.2664E+02  0.1217E+03
     10.723  0.2779E+02  0.1233E+03
     10.780  0.1693E+00  0.1233E+03
     10.836  0.1510E+02  0.1241E+03
     10.893  0.2639E+02  0.1256E+03
     10.950  0.9356E+01  0.1262E+03
     11.007  0.1033E+02  0.1268E+03
     11.064  0.1700E+00  0.1268E+03
     11.121  0.1026E+02  0.1274E+03
     11.178  0.1100E+02  0.1280E+03
     11.235  0.2335E+02  0.1293E+03
     11.292  0.2963E+01  0.1295E+03
     11.349  0.1661E+02  0.1304E+03
     11.406  0.1716E+02  0.1314E+03
     11.463  0.2609E+02  0.1329E+03
     11.520  0.2855E+01  0.1330E+03
     11.576  0.1515E+02  0.1339E+03
     11.633  0.1614E+02  0.1348E+03
     11.690  0.6311E+01  0.1352E+03
     11.747  0.3029E+02  0.1369E+03
     11.804  0.1104E+02  0.1375E+03
     11.861  0.1917E+02  0.1386E+03
     11.918  0.4274E+01  0.1389E+03
     11.975  0.1316E+02  0.1396E+03
     12.032  0.3799E+01  0.1398E+03
     12.089  0.1352E+02  0.1406E+03
     12.146  0.1360E+02  0.1414E+03
     12.203  0.1640E+02  0.1423E+03
     12.259  0.7611E+01  0.1427E+03
     12.316  0.1900E+00  0.1428E+03
     12.373  0.1170E+02  0.1434E+03
     12.430  0.3663E+00  0.1434E+03
     12.487  0.3579E+01  0.1437E+03
     12.544  0.1266E+01  0.1437E+03
     12.601  0.3030E+01  0.1439E+03
     12.658  0.1850E+01  0.1440E+03
     12.715  0.0000E+00  0.1440E+03
     12.772  0.0000E+00  0.1440E+03
     12.829  0.0000E+00  0.1440E+03
     12.886  0.0000E+00  0.1440E+03
     12.943  0.0000E+00  0.1440E+03
     12.999  0.0000E+00  0.1440E+03
     13.056  0.0000E+00  0.1440E+03
     13.113  0.0000E+00  0.1440E+03
     13.170  0.0000E+00  0.1440E+03
     13.227  0.0000E+00  0.1440E+03
     13.284  0.0000E+00  0.1440E+03
     13.341  0.0000E+00  0.1440E+03
     13.398  0.0000E+00  0.1440E+03
