   32   32    1    1
  0.1548314E+02  0.7912912E-09  0.7912912E-09  0.7912912E-09  0.5000000E-15
  1.000000000000000E-004
  CAR 
 unknown system                          
   96   40   72
 
  0.0000000E+00  0.0000000E+00  0.0000000E+00  0.4629630E-02
   1       -2.9018
   2       -0.5629
   3       -0.5589
   4       -0.5589
   5       -0.5589
   6       -0.5589
   7       -0.5550
   8        1.7363
   9        1.7407
  10        1.7407
  11        1.7426
  12        1.7427
  13        1.7427
  14        1.7427
  15        1.7427
  16        1.7429
  17        1.7447
  18        1.7447
  19        1.7492
  20        3.8301
  21        3.8301
  22        3.8301
  23        3.8301
  24        4.2118
  25        4.2118
  26        4.2118
  27        4.2118
  28        5.6018
  29        5.6018
  30        5.6018
  31        7.0608
  32        7.0608
  33        7.0608
  34        7.7481
  35        7.7481
  36        7.7526
  37        7.7526
  38        7.7528
  39        7.7528
  40        7.7528
  41        7.7528
  42        7.7530
  43        7.7530
  44        7.7575
  45        7.7575
  46        8.7303
  47        8.7347
  48        8.7347
  49        8.7347
  50        8.7347
  51        8.7391
  52        9.9093
  53        9.9093
  54        9.9108
  55        9.9133
  56        9.9135
  57        9.9135
  58        9.9135
  59        9.9135
  60        9.9137
  61        9.9163
  62        9.9177
  63        9.9177
  64       10.1490
  65       10.1502
  66       10.1503
  67       10.1503
  68       10.1503
  69       10.1515
  70       11.6267
  71       11.6289
  72       11.6298
 
  0.1666667E+00  0.0000000E+00  0.0000000E+00  0.9259259E-02
   1       -2.8361
   2       -1.2703
   3       -0.4945
   4       -0.4945
   5       -0.4945
   6       -0.4945
   7        0.2764
   8        1.0439
   9        1.0439
  10        1.0439
  11        1.0439
  12        1.8061
  13        1.8061
  14        1.8061
  15        1.8061
  16        2.5632
  17        2.5632
  18        2.5632
  19        2.5632
  20        3.3064
  21        3.3064
  22        3.3064
  23        3.3064
  24        4.7247
  25        4.8564
  26        4.8564
  27        4.8564
  28        4.8564
  29        5.6614
  30        5.6614
  31        6.8998
  32        6.8998
  33        6.8999
  34        6.8999
  35        7.0945
  36        7.0945
  37        7.1229
  38        7.1229
  39        7.8127
  40        7.8127
  41        7.8127
  42        7.8127
  43        8.0499
  44        8.4674
  45        8.4674
  46        8.5317
  47        8.5317
  48        9.1319
  49        9.1319
  50        9.1319
  51        9.1319
  52        9.2212
  53        9.2212
  54        9.2213
  55        9.2214
  56        9.2526
  57        9.2526
  58        9.2528
  59        9.2528
  60       10.5287
  61       10.5287
  62       10.6893
  63       10.6893
  64       10.6899
  65       10.6899
  66       10.6951
  67       10.6951
  68       10.6957
  69       10.6957
  70       10.9596
  71       10.9596
  72       10.9596
 
  0.3333333E+00  0.0000000E+00  0.0000000E+00  0.9259259E-02
   1       -2.6394
   2       -1.8553
   3       -0.3012
   4       -0.3012
   5       -0.3012
   6       -0.3012
   7        0.4691
   8        0.4691
   9        0.4691
  10        0.4691
  11        1.2327
  12        1.9959
  13        1.9959
  14        1.9959
  15        1.9959
  16        2.7505
  17        2.7505
  18        2.7505
  19        2.7505
  20        3.4822
  21        3.5015
  22        3.5015
  23        3.5015
  24        3.5015
  25        5.6992
  26        5.6992
  27        5.6992
  28        5.6992
  29        5.7737
  30        5.7737
  31        5.7738
  32        5.7738
  33        5.8403
  34        5.8403
  35        6.5565
  36        6.5565
  37        7.3077
  38        7.3077
  39        7.9480
  40        7.9480
  41        7.9481
  42        7.9481
  43        7.9925
  44        7.9926
  45        7.9926
  46        7.9926
  47        8.0136
  48        8.0137
  49        8.7123
  50        8.7123
  51        8.7123
  52        8.7123
  53        9.4315
  54        9.4315
  55        9.5898
  56        9.5898
  57        9.5898
  58        9.5898
  59        9.6287
  60       10.3996
  61       10.3996
  62       10.3996
  63       10.3996
  64       11.3117
  65       11.3118
  66       11.5913
  67       11.5913
  68       11.5976
  69       11.5976
  70       11.5978
  71       11.5978
  72       12.0399
 
  0.5000000E+00  0.0000000E+00  0.0000000E+00  0.4629630E-02
   1       -2.3136
   2       -2.3106
   3        0.0161
   4        0.0194
   5        0.0194
   6        0.0203
   7        0.0203
   8        0.0212
   9        0.0212
  10        0.0244
  11        2.3026
  12        2.3049
  13        2.3097
  14        2.3101
  15        2.3101
  16        2.3109
  17        2.3118
  18        2.3126
  19        2.3126
  20        2.3152
  21        4.5505
  22        4.5505
  23        4.5509
  24        4.5512
  25        4.5515
  26        4.5518
  27        4.5522
  28        4.5522
  29        6.1369
  30        6.1369
  31        6.1402
  32        6.1402
  33        6.8099
  34        6.8099
  35        6.8102
  36        6.8108
  37        6.8108
  38        6.8113
  39        6.8117
  40        6.8117
  41        7.6076
  42        7.6088
  43        7.6105
  44        7.6117
  45        8.2899
  46        8.2899
  47        8.2908
  48        8.2923
  49        8.2924
  50        8.2939
  51        8.2948
  52        8.2948
  53        9.9465
  54        9.9474
  55        9.9474
  56        9.9476
  57        9.9499
  58        9.9501
  59        9.9501
  60        9.9510
  61       10.4508
  62       10.4508
  63       10.4530
  64       10.4530
  65       11.3653
  66       11.3665
  67       12.2464
  68       12.2466
  69       12.2483
  70       12.2485
  71       12.6204
  72       12.6217
 
  0.0000000E+00  0.1666667E+00  0.0000000E+00  0.1851852E-01
   1       -2.8361
   2       -1.2703
   3       -0.4975
   4       -0.4945
   5       -0.4945
   6       -0.4915
   7        0.2764
   8        1.0408
   9        1.0439
  10        1.0439
  11        1.0469
  12        1.8039
  13        1.8048
  14        1.8073
  15        1.8082
  16        2.5601
  17        2.5632
  18        2.5632
  19        2.5662
  20        3.3043
  21        3.3052
  22        3.3076
  23        3.3085
  24        4.7247
  25        4.8542
  26        4.8551
  27        4.8576
  28        4.8585
  29        5.6614
  30        5.6614
  31        6.8965
  32        6.8999
  33        6.8999
  34        6.9031
  35        7.0945
  36        7.0945
  37        7.1229
  38        7.1229
  39        7.8099
  40        7.8127
  41        7.8127
  42        7.8156
  43        8.0499
  44        8.4674
  45        8.4674
  46        8.5317
  47        8.5317
  48        9.1293
  49        9.1306
  50        9.1332
  51        9.1345
  52        9.2185
  53        9.2213
  54        9.2213
  55        9.2240
  56        9.2497
  57        9.2526
  58        9.2527
  59        9.2556
  60       10.5287
  61       10.5287
  62       10.6881
  63       10.6889
  64       10.6898
  65       10.6914
  66       10.6929
  67       10.6952
  68       10.6955
  69       10.6984
  70       10.9575
  71       10.9596
  72       10.9603
 
  0.1666667E+00  0.1666667E+00  0.0000000E+00  0.3703704E-01
   1       -2.7705
   2       -1.2067
   3       -1.2042
   4       -0.4300
   5       -0.4300
   6        0.3387
   7        0.3408
   8        0.3426
   9        1.1058
  10        1.1068
  11        1.1084
  12        1.1093
  13        1.8685
  14        1.8694
  15        2.6232
  16        2.6242
  17        2.6256
  18        2.6257
  19        2.6271
  20        2.6283
  21        3.3778
  22        3.9510
  23        3.9510
  24        4.3392
  25        4.3392
  26        4.7856
  27        4.7864
  28        5.6519
  29        5.6519
  30        5.7210
  31        6.2430
  32        6.2455
  33        6.8185
  34        6.8185
  35        7.1430
  36        7.1432
  37        7.1530
  38        7.1559
  39        7.1843
  40        7.6305
  41        7.6326
  42        8.1095
  43        8.1104
  44        8.4632
  45        8.4642
  46        8.4657
  47        8.4668
  48        8.5895
  49        8.5920
  50        8.5943
  51        8.7612
  52        8.7629
  53        9.3145
  54        9.3172
  55        9.9130
  56        9.9141
  57        9.9174
  58        9.9179
  59        9.9184
  60        9.9199
  61       10.0328
  62       10.0346
  63       10.2889
  64       10.7036
  65       10.7043
  66       10.9807
  67       10.9807
  68       11.3051
  69       11.3074
  70       11.4772
  71       11.7365
  72       11.7365
 
  0.3333333E+00  0.1666667E+00  0.0000000E+00  0.3703704E-01
   1       -2.5738
   2       -1.7902
   3       -1.0112
   4       -0.2382
   5       -0.2368
   6       -0.2353
   7        0.5313
   8        0.5331
   9        0.5343
  10        1.2950
  11        1.2980
  12        1.2985
  13        1.2997
  14        2.0591
  15        2.0591
  16        2.8126
  17        2.8141
  18        2.8144
  19        3.5443
  20        3.5546
  21        3.5546
  22        3.5635
  23        3.5637
  24        4.3087
  25        4.9693
  26        5.0285
  27        5.1035
  28        5.1035
  29        5.7003
  30        5.7513
  31        5.7514
  32        5.8999
  33        6.4771
  34        6.5726
  35        6.5726
  36        6.6163
  37        7.1972
  38        7.1973
  39        7.2763
  40        7.2763
  41        7.3339
  42        7.3659
  43        7.9185
  44        7.9186
  45        7.9745
  46        8.0527
  47        8.2883
  48        8.7396
  49        8.7397
  50        8.7719
  51        8.8091
  52        8.9571
  53        8.9738
  54        9.4904
  55        9.4939
  56        9.6858
  57        9.7321
  58       10.2093
  59       10.4686
  60       10.4686
  61       10.8210
  62       10.8212
  63       10.8276
  64       10.9356
  65       11.1709
  66       11.3018
  67       11.3018
  68       11.3975
  69       11.5454
  70       11.6521
  71       12.1367
  72       12.1392
 
  0.5000000E+00  0.1666667E+00  0.0000000E+00  0.1851852E-01
   1       -2.2482
   2       -2.2452
   3       -0.6894
   4       -0.6864
   5        0.0824
   6        0.0836
   7        0.0854
   8        0.0866
   9        0.8505
  10        0.8535
  11        1.6140
  12        1.6152
  13        1.6170
  14        1.6182
  15        2.3673
  16        2.3684
  17        3.1237
  18        3.1250
  19        3.1267
  20        3.1280
  21        3.8696
  22        3.8708
  23        4.6105
  24        4.6110
  25        4.6116
  26        4.6121
  27        5.2730
  28        5.2761
  29        5.3474
  30        5.3485
  31        6.1357
  32        6.1360
  33        6.1370
  34        6.1371
  35        6.1967
  36        6.1999
  37        7.4921
  38        7.4934
  39        7.4953
  40        7.4965
  41        7.6060
  42        7.6063
  43        7.6073
  44        7.6075
  45        7.6317
  46        7.6350
  47        7.6547
  48        7.6576
  49        8.5767
  50        8.5798
  51        9.0705
  52        9.0738
  53        9.2918
  54        9.2948
  55        9.7227
  56        9.7244
  57       10.5111
  58       10.5133
  59       10.6922
  60       10.6955
  61       10.8494
  62       10.8501
  63       10.8526
  64       10.8533
  65       11.4172
  66       11.4183
  67       11.8366
  68       11.8367
  69       11.8383
  70       11.8384
  71       11.9573
  72       11.9596
 
  0.0000000E+00  0.3333333E+00  0.0000000E+00  0.1851852E-01
   1       -2.6394
   2       -1.8553
   3       -0.3042
   4       -0.3012
   5       -0.3012
   6       -0.2982
   7        0.4661
   8        0.4691
   9        0.4691
  10        0.4721
  11        1.2326
  12        1.9937
  13        1.9946
  14        1.9971
  15        1.9980
  16        2.7483
  17        2.7492
  18        2.7517
  19        2.7526
  20        3.4822
  21        3.4984
  22        3.5015
  23        3.5015
  24        3.5046
  25        5.6960
  26        5.6992
  27        5.6992
  28        5.7024
  29        5.7715
  30        5.7725
  31        5.7750
  32        5.7760
  33        5.8403
  34        5.8403
  35        6.5565
  36        6.5566
  37        7.3077
  38        7.3077
  39        7.9457
  40        7.9468
  41        7.9494
  42        7.9505
  43        7.9897
  44        7.9924
  45        7.9925
  46        7.9954
  47        8.0136
  48        8.0138
  49        8.7094
  50        8.7123
  51        8.7123
  52        8.7152
  53        9.4314
  54        9.4315
  55        9.5873
  56        9.5898
  57        9.5898
  58        9.5923
  59        9.6287
  60       10.3971
  61       10.3996
  62       10.3996
  63       10.4020
  64       11.3117
  65       11.3117
  66       11.5916
  67       11.5916
  68       11.5946
  69       11.5976
  70       11.5976
  71       11.6006
  72       12.0397
 
  0.1666667E+00  0.3333333E+00  0.0000000E+00  0.3703704E-01
   1       -2.5738
   2       -1.7902
   3       -1.0112
   4       -0.2382
   5       -0.2368
   6       -0.2353
   7        0.5313
   8        0.5331
   9        0.5343
  10        1.2952
  11        1.2974
  12        1.2985
  13        1.3001
  14        2.0591
  15        2.0591
  16        2.8120
  17        2.8141
  18        2.8150
  19        3.5443
  20        3.5547
  21        3.5548
  22        3.5634
  23        3.5635
  24        4.3087
  25        4.9694
  26        5.0284
  27        5.1035
  28        5.1035
  29        5.7003
  30        5.7514
  31        5.7514
  32        5.8999
  33        6.4771
  34        6.5726
  35        6.5726
  36        6.6163
  37        7.1973
  38        7.1973
  39        7.2763
  40        7.2763
  41        7.3339
  42        7.3659
  43        7.9185
  44        7.9185
  45        7.9746
  46        8.0527
  47        8.2883
  48        8.7397
  49        8.7397
  50        8.7718
  51        8.8091
  52        8.9571
  53        8.9739
  54        9.4911
  55        9.4931
  56        9.6858
  57        9.7320
  58       10.2093
  59       10.4686
  60       10.4686
  61       10.8211
  62       10.8212
  63       10.8275
  64       10.9356
  65       11.1709
  66       11.3018
  67       11.3018
  68       11.3975
  69       11.5454
  70       11.6521
  71       12.1367
  72       12.1375
 
  0.3333333E+00  0.3333333E+00  0.0000000E+00  0.3703704E-01
   1       -2.3775
   2       -1.5962
   3       -1.5937
   4       -0.8171
   5       -0.0439
   6       -0.0439
   7        0.7232
   8        0.7242
   9        0.7257
  10        0.7267
  11        1.4852
  12        1.4876
  13        1.4892
  14        1.4901
  15        2.2459
  16        2.2468
  17        3.7306
  18        3.7315
  19        3.7466
  20        3.7474
  21        3.7491
  22        3.7501
  23        4.3135
  24        4.3135
  25        4.4734
  26        4.4759
  27        4.7187
  28        4.7187
  29        5.2288
  30        5.7580
  31        5.7580
  32        6.0789
  33        6.1777
  34        6.1777
  35        6.7255
  36        6.7265
  37        6.7281
  38        6.7292
  39        6.7942
  40        6.7971
  41        7.3112
  42        7.3134
  43        7.4903
  44        7.4903
  45        7.5136
  46        7.5318
  47        8.5056
  48        8.5069
  49        9.1808
  50        9.6465
  51        9.6474
  52        9.6478
  53        9.6488
  54        9.6707
  55        9.6736
  56        9.6850
  57        9.8532
  58        9.8544
  59       10.3787
  60       10.3814
  61       10.3931
  62       10.3949
  63       11.7088
  64       11.7088
  65       11.7181
  66       11.7188
  67       11.7852
  68       11.7853
  69       11.8326
  70       11.8345
  71       12.0223
  72       12.0227
 
  0.5000000E+00  0.3333333E+00  0.0000000E+00  0.1851852E-01
   1       -2.0524
   2       -2.0494
   3       -1.2718
   4       -1.2688
   5        0.2749
   6        0.2761
   7        0.2779
   8        0.2791
   9        1.0419
  10        1.0431
  11        1.0449
  12        1.0461
  13        1.8023
  14        1.8054
  15        2.5561
  16        2.5572
  17        3.3086
  18        3.3097
  19        4.0401
  20        4.0431
  21        4.0470
  22        4.0485
  23        4.0500
  24        4.0515
  25        4.7845
  26        4.7852
  27        4.7855
  28        4.7862
  29        5.5923
  30        5.5924
  31        5.5934
  32        5.5935
  33        6.2478
  34        6.2488
  35        6.3076
  36        6.3086
  37        6.3106
  38        6.3116
  39        6.3758
  40        6.3790
  41        7.0930
  42        7.0963
  43        7.7228
  44        7.7251
  45        8.5193
  46        8.5195
  47        8.5206
  48        8.5208
  49        8.6846
  50        8.6854
  51        8.7569
  52        8.7597
  53        9.9712
  54        9.9745
  55       10.1137
  56       10.1167
  57       10.6661
  58       10.6662
  59       10.6676
  60       10.6677
  61       10.6920
  62       10.6941
  63       11.4151
  64       11.4174
  65       11.4301
  66       11.4332
  67       11.5616
  68       11.5623
  69       12.1340
  70       12.1374
  71       12.3366
  72       12.3396
 
  0.0000000E+00  0.5000000E+00  0.0000000E+00  0.9259259E-02
   1       -2.3121
   2       -2.3121
   3        0.0148
   4        0.0197
   5        0.0203
   6        0.0203
   7        0.0203
   8        0.0203
   9        0.0209
  10        0.0257
  11        2.3033
  12        2.3046
  13        2.3086
  14        2.3091
  15        2.3109
  16        2.3111
  17        2.3116
  18        2.3120
  19        2.3136
  20        2.3156
  21        4.5479
  22        4.5485
  23        4.5513
  24        4.5513
  25        4.5513
  26        4.5513
  27        4.5542
  28        4.5548
  29        6.1385
  30        6.1386
  31        6.1386
  32        6.1386
  33        6.8077
  34        6.8094
  35        6.8094
  36        6.8096
  37        6.8120
  38        6.8122
  39        6.8122
  40        6.8139
  41        7.6096
  42        7.6097
  43        7.6097
  44        7.6097
  45        8.2871
  46        8.2918
  47        8.2923
  48        8.2923
  49        8.2923
  50        8.2924
  51        8.2928
  52        8.2976
  53        9.9444
  54        9.9482
  55        9.9488
  56        9.9488
  57        9.9488
  58        9.9488
  59        9.9494
  60        9.9531
  61       10.4519
  62       10.4519
  63       10.4519
  64       10.4519
  65       11.3659
  66       11.3659
  67       12.2474
  68       12.2474
  69       12.2475
  70       12.2475
  71       12.6204
  72       12.6207
 
  0.1666667E+00  0.5000000E+00  0.0000000E+00  0.1851852E-01
   1       -2.2467
   2       -2.2467
   3       -0.6879
   4       -0.6879
   5        0.0845
   6        0.0845
   7        0.0845
   8        0.0845
   9        0.8520
  10        0.8520
  11        1.6161
  12        1.6161
  13        1.6161
  14        1.6161
  15        2.3678
  16        2.3678
  17        3.1259
  18        3.1259
  19        3.1259
  20        3.1259
  21        3.8702
  22        3.8702
  23        4.6113
  24        4.6113
  25        4.6113
  26        4.6113
  27        5.2746
  28        5.2746
  29        5.3479
  30        5.3479
  31        6.1364
  32        6.1365
  33        6.1365
  34        6.1365
  35        6.1983
  36        6.1983
  37        7.4943
  38        7.4943
  39        7.4943
  40        7.4944
  41        7.6067
  42        7.6068
  43        7.6068
  44        7.6068
  45        7.6333
  46        7.6335
  47        7.6561
  48        7.6561
  49        8.5782
  50        8.5783
  51        9.0721
  52        9.0721
  53        9.2933
  54        9.2933
  55        9.7236
  56        9.7236
  57       10.5122
  58       10.5122
  59       10.6938
  60       10.6938
  61       10.8513
  62       10.8513
  63       10.8514
  64       10.8514
  65       11.4177
  66       11.4178
  67       11.8375
  68       11.8375
  69       11.8375
  70       11.8375
  71       11.9584
  72       11.9584
 
  0.3333333E+00  0.5000000E+00  0.0000000E+00  0.1851852E-01
   1       -2.0509
   2       -2.0509
   3       -1.2703
   4       -1.2703
   5        0.2769
   6        0.2770
   7        0.2770
   8        0.2770
   9        1.0440
  10        1.0440
  11        1.0440
  12        1.0440
  13        1.8039
  14        1.8039
  15        2.5567
  16        2.5567
  17        3.3091
  18        3.3091
  19        4.0416
  20        4.0416
  21        4.0492
  22        4.0492
  23        4.0493
  24        4.0493
  25        4.7853
  26        4.7853
  27        4.7853
  28        4.7853
  29        5.5929
  30        5.5929
  31        5.5929
  32        5.5929
  33        6.2483
  34        6.2483
  35        6.3095
  36        6.3096
  37        6.3096
  38        6.3096
  39        6.3774
  40        6.3775
  41        7.0946
  42        7.0946
  43        7.7239
  44        7.7239
  45        8.5200
  46        8.5200
  47        8.5200
  48        8.5200
  49        8.6850
  50        8.6850
  51        8.7583
  52        8.7583
  53        9.9728
  54        9.9728
  55       10.1152
  56       10.1152
  57       10.6668
  58       10.6668
  59       10.6669
  60       10.6669
  61       10.6931
  62       10.6932
  63       11.4162
  64       11.4162
  65       11.4316
  66       11.4316
  67       11.5620
  68       11.5620
  69       12.1357
  70       12.1357
  71       12.3383
  72       12.3384
 
  0.5000000E+00  0.5000000E+00  0.0000000E+00  0.9259259E-02
   1       -1.7278
   2       -1.7253
   3       -1.7248
   4       -1.7223
   5        0.5933
   6        0.5955
   7        0.5968
   8        0.5970
   9        0.5972
  10        0.5975
  11        0.5988
  12        0.6009
  13        2.8668
  14        2.8686
  15        2.8703
  16        2.8708
  17        2.8708
  18        2.8712
  19        2.8730
  20        2.8748
  21        4.9139
  22        4.9155
  23        4.9163
  24        4.9169
  25        4.9169
  26        4.9176
  27        4.9183
  28        4.9200
  29        5.3379
  30        5.3383
  31        5.3391
  32        5.3401
  33        5.3402
  34        5.3412
  35        5.3420
  36        5.3424
  37        6.6731
  38        6.6759
  39        6.6763
  40        6.6791
  41        7.1973
  42        7.1978
  43        7.1995
  44        7.2000
  45        8.3990
  46        8.4002
  47        8.4011
  48        8.4024
  49        9.5427
  50        9.5435
  51        9.5438
  52        9.5438
  53        9.5451
  54        9.5451
  55        9.5454
  56        9.5462
  57       10.9886
  58       10.9924
  59       10.9940
  60       10.9944
  61       10.9944
  62       10.9948
  63       10.9965
  64       11.0002
  65       11.7115
  66       11.7133
  67       11.7150
  68       11.7151
  69       11.7154
  70       11.7155
  71       11.7172
  72       11.7190
 
  0.0000000E+00  0.1666667E+00  0.1666667E+00  0.1851852E-01
   1       -2.7705
   2       -1.2055
   3       -1.2055
   4       -0.4317
   5       -0.4283
   6        0.3405
   7        0.3405
   8        0.3412
   9        1.1049
  10        1.1069
  11        1.1083
  12        1.1103
  13        1.8689
  14        1.8689
  15        2.6229
  16        2.6238
  17        2.6253
  18        2.6266
  19        2.6267
  20        2.6288
  21        3.3778
  22        3.9510
  23        3.9510
  24        4.3392
  25        4.3393
  26        4.7859
  27        4.7860
  28        5.6501
  29        5.6536
  30        5.7210
  31        6.2442
  32        6.2443
  33        6.8185
  34        6.8185
  35        7.1430
  36        7.1432
  37        7.1543
  38        7.1545
  39        7.1843
  40        7.6316
  41        7.6316
  42        8.1099
  43        8.1099
  44        8.4620
  45        8.4641
  46        8.4658
  47        8.4679
  48        8.5917
  49        8.5917
  50        8.5924
  51        8.7620
  52        8.7621
  53        9.3158
  54        9.3158
  55        9.9141
  56        9.9142
  57        9.9159
  58        9.9164
  59        9.9196
  60        9.9203
  61       10.0337
  62       10.0337
  63       10.2889
  64       10.7040
  65       10.7040
  66       10.9807
  67       10.9807
  68       11.3062
  69       11.3063
  70       11.4773
  71       11.7365
  72       11.7368
 
  0.1666667E+00  0.1666667E+00  0.1666667E+00  0.3703704E-01
   1       -2.7049
   2       -1.1425
   3       -1.1407
   4       -1.1389
   5        0.4012
   6        0.4043
   7        0.4045
   8        0.4053
   9        0.4054
  10        0.4085
  11        1.9289
  12        1.9310
  13        1.9318
  14        1.9322
  15        1.9330
  16        1.9335
  17        1.9358
  18        3.4296
  19        3.4303
  20        3.4309
  21        3.4383
  22        3.4400
  23        3.4419
  24        4.8465
  25        4.8471
  26        4.8477
  27        4.9799
  28        4.9806
  29        4.9812
  30        6.2953
  31        6.2968
  32        6.2982
  33        6.2982
  34        6.2997
  35        6.3012
  36        6.4517
  37        7.7695
  38        7.7698
  39        7.7715
  40        7.7715
  41        7.7731
  42        7.7735
  43        7.7965
  44        7.7983
  45        7.8001
  46        8.1683
  47        8.1689
  48        8.1696
  49        9.2493
  50        9.2502
  51        9.2514
  52        9.2514
  53        9.2527
  54        9.2536
  55        9.6106
  56        9.6119
  57        9.6130
  58        9.6130
  59        9.6141
  60        9.6154
  61       10.7021
  62       10.7032
  63       10.7042
  64       11.1928
  65       11.1938
  66       11.1948
  67       11.4032
  68       11.4036
  69       11.4048
  70       11.4048
  71       11.4060
  72       11.4065
 
  0.3333333E+00  0.1666667E+00  0.1666667E+00  0.3703704E-01
   1       -2.5084
   2       -1.7251
   3       -0.9465
   4       -0.9464
   5       -0.1724
   6       -0.1723
   7        0.5965
   8        0.5965
   9        0.5973
  10        1.3585
  11        1.3615
  12        1.3621
  13        1.3631
  14        2.1218
  15        2.1218
  16        2.8739
  17        2.8745
  18        2.8765
  19        2.8771
  20        3.6067
  21        3.6251
  22        4.1927
  23        4.3689
  24        4.3689
  25        4.5927
  26        5.0303
  27        5.0304
  28        5.0880
  29        5.0881
  30        5.7596
  31        5.7596
  32        5.8966
  33        5.8966
  34        6.3474
  35        6.3474
  36        6.6054
  37        6.7233
  38        6.7233
  39        7.2535
  40        7.2535
  41        7.3704
  42        7.9695
  43        7.9695
  44        8.0686
  45        8.0686
  46        8.3423
  47        8.3423
  48        8.5617
  49        8.5618
  50        8.7045
  51        8.7045
  52        9.2414
  53        9.2415
  54        9.5295
  55        9.7400
  56        9.8781
  57        9.8781
  58       10.1552
  59       10.1552
  60       10.6435
  61       10.6435
  62       10.8725
  63       10.8725
  64       10.8924
  65       10.8924
  66       11.6049
  67       11.6049
  68       11.8562
  69       11.8562
  70       12.0609
  71       12.0609
  72       12.2246
 
  0.5000000E+00  0.1666667E+00  0.1666667E+00  0.1851852E-01
   1       -2.1829
   2       -2.1799
   3       -0.6259
   4       -0.6238
   5       -0.6229
   6       -0.6208
   7        0.9130
   8        0.9153
   9        0.9154
  10        0.9162
  11        0.9175
  12        0.9189
  13        2.4294
  14        2.4310
  15        2.4356
  16        2.4358
  17        2.4382
  18        2.4392
  19        3.9251
  20        3.9280
  21        3.9314
  22        3.9314
  23        3.9323
  24        3.9326
  25        5.3334
  26        5.3337
  27        5.3365
  28        5.3368
  29        5.3994
  30        5.3996
  31        5.4004
  32        5.4006
  33        5.4688
  34        5.4699
  35        6.8355
  36        6.8376
  37        6.8385
  38        6.8407
  39        6.9315
  40        6.9322
  41        6.9328
  42        6.9334
  43        8.2755
  44        8.2763
  45        8.2787
  46        8.2795
  47        8.4003
  48        8.4016
  49        8.6033
  50        8.6040
  51        8.6061
  52        8.6069
  53        9.8063
  54        9.8068
  55        9.8078
  56        9.8084
  57       10.2050
  58       10.2060
  59       10.2081
  60       10.2091
  61       11.1709
  62       11.1715
  63       11.1726
  64       11.1732
  65       11.4537
  66       11.4545
  67       11.5619
  68       11.5642
  69       11.5652
  70       11.5675
  71       12.5791
  72       12.6096
 
  0.0000000E+00  0.3333333E+00  0.1666667E+00  0.3703704E-01
   1       -2.5738
   2       -1.7902
   3       -1.0112
   4       -0.2390
   5       -0.2368
   6       -0.2346
   7        0.5307
   8        0.5328
   9        0.5352
  10        1.2953
  11        1.2973
  12        1.2980
  13        1.3006
  14        2.0574
  15        2.0608
  16        2.8121
  17        2.8132
  18        2.8159
  19        3.5443
  20        3.5531
  21        3.5564
  22        3.5617
  23        3.5651
  24        4.3087
  25        4.9694
  26        5.0284
  27        5.1018
  28        5.1052
  29        5.7003
  30        5.7497
  31        5.7531
  32        5.8999
  33        6.4771
  34        6.5708
  35        6.5744
  36        6.6163
  37        7.1955
  38        7.1991
  39        7.2745
  40        7.2781
  41        7.3339
  42        7.3659
  43        7.9167
  44        7.9204
  45        7.9745
  46        8.0527
  47        8.2883
  48        8.7378
  49        8.7415
  50        8.7718
  51        8.8091
  52        8.9571
  53        8.9738
  54        9.4916
  55        9.4927
  56        9.6858
  57        9.7320
  58       10.2093
  59       10.4673