 vasp.4.6.28 25Jul05 complex 
 executed on             LinuxIFC date 2016.10.19  12:31:43
 running on    8 nodes
 distr:  one band on    1 nodes,    8 groups


--------------------------------------------------------------------------------------------------------


 INCAR:
 POTCAR:   PAW_PBE Al 04Jan2001                   
 POTCAR:   PAW_PBE Al 04Jan2001                   
   VRHFIN =Al: s2p1                                                             
   LEXCH  = PE                                                                  
   EATOM  =    53.5387 eV,    3.9350 Ry                                         
                                                                                
   TITEL  = PAW_PBE Al 04Jan2001                                                
   LULTRA =        F    use ultrasoft PP ?                                      
   IUNSCR =        1    unscreen: 0-lin 1-nonlin 2-no                           
   RPACOR =    1.500    partial core radius                                     
   POMASS =   26.982; ZVAL   =    3.000    mass and valenz                      
   RCORE  =    1.900    outmost cutoff radius                                   
   RWIGS  =    2.650; RWIGS  =    1.402    wigner-seitz radius (au A)           
   ENMAX  =  240.300; ENMIN  =  180.225 eV                                      
   ICORE  =        2    local potential                                         
   LCOR   =        T    correct aug charges                                     
   LPAW   =        T    paw PP                                                  
   EAUG   =  291.052                                                            
   DEXC   =    -.041                                                            
   RMAX   =    2.974    core radius for proj-oper                               
   RAUG   =    1.300    factor for augmentation sphere                          
   RDEP   =    1.966    radius for radial grids                                 
   QCUT   =   -4.203; QGAM   =    8.405    optimization parameters              
                                                                                
   Description                                                                  
     l     E      TYP  RCUT    TYP  RCUT                                        
     0   .000     23  1.900                                                     
     0   .000     23  1.900                                                     
     1   .000     23  1.900                                                     
     1  1.000     23  1.900                                                     
     2   .000      7  1.900                                                     
  local pseudopotential read in
  partial core-charges read in
  atomic valenz-charges read in
  non local Contribution for L=           0  read in
    real space projection operators read in
  non local Contribution for L=           0  read in
    real space projection operators read in
  non local Contribution for L=           1  read in
    real space projection operators read in
  non local Contribution for L=           1  read in
    real space projection operators read in
    PAW grid and wavefunctions read in
 
   number of l-projection  operators is LMAX  =           4
   number of lm-projection operators is LMMAX =           8
 

 ----------------------------------------------------------------------------- 
|                                                                             |
|  ADVICE TO THIS USER RUNNING 'VASP/VAMP'   (HEAR YOUR MASTER'S VOICE ...):  |
|                                                                             |
|      You have a (more or less) 'large supercell' and for larger cells       |
|      it might be more efficient to use real space projection operators      |
|      So try LREAL= Auto  in the INCAR   file.                               |
|      Mind: If you want to do an extremely accurate calculations keep the    |
|      reciprocal projection scheme          (i.e. LREAL=.FALSE.)             |
|                                                                             |
 ----------------------------------------------------------------------------- 

 PAW_PBE Al 04Jan2001                   :
 energy of atom  1       EATOM=  -53.5387
 kinetic energy error for atom=    0.0003 (will be added to EATOM!!)
 
 EXHCAR: internal setup
 exchange correlation table for  LEXCH =        8
   RHO(1)=    0.500       N(1)  =     2000
   RHO(2)=  100.500       N(2)  =     4000
 
 POSCAR: Al                                      
  positions in direct lattice
  No initial velocities read in
 


--------------------------------------------------------------------------------------------------------


 ion  position               nearest neighbor table
   1  0.251  0.250  0.000-  18 2.79  22 2.79  26 2.79  28 2.79   9 2.80  11 2.80  13 2.80  15 2.80
                            25 2.80  21 2.80  27 2.80  17 2.80
   2  0.750  0.250  0.000-  10 2.80  12 2.80  14 2.80  16 2.80  17 2.80  18 2.80  21 2.80  22 2.80
                            25 2.80  26 2.80  27 2.80  28 2.80
   3  0.250  0.750  0.000-   9 2.80  11 2.80  13 2.80  15 2.80  19 2.80  20 2.80  23 2.80  24 2.80
                            25 2.80  26 2.80  27 2.80  28 2.80
   4  0.750  0.750  0.000-  10 2.80  12 2.80  14 2.80  16 2.80  19 2.80  20 2.80  23 2.80  24 2.80
                            25 2.80  26 2.80  27 2.80  28 2.80
   5  0.250  0.250  0.500-   9 2.80  11 2.80  13 2.80  15 2.80  17 2.80  18 2.80  21 2.80  22 2.80
                            29 2.80  30 2.80  31 2.80  32 2.80
   6  0.750  0.250  0.500-  10 2.80  12 2.80  14 2.80  16 2.80  17 2.80  18 2.80  21 2.80  22 2.80
                            29 2.80  30 2.80  31 2.80  32 2.80
   7  0.250  0.750  0.500-   9 2.80  11 2.80  13 2.80  15 2.80  19 2.80  20 2.80  23 2.80  24 2.80
                            29 2.80  30 2.80  31 2.80  32 2.80
   8  0.750  0.750  0.500-  10 2.80  12 2.80  14 2.80  16 2.80  19 2.80  20 2.80  23 2.80  24 2.80
                            29 2.80  30 2.80  31 2.80  32 2.80
   9  0.250  0.000  0.250-   3 2.80   5 2.80   7 2.80  17 2.80  18 2.80  19 2.80  20 2.80  25 2.80
                            26 2.80  29 2.80  30 2.80   1 2.80
  10  0.750  0.000  0.250-   2 2.80   4 2.80   6 2.80   8 2.80  17 2.80  18 2.80  19 2.80  20 2.80
                            25 2.80  26 2.80  29 2.80  30 2.80
  11  0.250  0.500  0.250-   3 2.80   5 2.80   7 2.80  17 2.80  18 2.80  19 2.80  20 2.80  27 2.80
                            28 2.80  31 2.80  32 2.80   1 2.80
  12  0.750  0.500  0.250-   2 2.80   4 2.80   6 2.80   8 2.80  17 2.80  18 2.80  19 2.80  20 2.80
                            27 2.80  28 2.80  31 2.80  32 2.80
  13  0.250  0.000  0.750-   3 2.80   5 2.80   7 2.80  21 2.80  22 2.80  23 2.80  24 2.80  25 2.80
                            26 2.80  29 2.80  30 2.80   1 2.80
  14  0.750  0.000  0.750-   2 2.80   4 2.80   6 2.80   8 2.80  21 2.80  22 2.80  23 2.80  24 2.80
                            25 2.80  26 2.80  29 2.80  30 2.80
  15  0.250  0.500  0.750-   3 2.80   5 2.80   7 2.80  21 2.80  22 2.80  23 2.80  24 2.80  27 2.80
                            28 2.80  31 2.80  32 2.80   1 2.80
  16  0.750  0.500  0.750-   2 2.80   4 2.80   6 2.80   8 2.80  21 2.80  22 2.80  23 2.80  24 2.80
                            27 2.80  28 2.80  31 2.80  32 2.80
  17  0.000  0.250  0.250-   2 2.80   5 2.80   6 2.80   9 2.80  10 2.80  11 2.80  12 2.80  25 2.80
                            27 2.80  29 2.80  31 2.80   1 2.80
  18  0.500  0.250  0.250-   1 2.79   2 2.80   5 2.80   6 2.80   9 2.80  10 2.80  11 2.80  12 2.80
                            26 2.80  28 2.80  30 2.80  32 2.80
  19  0.000  0.750  0.250-   3 2.80   4 2.80   7 2.80   8 2.80   9 2.80  10 2.80  11 2.80  12 2.80
                            25 2.80  27 2.80  29 2.80  31 2.80
  20  0.500  0.750  0.250-   3 2.80   4 2.80   7 2.80   8 2.80   9 2.80  10 2.80  11 2.80  12 2.80
                            26 2.80  28 2.80  30 2.80  32 2.80
  21  0.000  0.250  0.750-   2 2.80   5 2.80   6 2.80  13 2.80  14 2.80  15 2.80  16 2.80  25 2.80
                            27 2.80  29 2.80  31 2.80   1 2.80
  22  0.500  0.250  0.750-   1 2.79   2 2.80   5 2.80   6 2.80  13 2.80  14 2.80  15 2.80  16 2.80
                            26 2.80  28 2.80  30 2.80  32 2.80
  23  0.000  0.750  0.750-   3 2.80   4 2.80   7 2.80   8 2.80  13 2.80  14 2.80  15 2.80  16 2.80
                            25 2.80  27 2.80  29 2.80  31 2.80
  24  0.500  0.750  0.750-   3 2.80   4 2.80   7 2.80   8 2.80  13 2.80  14 2.80  15 2.80  16 2.80
                            26 2.80  28 2.80  30 2.80  32 2.80
  25  0.000  0.000  0.000-   2 2.80   3 2.80   4 2.80   9 2.80  10 2.80  13 2.80  14 2.80  17 2.80
                            19 2.80  21 2.80  23 2.80   1 2.80
  26  0.500  0.000  0.000-   1 2.79   2 2.80   3 2.80   4 2.80   9 2.80  10 2.80  13 2.80  14 2.80
                            18 2.80  20 2.80  22 2.80  24 2.80
  27  0.000  0.500  0.000-   2 2.80   3 2.80   4 2.80  11 2.80  12 2.80  15 2.80  16 2.80  17 2.80
                            19 2.80  21 2.80  23 2.80   1 2.80
  28  0.500  0.500  0.000-   1 2.79   2 2.80   3 2.80   4 2.80  11 2.80  12 2.80  15 2.80  16 2.80
                            18 2.80  20 2.80  22 2.80  24 2.80
  29  0.000  0.000  0.500-   5 2.80   6 2.80   7 2.80   8 2.80   9 2.80  10 2.80  13 2.80  14 2.80
                            17 2.80  19 2.80  21 2.80  23 2.80
  30  0.500  0.000  0.500-   5 2.80   6 2.80   7 2.80   8 2.80   9 2.80  10 2.80  13 2.80  14 2.80
                            18 2.80  20 2.80  22 2.80  24 2.80
  31  0.000  0.500  0.500-   5 2.80   6 2.80   7 2.80   8 2.80  11 2.80  12 2.80  15 2.80  16 2.80
                            17 2.80  19 2.80  21 2.80  23 2.80
  32  0.500  0.500  0.500-   5 2.80   6 2.80   7 2.80   8 2.80  11 2.80  12 2.80  15 2.80  16 2.80
                            18 2.80  20 2.80  22 2.80  24 2.80
 
  LATTYP: Found a simple cubic cell.
 ALAT       =     7.9129118040
  
  Lattice vectors:
  
 A1 = (   7.9129118040,   0.0000000000,   0.0000000000)
 A2 = (   0.0000000000,   7.9129118040,   0.0000000000)
 A3 = (   0.0000000000,   0.0000000000,   7.9129118040)
 Subroutine PRICEL returns:
 Original cell was already a primitive cell.
 

Analysis of symmetry for initial positions (statically):

 Routine SETGRP: Setting up the symmetry group for a 
 simple cubic supercell.


 Subroutine GETGRP returns: Found  8 space group operations
 (whereof  2 operations were pure point group operations)
 out of a pool of 48 trial point group operations.


The static configuration has the point symmetry C_1h.
 The point group associated with its full space group is C_4v.

Analysis of symmetry for dynamics (positions and initial velocities):

 Subroutine DYNSYM returns: Found  8 space group operations
 (whereof  2 operations were pure point group operations)
 out of a pool of  8 trial space group operations
 (whereof  2 operations were pure point group operations)
 and found also     1 'primitive' translations


The dynamic configuration has the point symmetry C_1h.
 The point group associated with its full space group is C_4v.
 
 
 KPOINTS: Automatic mesh                          

Automatic generation of k-mesh.
 generate k-points for:   6   6   6
 
 Subroutine IBZKPT returns following result:
 ===========================================
 
 Found     40 irreducible k-points:
 
 Following reciprocal coordinates:
            Coordinates               Weight
  0.000000  0.000000  0.000000      1.000000
  0.166667  0.000000  0.000000      2.000000
  0.333333  0.000000  0.000000      2.000000
  0.500000  0.000000  0.000000      1.000000
  0.000000  0.166667  0.000000      4.000000
  0.166667  0.166667  0.000000      8.000000
  0.333333  0.166667  0.000000      8.000000
  0.500000  0.166667  0.000000      4.000000
  0.000000  0.333333  0.000000      4.000000
  0.166667  0.333333  0.000000      8.000000
  0.333333  0.333333  0.000000      8.000000
  0.500000  0.333333  0.000000      4.000000
  0.000000  0.500000  0.000000      2.000000
  0.166667  0.500000  0.000000      4.000000
  0.333333  0.500000  0.000000      4.000000
  0.500000  0.500000  0.000000      2.000000
  0.000000  0.166667  0.166667      4.000000
  0.166667  0.166667  0.166667      8.000000
  0.333333  0.166667  0.166667      8.000000
  0.500000  0.166667  0.166667      4.000000
  0.000000  0.333333  0.166667      8.000000
  0.166667  0.333333  0.166667     16.000000
  0.333333  0.333333  0.166667     16.000000
  0.500000  0.333333  0.166667      8.000000
  0.000000  0.500000  0.166667      4.000000
  0.166667  0.500000  0.166667      8.000000
  0.333333  0.500000  0.166667      8.000000
  0.500000  0.500000  0.166667      4.000000
  0.000000  0.333333  0.333333      4.000000
  0.166667  0.333333  0.333333      8.000000
  0.333333  0.333333  0.333333      8.000000
  0.500000  0.333333  0.333333      4.000000
  0.000000  0.500000  0.333333      4.000000
  0.166667  0.500000  0.333333      8.000000
  0.333333  0.500000  0.333333      8.000000
  0.500000  0.500000  0.333333      4.000000
  0.000000  0.500000  0.500000      1.000000
  0.166667  0.500000  0.500000      2.000000
  0.333333  0.500000  0.500000      2.000000
  0.500000  0.500000  0.500000      1.000000
 
 Following cartesian coordinates:
            Coordinates               Weight
  0.000000  0.000000  0.000000      1.000000
  0.021063  0.000000  0.000000      2.000000
  0.042125  0.000000  0.000000      2.000000
  0.063188  0.000000  0.000000      1.000000
  0.000000  0.021063  0.000000      4.000000
  0.021063  0.021063  0.000000      8.000000
  0.042125  0.021063  0.000000      8.000000
  0.063188  0.021063  0.000000      4.000000
  0.000000  0.042125  0.000000      4.000000
  0.021063  0.042125  0.000000      8.000000
  0.042125  0.042125  0.000000      8.000000
  0.063188  0.042125  0.000000      4.000000
  0.000000  0.063188  0.000000      2.000000
  0.021063  0.063188  0.000000      4.000000
  0.042125  0.063188  0.000000      4.000000
  0.063188  0.063188  0.000000      2.000000
  0.000000  0.021063  0.021063      4.000000
  0.021063  0.021063  0.021063      8.000000
  0.042125  0.021063  0.021063      8.000000
  0.063188  0.021063  0.021063      4.000000
  0.000000  0.042125  0.021063      8.000000
  0.021063  0.042125  0.021063     16.000000
  0.042125  0.042125  0.021063     16.000000
  0.063188  0.042125  0.021063      8.000000
  0.000000  0.063188  0.021063      4.000000
  0.021063  0.063188  0.021063      8.000000
  0.042125  0.063188  0.021063      8.000000
  0.063188  0.063188  0.021063      4.000000
  0.000000  0.042125  0.042125      4.000000
  0.021063  0.042125  0.042125      8.000000
  0.042125  0.042125  0.042125      8.000000
  0.063188  0.042125  0.042125      4.000000
  0.000000  0.063188  0.042125      4.000000
  0.021063  0.063188  0.042125      8.000000
  0.042125  0.063188  0.042125      8.000000
  0.063188  0.063188  0.042125      4.000000
  0.000000  0.063188  0.063188      1.000000
  0.021063  0.063188  0.063188      2.000000
  0.042125  0.063188  0.063188      2.000000
  0.063188  0.063188  0.063188      1.000000
 


--------------------------------------------------------------------------------------------------------




 Dimension of arrays:
   k-Points           NKPTS =     40   number of bands    NBANDS=     72
   number of dos      NEDOS =    301   number of ions     NIONS =     32
   non local maximal  LDIM  =      4   non local SUM 2l+1 LMDIM =      8
   total plane-waves  NPLWV = 216000
   max r-space proj   IRMAX =      1   max aug-charges    IRDMAX=  17165
   dimension x,y,z NGX =    60 NGY =   60 NGZ =   60
   dimension x,y,z NGXF=   120 NGYF=  120 NGZF=  120
   support grid    NGXF=   120 NGYF=  120 NGZF=  120
   ions per type =              32
 NGX,Y,Z   is equivalent  to a cutoff of  12.61, 12.61, 12.61 a.u.
 NGXF,Y,Z  is equivalent  to a cutoff of  25.21, 25.21, 25.21 a.u.


 I would recommend the setting:
   dimension x,y,z NGX =    58 NGY =   58 NGZ =   58
 SYSTEM =  unknown system                          
 POSCAR =  Al                                      

 Startparameter for this run:
   NWRITE =      2    write-flag & timer
   PREC   = accura    medium, high low
   ISTART =      0    job   : 0-new  1-cont  2-samecut
   ICHARG =      2    charge: 1-file 2-atom 10-const
   ISPIN  =      1    spin polarized calculation?
   LNONCOLLINEAR =      F non collinear calculations
   LSORBIT =      F    spin-orbit coupling
   INIWAV =      1    electr: 0-lowe 1-rand  2-diag
   LASPH  =      F    aspherical Exc in radial PAW
   METAGGA=      F    non-selfconsistent MetaGGA calc.

 Electronic Relaxation 1
   ENCUT  =  500.0 eV  36.75 Ry    6.06 a.u.  14.43 14.43 14.43*2*pi/ulx,y,z
   ENINI  =  500.0     initial cutoff
   ENAUG  =  291.1 eV  augmentation charge cutoff
   NELM   =     60;   NELMIN=  2; NELMDL=  0     # of ELM steps 
   EDIFF  = 0.1E-07   stopping-criterion for ELM
   LREAL  =      F    real-space projection
   LCOMPAT=      F    compatible to vasp.4.4
   LREAL_COMPAT= F    compatible to vasp.4.5.1-3
   GGA_COMPAT  = T    GGA compatible to vasp.4.4-vasp.4.6
   LMAXPAW     = -100 max onsite density
   LMAXMIX     =    2 max onsite mixed and CHGCAR
   VOSKOWN=      0    Vosko Wilk Nusair interpolation
   ROPT   =    0.00000
 Ionic relaxation
   EDIFFG = 0.1E-06   stopping-criterion for IOM
   NSW    =      0    number of steps for IOM
   NBLOCK =      1;   KBLOCK =      1    inner block; outer block 
   IBRION =     -1    ionic relax: 0-MD 1-quasi-New 2-CG
   NFREE  =      0    steps in history (QN), initial steepest desc. (CG)
   ISIF   =      2    stress and relaxation
   IWAVPR =     10    prediction:  0-non 1-charg 2-wave 3-comb
   ISYM   =      2    0-nonsym 1-usesym 2-fastsym
   LCORR  =      T    Harris-Foulkes like correction to forces

   POTIM  =   0.50    time-step for ionic-motion
   TEIN   =    0.0    initial temperature
   TEBEG  =    0.0;   TEEND  =   0.0 temperature during run
   SMASS  =  -3.00    Nose mass-parameter (am)
   estimated Nose-frequenzy (Omega)   =  0.10E-29 period in steps =****** mass=  -0.143E-26a.u.
   NPACO  =    256;   APACO  = 16.0  distance and # of slots for P.C.
   PSTRESS=    0.0 pullay stress

  Mass of Ions in am
   POMASS =  26.98
  Ionic Valenz
   ZVAL   =   3.00
  Atomic Wigner-Seitz radii
   RWIGS  =  -1.00
   NELECT =      96.0000    total number of electrons
   NUPDOWN=      -1.0000    fix difference up-down

 DOS related values:
   EMIN   =  10.00;   EMAX   =-10.00  energy-range for DOS
   ISMEAR =     0;   SIGMA  =   0.01  broadening in eV -4-tet -1-fermi 0-gaus

 Electronic relaxation 2 (details)
   IALGO  =     38    algorithm
   LDIAG  =      T    sub-space diagonalisation
   IMIX   =      4    mixing-type and parameters
     AMIX     =   0.40;   BMIX     =  1.00
     AMIX_MAG =   1.60;   BMIX_MAG =  1.00
     AMIN     =   0.10
     WC   =   100.;   INIMIX=   1;  MIXPRE=   1

 Intra band minimization:
   WEIMIN = 0.0000     energy-eigenvalue tresh-hold
   EBREAK =  0.38E-10  absolut break condition
   DEPER  =   0.30     relativ break condition  

   TIME   =   0.10     timestep for ELM

  volume/ion in A,a.u.               =      15.48       104.49
  Fermi-wavevector in a.u.,eV,Ry     =   0.947318 12.210012  0.897411

 Second variation
   LSECVAR=     F    do a second variation
 
 Write flags
   LWAVE  =      F    write WAVECAR
   LCHARG =      F    write CHGCAR
   LVTOT  =      F    write LOCPOT, local potential
   LELF   =      F    write electronic localiz. function (ELF)
   LORBIT =      0    0 simple, 1 ext, 2 COOP (PROOUT)


 Dipole corrections
   IDIPOL =      0    1-x, 2-y, 3-z
   LDIPOL =      F    correct potential



--------------------------------------------------------------------------------------------------------


 Static calculation
 charge density will be updated during run
 non-spin polarized calculation
 Variant of blocked Davidson
 Davidson routine will perform the subspace rotation
 performe sub-space diagonalisation
    after iterative eigenvector-optimisation
 modified Broyden-mixing scheme, WC =      100.0
 initial mixing is a Kerker type mixing with AMIX =  0.4000 and BMIX =      1.0000
 Hartree-type preconditioning will be used
 using additional bands           24
 reciprocal scheme for non local part
 use partial core corrections
 calculate Harris-corrections to forces 
   (improved forces if not selfconsistent)
 use gradient corrections 
 use of overlap-Matrix (Vanderbilt PP)
 Gauss-broadening in eV      SIGMA  =   0.01


--------------------------------------------------------------------------------------------------------


  energy-cutoff  :      500.00
  volume of cell :      495.46
      direct lattice vectors                 reciprocal lattice vectors
     7.912911804  0.000000000  0.000000000     0.126375729  0.000000000  0.000000000
     0.000000000  7.912911804  0.000000000     0.000000000  0.126375729  0.000000000
     0.000000000  0.000000000  7.912911804     0.000000000  0.000000000  0.126375729

  length of vectors
     7.912911804  7.912911804  7.912911804     0.126375729  0.126375729  0.126375729


 
 k-points in units of 2pi/SCALE and weight: Automatic mesh                          
   0.00000000  0.00000000  0.00000000       0.005
   0.02106262  0.00000000  0.00000000       0.009
   0.04212524  0.00000000  0.00000000       0.009
   0.06318786  0.00000000  0.00000000       0.005
   0.00000000  0.02106262  0.00000000       0.019
   0.02106262  0.02106262  0.00000000       0.037
   0.04212524  0.02106262  0.00000000       0.037
   0.06318786  0.02106262  0.00000000       0.019
   0.00000000  0.04212524  0.00000000       0.019
   0.02106262  0.04212524  0.00000000       0.037
   0.04212524  0.04212524  0.00000000       0.037
   0.06318786  0.04212524  0.00000000       0.019
   0.00000000  0.06318786  0.00000000       0.009
   0.02106262  0.06318786  0.00000000       0.019
   0.04212524  0.06318786  0.00000000       0.019
   0.06318786  0.06318786  0.00000000       0.009
   0.00000000  0.02106262  0.02106262       0.019
   0.02106262  0.02106262  0.02106262       0.037
   0.04212524  0.02106262  0.02106262       0.037
   0.06318786  0.02106262  0.02106262       0.019
   0.00000000  0.04212524  0.02106262       0.037
   0.02106262  0.04212524  0.02106262       0.074
   0.04212524  0.04212524  0.02106262       0.074
   0.06318786  0.04212524  0.02106262       0.037
   0.00000000  0.06318786  0.02106262       0.019
   0.02106262  0.06318786  0.02106262       0.037
   0.04212524  0.06318786  0.02106262       0.037
   0.06318786  0.06318786  0.02106262       0.019
   0.00000000  0.04212524  0.04212524       0.019
   0.02106262  0.04212524  0.04212524       0.037
   0.04212524  0.04212524  0.04212524       0.037
   0.06318786  0.04212524  0.04212524       0.019
   0.00000000  0.06318786  0.04212524       0.019
   0.02106262  0.06318786  0.04212524       0.037
   0.04212524  0.06318786  0.04212524       0.037
   0.06318786  0.06318786  0.04212524       0.019
   0.00000000  0.06318786  0.06318786       0.005
   0.02106262  0.06318786  0.06318786       0.009
   0.04212524  0.06318786  0.06318786       0.009
   0.06318786  0.06318786  0.06318786       0.005
 
 k-points in reciprocal lattice and weights: Automatic mesh                          
   0.00000000  0.00000000  0.00000000       0.005
   0.16666667  0.00000000  0.00000000       0.009
   0.33333333  0.00000000  0.00000000       0.009
   0.50000000  0.00000000  0.00000000       0.005
   0.00000000  0.16666667  0.00000000       0.019
   0.16666667  0.16666667  0.00000000       0.037
   0.33333333  0.16666667  0.00000000       0.037
   0.50000000  0.16666667  0.00000000       0.019
   0.00000000  0.33333333  0.00000000       0.019
   0.16666667  0.33333333  0.00000000       0.037
   0.33333333  0.33333333  0.00000000       0.037
   0.50000000  0.33333333  0.00000000       0.019
   0.00000000  0.50000000  0.00000000       0.009
   0.16666667  0.50000000  0.00000000       0.019
   0.33333333  0.50000000  0.00000000       0.019
   0.50000000  0.50000000  0.00000000       0.009
   0.00000000  0.16666667  0.16666667       0.019
   0.16666667  0.16666667  0.16666667       0.037
   0.33333333  0.16666667  0.16666667       0.037
   0.50000000  0.16666667  0.16666667       0.019
   0.00000000  0.33333333  0.16666667       0.037
   0.16666667  0.33333333  0.16666667       0.074
   0.33333333  0.33333333  0.16666667       0.074
   0.50000000  0.33333333  0.16666667       0.037
   0.00000000  0.50000000  0.16666667       0.019
   0.16666667  0.50000000  0.16666667       0.037
   0.33333333  0.50000000  0.16666667       0.037
   0.50000000  0.50000000  0.16666667       0.019
   0.00000000  0.33333333  0.33333333       0.019
   0.16666667  0.33333333  0.33333333       0.037
   0.33333333  0.33333333  0.33333333       0.037
   0.50000000  0.33333333  0.33333333       0.019
   0.00000000  0.50000000  0.33333333       0.019
   0.16666667  0.50000000  0.33333333       0.037
   0.33333333  0.50000000  0.33333333       0.037
   0.50000000  0.50000000  0.33333333       0.019
   0.00000000  0.50000000  0.50000000       0.005
   0.16666667  0.50000000  0.50000000       0.009
   0.33333333  0.50000000  0.50000000       0.009
   0.50000000  0.50000000  0.50000000       0.005
 
 position of ions in fractional coordinates (direct lattice) 
   0.25126376  0.25000000  0.00000000
   0.75000000  0.25000000  0.00000000
   0.25000000  0.75000000  0.00000000
   0.75000000  0.75000000  0.00000000
   0.25000000  0.25000000  0.50000000
   0.75000000  0.25000000  0.50000000
   0.25000000  0.75000000  0.50000000
   0.75000000  0.75000000  0.50000000
   0.25000000  0.00000000  0.25000000
   0.75000000  0.00000000  0.25000000
   0.25000000  0.50000000  0.25000000
   0.75000000  0.50000000  0.25000000
   0.25000000  0.00000000  0.75000000
   0.75000000  0.00000000  0.75000000
   0.25000000  0.50000000  0.75000000
   0.75000000  0.50000000  0.75000000
   0.00000000  0.25000000  0.25000000
   0.50000000  0.25000000  0.25000000
   0.00000000  0.75000000  0.25000000
   0.50000000  0.75000000  0.25000000
   0.00000000  0.25000000  0.75000000
   0.50000000  0.25000000  0.75000000
   0.00000000  0.75000000  0.75000000
   0.50000000  0.75000000  0.75000000
   0.00000000  0.00000000  0.00000000
   0.50000000  0.00000000  0.00000000
   0.00000000  0.50000000  0.00000000
   0.50000000  0.50000000  0.00000000
   0.00000000  0.00000000  0.50000000
   0.50000000  0.00000000  0.50000000
   0.00000000  0.50000000  0.50000000
   0.50000000  0.50000000  0.50000000
 
 position of ions in cartesian coordinates  (Angst):
   1.98822795  1.97822795  0.00000000
   5.93468385  1.97822795  0.00000000
   1.97822795  5.93468385  0.00000000
   5.93468385  5.93468385  0.00000000
   1.97822795  1.97822795  3.95645590
   5.93468385  1.97822795  3.95645590
   1.97822795  5.93468385  3.95645590
   5.93468385  5.93468385  3.95645590
   1.97822795  0.00000000  1.97822795
   5.93468385  0.00000000  1.97822795
   1.97822795  3.95645590  1.97822795
   5.93468385  3.95645590  1.97822795
   1.97822795  0.00000000  5.93468385
   5.93468385  0.00000000  5.93468385
   1.97822795  3.95645590  5.93468385
   5.93468385  3.95645590  5.93468385
   0.00000000  1.97822795  1.97822795
   3.95645590  1.97822795  1.97822795
   0.00000000  5.93468385  1.97822795
   3.95645590  5.93468385  1.97822795
   0.00000000  1.97822795  5.93468385
   3.95645590  1.97822795  5.93468385
   0.00000000  5.93468385  5.93468385
   3.95645590  5.93468385  5.93468385
   0.00000000  0.00000000  0.00000000
   3.95645590  0.00000000  0.00000000
   0.00000000  3.95645590  0.00000000
   3.95645590  3.95645590  0.00000000
   0.00000000  0.00000000  3.95645590
   3.95645590  0.00000000  3.95645590
   0.00000000  3.95645590  3.95645590
   3.95645590  3.95645590  3.95645590
 


--------------------------------------------------------------------------------------------------------


 k-point  1 :  0.00000.00000.0000  plane waves:  12557
 k-point  2 :  0.16670.00000.0000  plane waves:  12621
 k-point  3 :  0.33330.00000.0000  plane waves:  12609
 k-point  4 :  0.50000.00000.0000  plane waves:  12556
 k-point  5 :  0.00000.16670.0000  plane waves:  12621
 k-point  6 :  0.16670.16670.0000  plane waves:  12615
 k-point  7 :  0.33330.16670.0000  plane waves:  12606
 k-point  8 :  0.50000.16670.0000  plane waves:  12582
 k-point  9 :  0.00000.33330.0000  plane waves:  12609
 k-point 10 :  0.16670.33330.0000  plane waves:  12606
 k-point 11 :  0.33330.33330.0000  plane waves:  12532
 k-point 12 :  0.50000.33330.0000  plane waves:  12564
 k-point 13 :  0.00000.50000.0000  plane waves:  12556
 k-point 14 :  0.16670.50000.0000  plane waves:  12582
 k-point 15 :  0.33330.50000.0000  plane waves:  12564
 k-point 16 :  0.50000.50000.0000  plane waves:  12536
 k-point 17 :  0.00000.16670.1667  plane waves:  12615
 k-point 18 :  0.16670.16670.1667  plane waves:  12593
 k-point 19 :  0.33330.16670.1667  plane waves:  12574
 k-point 20 :  0.50000.16670.1667  plane waves:  12574
 k-point 21 :  0.00000.33330.1667  plane waves:  12606
 k-point 22 :  0.16670.33330.1667  plane waves:  12574
 k-point 23 :  0.33330.33330.1667  plane waves:  12570
 k-point 24 :  0.50000.33330.1667  plane waves:  12568
 k-point 25 :  0.00000.50000.1667  plane waves:  12582
 k-point 26 :  0.16670.50000.1667  plane waves:  12574
 k-point 27 :  0.33330.50000.1667  plane waves:  12568
 k-point 28 :  0.50000.50000.1667  plane waves:  12556
 k-point 29 :  0.00000.33330.3333  plane waves:  12532
 k-point 30 :  0.16670.33330.3333  plane waves:  12570
 k-point 31 :  0.33330.33330.3333  plane waves:  12577
 k-point 32 :  0.50000.33330.3333  plane waves:  12588
 k-point 33 :  0.00000.50000.3333  plane waves:  12564
 k-point 34 :  0.16670.50000.3333  plane waves:  12568
 k-point 35 :  0.33330.50000.3333  plane waves:  12588
 k-point 36 :  0.50000.50000.3333  plane waves:  12592
 k-point 37 :  0.00000.50000.5000  plane waves:  12536
 k-point 38 :  0.16670.50000.5000  plane waves:  12556
 k-point 39 :  0.33330.50000.5000  plane waves:  12592
 k-point 40 :  0.50000.50000.5000  plane waves:  12568

 maximum and minimum number of plane-waves per node :  12621 12532

 maximum number of plane-waves:  12621
 maximal index in each direction: 
   IXMAX= 14   IYMAX= 14   IZMAX= 14
   IXMIN=-14   IYMIN=-14   IZMIN=-14

 NGX is ok and might be reduce to  58
 NGY is ok and might be reduce to  58
 NGZ is ok and might be reduce to  58

 parallel 3dFFT wavefunction:
    minimum data exchange during FFTs selected (reduces bandwidth)
 parallel 3dFFT charge:
    minimum data exchange during FFTs selected (reduces bandwidth)

 For storing wavefunctions  579.57 MBYTES are necessary
 For predicting wavefunctions   32.25 MBYTES are necessary
Broyden mixing: mesh for mixing (old mesh)
   NGX = 29   NGY = 29   NGZ = 29
  (NGX  =120   NGY  =120   NGZ  =120)
 gives a total of  24389 points
 initial charge density was supplied:
 charge density of overlapping atoms calculated
 number of electron   96.0000000 magnetization 
 keeping initial charge density in first step


--------------------------------------------------------------------------------------------------------


 Maximum index for augmentation-charges         2148 (set IRDMAX)


--------------------------------------------------------------------------------------------------------


 First call to EWALD:  gamma=   0.224
 Maximum number of real-space cells 3x 3x 3
 Maximum number of reciprocal cells 3x 3x 3

    FEWALD:  VPU time    0.01: CPU time    0.01


----------------------------------------- Iteration    1(   1)  ---------------------------------------


    POTLOK:  VPU time    0.13: CPU time    0.13
    SETDIJ:  VPU time    0.01: CPU time    0.01
    EDDAV :  VPU time   16.82: CPU time   16.84
    DOS   :  VPU time    0.00: CPU time   -0.00
    ------------------------------------------
      LOOP:  VPU time   16.96: CPU time   16.99

 eigenvalue-minimisations  :  5760
 total energy-change (2. order) : 0.1273307E+03  (-0.3312564E+04)
 number of electron   96.0000000 magnetization 
 augmentation part    96.0000000 magnetization 

 Free energy of the ion-electron system (eV)
  ---------------------------------------------------
  alpha Z        PSCENC =        -6.94187321
  Ewald energy   TEWEN  =     -2402.91415314
  -1/2 Hartree   DENC   =        -2.61446063
  -V(xc)+E(xc)   XCENC  =      -835.96404674
  PAW double counting   =      1137.73615723     -115.16745734
  entropy T*S    EENTRO =        -0.00040029
  eigenvalues    EBANDS =       639.96779408
  atomic energy  EATOM  =      1713.22913220
  ---------------------------------------------------
  free energy    TOTEN  =       127.33069216 eV

  energy without entropy =      127.33109244  energy(sigma->0) =      127.33089230


--------------------------------------------------------------------------------------------------------




----------------------------------------- Iteration    1(   2)  ---------------------------------------


    EDDAV :  VPU time   19.09: CPU time   19.09
    DOS   :  VPU time    0.00: CPU time   -0.00
    ------------------------------------------
      LOOP:  VPU time   19.09: CPU time   19.09

 eigenvalue-minimisations  :  6808
 total energy-change (2. order) :-0.2341067E+03  (-0.2173384E+03)
 number of electron   96.0000000 magnetization 
 augmentation part    96.0000000 magnetization 

 Free energy of the ion-electron system (eV)
  ---------------------------------------------------
  alpha Z        PSCENC =        -6.94187321
  Ewald energy   TEWEN  =     -2402.91415314
  -1/2 Hartree   DENC   =        -2.61446063
  -V(xc)+E(xc)   XCENC  =      -835.96404674
  PAW double counting   =      1137.73615723     -115.16745734
  entropy T*S    EENTRO =        -0.00064028
  eigenvalues    EBANDS =       405.86131669
  atomic energy  EATOM  =      1713.22913220
  ---------------------------------------------------
  free energy    TOTEN  =      -106.77602522 eV

  energy without entropy =     -106.77538494  energy(sigma->0) =     -106.77570508


--------------------------------------------------------------------------------------------------------




----------------------------------------- Iteration    1(   3)  ---------------------------------------


    EDDAV :  VPU time   19.96: CPU time   19.96
    DOS   :  VPU time    0.00: CPU time   -0.00
    ------------------------------------------
      LOOP:  VPU time   19.97: CPU time   19.97

 eigenvalue-minimisations  :  7160
 total energy-change (2. order) :-0.1300907E+02  (-0.1242291E+02)
 number of electron   96.0000000 magnetization 
 augmentation part    96.0000000 magnetization 

 Free energy of the ion-electron system (eV)
  ---------------------------------------------------
  alpha Z        PSCENC =        -6.94187321
  Ewald energy   TEWEN  =     -2402.91415314
  -1/2 Hartree   DENC   =        -2.61446063
  -V(xc)+E(xc)   XCENC  =      -835.96404674
  PAW double counting   =      1137.73615723     -115.16745734
  entropy T*S    EENTRO =        -0.00105648
  eigenvalues    EBANDS =       392.85265897
  atomic energy  EATOM  =      1713.22913220
  ---------------------------------------------------
  free energy    TOTEN  =      -119.78509915 eV

  energy without entropy =     -119.78404266  energy(sigma->0) =     -119.78457091


--------------------------------------------------------------------------------------------------------




----------------------------------------- Iteration    1(   4)  ---------------------------------------


    EDDAV :  VPU time   21.12: CPU time   21.12
    DOS   :  VPU time    0.00: CPU time   -0.00
    ------------------------------------------
      LOOP:  VPU time   21.13: CPU time   21.13

 eigenvalue-minimisations  :  6680
 total energy-change (2. order) :-0.2342384E+00  (-0.2324561E+00)
 number of electron   96.0000000 magnetization 
 augmentation part    96.0000000 magnetization 

 Free energy of the ion-electron system (eV)
  ---------------------------------------------------
  alpha Z        PSCENC =        -6.94187321
  Ewald energy   TEWEN  =     -2402.91415314
  -1/2 Hartree   DENC   =        -2.61446063
  -V(xc)+E(xc)   XCENC  =      -835.96404674
  PAW double counting   =      1137.73615723     -115.16745734
  entropy T*S    EENTRO =        -0.00124648
  eigenvalues    EBANDS =       392.61861058
  atomic energy  EATOM  =      1713.22913220
  ---------------------------------------------------
  free energy    TOTEN  =      -120.01933753 eV

  energy without entropy =     -120.01809105  energy(sigma->0) =     -120.01871429


--------------------------------------------------------------------------------------------------------




----------------------------------------- Iteration    1(   5)  ---------------------------------------


    EDDAV :  VPU time   24.20: CPU time   24.20
    DOS   :  VPU time    0.00: CPU time   -0.00
    CHARGE:  VPU time    1.11: CPU time    1.11
    MIXING:  VPU time    0.00: CPU time    0.00
    ------------------------------------------
      LOOP:  VPU time   25.32: CPU time   25.33

 eigenvalue-minimisations  :  6768
 total energy-change (2. order) :-0.2743931E-02  (-0.2741861E-02)
 number of electron   96.0000001 magnetization 
 augmentation part    -1.1464657 magnetization 

 Broyden mixing:
  rms(total) = 0.54484E+00    rms(broyden)= 0.54484E+00
  rms(prec ) = 0.78540E+00
  weight for this iteration     100.00

 Free energy of the ion-electron system (eV)
  ---------------------------------------------------
  alpha Z        PSCENC =        -6.94187321
  Ewald energy   TEWEN  =     -2402.91415314
  -1/2 Hartree   DENC   =        -2.61446063
  -V(xc)+E(xc)   XCENC  =      -835.96404674
  PAW double counting   =      1137.73615723     -115.16745734
  entropy T*S    EENTRO =        -0.00124714
  eigenvalues    EBANDS =       392.61586731
  atomic energy  EATOM  =      1713.22913220
  ---------------------------------------------------
  free energy    TOTEN  =      -120.02208146 eV

  energy without entropy =     -120.02083433  energy(sigma->0) =     -120.02145789


--------------------------------------------------------------------------------------------------------




----------------------------------------- Iteration    1(   6)  ---------------------------------------


    POTLOK:  VPU time    0.16: CPU time    0.16
    SETDIJ:  VPU time    0.01: CPU time    0.01
    EDDAV :  VPU time   23.80: CPU time   23.80
    DOS   :  VPU time    0.00: CPU time   -0.00
    CHARGE:  VPU time    1.14: CPU time    1.14
    MIXING:  VPU time    0.00: CPU time    0.00
    ------------------------------------------
      LOOP:  VPU time   25.12: CPU time   25.12

 eigenvalue-minimisations  :  6600
 total energy-change (2. order) : 0.4475711E+00  (-0.4265113E-02)
 number of electron   96.0000002 magnetization 
 augmentation part    -1.1618121 magnetization 

 Broyden mixing:
  rms(total) = 0.33858E+00    rms(broyden)= 0.33858E+00
  rms(prec ) = 0.49001E+00
  weight for this iteration     100.00

 eigenvalues of (default mixing * dielectric matrix)
  average eigenvalue GAMMA=   2.6327
  2.6327

 Free energy of the ion-electron system (eV)
  ---------------------------------------------------
  alpha Z        PSCENC =        -6.94187321
  Ewald energy   TEWEN  =     -2402.91415314
  -1/2 Hartree   DENC   =        -2.45436799
  -V(xc)+E(xc)   XCENC  =      -834.67215158
  PAW double counting   =      1141.66972374     -119.34315572
  entropy T*S    EENTRO =        -0.00127800
  eigenvalues    EBANDS =       391.85361332
  atomic energy  EATOM  =      1713.22913220
  ---------------------------------------------------
  free energy    TOTEN  =      -119.57451038 eV

  energy without entropy =     -119.57323238  energy(sigma->0) =     -119.57387138


--------------------------------------------------------------------------------------------------------




----------------------------------------- Iteration    1(   7)  ---------------------------------------


    POTLOK:  VPU time    0.16: CPU time    0.16
    SETDIJ:  VPU time    0.01: CPU time    0.01
    EDDAV :  VPU time   22.75: CPU time   22.75
    DOS   :  VPU time    0.00: CPU time   -0.00
    CHARGE:  VPU time    1.16: CPU time    1.16
    MIXING:  VPU time    0.00: CPU time    0.00
    ------------------------------------------
      LOOP:  VPU time   24.09: CPU time   24.10

 eigenvalue-minimisations  :  6248
 total energy-change (2. order) : 0.3250253E+00  (-0.1303052E-01)
 number of electron   96.0000002 magnetization 
 augmentation part    -1.1938469 magnetization 

 Broyden mixing:
  rms(total) = 0.13860E-01    rms(broyden)= 0.13860E-01
  rms(prec ) = 0.16516E-01
  weight for this iteration     100.00

 eigenvalues of (default mixing * dielectric matrix)
  average eigenvalue GAMMA=   2.5162
  2.5162  2.5162

 Free energy of the ion-electron system (eV)
  ---------------------------------------------------
  alpha Z        PSCENC =        -6.94187321
  Ewald energy   TEWEN  =     -2402.91415314
  -1/2 Hartree   DENC   =        -3.61484898
  -V(xc)+E(xc)   XCENC  =      -832.09870998
  PAW double counting   =      1147.42326690     -125.55429719
  entropy T*S    EENTRO =        -0.00161808
  eigenvalues    EBANDS =       391.22361642
  atomic energy  EATOM  =      1713.22913220
  ---------------------------------------------------
  free energy    TOTEN  =      -119.24948505 eV

  energy without entropy =     -119.24786698  energy(sigma->0) =     -119.24867601


--------------------------------------------------------------------------------------------------------




----------------------------------------- Iteration    1(   8)  ---------------------------------------


    POTLOK:  VPU time    0.16: CPU time    0.16
    SETDIJ:  VPU time    0.01: CPU time    0.01
    EDDAV :  VPU time   24.34: CPU time   24.34
    DOS   :  VPU time    0.00: CPU time   -0.00
    CHARGE:  VPU time    1.11: CPU time    1.11
    MIXING:  VPU time    0.00: CPU time    0.00
    ------------------------------------------
      LOOP:  VPU time   25.62: CPU time   25.63

 eigenvalue-minimisations  :  6832
 total energy-change (2. order) :-0.2096584E-03  (-0.1188190E-03)
 number of electron   96.0000002 magnetization 
 augmentation part    -1.1961745 magnetization 

 Broyden mixing:
  rms(total) = 0.49671E-02    rms(broyden)= 0.49671E-02
  rms(prec ) = 0.64980E-02
  weight for this iteration     100.00

 eigenvalues of (default mixing * dielectric matrix)
  average eigenvalue GAMMA=   2.0784
  0.9977  2.6826  2.5548

 Free energy of the ion-electron system (eV)
  ---------------------------------------------------
  alpha Z        PSCENC =        -6.94187321
  Ewald energy   TEWEN  =     -2402.91415314
  -1/2 Hartree   DENC   =        -3.64909784
  -V(xc)+E(xc)   XCENC  =      -832.06234473
  PAW double counting   =      1147.90695021     -126.07287439
  entropy T*S    EENTRO =        -0.00161787
  eigenvalues    EBANDS =       391.25618407
  atomic energy  EATOM  =      1713.22913220
  ---------------------------------------------------
  free energy    TOTEN  =      -119.24969471 eV

  energy without entropy =     -119.24807684  energy(sigma->0) =     -119.24888577


--------------------------------------------------------------------------------------------------------




----------------------------------------- Iteration    1(   9)  ---------------------------------------


    POTLOK:  VPU time    0.16: CPU time    0.16
    SETDIJ:  VPU time    0.01: CPU time    0.01
    EDDAV :  VPU time   23.63: CPU time   23.63
    DOS   :  VPU time    0.00: CPU time   -0.00
    CHARGE:  VPU time    1.13: CPU time    1.13
    MIXING:  VPU time    0.00: CPU time    0.00
    ------------------------------------------
      LOOP:  VPU time   24.95: CPU time   24.95

 eigenvalue-minimisations  :  6568
 total energy-change (2. order) :-0.2710403E-04  (-0.5765481E-05)
 number of electron   96.0000002 magnetization 
 augmentation part    -1.1970612 magnetization 

 Broyden mixing:
  rms(total) = 0.43464E-03    rms(broyden)= 0.43463E-03
  rms(prec ) = 0.68446E-03
  weight for this iteration     100.00

 eigenvalues of (default mixing * dielectric matrix)
  average eigenvalue GAMMA=   1.8775
  2.7115  2.5299  1.3760  0.8928

 Free energy of the ion-electron system (eV)
  ---------------------------------------------------
  alpha Z        PSCENC =        -6.94187321
  Ewald energy   TEWEN  =     -2402.91415314
  -1/2 Hartree   DENC   =        -3.68631548
  -V(xc)+E(xc)   XCENC  =      -832.01716649
  PAW double counting   =      1148.12784412     -126.31510048
  entropy T*S    EENTRO =        -0.00161743
  eigenvalues    EBANDS =       391.26952809
  atomic energy  EATOM  =      1713.22913220
  ---------------------------------------------------
  free energy    TOTEN  =      -119.24972182 eV

  energy without entropy =     -119.24810439  energy(sigma->0) =     -119.24891310


--------------------------------------------------------------------------------------------------------




----------------------------------------- Iteration    1(  10)  ---------------------------------------


    POTLOK:  VPU time    0.16: CPU time    0.16
    SETDIJ:  VPU time    0.01: CPU time    0.01
    EDDAV :  VPU time   24.44: CPU time   24.44
    DOS   :  VPU time    0.00: CPU time   -0.00
    CHARGE:  VPU time    1.14: CPU time    1.14
    MIXING:  VPU time    0.00: CPU time    0.01
    ------------------------------------------
      LOOP:  VPU time   25.76: CPU time   25.77

 eigenvalue-minimisations  :  6816
 total energy-change (2. order) :-0.9356729E-06  (-0.3798843E-06)
 number of electron   96.0000002 magnetization 
 augmentation part    -1.1971989 magnetization 

 Broyden mixing:
  rms(total) = 0.20952E-03    rms(broyden)= 0.20952E-03
  rms(prec ) = 0.28663E-03
  weight for this iteration     100.00

 eigenvalues of (default mixing * dielectric matrix)
  average eigenvalue GAMMA=   1.8744
  2.6382  2.6382  2.2628  1.0222  0.8108

 Free energy of the ion-electron system (eV)
  ---------------------------------------------------
  alpha Z        PSCENC =        -6.94187321
  Ewald energy   TEWEN  =     -2402.91415314
  -1/2 Hartree   DENC   =        -3.68921853
  -V(xc)+E(xc)   XCENC  =      -832.01367064
  PAW double counting   =      1148.10132890     -126.28889650
  entropy T*S    EENTRO =        -0.00161745
  eigenvalues    EBANDS =       391.26924562
  atomic energy  EATOM  =      1713.22913220
  ---------------------------------------------------
  free energy    TOTEN  =      -119.24972275 eV

  energy without entropy =     -119.24810530  energy(sigma->0) =     -119.24891403


--------------------------------------------------------------------------------------------------------




----------------------------------------- Iteration    1(  11)  ---------------------------------------


    POTLOK:  VPU time    0.16: CPU time    0.16
    SETDIJ:  VPU time    0.01: CPU time    0.01
    EDDAV :  VPU time   24.14: CPU time   24.15
    DOS   :  VPU time    0.00: CPU time   -0.00
    CHARGE:  VPU time    1.13: CPU time    1.13
    MIXING:  VPU time    0.00: CPU time    0.01
    ------------------------------------------
      LOOP:  VPU time   25.46: CPU time   25.46

 eigenvalue-minimisations  :  6672
 total energy-change (2. order) : 0.2399913E-05  (-0.2469245E-07)
 number of electron   96.0000002 magnetization 
 augmentation part    -1.1972205 magnetization 

 Broyden mixing:
  rms(total) = 0.81003E-04    rms(broyden)= 0.81003E-04
  rms(prec ) = 0.10029E-03
  weight for this iteration     100.00

 eigenvalues of (default mixing * dielectric matrix)
  average eigenvalue GAMMA=   1.8165
  2.7038  2.6300  2.5339  1.0085  1.2243  0.7982

 Free energy of the ion-electron system (eV)
  ---------------------------------------------------
  alpha Z        PSCENC =        -6.94187321
  Ewald energy   TEWEN  =     -2402.91415314
  -1/2 Hartree   DENC   =        -3.68891311
  -V(xc)+E(xc)   XCENC  =      -832.01433402
  PAW double counting   =      1148.05831442     -126.24482848
  entropy T*S    EENTRO =        -0.00161748
  eigenvalues    EBANDS =       391.26855248
  atomic energy  EATOM  =      1713.22913220
  ---------------------------------------------------
  free energy    TOTEN  =      -119.24972035 eV

  energy without entropy =     -119.24810287  energy(sigma->0) =     -119.24891161


--------------------------------------------------------------------------------------------------------




----------------------------------------- Iteration    1(  12)  ---------------------------------------


    POTLOK:  VPU time    0.15: CPU time    0.16
    SETDIJ:  VPU time    0.01: CPU time    0.01
    EDDAV :  VPU time   18.90: CPU time   18.90
    DOS   :  VPU time    0.00: CPU time   -0.00
    CHARGE:  VPU time    1.10: CPU time    1.10
    MIXING:  VPU time    0.00: CPU time    0.01
    ------------------------------------------
      LOOP:  VPU time   20.18: CPU time   20.18

 eigenvalue-minimisations  :  4632
 total energy-change (2. order) : 0.1052917E-05  (-0.2172440E-08)
 number of electron   96.0000002 magnetization 
 augmentation part    -1.1972268 magnetization 

 Broyden mixing:
  rms(total) = 0.13719E-04    rms(broyden)= 0.13719E-04
  rms(prec ) = 0.22219E-04
  weight for this iteration     100.00

 eigenvalues of (default mixing * dielectric matrix)
  average eigenvalue GAMMA=   1.7434
  2.6690  2.6690  2.4912  1.5018  1.0054  1.0768  0.7906

 Free energy of the ion-electron system (eV)
  ---------------------------------------------------
  alpha Z        PSCENC =        -6.94187321
  Ewald energy   TEWEN  =     -2402.91415314
  -1/2 Hartree   DENC   =        -3.68920592
  -V(xc)+E(xc)   XCENC  =      -832.01405528
  PAW double counting   =      1148.04117974     -126.22737153
  entropy T*S    EENTRO =        -0.00161749
  eigenvalues    EBANDS =       391.26824533
  atomic energy  EATOM  =      1713.22913220
  ---------------------------------------------------
  free energy    TOTEN  =      -119.24971930 eV

  energy without entropy =     -119.24810181  energy(sigma->0) =     -119.24891055


--------------------------------------------------------------------------------------------------------




----------------------------------------- Iteration    1(  13)  ---------------------------------------


    POTLOK:  VPU time    0.16: CPU time    0.16
    SETDIJ:  VPU time    0.01: CPU time    0.01
    EDDAV :  VPU time   16.47: CPU time   16.47
    DOS   :  VPU time    0.00: CPU time   -0.00
    CHARGE:  VPU time    1.12: CPU time    1.12
    MIXING:  VPU time    0.00: CPU time    0.00
    ------------------------------------------
      LOOP:  VPU time   17.77: CPU time   17.77

 eigenvalue-minimisations  :  3712
 total energy-change (2. order) : 0.1488565E-06  (-0.2844141E-09)
 number of electron   96.0000002 magnetization 
 augmentation part    -1.1972264 magnetization 

 Broyden mixing:
  rms(total) = 0.34694E-05    rms(broyden)= 0.34694E-05
  rms(prec ) = 0.51018E-05
  weight for this iteration     100.00

 eigenvalues of (default mixing * dielectric matrix)
  average eigenvalue GAMMA=   1.7084
  2.6994  2.6994  2.5040  1.6462  1.3382  1.0561  0.9337  0.7900

 Free energy of the ion-electron system (eV)
  ---------------------------------------------------
  alpha Z        PSCENC =        -6.94187321
  Ewald energy   TEWEN  =     -2402.91415314
  -1/2 Hartree   DENC   =        -3.68914615
  -V(xc)+E(xc)   XCENC  =      -832.01415931
  PAW double counting   =      1148.03902323     -126.22515453
  entropy T*S    EENTRO =        -0.00161749
  eigenvalues    EBANDS =       391.26822925
  atomic energy  EATOM  =      1713.22913220
  ---------------------------------------------------
  free energy    TOTEN  =      -119.24971915 eV

  energy without entropy =     -119.24810166  energy(sigma->0) =     -119.24891041


--------------------------------------------------------------------------------------------------------




----------------------------------------- Iteration    1(  14)  ---------------------------------------


    POTLOK:  VPU time    0.16: CPU time    0.16
    SETDIJ:  VPU time    0.01: CPU time    0.01
    EDDAV :  VPU time   16.17: CPU time   16.17
    DOS   :  VPU time    0.00: CPU time   -0.00
    CHARGE:  VPU time    1.14: CPU time    1.14
    MIXING:  VPU time    0.00: CPU time    0.00
    ------------------------------------------
      LOOP:  VPU time   17.49: CPU time   17.49

 eigenvalue-minimisations  :  3632
 total energy-change (2. order) : 0.1179615E-07  (-0.4913126E-10)
 number of electron   96.0000002 magnetization 
 augmentation part    -1.1972279 magnetization 

 Broyden mixing:
  rms(total) = 0.90969E-06    rms(broyden)= 0.90968E-06
  rms(prec ) = 0.12509E-05
  weight for this iteration     100.00

 eigenvalues of (default mixing * dielectric matrix)
  average eigenvalue GAMMA=   1.6747
  2.7143  2.7143  2.5151  1.8196  1.4546  0.7918  1.1234  0.9695  0.9695

 Free energy of the ion-electron system (eV)
  ---------------------------------------------------
  alpha Z        PSCENC =        -6.94187321
  Ewald energy   TEWEN  =     -2402.91415314
  -1/2 Hartree   DENC   =        -3.68916245
  -V(xc)+E(xc)   XCENC  =      -832.01414532
  PAW double counting   =      1148.03887626     -126.22500972
  entropy T*S    EENTRO =        -0.00161749
  eigenvalues    EBANDS =       391.26823373
  atomic energy  EATOM  =      1713.22913220
  ---------------------------------------------------
  free energy    TOTEN  =      -119.24971914 eV

  energy without entropy =     -119.24810165  energy(sigma->0) =     -119.24891039


--------------------------------------------------------------------------------------------------------




----------------------------------------- Iteration    1(  15)  ---------------------------------------


    POTLOK:  VPU time    0.16: CPU time    0.16
    SETDIJ:  VPU time    0.01: CPU time    0.01
    EDDAV :  VPU time   16.03: CPU time   16.03
    DOS   :  VPU time    0.00: CPU time   -0.00
    ------------------------------------------
      LOOP:  VPU time   16.20: CPU time   16.21

 eigenvalue-minimisations  :  3560
 total energy-change (2. order) :-0.9184987E-08  (-0.9423237E-11)
 number of electron   96.0000002 magnetization 
 augmentation part    -1.1972279 magnetization 

 Free energy of the ion-electron system (eV)
  ---------------------------------------------------
  alpha Z        PSCENC =        -6.94187321
  Ewald energy   TEWEN  =     -2402.91415314
  -1/2 Hartree   DENC   =        -3.68916214
  -V(xc)+E(xc)   XCENC  =      -832.01414911
  PAW double counting   =      1148.03897856     -126.22511603
  entropy T*S    EENTRO =        -0.00161749
  eigenvalues    EBANDS =       391.26824120
  atomic energy  EATOM  =      1713.22913220
  ---------------------------------------------------
  free energy    TOTEN  =      -119.24971915 eV

  energy without entropy =     -119.24810166  energy(sigma->0) =     -119.24891040


--------------------------------------------------------------------------------------------------------




 average (electrostatic) potential at core
  the test charge radii are     1.0406
  (the norm of the test charge is              1.0000)
       1 -71.8604       2 -71.8605       3 -71.8605       4 -71.8605       5 -71.8605
       6 -71.8605       7 -71.8605       8 -71.8605       9 -71.8605      10 -71.8605
      11 -71.8605      12 -71.8605      13 -71.8605      14 -71.8605      15 -71.8605
      16 -71.8605      17 -71.8609      18 -71.8600      19 -71.8605      20 -71.8605
      21 -71.8609      22 -71.8600      23 -71.8605      24 -71.8605      25 -71.8609
      26 -71.8600      27 -71.8609      28 -71.8600      29 -71.8605      30 -71.8605
      31 -71.8605      32 -71.8605
 
 
 
 E-fermi :   8.6812     XC(G=0): -10.4294     alpha+bet :-15.8534
   add alpha+bet to get absolut eigen values

 k-point   1 :       0.0000    0.0000    0.0000
  band No.  band energies     occupation 
      1      -2.9018      2.00000
      2      -0.5629      2.00000
      3      -0.5589      2.00000
      4      -0.5589      2.00000
      5      -0.5589      2.00000
      6      -0.5589      2.00000
      7      -0.5550      2.00000
      8       1.7363      2.00000
      9       1.7407      2.00000
     10       1.7407      2.00000
     11       1.7426      2.00000
     12       1.7427      2.00000
     13       1.7427      2.00000
     14       1.7427      2.00000
     15       1.7427      2.00000
     16       1.7429      2.00000
     17       1.7447      2.00000
     18       1.7447      2.00000
     19       1.7492      2.00000
     20       3.8301      2.00000
     21       3.8301      2.00000
     22       3.8301      2.00000
     23       3.8301      2.00000
     24       4.2118      2.00000
     25       4.2118      2.00000
     26       4.2118      2.00000
     27       4.2118      2.00000
     28       5.6018      2.00000
     29       5.6018      2.00000
     30       5.6018      2.00000
     31       7.0608      2.00000
     32       7.0608      2.00000
     33       7.0608      2.00000
     34       7.7481      2.00000
     35       7.7481      2.00000
     36       7.7526      2.00000
     37       7.7526      2.00000
     38       7.7528      2.00000
     39       7.7528      2.00000
     40       7.7528      2.00000
     41       7.7528      2.00000
     42       7.7530      2.00000
     43       7.7530      2.00000
     44       7.7575      2.00000
     45       7.7575      2.00000
     46       8.7303      0.00000
     47       8.7347      0.00000
     48       8.7347      0.00000
     49       8.7347      0.00000
     50       8.7347      0.00000
     51       8.7391      0.00000
     52       9.9093      0.00000
     53       9.9093      0.00000
     54       9.9108      0.00000
     55       9.9133      0.00000
     56       9.9135      0.00000
     57       9.9135      0.00000
     58       9.9135      0.00000
     59       9.9135      0.00000
     60       9.9137      0.00000
     61       9.9163      0.00000
     62       9.9177      0.00000
     63       9.9177      0.00000
     64      10.1490      0.00000
     65      10.1502      0.00000
     66      10.1503      0.00000
     67      10.1503      0.00000
     68      10.1503      0.00000
     69      10.1515      0.00000
     70      11.6267      0.00000
     71      11.6289      0.00000
     72      11.6298      0.00000

 k-point   2 :       0.1667    0.0000    0.0000
  band No.  band energies     occupation 
      1      -2.8361      2.00000
      2      -1.2703      2.00000
      3      -0.4945      2.00000
      4      -0.4945      2.00000
      5      -0.4945      2.00000
      6      -0.4945      2.00000
      7       0.2764      2.00000
      8       1.0439      2.00000
      9       1.0439      2.00000
     10       1.0439      2.00000
     11       1.0439      2.00000
     12       1.8061      2.00000
     13       1.8061      2.00000
     14       1.8061      2.00000
     15       1.8061      2.00000
     16       2.5632      2.00000
     17       2.5632      2.00000
     18       2.5632      2.00000
     19       2.5632      2.00000
     20       3.3064      2.00000
     21       3.3064      2.00000
     22       3.3064      2.00000
     23       3.3064      2.00000
     24       4.7247      2.00000
     25       4.8564      2.00000
     26       4.8564      2.00000
     27       4.8564      2.00000
     28       4.8564      2.00000
     29       5.6614      2.00000
     30       5.6614      2.00000
     31       6.8998      2.00000
     32       6.8998      2.00000
     33       6.8999      2.00000
     34       6.8999      2.00000
     35       7.0945      2.00000
     36       7.0945      2.00000
     37       7.1229      2.00000
     38       7.1229      2.00000
     39       7.8127      2.00000
     40       7.8127      2.00000
     41       7.8127      2.00000
     42       7.8127      2.00000
     43       8.0499      2.00000
     44       8.4674      2.00000
     45       8.4674      2.00000
     46       8.5317      2.00000
     47       8.5317      2.00000
     48       9.1319      0.00000
     49       9.1319      0.00000
     50       9.1319      0.00000
     51       9.1319      0.00000
     52       9.2212      0.00000
     53       9.2212      0.00000
     54       9.2213      0.00000
     55       9.2214      0.00000
     56       9.2526      0.00000
     57       9.2526      0.00000
     58       9.2528      0.00000
     59       9.2528      0.00000
     60      10.5287      0.00000
     61      10.5287      0.00000
     62      10.6893      0.00000
     63      10.6893      0.00000
     64      10.6899      0.00000
     65      10.6899      0.00000
     66      10.6951      0.00000
     67      10.6951      0.00000
     68      10.6957      0.00000
     69      10.6957      0.00000
     70      10.9596      0.00000
     71      10.9596      0.00000
     72      10.9596      0.00000

 k-point   3 :       0.3333    0.0000    0.0000
  band No.  band energies     occupation 
      1      -2.6394      2.00000
      2      -1.8553      2.00000
      3      -0.3012      2.00000
      4      -0.3012      2.00000
      5      -0.3012      2.00000
      6      -0.3012      2.00000
      7       0.4691      2.00000
      8       0.4691      2.00000
      9       0.4691      2.00000
     10       0.4691      2.00000
     11       1.2327      2.00000
     12       1.9959      2.00000
     13       1.9959      2.00000
     14       1.9959      2.00000
     15       1.9959      2.00000
     16       2.7505      2.00000
     17       2.7505      2.00000
     18       2.7505      2.00000
     19       2.7505      2.00000
     20       3.4822      2.00000
     21       3.5015      2.00000
     22       3.5015      2.00000
     23       3.5015      2.00000
     24       3.5015      2.00000
     25       5.6992      2.00000
     26       5.6992      2.00000
     27       5.6992      2.00000
     28       5.6992      2.00000
     29       5.7737      2.00000
     30       5.7737      2.00000
     31       5.7738      2.00000
     32       5.7738      2.00000
     33       5.8403      2.00000
     34       5.8403      2.00000
     35       6.5565      2.00000
     36       6.5565      2.00000
     37       7.3077      2.00000
     38       7.3077      2.00000
     39       7.9480      2.00000
     40       7.9480      2.00000
     41       7.9481      2.00000
     42       7.9481      2.00000
     43       7.9925      2.00000
     44       7.9926      2.00000
     45       7.9926      2.00000
     46       7.9926      2.00000
     47       8.0136      2.00000
     48       8.0137      2.00000
     49       8.7123      0.00001
     50       8.7123      0.00001
     51       8.7123      0.00001
     52       8.7123      0.00001
     53       9.4315      0.00000
     54       9.4315      0.00000
     55       9.5898      0.00000
     56       9.5898      0.00000
     57       9.5898      0.00000
     58       9.5898      0.00000
     59       9.6287      0.00000
     60      10.3996      0.00000
     61      10.3996      0.00000
     62      10.3996      0.00000
     63      10.3996      0.00000
     64      11.3117      0.00000
     65      11.3118      0.00000
     66      11.5913      0.00000
     67      11.5913      0.00000
     68      11.5976      0.00000
     69      11.5976      0.00000
     70      11.5978      0.00000
     71      11.5978      0.00000
     72      12.0399      0.00000

 k-point   4 :       0.5000    0.0000    0.0000
  band No.  band energies     occupation 
      1      -2.3136      2.00000
      2      -2.3106      2.00000
      3       0.0161      2.00000
      4       0.0194      2.00000
      5       0.0194      2.00000
      6       0.0203      2.00000
      7       0.0203      2.00000
      8       0.0212      2.00000
      9       0.0212      2.00000
     10       0.0244      2.00000
     11       2.3026      2.00000
     12       2.3049      2.00000
     13       2.3097      2.00000
     14       2.3101      2.00000
     15       2.3101      2.00000
     16       2.3109      2.00000
     17       2.3118      2.00000
     18       2.3126      2.00000
     19       2.3126      2.00000
     20       2.3152      2.00000
     21       4.5505      2.00000
     22       4.5505      2.00000
     23       4.5509      2.00000
     24       4.5512      2.00000
     25       4.5515      2.00000
     26       4.5518      2.00000
     27       4.5522      2.00000
     28       4.5522      2.00000
     29       6.1369      2.00000
     30       6.1369      2.00000
     31       6.1402      2.00000
     32       6.1402      2.00000
     33       6.8099      2.00000
     34       6.8099      2.00000
     35       6.8102      2.00000
     36       6.8108      2.00000
     37       6.8108      2.00000
     38       6.8113      2.00000
     39       6.8117      2.00000
     40       6.8117      2.00000
     41       7.6076      2.00000
     42       7.6088      2.00000
     43       7.6105      2.00000
     44       7.6117      2.00000
     45       8.2899      2.00000
     46       8.2899      2.00000
     47       8.2908      2.00000
     48       8.2923      2.00000
     49       8.2924      2.00000
     50       8.2939      2.00000
     51       8.2948      2.00000
     52       8.2948      2.00000
     53       9.9465      0.00000
     54       9.9474      0.00000
     55       9.9474      0.00000
     56       9.9476      0.00000
     57       9.9499      0.00000
     58       9.9501      0.00000
     59       9.9501      0.00000
     60       9.9510      0.00000
     61      10.4508      0.00000
     62      10.4508      0.00000
     63      10.4530      0.00000
     64      10.4530      0.00000
     65      11.3653      0.00000
     66      11.3665      0.00000
     67      12.2464      0.00000
     68      12.2466      0.00000
     69      12.2483      0.00000
     70      12.2485      0.00000
     71      12.6204      0.00000
     72      12.6217      0.00000

 k-point   5 :       0.0000    0.1667    0.0000
  band No.  band energies     occupation 
      1      -2.8361      2.00000
      2      -1.2703      2.00000
      3      -0.4975      2.00000
      4      -0.4945      2.00000
      5      -0.4945      2.00000
      6      -0.4915      2.00000
      7       0.2764      2.00000
      8       1.0408      2.00000
      9       1.0439      2.00000
     10       1.0439      2.00000
     11       1.0469      2.00000
     12       1.8039      2.00000
     13       1.8048      2.00000
     14       1.8073      2.00000
     15       1.8082      2.00000
     16       2.5601      2.00000
     17       2.5632      2.00000
     18       2.5632      2.00000
     19       2.5662      2.00000
     20       3.3043      2.00000
     21       3.3052      2.00000
     22       3.3076      2.00000
     23       3.3085      2.00000
     24       4.7247      2.00000
     25       4.8542      2.00000
     26       4.8551      2.00000
     27       4.8576      2.00000
     28       4.8585      2.00000
     29       5.6614      2.00000
     30       5.6614      2.00000
     31       6.8965      2.00000
     32       6.8999      2.00000
     33       6.8999      2.00000
     34       6.9031      2.00000
     35       7.0945      2.00000
     36       7.0945      2.00000
     37       7.1229      2.00000
     38       7.1229      2.00000
     39       7.8099      2.00000
     40       7.8127      2.00000
     41       7.8127      2.00000
     42       7.8156      2.00000
     43       8.0499      2.00000
     44       8.4674      2.00000
     45       8.4674      2.00000
     46       8.5317      2.00000
     47       8.5317      2.00000
     48       9.1293      0.00000
     49       9.1306      0.00000
     50       9.1332      0.00000
     51       9.1345      0.00000
     52       9.2185      0.00000
     53       9.2213      0.00000
     54       9.2213      0.00000
     55       9.2240      0.00000
     56       9.2497      0.00000
     57       9.2526      0.00000
     58       9.2527      0.00000
     59       9.2556      0.00000
     60      10.5287      0.00000
     61      10.5287      0.00000
     62      10.6881      0.00000
     63      10.6889      0.00000
     64      10.6898      0.00000
     65      10.6914      0.00000
     66      10.6929      0.00000
     67      10.6952      0.00000
     68      10.6955      0.00000
     69      10.6984      0.00000
     70      10.9575      0.00000
     71      10.9596      0.00000
     72      10.9603      0.00000

 k-point   6 :       0.1667    0.1667    0.0000
  band No.  band energies     occupation 
      1      -2.7705      2.00000
      2      -1.2067      2.00000
      3      -1.2042      2.00000
      4      -0.4300      2.00000
      5      -0.4300      2.00000
      6       0.3387      2.00000
      7       0.3408      2.00000
      8       0.3426      2.00000
      9       1.1058      2.00000
     10       1.1068      2.00000
     11       1.1084      2.00000
     12       1.1093      2.00000
     13       1.8685      2.00000
     14       1.8694      2.00000
     15       2.6232      2.00000
     16       2.6242      2.00000
     17       2.6256      2.00000
     18       2.6257      2.00000
     19       2.6271      2.00000
     20       2.6283      2.00000
     21       3.3778      2.00000
     22       3.9510      2.00000
     23       3.9510      2.00000
     24       4.3392      2.00000
     25       4.3392      2.00000
     26       4.7856      2.00000
     27       4.7864      2.00000
     28       5.6519      2.00000
     29       5.6519      2.00000
     30       5.7210      2.00000
     31       6.2430      2.00000
     32       6.2455      2.00000
     33       6.8185      2.00000
     34       6.8185      2.00000
     35       7.1430      2.00000
     36       7.1432      2.00000
     37       7.1530      2.00000
     38       7.1559      2.00000
     39       7.1843      2.00000
     40       7.6305      2.00000
     41       7.6326      2.00000
     42       8.1095      2.00000
     43       8.1104      2.00000
     44       8.4632      2.00000
     45       8.4642      2.00000
     46       8.4657      2.00000
     47       8.4668      2.00000
     48       8.5895      2.00000
     49       8.5920      2.00000
     50       8.5943      2.00000
     51       8.7612      0.00000
     52       8.7629      0.00000
     53       9.3145      0.00000
     54       9.3172      0.00000
     55       9.9130      0.00000
     56       9.9141      0.00000
     57       9.9174      0.00000
     58       9.9179      0.00000
     59       9.9184      0.00000
     60       9.9199      0.00000
     61      10.0328      0.00000
     62      10.0346      0.00000
     63      10.2889      0.00000
     64      10.7036      0.00000
     65      10.7043      0.00000
     66      10.9807      0.00000
     67      10.9807      0.00000
     68      11.3051      0.00000
     69      11.3074      0.00000
     70      11.4772      0.00000
     71      11.7365      0.00000
     72      11.7365      0.00000

 k-point   7 :       0.3333    0.1667    0.0000
  band No.  band energies     occupation 
      1      -2.5738      2.00000
      2      -1.7902      2.00000
      3      -1.0112      2.00000
      4      -0.2382      2.00000
      5      -0.2368      2.00000
      6      -0.2353      2.00000
      7       0.5313      2.00000
      8       0.5331      2.00000
      9       0.5343      2.00000
     10       1.2950      2.00000
     11       1.2980      2.00000
     12       1.2985      2.00000
     13       1.2997      2.00000
     14       2.0591      2.00000
     15       2.0591      2.00000
     16       2.8126      2.00000
     17       2.8141      2.00000
     18       2.8144      2.00000
     19       3.5443      2.00000
     20       3.5546      2.00000
     21       3.5546      2.00000
     22       3.5635      2.00000
     23       3.5637      2.00000
     24       4.3087      2.00000
     25       4.9693      2.00000
     26       5.0285      2.00000
     27       5.1035      2.00000
     28       5.1035      2.00000
     29       5.7003      2.00000
     30       5.7513      2.00000
     31       5.7514      2.00000
     32       5.8999      2.00000
     33       6.4771      2.00000
     34       6.5726      2.00000
     35       6.5726      2.00000
     36       6.6163      2.00000
     37       7.1972      2.00000
     38       7.1973      2.00000
     39       7.2763      2.00000
     40       7.2763      2.00000
     41       7.3339      2.00000
     42       7.3659      2.00000
     43       7.9185      2.00000
     44       7.9186      2.00000
     45       7.9745      2.00000
     46       8.0527      2.00000
     47       8.2883      2.00000
     48       8.7396      0.00000
     49       8.7397      0.00000
     50       8.7719      0.00000
     51       8.8091      0.00000
     52       8.9571      0.00000
     53       8.9738      0.00000
     54       9.4904      0.00000
     55       9.4939      0.00000
     56       9.6858      0.00000
     57       9.7321      0.00000
     58      10.2093      0.00000
     59      10.4686      0.00000
     60      10.4686      0.00000
     61      10.8210      0.00000
     62      10.8212      0.00000
     63      10.8276      0.00000
     64      10.9356      0.00000
     65      11.1709      0.00000
     66      11.3018      0.00000
     67      11.3018      0.00000
     68      11.3975      0.00000
     69      11.5454      0.00000
     70      11.6521      0.00000
     71      12.1367      0.00000
     72      12.1392      0.00000

 k-point   8 :       0.5000    0.1667    0.0000
  band No.  band energies     occupation 
      1      -2.2482      2.00000
      2      -2.2452      2.00000
      3      -0.6894      2.00000
      4      -0.6864      2.00000
      5       0.0824      2.00000
      6       0.0836      2.00000
      7       0.0854      2.00000
      8       0.0866      2.00000
      9       0.8505      2.00000
     10       0.8535      2.00000
     11       1.6140      2.00000
     12       1.6152      2.00000
     13       1.6170      2.00000
     14       1.6182      2.00000
     15       2.3673      2.00000
     16       2.3684      2.00000
     17       3.1237      2.00000
     18       3.1250      2.00000
     19       3.1267      2.00000
     20       3.1280      2.00000
     21       3.8696      2.00000
     22       3.8708      2.00000
     23       4.6105      2.00000
     24       4.6110      2.00000
     25       4.6116      2.00000
     26       4.6121      2.00000
     27       5.2730      2.00000
     28       5.2761      2.00000
     29       5.3474      2.00000
     30       5.3485      2.00000
     31       6.1357      2.00000
     32       6.1360      2.00000
     33       6.1370      2.00000
     34       6.1371      2.00000
     35       6.1967      2.00000
     36       6.1999      2.00000
     37       7.4921      2.00000
     38       7.4934      2.00000
     39       7.4953      2.00000
     40       7.4965      2.00000
     41       7.6060      2.00000
     42       7.6063      2.00000
     43       7.6073      2.00000
     44       7.6075      2.00000
     45       7.6317      2.00000
     46       7.6350      2.00000
     47       7.6547      2.00000
     48       7.6576      2.00000
     49       8.5767      2.00000
     50       8.5798      2.00000
     51       9.0705      0.00000
     52       9.0738      0.00000
     53       9.2918      0.00000
     54       9.2948      0.00000
     55       9.7227      0.00000
     56       9.7244      0.00000
     57      10.5111      0.00000
     58      10.5133      0.00000
     59      10.6922      0.00000
     60      10.6955      0.00000
     61      10.8494      0.00000
     62      10.8501      0.00000
     63      10.8526      0.00000
     64      10.8533      0.00000
     65      11.4172      0.00000
     66      11.4183      0.00000
     67      11.8366      0.00000
     68      11.8367      0.00000
     69      11.8383      0.00000
     70      11.8384      0.00000
     71      11.9573      0.00000
     72      11.9596      0.00000

 k-point   9 :       0.0000    0.3333    0.0000
  band No.  band energies     occupation 
      1      -2.6394      2.00000
      2      -1.8553      2.00000
      3      -0.3042      2.00000
      4      -0.3012      2.00000
      5      -0.3012      2.00000
      6      -0.2982      2.00000
      7       0.4661      2.00000
      8       0.4691      2.00000
      9       0.4691      2.00000
     10       0.4721      2.00000
     11       1.2326      2.00000
     12       1.9937      2.00000
     13       1.9946      2.00000
     14       1.9971      2.00000
     15       1.9980      2.00000
     16       2.7483      2.00000
     17       2.7492      2.00000
     18       2.7517      2.00000
     19       2.7526      2.00000
     20       3.4822      2.00000
     21       3.4984      2.00000
     22       3.5015      2.00000
     23       3.5015      2.00000
     24       3.5046      2.00000
     25       5.6960      2.00000
     26       5.6992      2.00000
     27       5.6992      2.00000
     28       5.7024      2.00000
     29       5.7715      2.00000
     30       5.7725      2.00000
     31       5.7750      2.00000
     32       5.7760      2.00000
     33       5.8403      2.00000
     34       5.8403      2.00000
     35       6.5565      2.00000
     36       6.5566      2.00000
     37       7.3077      2.00000
     38       7.3077      2.00000
     39       7.9457      2.00000
     40       7.9468      2.00000
     41       7.9494      2.00000
     42       7.9505      2.00000
     43       7.9897      2.00000
     44       7.9924      2.00000
     45       7.9925      2.00000
     46       7.9954      2.00000
     47       8.0136      2.00000
     48       8.0138      2.00000
     49       8.7094      0.00007
     50       8.7123      0.00001
     51       8.7123      0.00001
     52       8.7152      0.00000
     53       9.4314      0.00000
     54       9.4315      0.00000
     55       9.5873      0.00000
     56       9.5898      0.00000
     57       9.5898      0.00000
     58       9.5923      0.00000
     59       9.6287      0.00000
     60      10.3971      0.00000
     61      10.3996      0.00000
     62      10.3996      0.00000
     63      10.4020      0.00000
     64      11.3117      0.00000
     65      11.3117      0.00000
     66      11.5916      0.00000
     67      11.5916      0.00000
     68      11.5946      0.00000
     69      11.5976      0.00000
     70      11.5976      0.00000
     71      11.6006      0.00000
     72      12.0397      0.00000

 k-point  10 :       0.1667    0.3333    0.0000
  band No.  band energies     occupation 
      1      -2.5738      2.00000
      2      -1.7902      2.00000
      3      -1.0112      2.00000
      4      -0.2382      2.00000
      5      -0.2368      2.00000
      6      -0.2353      2.00000
      7       0.5313      2.00000
      8       0.5331      2.00000
      9       0.5343      2.00000
     10       1.2952      2.00000
     11       1.2974      2.00000
     12       1.2985      2.00000
     13       1.3001      2.00000
     14       2.0591      2.00000
     15       2.0591      2.00000
     16       2.8120      2.00000
     17       2.8141      2.00000
     18       2.8150      2.00000
     19       3.5443      2.00000
     20       3.5547      2.00000
     21       3.5548      2.00000
     22       3.5634      2.00000
     23       3.5635      2.00000
     24       4.3087      2.00000
[...]
      6      -0.1080      2.00000
      7      -0.1080      2.00000
      8      -0.1080      2.00000
      9       1.4251      2.00000
     10       1.4251      2.00000
     11       1.4251      2.00000
     12       1.4251      2.00000
     13       2.9334      2.00000
     14       2.9334      2.00000
     15       2.9334      2.00000
     16       2.9334      2.00000
     17       2.9335      2.00000
     18       2.9335      2.00000
     19       2.9335      2.00000
     20       2.9335      2.00000
     21       4.4146      2.00000
     22       4.4146      2.00000
     23       4.4150      2.00000
     24       4.4150      2.00000
     25       4.4150      2.00000
     26       4.4150      2.00000
     27       4.4153      2.00000
     28       4.4153      2.00000
     29       5.8116      2.00000
     30       5.8116      2.00000
     31       5.8116      2.00000
     32       5.8116      2.00000
     33       5.9611      2.00000
     34       5.9611      2.00000
     35       5.9617      2.00000
     36       5.9617      2.00000
     37       5.9617      2.00000
     38       5.9617      2.00000
     39       5.9623      2.00000
     40       5.9623      2.00000
     41       7.3706      2.00000
     42       7.3706      2.00000
     43       7.3706      2.00000
     44       7.3706      2.00000
     45       8.8739      0.00000
     46       8.8739      0.00000
     47       8.8739      0.00000
     48       8.8739      0.00000
     49       9.2662      0.00000
     50       9.2662      0.00000
     51       9.2662      0.00000
     52       9.2662      0.00000
     53      10.1823      0.00000
     54      10.1823      0.00000
     55      10.1830      0.00000
     56      10.1830      0.00000
     57      10.1830      0.00000
     58      10.1830      0.00000
     59      10.1836      0.00000
     60      10.1836      0.00000
     61      10.3328      0.00000
     62      10.3328      0.00000
     63      10.3328      0.00000
     64      10.3328      0.00000
     65      11.9575      0.00000
     66      11.9575      0.00000
     67      11.9586      0.00000
     68      11.9586      0.00000
     69      11.9586      0.00000
     70      11.9587      0.00000
     71      11.9598      0.00000
     72      11.9598      0.00000

 k-point  39 :       0.3333    0.5000    0.5000
  band No.  band energies     occupation 
      1      -1.4651      2.00000
      2      -1.4650      2.00000
      3      -1.4650      2.00000
      4      -1.4650      2.00000
      5      -0.6879      2.00000
      6      -0.6879      2.00000
      7      -0.6879      2.00000
      8      -0.6878      2.00000
      9       2.3723      2.00000
     10       2.3724      2.00000
     11       2.3724      2.00000
     12       2.3724      2.00000
     13       3.1212      2.00000
     14       3.1212      2.00000
     15       3.1212      2.00000
     16       3.1212      2.00000
     17       3.1212      2.00000
     18       3.1212      2.00000
     19       3.1213      2.00000
     20       3.1213      2.00000
     21       3.8671      2.00000
     22       3.8671      2.00000
     23       3.8672      2.00000
     24       3.8672      2.00000
     25       3.8672      2.00000
     26       3.8672      2.00000
     27       3.8673      2.00000
     28       3.8673      2.00000
     29       4.5949      2.00000
     30       4.5949      2.00000
     31       4.5949      2.00000
     32       4.5950      2.00000
     33       6.8664      2.00000
     34       6.8664      2.00000
     35       6.8669      2.00000
     36       6.8669      2.00000
     37       6.8669      2.00000
     38       6.8669      2.00000
     39       6.8673      2.00000
     40       6.8673      2.00000
     41       7.5788      2.00000
     42       7.5788      2.00000
     43       7.5788      2.00000
     44       7.5788      2.00000
     45       8.3227      2.00000
     46       8.3227      2.00000
     47       8.3227      2.00000
     48       8.3227      2.00000
     49       9.0137      0.00000
     50       9.0137      0.00000
     51       9.0142      0.00000
     52       9.0142      0.00000
     53       9.0142      0.00000
     54       9.0142      0.00000
     55       9.0147      0.00000
     56       9.0147      0.00000
     57      10.7926      0.00000
     58      10.7926      0.00000
     59      10.7926      0.00000
     60      10.7926      0.00000
     61      11.2361      0.00000
     62      11.2361      0.00000
     63      11.2361      0.00000
     64      11.2361      0.00000
     65      12.1925      0.00000
     66      12.1925      0.00000
     67      12.1933      0.00000
     68      12.1933      0.00000
     69      12.1933      0.00000
     70      12.1933      0.00000
     71      12.1941      0.00000
     72      12.1941      0.00000

 k-point  40 :       0.5000    0.5000    0.5000
  band No.  band energies     occupation 
      1      -1.1457      2.00000
      2      -1.1411      2.00000
      3      -1.1411      2.00000
      4      -1.1407      2.00000
      5      -1.1407      2.00000
      6      -1.1402      2.00000
      7      -1.1402      2.00000
      8      -1.1357      2.00000
      9       3.4228      2.00000
     10       3.4289      2.00000
     11       3.4289      2.00000
     12       3.4322      2.00000
     13       3.4326      2.00000
     14       3.4327      2.00000
     15       3.4331      2.00000
     16       3.4331      2.00000
     17       3.4332      2.00000
     18       3.4332      2.00000
     19       3.4332      2.00000
     20       3.4332      2.00000
     21       3.4332      2.00000
     22       3.4332      2.00000
     23       3.4333      2.00000
     24       3.4333      2.00000
     25       3.4333      2.00000
     26       3.4333      2.00000
     27       3.4337      2.00000
     28       3.4338      2.00000
     29       3.4342      2.00000
     30       3.4375      2.00000
     31       3.4375      2.00000
     32       3.4436      2.00000
     33       7.8853      2.00000
     34       7.8853      2.00000
     35       7.8875      2.00000
     36       7.8891      2.00000
     37       7.8908      2.00000
     38       7.8911      2.00000
     39       7.8912      2.00000
     40       7.8912      2.00000
     41       7.8915      2.00000
     42       7.8915      2.00000
     43       7.8916      2.00000
     44       7.8916      2.00000
     45       7.8916      2.00000
     46       7.8916      2.00000
     47       7.8916      2.00000
     48       7.8916      2.00000
     49       7.8919      2.00000
     50       7.8919      2.00000
     51       7.8920      2.00000
     52       7.8923      2.00000
     53       7.8941      2.00000
     54       7.8956      2.00000
     55       7.8979      2.00000
     56       7.8979      2.00000
     57      12.2475      0.00000
     58      12.2479      0.00000
     59      12.2479      0.00000
     60      12.2481      0.00000
     61      12.2500      0.00000
     62      12.2503      0.00000
     63      12.2503      0.00000
     64      12.2508      0.00000
     65      12.4985      0.00000
     66      12.4991      0.00000
     67      12.5003      0.00000
     68      12.5010      0.00000
     69      12.5019      0.00000
     70      12.5023      0.00000
     71      12.5026      0.00000
     72      12.5031      0.00000


--------------------------------------------------------------------------------------------------------


 soft charge-density along one line, spin component           1
         0         1         2         3         4         5         6         7         8         9
 total charge-density along one line
 
 pseudopotential strength for first ion, spin component:           1
  8.423  -0.007  -0.000   0.000  -0.000  -0.000   0.000  -0.000
 -0.007   0.000  -0.000   0.000  -0.000   0.000  -0.000   0.000
 -0.000  -0.000   1.991  -0.000  -0.000  -0.029   0.000   0.000
  0.000   0.000  -0.000   1.991   0.000   0.000  -0.029  -0.000
 -0.000  -0.000  -0.000   0.000   1.991   0.000  -0.000  -0.029
 -0.000   0.000  -0.029   0.000   0.000  -0.011   0.000   0.000
  0.000  -0.000   0.000  -0.029  -0.000   0.000  -0.011  -0.000
 -0.000   0.000   0.000  -0.000  -0.029   0.000  -0.000  -0.011
 total augmentation occupancy for first ion, spin component:           1
  1.308  -0.551  -0.000   0.000   0.003   0.000  -0.000  -0.002
 -0.551   0.549  -0.000   0.000  -0.004   0.000  -0.000   0.001
 -0.000  -0.000   0.783   0.006   0.009  -0.165  -0.001  -0.001
  0.000   0.000   0.006   0.784   0.003  -0.001  -0.162  -0.001
  0.003  -0.004   0.009   0.003   0.783  -0.001  -0.001  -0.163
  0.000   0.000  -0.165  -0.001  -0.001   0.040   0.000   0.000
 -0.000  -0.000  -0.001  -0.162  -0.001   0.000   0.039   0.000
 -0.002   0.001  -0.001  -0.001  -0.163   0.000   0.000   0.039


------------------------ aborting loop because EDIFF is reached ----------------------------------------




--------------------------------------------------------------------------------------------------------


    CHARGE:  VPU time    1.09: CPU time    1.09
    FORLOC:  VPU time    0.03: CPU time    0.03
    FORNL :  VPU time    6.53: CPU time    6.52
    STRESS:  VPU time   17.99: CPU time   17.99
    FORCOR:  VPU time    0.18: CPU time    0.18
    FORHAR:  VPU time    0.07: CPU time    0.07
    MIXING:  VPU time    0.00: CPU time    0.01


--------------------------------------------------------------------------------------------------------



  FREE ENERGIE OF THE ION-ELECTRON SYSTEM (eV)
  ---------------------------------------------------
  free  energy   TOTEN  =      -119.249719 eV

  energy  without entropy=     -119.248102  energy(sigma->0) =     -119.248910
 

  FORCE on cell =-STRESS in cart. coord.  units (eV/reduce length):
  Direction    X        Y        Z        XY       YZ       ZX
  --------------------------------------------------------------------------------------
  Alpha Z     -6.94     -6.94     -6.94
  Ewald     -800.98   -800.97   -800.97     -0.00     -0.00     -0.00
  Hartree      1.23      1.23      1.23     -0.00     -0.00     -0.00
  E(xc)     -279.72   -279.72   -279.72      0.00     -0.00     -0.00
  Local       19.81     19.80     19.80     -0.00     -0.00      0.00
  n-local    614.73    614.33    615.13     -1.37     -0.42      0.54
  augment    -31.89    -31.89    -31.89      0.00      0.00      0.00
  Kinetic    500.79    495.08    506.51      7.98      2.64     -2.71
  -------------------------------------------------------------------------------------
  Total       17.03     17.03     17.03      0.00      0.00      0.00
  in kB       55.08     55.08     55.08      0.00      0.00      0.00
  external pressure =       55.08 kB  Pullay stress =        0.00 kB


 VOLUME and BASIS-vectors are now :
 -----------------------------------------------------------------------------
  energy-cutoff  :      500.00
  volume of cell :      495.46
      direct lattice vectors                 reciprocal lattice vectors
     7.912911804  0.000000000  0.000000000     0.126375729  0.000000000  0.000000000
     0.000000000  7.912911804  0.000000000     0.000000000  0.126375729  0.000000000
     0.000000000  0.000000000  7.912911804     0.000000000  0.000000000  0.126375729

  length of vectors
     7.912911804  7.912911804  7.912911804     0.126375729  0.126375729  0.126375729


 FORCES acting on ions
    electron-ion (+dipol)            ewald-force                    non-local-force                 convergence-correction
 -----------------------------------------------------------------------------------------------
   0.418E+00 -.787E-13 -.101E-07   -.340E+00 0.244E-14 0.467E-15   -.137E+00 0.000E+00 0.000E+00   -.419E-06 0.956E-15 -.165E-13
   -.889E-01 0.249E-12 -.101E-12   0.896E-01 0.167E-15 -.788E-14   0.308E-02 0.542E-19 -.203E-19   0.475E-07 0.259E-14 -.205E-13
   0.318E-01 0.780E-13 -.874E-13   -.284E-01 -.572E-14 -.944E-15   -.276E-02 0.000E+00 0.136E-19   -.734E-06 -.163E-14 -.155E-13
   -.236E-01 -.354E-12 -.308E-13   0.223E-01 -.550E-14 -.944E-15   0.149E-02 0.000E+00 0.000E+00   0.201E-06 -.324E-14 -.182E-13
   0.318E-01 0.850E-14 -.705E-13   -.284E-01 -.427E-14 0.796E-15   -.276E-02 0.000E+00 0.136E-19   -.726E-06 -.146E-15 0.169E-13
   -.236E-01 -.650E-13 -.233E-14   0.223E-01 0.283E-14 0.790E-14   0.149E-02 0.163E-18 0.000E+00   0.195E-06 0.344E-15 0.208E-13
   0.147E-01 -.172E-13 -.319E-13   -.117E-01 -.105E-14 -.215E-14   -.191E-02 0.000E+00 0.678E-20   -.148E-05 -.525E-15 0.158E-13
   -.115E-01 0.134E-12 0.347E-12   0.110E-01 -.816E-14 0.141E-14   -.490E-03 -.108E-18 -.136E-19   0.147E-05 -.991E-15 0.186E-13
   0.512E-01 -.210E-03 0.210E-03   -.535E-01 0.213E-03 -.213E-03   0.577E-03 0.301E-04 -.301E-04   -.914E-06 0.102E-06 -.102E-06
   -.350E-01 0.121E-03 -.121E-03   0.301E-01 -.637E-04 0.637E-04   0.365E-02 -.460E-04 0.460E-04   0.369E-06 0.562E-07 -.561E-07
   0.512E-01 0.210E-03 0.210E-03   -.535E-01 -.213E-03 -.213E-03   0.577E-03 -.301E-04 -.301E-04   -.914E-06 -.102E-06 -.102E-06
   -.350E-01 -.121E-03 -.121E-03   0.301E-01 0.637E-04 0.637E-04   0.365E-02 0.460E-04 0.460E-04   0.369E-06 -.562E-07 -.561E-07
   0.512E-01 -.210E-03 -.210E-03   -.535E-01 0.213E-03 0.213E-03   0.577E-03 0.301E-04 0.301E-04   -.914E-06 0.102E-06 0.102E-06
   -.350E-01 0.121E-03 0.121E-03   0.301E-01 -.637E-04 -.637E-04   0.365E-02 -.460E-04 -.460E-04   0.369E-06 0.562E-07 0.561E-07
   0.512E-01 0.210E-03 -.210E-03   -.535E-01 -.213E-03 0.213E-03   0.577E-03 -.301E-04 0.301E-04   -.914E-06 -.102E-06 0.102E-06
   -.350E-01 -.121E-03 0.121E-03   0.301E-01 0.637E-04 -.637E-04   0.365E-02 0.460E-04 -.460E-04   0.369E-06 -.562E-07 0.561E-07
   -.513E-01 -.152E-15 0.894E-01   0.433E-01 0.455E-14 -.821E-01   0.159E-01 0.542E-19 -.162E-01   0.296E-06 0.648E-15 0.185E-07
   -.512E-01 -.313E-12 -.904E-01   0.431E-01 0.444E-14 0.828E-01   0.162E-01 0.000E+00 0.167E-01   0.261E-06 0.589E-16 -.214E-06
   -.459E-03 -.113E-13 0.753E-02   0.145E-02 0.211E-14 -.679E-02   -.775E-03 0.542E-19 -.518E-03   0.151E-06 -.129E-14 0.453E-06
   -.360E-03 -.552E-13 -.762E-02   0.131E-02 -.444E-14 0.680E-02   -.741E-03 -.271E-19 0.577E-03   0.207E-06 -.794E-15 -.551E-06
   -.513E-01 -.221E-14 -.894E-01   0.433E-01 0.455E-14 0.821E-01   0.159E-01 0.271E-19 0.162E-01   0.296E-06 0.154E-14 -.185E-07
   -.512E-01 0.753E-13 0.904E-01   0.431E-01 0.444E-14 -.828E-01   0.162E-01 0.000E+00 -.167E-01   0.261E-06 0.142E-14 0.214E-06
   -.459E-03 -.147E-13 -.753E-02   0.145E-02 0.333E-15 0.679E-02   -.775E-03 0.542E-19 0.518E-03   0.151E-06 -.218E-14 -.453E-06
   -.360E-03 0.129E-12 0.762E-02   0.131E-02 -.266E-14 -.680E-02   -.741E-03 0.163E-18 -.577E-03   0.207E-06 -.212E-14 0.551E-06
   -.513E-01 -.894E-01 0.601E-14   0.433E-01 0.821E-01 -.583E-15   0.159E-01 0.162E-01 0.678E-20   0.297E-06 -.219E-07 -.177E-13
   -.512E-01 0.904E-01 0.366E-13   0.431E-01 -.828E-01 -.119E-14   0.162E-01 -.167E-01 0.136E-19   0.262E-06 0.217E-06 -.166E-13
   -.513E-01 0.894E-01 -.795E-15   0.433E-01 -.821E-01 -.576E-15   0.159E-01 -.162E-01 -.136E-19   0.297E-06 0.219E-07 -.185E-13
   -.512E-01 -.904E-01 0.419E-13   0.431E-01 0.828E-01 -.118E-14   0.162E-01 0.167E-01 -.203E-19   0.262E-06 -.217E-06 -.179E-13
   -.459E-03 -.753E-02 -.665E-14   0.145E-02 0.679E-02 0.766E-14   -.775E-03 0.518E-03 0.263E-19   0.150E-06 -.457E-06 0.180E-13
   -.360E-03 0.762E-02 -.953E-13   0.131E-02 -.680E-02 0.117E-14   -.741E-03 -.577E-03 -.136E-19   0.206E-06 0.554E-06 0.169E-13
   -.459E-03 0.753E-02 -.201E-14   0.145E-02 -.679E-02 0.767E-14   -.775E-03 -.518E-03 0.136E-19   0.150E-06 0.457E-06 0.189E-13
   -.360E-03 -.762E-02 0.101E-12   0.131E-02 0.680E-02 0.118E-14   -.741E-03 0.577E-03 -.572E-20   0.206E-06 -.554E-06 0.183E-13
 -----------------------------------------------------------------------------------------------
   -.804E-06 0.199E-12 -.101E-07   0.457E-14 0.270E-14 0.148E-14   -.331E-05 -.347E-17 -.433E-17   0.313E-07 -.401E-16 0.172E-16
 
 
 POSITION                                       TOTAL-FORCE (eV/Angst)
 -----------------------------------------------------------------------------------
      1.98823      1.97823      0.00000        -0.058743     -0.000000      0.000000
      5.93468      1.97823      0.00000         0.003776     -0.000000     -0.000000
      1.97823      5.93468      0.00000         0.000682     -0.000000      0.000000
      5.93468      5.93468      0.00000         0.000149      0.000000     -0.000000
      1.97823      1.97823      3.95646         0.000682      0.000000      0.000000
      5.93468      1.97823      3.95646         0.000149      0.000000     -0.000000
      1.97823      5.93468      3.95646         0.001032     -0.000000      0.000000
      5.93468      5.93468      3.95646        -0.001041      0.000000      0.000000
      1.97823      0.00000      1.97823        -0.001743      0.000033     -0.000033
      5.93468      0.00000      1.97823        -0.001285      0.000012     -0.000012
      1.97823      3.95646      1.97823        -0.001743     -0.000033     -0.000033
      5.93468      3.95646      1.97823        -0.001285     -0.000012     -0.000012
      1.97823      0.00000      5.93468        -0.001743      0.000033      0.000033
      5.93468      0.00000      5.93468        -0.001285      0.000012      0.000012
      1.97823      3.95646      5.93468        -0.001743     -0.000033      0.000033
      5.93468      3.95646      5.93468        -0.001285     -0.000012      0.000012
      0.00000      1.97823      1.97823         0.007875     -0.000000     -0.008895
      3.95646      1.97823      1.97823         0.008060      0.000000      0.009129
      0.00000      5.93468      1.97823         0.000213     -0.000000      0.000220
      3.95646      5.93468      1.97823         0.000209     -0.000000     -0.000238
      0.00000      1.97823      5.93468         0.007875      0.000000      0.008895
      3.95646      1.97823      5.93468         0.008060     -0.000000     -0.009129
      0.00000      5.93468      5.93468         0.000213     -0.000000     -0.000220
      3.95646      5.93468      5.93468         0.000209     -0.000000      0.000238
      0.00000      0.00000      0.00000         0.007875      0.008895      0.000000
      3.95646      0.00000      0.00000         0.008060     -0.009129     -0.000000
      0.00000      3.95646      0.00000         0.007875     -0.008895      0.000000
      3.95646      3.95646      0.00000         0.008060      0.009129      0.000000
      0.00000      0.00000      3.95646         0.000213     -0.000220      0.000000
      3.95646      0.00000      3.95646         0.000209      0.000238     -0.000000
      0.00000      3.95646      3.95646         0.000213      0.000220      0.000000
      3.95646      3.95646      3.95646         0.000209     -0.000238     -0.000000
 -----------------------------------------------------------------------------------
    total drift:                               -0.000004      0.000000     -0.000000


--------------------------------------------------------------------------------------------------------



 mean value of Nose-termostat <S>:     1.000 mean value of <T> :     0.000
 mean temperature <T/S>/<1/S>  :     0.000

     LOOP+:  VPU time  351.03: CPU time  351.08
  
  
 General timing and accounting informations for this job:
 ========================================================
  
                  Total CPU time used (sec):      358.155
                            User time (sec):      333.446
                          System time (sec):       24.708
                         Elapsed time (sec):      358.207
  
                   Maximum memory used (kb):      907260.
                   Average memory used (kb):           0.
  
                          Minor page faults:       214151
                          Major page faults:            0
                 Voluntary context switches:          920
