<?xml version="1.0" encoding="ISO-8859-1"?>
<modeling>
 <generator>
  <i name="program" type="string">vasp</i>
  <i name="version" type="string">4.6.28 </i>
  <i name="subversion" type="string">25Jul05 complex  parallel</i>
  <i name="platform" type="string">LinuxIFC</i>
  <i name="date" type="string">2016 10 19</i>
  <i name="time" type="string">12:31:43</i>
 </generator>
 <incar>
  <i type="string" name="PREC">accurate</i>
  <i type="int" name="IALGO">    38</i>
  <i name="EDIFF">      0.00000001</i>
  <i type="int" name="IBRION">    -1</i>
  <i name="ENCUT">    500.00000000</i>
  <i type="logical" name="LREAL"> F  </i>
  <i type="int" name="ISMEAR">     0</i>
  <i name="SIGMA">      0.01000000</i>
  <i type="logical" name="LWAVE"> F  </i>
  <i type="logical" name="LCHARG"> F  </i>
 </incar>
 <kpoints>
  <generation param="Auto">
   <i name="subdivisionlength">     50.00000000</i>
   <v type="int" name="divisions">       6       6       6</v>
   <v name="usershift">      0.00000000      0.00000000      0.00000000</v>
   <v name="genvec1">      0.16666667      0.00000000      0.00000000</v>
   <v name="genvec2">      0.00000000      0.16666667      0.00000000</v>
   <v name="genvec3">      0.00000000      0.00000000      0.16666667</v>
   <v name="shift">      0.00000000      0.00000000      0.00000000</v>
  </generation>
  <varray name="kpointlist" >
   <v>       0.00000000      0.00000000      0.00000000</v>
   <v>       0.16666667      0.00000000      0.00000000</v>
   <v>       0.33333333      0.00000000      0.00000000</v>
   <v>       0.50000000      0.00000000      0.00000000</v>
   <v>       0.00000000      0.16666667      0.00000000</v>
   <v>       0.16666667      0.16666667      0.00000000</v>
   <v>       0.33333333      0.16666667      0.00000000</v>
   <v>       0.50000000      0.16666667      0.00000000</v>
   <v>       0.00000000      0.33333333      0.00000000</v>
   <v>       0.16666667      0.33333333      0.00000000</v>
   <v>       0.33333333      0.33333333      0.00000000</v>
   <v>       0.50000000      0.33333333      0.00000000</v>
   <v>       0.00000000      0.50000000      0.00000000</v>
   <v>       0.16666667      0.50000000      0.00000000</v>
   <v>       0.33333333      0.50000000      0.00000000</v>
   <v>       0.50000000      0.50000000      0.00000000</v>
   <v>       0.00000000      0.16666667      0.16666667</v>
   <v>       0.16666667      0.16666667      0.16666667</v>
   <v>       0.33333333      0.16666667      0.16666667</v>
   <v>       0.50000000      0.16666667      0.16666667</v>
   <v>       0.00000000      0.33333333      0.16666667</v>
   <v>       0.16666667      0.33333333      0.16666667</v>
   <v>       0.33333333      0.33333333      0.16666667</v>
   <v>       0.50000000      0.33333333      0.16666667</v>
   <v>       0.00000000      0.50000000      0.16666667</v>
   <v>       0.16666667      0.50000000      0.16666667</v>
   <v>       0.33333333      0.50000000      0.16666667</v>
   <v>       0.50000000      0.50000000      0.16666667</v>
   <v>       0.00000000      0.33333333      0.33333333</v>
   <v>       0.16666667      0.33333333      0.33333333</v>
   <v>       0.33333333      0.33333333      0.33333333</v>
   <v>       0.50000000      0.33333333      0.33333333</v>
   <v>       0.00000000      0.50000000      0.33333333</v>
   <v>       0.16666667      0.50000000      0.33333333</v>
   <v>       0.33333333      0.50000000      0.33333333</v>
   <v>       0.50000000      0.50000000      0.33333333</v>
   <v>       0.00000000      0.50000000      0.50000000</v>
   <v>       0.16666667      0.50000000      0.50000000</v>
   <v>       0.33333333      0.50000000      0.50000000</v>
   <v>       0.50000000      0.50000000      0.50000000</v>
  </varray>
  <varray name="weights" >
   <v>       0.00462963</v>
   <v>       0.00925926</v>
   <v>       0.00925926</v>
   <v>       0.00462963</v>
   <v>       0.01851852</v>
   <v>       0.03703704</v>
   <v>       0.03703704</v>
   <v>       0.01851852</v>
   <v>       0.01851852</v>
   <v>       0.03703704</v>
   <v>       0.03703704</v>
   <v>       0.01851852</v>
   <v>       0.00925926</v>
   <v>       0.01851852</v>
   <v>       0.01851852</v>
   <v>       0.00925926</v>
   <v>       0.01851852</v>
   <v>       0.03703704</v>
   <v>       0.03703704</v>
   <v>       0.01851852</v>
   <v>       0.03703704</v>
   <v>       0.07407407</v>
   <v>       0.07407407</v>
   <v>       0.03703704</v>
   <v>       0.01851852</v>
   <v>       0.03703704</v>
   <v>       0.03703704</v>
   <v>       0.01851852</v>
   <v>       0.01851852</v>
   <v>       0.03703704</v>
   <v>       0.03703704</v>
   <v>       0.01851852</v>
   <v>       0.01851852</v>
   <v>       0.03703704</v>
   <v>       0.03703704</v>
   <v>       0.01851852</v>
   <v>       0.00462963</v>
   <v>       0.00925926</v>
   <v>       0.00925926</v>
   <v>       0.00462963</v>
  </varray>
 </kpoints>
 <parameters>
  <separator name="general" >
   <i type="string" name="SYSTEM">unknown system</i>
   <i type="logical" name="LCOMPAT"> F  </i>
  </separator>
  <separator name="electronic" >
   <i type="string" name="PREC">accura</i>
   <i name="ENMAX">    500.00000000</i>
   <i name="ENAUG">    291.05200000</i>
   <i name="EDIFF">      0.00000001</i>
   <i type="int" name="IALGO">    38</i>
   <i type="int" name="IWAVPR">    10</i>
   <i type="int" name="NBANDS">    65</i>
   <i name="NELECT">     96.00000000</i>
   <separator name="electronic smearing" >
    <i type="int" name="ISMEAR">     0</i>
    <i name="SIGMA">      0.01000000</i>
   </separator>
   <separator name="electronic projectors" >
    <i type="logical" name="LREAL"> F  </i>
    <v name="ROPT">      0.00000000</v>
    <i type="int" name="LMAXPAW">  -100</i>
    <i type="int" name="LMAXMIX">     2</i>
   </separator>
   <separator name="electronic startup" >
    <i type="int" name="ISTART">     0</i>
    <i type="int" name="ICHARG">     2</i>
    <i type="int" name="INIWAV">     1</i>
   </separator>
   <separator name="electronic spin" >
    <i type="int" name="ISPIN">     1</i>
    <i type="logical" name="LNONCOLLINEAR"> F  </i>
    <v name="MAGMOM">      1.00000000      1.00000000      1.00000000      1.00000000      1.00000000      1.00000000      1.00000000      1.00000000      1.00000000      1.00000000      1.00000000      1.00000000      1.00000000      1.00000000      1.00000000      1.00000000      1.00000000      1.00000000      1.00000000      1.00000000
      1.00000000      1.00000000      1.00000000      1.00000000      1.00000000      1.00000000      1.00000000      1.00000000      1.00000000      1.00000000      1.00000000      1.00000000</v>
    <i name="NUPDOWN">     -1.00000000</i>
    <i type="logical" name="LSORBIT"> F  </i>
    <v name="SAXIS">      0.00000000      0.00000000      1.00000000</v>
    <i type="logical" name="LSPIRAL"> F  </i>
    <v name="QSPIRAL">      0.00000000      0.00000000      0.00000000</v>
    <i type="logical" name="LZEROZ"> F  </i>
   </separator>
   <separator name="electronic exchange-correlation" >
    <i type="string" name="GGA">--</i>
    <i type="int" name="VOSKOWN">     0</i>
    <i type="logical" name="LASPH"> F  </i>
    <i type="logical" name="LMETAGGA"> F  </i>
    <i type="string" name="GGA2">--</i>
   </separator>
   <separator name="electronic convergence" >
    <i type="int" name="NELM">    60</i>
    <i type="int" name="NELMDL">     0</i>
    <i type="int" name="NELMIN">     2</i>
    <i name="ENINI">    500.00000000</i>
    <separator name="electronic convergence detail" >
     <i type="logical" name="LDIAG"> T  </i>
     <i name="WEIMIN">      0.00000000</i>
     <i name="EBREAK">      0.00000000</i>
     <i name="DEPER">      0.30000000</i>
     <i type="int" name="NRMM">     4</i>
     <i name="TIME">      0.10000000</i>
    </separator>
   </separator>
   <separator name="electronic mixer" >
    <i name="AMIX">      0.40000000</i>
    <i name="BMIX">      1.00000000</i>
    <i name="AMIN">      0.10000000</i>
    <i name="AMIX_MAG">      1.60000000</i>
    <i name="BMIX_MAG">      1.00000000</i>
    <separator name="electronic mixer details" >
     <i type="int" name="IMIX">     4</i>
     <i type="int" name="MAXMIX">   -45</i>
     <i name="WC">    100.00000000</i>
     <i type="int" name="INIMIX">     1</i>
     <i type="int" name="MIXPRE">     1</i>
     <i type="int" name="MREMOVE">     5</i>
    </separator>
   </separator>
   <separator name="electronic dipolcorrection" >
    <i type="int" name="IDIPOL">     0</i>
    <i type="logical" name="LDIPOL"> F  </i>
    <v name="DIPOL">   -100.00000000</v>
    <i name="EFIELD">      0.00000000</i>
   </separator>
  </separator>
  <separator name="grids" >
   <i type="int" name="NGX">    60</i>
   <i type="int" name="NGY">    60</i>
   <i type="int" name="NGZ">    60</i>
   <i type="int" name="NGXF">   120</i>
   <i type="int" name="NGYF">   120</i>
   <i type="int" name="NGZF">   120</i>
   <i type="logical" name="ADDGRID"> F  </i>
  </separator>
  <separator name="ionic" >
   <i type="int" name="NSW">     0</i>
   <i type="int" name="IBRION">    -1</i>
   <i type="int" name="ISIF">     2</i>
   <i name="PSTRESS">      0.00000000</i>
   <i name="EDIFFG">      0.00000010</i>
   <i type="int" name="NFREE">     0</i>
   <i name="POTIM">      0.50000000</i>
   <i name="SMASS">     -3.00000000</i>
  </separator>
  <separator name="ionic md" >
   <i name="TEBEG">      0.00010000</i>
   <i name="TEEND">      0.00010000</i>
   <i type="int" name="NBLOCK">     1</i>
   <i type="int" name="KBLOCK">     1</i>
   <i type="int" name="NPACO">   256</i>
   <i name="APACO">     16.00000000</i>
  </separator>
  <separator name="symmetry" >
   <i type="int" name="ISYM">     2</i>
   <i name="SYMPREC">      0.00001000</i>
  </separator>
  <separator name="dos" >
   <i type="logical" name="LORBIT"> F  </i>
   <v name="RWIGS">     -1.00000000</v>
   <i type="int" name="NEDOS">   301</i>
   <i name="EMIN">     10.00000000</i>
   <i name="EMAX">    -10.00000000</i>
  </separator>
  <separator name="writing" >
   <i type="int" name="NWRITE">     2</i>
   <i type="logical" name="LWAVE"> F  </i>
   <i type="logical" name="LCHARG"> F  </i>
   <i type="logical" name="LPARD"> F  </i>
   <i type="logical" name="LVTOT"> F  </i>
   <i type="logical" name="LELF"> F  </i>
   <i type="logical" name="LOPTICS"> F  </i>
   <i name="STM">      0.00000000</i>
  </separator>
  <separator name="performance" >
   <i type="int" name="NPAR">     8</i>
   <i type="int" name="NSIM">     4</i>
   <i type="int" name="NBLK">   256</i>
   <i type="logical" name="LPLANE"> T  </i>
   <i type="logical" name="LCRITICAL_MEM"> F  </i>
   <i type="logical" name="LSCALAPACK"> F  </i>
   <i type="logical" name="LSCALU"> F  </i>
   <i type="logical" name="LASYNC"> F  </i>
  </separator>
  <separator name="miscellaneous" >
   <i type="int" name="IDIOT">     3</i>
   <i type="logical" name="LMUSIC"> F  </i>
   <v name="POMASS">     26.98200000</v>
   <i type="logical" name="LCORR"> T  </i>
  </separator>
  <i type="logical" name="LREAL_COMPAT"> F  </i>
  <i type="logical" name="GGA_COMPAT"> T  </i>
  <i type="logical" name="LBERRY"> F  </i>
  <i type="int" name="ICORELEVEL">     0</i>
  <i type="logical" name="LDAU"> F  </i>
  <i type="int" name="I_CONSTRAINED_M">     0</i>
 </parameters>
 <atominfo>
  <atoms>      32</atoms>
  <types>       1</types>
  <array name="atoms" >
   <dimension dim="1">ion</dimension>
   <field type="string">element</field>
   <field type="int">atomtype</field>
   <set>
    <rc><c>Al</c><c>   1</c></rc>
    <rc><c>Al</c><c>   1</c></rc>
    <rc><c>Al</c><c>   1</c></rc>
    <rc><c>Al</c><c>   1</c></rc>
    <rc><c>Al</c><c>   1</c></rc>
    <rc><c>Al</c><c>   1</c></rc>
    <rc><c>Al</c><c>   1</c></rc>
    <rc><c>Al</c><c>   1</c></rc>
    <rc><c>Al</c><c>   1</c></rc>
    <rc><c>Al</c><c>   1</c></rc>
    <rc><c>Al</c><c>   1</c></rc>
    <rc><c>Al</c><c>   1</c></rc>
    <rc><c>Al</c><c>   1</c></rc>
    <rc><c>Al</c><c>   1</c></rc>
    <rc><c>Al</c><c>   1</c></rc>
    <rc><c>Al</c><c>   1</c></rc>
    <rc><c>Al</c><c>   1</c></rc>
    <rc><c>Al</c><c>   1</c></rc>
    <rc><c>Al</c><c>   1</c></rc>
    <rc><c>Al</c><c>   1</c></rc>
    <rc><c>Al</c><c>   1</c></rc>
    <rc><c>Al</c><c>   1</c></rc>
    <rc><c>Al</c><c>   1</c></rc>
    <rc><c>Al</c><c>   1</c></rc>
    <rc><c>Al</c><c>   1</c></rc>
    <rc><c>Al</c><c>   1</c></rc>
    <rc><c>Al</c><c>   1</c></rc>
    <rc><c>Al</c><c>   1</c></rc>
    <rc><c>Al</c><c>   1</c></rc>
    <rc><c>Al</c><c>   1</c></rc>
    <rc><c>Al</c><c>   1</c></rc>
    <rc><c>Al</c><c>   1</c></rc>
   </set>
  </array>
  <array name="atomtypes" >
   <dimension dim="1">type</dimension>
   <field type="int">atomspertype</field>
   <field type="string">element</field>
   <field>mass</field>
   <field>valence</field>
   <field type="string">pseudopotential</field>
   <set>
    <rc><c>  32</c><c>Al</c><c>     26.98200000</c><c>      3.00000000</c><c> PAW_PBE Al 04Jan2001                   </c></rc>
   </set>
  </array>
 </atominfo>
 <structure name="initialpos" >
  <crystal>
   <varray name="basis" >
    <v>       7.91291180      0.00000000      0.00000000</v>
    <v>       0.00000000      7.91291180      0.00000000</v>
    <v>       0.00000000      0.00000000      7.91291180</v>
   </varray>
   <i name="volume">    495.46043035</i>
   <varray name="rec_basis" >
    <v>       0.12637573      0.00000000      0.00000000</v>
    <v>       0.00000000      0.12637573      0.00000000</v>
    <v>       0.00000000      0.00000000      0.12637573</v>
   </varray>
  </crystal>
  <varray name="positions" >
   <v>       0.25126376      0.25000000      0.00000000</v>
   <v>       0.75000000      0.25000000      0.00000000</v>
   <v>       0.25000000      0.75000000      0.00000000</v>
   <v>       0.75000000      0.75000000      0.00000000</v>
   <v>       0.25000000      0.25000000      0.50000000</v>
   <v>       0.75000000      0.25000000      0.50000000</v>
   <v>       0.25000000      0.75000000      0.50000000</v>
   <v>       0.75000000      0.75000000      0.50000000</v>
   <v>       0.25000000      0.00000000      0.25000000</v>
   <v>       0.75000000      0.00000000      0.25000000</v>
   <v>       0.25000000      0.50000000      0.25000000</v>
   <v>       0.75000000      0.50000000      0.25000000</v>
   <v>       0.25000000      0.00000000      0.75000000</v>
   <v>       0.75000000      0.00000000      0.75000000</v>
   <v>       0.25000000      0.50000000      0.75000000</v>
   <v>       0.75000000      0.50000000      0.75000000</v>
   <v>       0.00000000      0.25000000      0.25000000</v>
   <v>       0.50000000      0.25000000      0.25000000</v>
   <v>       0.00000000      0.75000000      0.25000000</v>
   <v>       0.50000000      0.75000000      0.25000000</v>
   <v>       0.00000000      0.25000000      0.75000000</v>
   <v>       0.50000000      0.25000000      0.75000000</v>
   <v>       0.00000000      0.75000000      0.75000000</v>
   <v>       0.50000000      0.75000000      0.75000000</v>
   <v>       0.00000000      0.00000000      0.00000000</v>
   <v>       0.50000000      0.00000000      0.00000000</v>
   <v>       0.00000000      0.50000000      0.00000000</v>
   <v>       0.50000000      0.50000000      0.00000000</v>
   <v>       0.00000000      0.00000000      0.50000000</v>
   <v>       0.50000000      0.00000000      0.50000000</v>
   <v>       0.00000000      0.50000000      0.50000000</v>
   <v>       0.50000000      0.50000000      0.50000000</v>
  </varray>
 </structure>
 <calculation>
  <scstep>
   <time name="dav">   16.82   16.84</time>
   <time name="total">   16.96   16.99</time>
   <energy>
    <i name="alphaZ">     -6.94187321</i>
    <i name="ewald">  -2402.91415314</i>
    <i name="hartreedc">     -2.61446063</i>
    <i name="XCdc">   -835.96404674</i>
    <i name="pawpsdc">   1137.73615723</i>
    <i name="pawaedc">   -115.16745734</i>
    <i name="eentropy">     -0.00040029</i>
    <i name="bandstr">    639.96779408</i>
    <i name="atom">   1713.22913220</i>
    <i name="e_fr_energy">    127.33069216</i>
    <i name="e_wo_entrp">    127.33109244</i>
    <i name="e_0_energy">    127.33089230</i>
   </energy>
  </scstep>
  <scstep>
   <time name="dav">   19.09   19.09</time>
   <time name="total">   19.09   19.09</time>
   <energy>
    <i name="e_fr_energy">   -106.77602522</i>
    <i name="e_wo_entrp">   -106.77538494</i>
    <i name="e_0_energy">   -106.77570508</i>
   </energy>
  </scstep>
  <scstep>
   <time name="dav">   19.96   19.96</time>
   <time name="total">   19.97   19.97</time>
   <energy>
    <i name="e_fr_energy">   -119.78509915</i>
    <i name="e_wo_entrp">   -119.78404266</i>
    <i name="e_0_energy">   -119.78457091</i>
   </energy>
  </scstep>
  <scstep>
   <time name="dav">   21.12   21.12</time>
   <time name="total">   21.13   21.13</time>
   <energy>
    <i name="e_fr_energy">   -120.01933753</i>
    <i name="e_wo_entrp">   -120.01809105</i>
    <i name="e_0_energy">   -120.01871429</i>
   </energy>
  </scstep>
  <scstep>
   <time name="dav">   24.20   24.20</time>
   <time name="total">   25.32   25.33</time>
   <energy>
    <i name="e_fr_energy">   -120.02208146</i>
    <i name="e_wo_entrp">   -120.02083433</i>
    <i name="e_0_energy">   -120.02145789</i>
   </energy>
  </scstep>
  <scstep>
   <time name="dav">   23.80   23.80</time>
   <time name="total">   25.12   25.12</time>
   <energy>
    <i name="e_fr_energy">   -119.57451038</i>
    <i name="e_wo_entrp">   -119.57323238</i>
    <i name="e_0_energy">   -119.57387138</i>
   </energy>
  </scstep>
  <scstep>
   <time name="dav">   22.75   22.75</time>
   <time name="total">   24.09   24.10</time>
   <energy>
    <i name="e_fr_energy">   -119.24948505</i>
    <i name="e_wo_entrp">   -119.24786698</i>
    <i name="e_0_energy">   -119.24867601</i>
   </energy>
  </scstep>
  <scstep>
   <time name="dav">   24.34   24.34</time>
   <time name="total">   25.62   25.63</time>
   <energy>
    <i name="e_fr_energy">   -119.24969471</i>
    <i name="e_wo_entrp">   -119.24807684</i>
    <i name="e_0_energy">   -119.24888577</i>
   </energy>
  </scstep>
  <scstep>
   <time name="dav">   23.63   23.63</time>
   <time name="total">   24.95   24.95</time>
   <energy>
    <i name="e_fr_energy">   -119.24972182</i>
    <i name="e_wo_entrp">   -119.24810439</i>
    <i name="e_0_energy">   -119.24891310</i>
   </energy>
  </scstep>
  <scstep>
   <time name="dav">   24.44   24.44</time>
   <time name="total">   25.76   25.77</time>
   <energy>
    <i name="e_fr_energy">   -119.24972275</i>
    <i name="e_wo_entrp">   -119.24810530</i>
    <i name="e_0_energy">   -119.24891403</i>
   </energy>
  </scstep>
  <scstep>
   <time name="dav">   24.14   24.15</time>
   <time name="total">   25.46   25.46</time>
   <energy>
    <i name="e_fr_energy">   -119.24972035</i>
    <i name="e_wo_entrp">   -119.24810287</i>
    <i name="e_0_energy">   -119.24891161</i>
   </energy>
  </scstep>
  <scstep>
   <time name="dav">   18.90   18.90</time>
   <time name="total">   20.18   20.18</time>
   <energy>
    <i name="e_fr_energy">   -119.24971930</i>
    <i name="e_wo_entrp">   -119.24810181</i>
    <i name="e_0_energy">   -119.24891055</i>
   </energy>
  </scstep>
  <scstep>
   <time name="dav">   16.47   16.47</time>
   <time name="total">   17.77   17.77</time>
   <energy>
    <i name="e_fr_energy">   -119.24971915</i>
    <i name="e_wo_entrp">   -119.24810166</i>
    <i name="e_0_energy">   -119.24891041</i>
   </energy>
  </scstep>
  <scstep>
   <time name="dav">   16.17   16.17</time>
   <time name="total">   17.49   17.49</time>
   <energy>
    <i name="e_fr_energy">   -119.24971914</i>
    <i name="e_wo_entrp">   -119.24810165</i>
    <i name="e_0_energy">   -119.24891039</i>
   </energy>
  </scstep>
  <scstep>
   <time name="dav">   16.03   16.03</time>
   <time name="total">   16.20   16.21</time>
   <energy>
    <i name="alphaZ">     -6.94187321</i>
    <i name="ewald">  -2402.91415314</i>
    <i name="hartreedc">     -3.68916214</i>
    <i name="XCdc">   -832.01414911</i>
    <i name="pawpsdc">   1148.03897856</i>
    <i name="pawaedc">   -126.22511603</i>
    <i name="eentropy">     -0.00161749</i>
    <i name="bandstr">    391.26824120</i>
    <i name="atom">   1713.22913220</i>
    <i name="e_fr_energy">   -119.24971915</i>
    <i name="e_wo_entrp">   -119.24810166</i>
    <i name="e_0_energy">   -119.24891040</i>
   </energy>
  </scstep>
  <structure>
   <crystal>
    <varray name="basis" >
     <v>       7.91291180      0.00000000      0.00000000</v>
     <v>       0.00000000      7.91291180      0.00000000</v>
     <v>       0.00000000      0.00000000      7.91291180</v>
    </varray>
    <i name="volume">    495.46043035</i>
    <varray name="rec_basis" >
     <v>       0.12637573      0.00000000      0.00000000</v>
     <v>       0.00000000      0.12637573      0.00000000</v>
     <v>       0.00000000      0.00000000      0.12637573</v>
    </varray>
   </crystal>
   <varray name="positions" >
    <v>       0.25126376      0.25000000      0.00000000</v>
    <v>       0.75000000      0.25000000      0.00000000</v>
    <v>       0.25000000      0.75000000      0.00000000</v>
    <v>       0.75000000      0.75000000      0.00000000</v>
    <v>       0.25000000      0.25000000      0.50000000</v>
    <v>       0.75000000      0.25000000      0.50000000</v>
    <v>       0.25000000      0.75000000      0.50000000</v>
    <v>       0.75000000      0.75000000      0.50000000</v>
    <v>       0.25000000      0.00000000      0.25000000</v>
    <v>       0.75000000      0.00000000      0.25000000</v>
    <v>       0.25000000      0.50000000      0.25000000</v>
    <v>       0.75000000      0.50000000      0.25000000</v>
    <v>       0.25000000      0.00000000      0.75000000</v>
    <v>       0.75000000      0.00000000      0.75000000</v>
    <v>       0.25000000      0.50000000      0.75000000</v>
    <v>       0.75000000      0.50000000      0.75000000</v>
    <v>       0.00000000      0.25000000      0.25000000</v>
    <v>       0.50000000      0.25000000      0.25000000</v>
    <v>       0.00000000      0.75000000      0.25000000</v>
    <v>       0.50000000      0.75000000      0.25000000</v>
    <v>       0.00000000      0.25000000      0.75000000</v>
    <v>       0.50000000      0.25000000      0.75000000</v>
    <v>       0.00000000      0.75000000      0.75000000</v>
    <v>       0.50000000      0.75000000      0.75000000</v>
    <v>       0.00000000      0.00000000      0.00000000</v>
    <v>       0.50000000      0.00000000      0.00000000</v>
    <v>       0.00000000      0.50000000      0.00000000</v>
    <v>       0.50000000      0.50000000      0.00000000</v>
    <v>       0.00000000      0.00000000      0.50000000</v>
    <v>       0.50000000      0.00000000      0.50000000</v>
    <v>       0.00000000      0.50000000      0.50000000</v>
    <v>       0.50000000      0.50000000      0.50000000</v>
   </varray>
  </structure>
  <varray name="forces" >
   <v>      -0.05874276     -0.00000000      0.00000000</v>
   <v>       0.00377589     -0.00000000     -0.00000000</v>
   <v>       0.00068171     -0.00000000      0.00000000</v>
   <v>       0.00014852      0.00000000     -0.00000000</v>
   <v>       0.00068171      0.00000000      0.00000000</v>
   <v>       0.00014852      0.00000000     -0.00000000</v>
   <v>       0.00103172     -0.00000000      0.00000000</v>
   <v>      -0.00104106      0.00000000      0.00000000</v>
   <v>      -0.00174303      0.00003294     -0.00003294</v>
   <v>      -0.00128507      0.00001151     -0.00001151</v>
   <v>      -0.00174303     -0.00003294     -0.00003294</v>
   <v>      -0.00128507     -0.00001151     -0.00001151</v>
   <v>      -0.00174303      0.00003294      0.00003294</v>
   <v>      -0.00128507      0.00001151      0.00001151</v>
   <v>      -0.00174303     -0.00003294      0.00003294</v>
   <v>      -0.00128507     -0.00001151      0.00001151</v>
   <v>       0.00787483     -0.00000000     -0.00889498</v>
   <v>       0.00806027      0.00000000      0.00912874</v>
   <v>       0.00021315     -0.00000000      0.00021971</v>
   <v>       0.00020878     -0.00000000     -0.00023841</v>
   <v>       0.00787483      0.00000000      0.00889498</v>
   <v>       0.00806027     -0.00000000     -0.00912874</v>
   <v>       0.00021315     -0.00000000     -0.00021971</v>
   <v>       0.00020878     -0.00000000      0.00023841</v>
   <v>       0.00787483      0.00889498      0.00000000</v>
   <v>       0.00806027     -0.00912874     -0.00000000</v>
   <v>       0.00787483     -0.00889498      0.00000000</v>
   <v>       0.00806027      0.00912874      0.00000000</v>
   <v>       0.00021315     -0.00021971      0.00000000</v>
   <v>       0.00020878      0.00023841     -0.00000000</v>
   <v>       0.00021315      0.00021971      0.00000000</v>
   <v>       0.00020878     -0.00023841     -0.00000000</v>
  </varray>
  <varray name="stress" >
   <v>      55.07670177     -0.00000000      0.00000000</v>
   <v>       0.00000000     55.07760765      0.00000000</v>
   <v>       0.00000000      0.00000000     55.07760765</v>
  </varray>
  <energy>
   <i name="e_fr_energy">   -119.24971915</i>
   <i name="e_wo_entrp">   -119.24891040</i>
   <i name="e_0_energy">     -0.00161749</i>
  </energy>
  <eigenvalues>
   <array>
    <dimension dim="1">band</dimension>
    <dimension dim="2">kpoint</dimension>
    <dimension dim="3">spin</dimension>
    <field>eigene</field>
    <field>occ</field>
    <set>
     <set comment="spin 1">
      <set comment="kpoint 1">
       <r>  -2.9018  1.0000</r>
       <r>  -0.5629  1.0000</r>
       <r>  -0.5589  1.0000</r>
       <r>  -0.5589  1.0000</r>
       <r>  -0.5589  1.0000</r>
       <r>  -0.5589  1.0000</r>
       <r>  -0.5550  1.0000</r>
       <r>   1.7363  1.0000</r>
       <r>   1.7407  1.0000</r>
       <r>   1.7407  1.0000</r>
       <r>   1.7426  1.0000</r>
       <r>   1.7427  1.0000</r>
       <r>   1.7427  1.0000</r>
       <r>   1.7427  1.0000</r>
       <r>   1.7427  1.0000</r>
       <r>   1.7429  1.0000</r>
       <r>   1.7447  1.0000</r>
       <r>   1.7447  1.0000</r>
       <r>   1.7492  1.0000</r>
       <r>   3.8301  1.0000</r>
       <r>   3.8301  1.0000</r>
       <r>   3.8301  1.0000</r>
       <r>   3.8301  1.0000</r>
       <r>   4.2118  1.0000</r>
       <r>   4.2118  1.0000</r>
       <r>   4.2118  1.0000</r>
       <r>   4.2118  1.0000</r>
       <r>   5.6018  1.0000</r>
       <r>   5.6018  1.0000</r>
       <r>   5.6018  1.0000</r>
       <r>   7.0608  1.0000</r>
       <r>   7.0608  1.0000</r>
       <r>   7.0608  1.0000</r>
       <r>   7.7481  1.0000</r>
       <r>   7.7481  1.0000</r>
       <r>   7.7526  1.0000</r>
       <r>   7.7526  1.0000</r>
       <r>   7.7528  1.0000</r>
       <r>   7.7528  1.0000</r>
       <r>   7.7528  1.0000</r>
       <r>   7.7528  1.0000</r>
       <r>   7.7530  1.0000</r>
       <r>   7.7530  1.0000</r>
       <r>   7.7575  1.0000</r>
       <r>   7.7575  1.0000</r>
       <r>   8.7303  0.0000</r>
       <r>   8.7347  0.0000</r>
       <r>   8.7347  0.0000</r>
       <r>   8.7347  0.0000</r>
       <r>   8.7347  0.0000</r>
       <r>   8.7391  0.0000</r>
       <r>   9.9093  0.0000</r>
       <r>   9.9093  0.0000</r>
       <r>   9.9108  0.0000</r>
       <r>   9.9133  0.0000</r>
       <r>   9.9135  0.0000</r>
       <r>   9.9135  0.0000</r>
       <r>   9.9135  0.0000</r>
       <r>   9.9135  0.0000</r>
       <r>   9.9137  0.0000</r>
       <r>   9.9163  0.0000</r>
       <r>   9.9177  0.0000</r>
       <r>   9.9177  0.0000</r>
       <r>  10.1490  0.0000</r>
       <r>  10.1502  0.0000</r>
       <r>  10.1503  0.0000</r>
       <r>  10.1503  0.0000</r>
       <r>  10.1503  0.0000</r>
       <r>  10.1515  0.0000</r>
       <r>  11.6267  0.0000</r>
       <r>  11.6289  0.0000</r>
       <r>  11.6298  0.0000</r>
      </set>
      <set comment="kpoint 2">
       <r>  -2.8361  1.0000</r>
       <r>  -1.2703  1.0000</r>
       <r>  -0.4945  1.0000</r>
       <r>  -0.4945  1.0000</r>
       <r>  -0.4945  1.0000</r>
       <r>  -0.4945  1.0000</r>
       <r>   0.2764  1.0000</r>
       <r>   1.0439  1.0000</r>
       <r>   1.0439  1.0000</r>
       <r>   1.0439  1.0000</r>
       <r>   1.0439  1.0000</r>
       <r>   1.8061  1.0000</r>
       <r>   1.8061  1.0000</r>
       <r>   1.8061  1.0000</r>
       <r>   1.8061  1.0000</r>
       <r>   2.5632  1.0000</r>
       <r>   2.5632  1.0000</r>
       <r>   2.5632  1.0000</r>
       <r>   2.5632  1.0000</r>
       <r>   3.3064  1.0000</r>
       <r>   3.3064  1.0000</r>
       <r>   3.3064  1.0000</r>
       <r>   3.3064  1.0000</r>
       <r>   4.7247  1.0000</r>
       <r>   4.8564  1.0000</r>
       <r>   4.8564  1.0000</r>
       <r>   4.8564  1.0000</r>
       <r>   4.8564  1.0000</r>
       <r>   5.6614  1.0000</r>
       <r>   5.6614  1.0000</r>
       <r>   6.8998  1.0000</r>
       <r>   6.8998  1.0000</r>
       <r>   6.8999  1.0000</r>
       <r>   6.8999  1.0000</r>
       <r>   7.0945  1.0000</r>
       <r>   7.0945  1.0000</r>
       <r>   7.1229  1.0000</r>
       <r>   7.1229  1.0000</r>
       <r>   7.8127  1.0000</r>
       <r>   7.8127  1.0000</r>
       <r>   7.8127  1.0000</r>
       <r>   7.8127  1.0000</r>
       <r>   8.0499  1.0000</r>
       <r>   8.4674  1.0000</r>
       <r>   8.4674  1.0000</r>
       <r>   8.5317  1.0000</r>
       <r>   8.5317  1.0000</r>
       <r>   9.1319  0.0000</r>
       <r>   9.1319  0.0000</r>
       <r>   9.1319  0.0000</r>
       <r>   9.1319  0.0000</r>
       <r>   9.2212  0.0000</r>
       <r>   9.2212  0.0000</r>
       <r>   9.2213  0.0000</r>
       <r>   9.2214  0.0000</r>
       <r>   9.2526  0.0000</r>
       <r>   9.2526  0.0000</r>
       <r>   9.2528  0.0000</r>
       <r>   9.2528  0.0000</r>
       <r>  10.5287  0.0000</r>
       <r>  10.5287  0.0000</r>
       <r>  10.6893  0.0000</r>
       <r>  10.6893  0.0000</r>
       <r>  10.6899  0.0000</r>
       <r>  10.6899  0.0000</r>
       <r>  10.6951  0.0000</r>
       <r>  10.6951  0.0000</r>
       <r>  10.6957  0.0000</r>
       <r>  10.6957  0.0000</r>
       <r>  10.9596  0.0000</r>
       <r>  10.9596  0.0000</r>
       <r>  10.9596  0.0000</r>
      </set>
      <set comment="kpoint 3">
       <r>  -2.6394  1.0000</r>
       <r>  -1.8553  1.0000</r>
       <r>  -0.3012  1.0000</r>
       <r>  -0.3012  1.0000</r>
       <r>  -0.3012  1.0000</r>
       <r>  -0.3012  1.0000</r>
       <r>   0.4691  1.0000</r>
       <r>   0.4691  1.0000</r>
       <r>   0.4691  1.0000</r>
       <r>   0.4691  1.0000</r>
       <r>   1.2327  1.0000</r>
       <r>   1.9959  1.0000</r>
       <r>   1.9959  1.0000</r>
       <r>   1.9959  1.0000</r>
       <r>   1.9959  1.0000</r>
       <r>   2.7505  1.0000</r>
       <r>   2.7505  1.0000</r>
       <r>   2.7505  1.0000</r>
       <r>   2.7505  1.0000</r>
       <r>   3.4822  1.0000</r>
       <r>   3.5015  1.0000</r>
       <r>   3.5015  1.0000</r>
       <r>   3.5015  1.0000</r>
       <r>   3.5015  1.0000</r>
       <r>   5.6992  1.0000</r>
       <r>   5.6992  1.0000</r>
       <r>   5.6992  1.0000</r>
       <r>   5.6992  1.0000</r>
       <r>   5.7737  1.0000</r>
       <r>   5.7737  1.0000</r>
       <r>   5.7738  1.0000</r>
       <r>   5.7738  1.0000</r>
       <r>   5.8403  1.0000</r>
       <r>   5.8403  1.0000</r>
       <r>   6.5565  1.0000</r>
       <r>   6.5565  1.0000</r>
       <r>   7.3077  1.0000</r>
       <r>   7.3077  1.0000</r>
       <r>   7.9480  1.0000</r>
       <r>   7.9480  1.0000</r>
       <r>   7.9481  1.0000</r>
       <r>   7.9481  1.0000</r>
       <r>   7.9925  1.0000</r>
       <r>   7.9926  1.0000</r>
       <r>   7.9926  1.0000</r>
       <r>   7.9926  1.0000</r>
       <r>   8.0136  1.0000</r>
       <r>   8.0137  1.0000</r>
       <r>   8.7123  0.0000</r>
       <r>   8.7123  0.0000</r>
       <r>   8.7123  0.0000</r>
       <r>   8.7123  0.0000</r>
       <r>   9.4315  0.0000</r>
       <r>   9.4315  0.0000</r>
       <r>   9.5898  0.0000</r>
       <r>   9.5898  0.0000</r>
       <r>   9.5898  0.0000</r>
       <r>   9.5898  0.0000</r>
       <r>   9.6287  0.0000</r>
       <r>  10.3996  0.0000</r>
       <r>  10.3996  0.0000</r>
       <r>  10.3996  0.0000</r>
       <r>  10.3996  0.0000</r>
       <r>  11.3117  0.0000</r>
       <r>  11.3118  0.0000</r>
       <r>  11.5913  0.0000</r>
       <r>  11.5913  0.0000</r>
       <r>  11.5976  0.0000</r>
       <r>  11.5976  0.0000</r>
       <r>  11.5978  0.0000</r>
       <r>  11.5978  0.0000</r>
       <r>  12.0399  0.0000</r>
      </set>
      <set comment="kpoint 4">
       <r>  -2.3136  1.0000</r>
       <r>  -2.3106  1.0000</r>
       <r>   0.0161  1.0000</r>
       <r>   0.0194  1.0000</r>
       <r>   0.0194  1.0000</r>
       <r>   0.0203  1.0000</r>
       <r>   0.0203  1.0000</r>
       <r>   0.0212  1.0000</r>
       <r>   0.0212  1.0000</r>
       <r>   0.0244  1.0000</r>
       <r>   2.3026  1.0000</r>
       <r>   2.3049  1.0000</r>
       <r>   2.3097  1.0000</r>
       <r>   2.3101  1.0000</r>
       <r>   2.3101  1.0000</r>
       <r>   2.3109  1.0000</r>
       <r>   2.3118  1.0000</r>
       <r>   2.3126  1.0000</r>
       <r>   2.3126  1.0000</r>
       <r>   2.3152  1.0000</r>
       <r>   4.5505  1.0000</r>
       <r>   4.5505  1.0000</r>
       <r>   4.5509  1.0000</r>
       <r>   4.5512  1.0000</r>
       <r>   4.5515  1.0000</r>
       <r>   4.5518  1.0000</r>
       <r>   4.5522  1.0000</r>
       <r>   4.5522  1.0000</r>
       <r>   6.1369  1.0000</r>
       <r>   6.1369  1.0000</r>
       <r>   6.1402  1.0000</r>
       <r>   6.1402  1.0000</r>
       <r>   6.8099  1.0000</r>
       <r>   6.8099  1.0000</r>
       <r>   6.8102  1.0000</r>
       <r>   6.8108  1.0000</r>
       <r>   6.8108  1.0000</r>
       <r>   6.8113  1.0000</r>
       <r>   6.8117  1.0000</r>
       <r>   6.8117  1.0000</r>
       <r>   7.6076  1.0000</r>
       <r>   7.6088  1.0000</r>
       <r>   7.6105  1.0000</r>
       <r>   7.6117  1.0000</r>
       <r>   8.2899  1.0000</r>
       <r>   8.2899  1.0000</r>
       <r>   8.2908  1.0000</r>
       <r>   8.2923  1.0000</r>
       <r>   8.2924  1.0000</r>
       <r>   8.2939  1.0000</r>
       <r>   8.2948  1.0000</r>
       <r>   8.2948  1.0000</r>
       <r>   9.9465  0.0000</r>
       <r>   9.9474  0.0000</r>
       <r>   9.9474  0.0000</r>
       <r>   9.9476  0.0000</r>
       <r>   9.9499  0.0000</r>
       <r>   9.9501  0.0000</r>
       <r>   9.9501  0.0000</r>
       <r>   9.9510  0.0000</r>
       <r>  10.4508  0.0000</r>
       <r>  10.4508  0.0000</r>
       <r>  10.4530  0.0000</r>
       <r>  10.4530  0.0000</r>
       <r>  11.3653  0.0000</r>
       <r>  11.3665  0.0000</r>
       <r>  12.2464  0.0000</r>
       <r>  12.2466  0.0000</r>
       <r>  12.2483  0.0000</r>
       <r>  12.2485  0.0000</r>
       <r>  12.6204  0.0000</r>
       <r>  12.6217  0.0000</r>
      </set>
      <set comment="kpoint 5">
       <r>  -2.8361  1.0000</r>
       <r>  -1.2703  1.0000</r>
       <r>  -0.4975  1.0000</r>
       <r>  -0.4945  1.0000</r>
       <r>  -0.4945  1.0000</r>
       <r>  -0.4915  1.0000</r>
       <r>   0.2764  1.0000</r>
       <r>   1.0408  1.0000</r>
       <r>   1.0439  1.0000</r>
       <r>   1.0439  1.0000</r>
       <r>   1.0469  1.0000</r>
       <r>   1.8039  1.0000</r>
       <r>   1.8048  1.0000</r>
       <r>   1.8073  1.0000</r>
       <r>   1.8082  1.0000</r>
       <r>   2.5601  1.0000</r>
       <r>   2.5632  1.0000</r>
       <r>   2.5632  1.0000</r>
       <r>   2.5662  1.0000</r>
       <r>   3.3043  1.0000</r>
       <r>   3.3052  1.0000</r>
       <r>   3.3076  1.0000</r>
       <r>   3.3085  1.0000</r>
       <r>   4.7247  1.0000</r>
       <r>   4.8542  1.0000</r>
       <r>   4.8551  1.0000</r>
       <r>   4.8576  1.0000</r>
       <r>   4.8585  1.0000</r>
       <r>   5.6614  1.0000</r>
       <r>   5.6614  1.0000</r>
       <r>   6.8965  1.0000</r>
       <r>   6.8999  1.0000</r>
       <r>   6.8999  1.0000</r>
       <r>   6.9031  1.0000</r>
       <r>   7.0945  1.0000</r>
       <r>   7.0945  1.0000</r>
       <r>   7.1229  1.0000</r>
       <r>   7.1229  1.0000</r>
       <r>   7.8099  1.0000</r>
       <r>   7.8127  1.0000</r>
       <r>   7.8127  1.0000</r>
       <r>   7.8156  1.0000</r>
       <r>   8.0499  1.0000</r>
       <r>   8.4674  1.0000</r>
       <r>   8.4674  1.0000</r>
       <r>   8.5317  1.0000</r>
       <r>   8.5317  1.0000</r>
       <r>   9.1293  0.0000</r>
       <r>   9.1306  0.0000</r>
       <r>   9.1332  0.0000</r>
       <r>   9.1345  0.0000</r>
       <r>   9.2185  0.0000</r>
       <r>   9.2213  0.0000</r>
       <r>   9.2213  0.0000</r>
       <r>   9.2240  0.0000</r>
       <r>   9.2497  0.0000</r>
       <r>   9.2526  0.0000</r>
       <r>   9.2527  0.0000</r>
       <r>   9.2556  0.0000</r>
       <r>  10.5287  0.0000</r>
       <r>  10.5287  0.0000</r>
       <r>  10.6881  0.0000</r>
       <r>  10.6889  0.0000</r>
       <r>  10.6898  0.0000</r>
       <r>  10.6914  0.0000</r>
       <r>  10.6929  0.0000</r>
       <r>  10.6952  0.0000</r>
       <r>  10.6955  0.0000</r>
       <r>  10.6984  0.0000</r>
       <r>  10.9575  0.0000</r>
       <r>  10.9596  0.0000</r>
       <r>  10.9603  0.0000</r>
      </set>
      <set comment="kpoint 6">
       <r>  -2.7705  1.0000</r>
       <r>  -1.2067  1.0000</r>
       <r>  -1.2042  1.0000</r>
       <r>  -0.4300  1.0000</r>
       <r>  -0.4300  1.0000</r>
       <r>   0.3387  1.0000</r>
       <r>   0.3408  1.0000</r>
       <r>   0.3426  1.0000</r>
       <r>   1.1058  1.0000</r>
       <r>   1.1068  1.0000</r>
       <r>   1.1084  1.0000</r>
       <r>   1.1093  1.0000</r>
       <r>   1.8685  1.0000</r>
       <r>   1.8694  1.0000</r>
       <r>   2.6232  1.0000</r>
       <r>   2.6242  1.0000</r>
       <r>   2.6256  1.0000</r>
       <r>   2.6257  1.0000</r>
       <r>   2.6271  1.0000</r>
       <r>   2.6283  1.0000</r>
       <r>   3.3778  1.0000</r>
       <r>   3.9510  1.0000</r>
       <r>   3.9510  1.0000</r>
       <r>   4.3392  1.0000</r>
       <r>   4.3392  1.0000</r>
       <r>   4.7856  1.0000</r>
       <r>   4.7864  1.0000</r>
       <r>   5.6519  1.0000</r>
       <r>   5.6519  1.0000</r>
       <r>   5.7210  1.0000</r>
       <r>   6.2430  1.0000</r>
       <r>   6.2455  1.0000</r>
       <r>   6.8185  1.0000</r>
       <r>   6.8185  1.0000</r>
       <r>   7.1430  1.0000</r>
       <r>   7.1432  1.0000</r>
       <r>   7.1530  1.0000</r>
       <r>   7.1559  1.0000</r>
       <r>   7.1843  1.0000</r>
       <r>   7.6305  1.0000</r>
       <r>   7.6326  1.0000</r>
       <r>   8.1095  1.0000</r>
       <r>   8.1104  1.0000</r>
       <r>   8.4632  1.0000</r>
       <r>   8.4642  1.0000</r>
       <r>   8.4657  1.0000</r>
       <r>   8.4668  1.0000</r>
       <r>   8.5895  1.0000</r>
       <r>   8.5920  1.0000</r>
       <r>   8.5943  1.0000</r>
       <r>   8.7612  0.0000</r>
       <r>   8.7629  0.0000</r>
       <r>   9.3145  0.0000</r>
       <r>   9.3172  0.0000</r>
       <r>   9.9130  0.0000</r>
       <r>   9.9141  0.0000</r>
       <r>   9.9174  0.0000</r>
       <r>   9.9179  0.0000</r>
       <r>   9.9184  0.0000</r>
       <r>   9.9199  0.0000</r>
       <r>  10.0328  0.0000</r>
       <r>  10.0346  0.0000</r>
       <r>  10.2889  0.0000</r>
       <r>  10.7036  0.0000</r>
       <r>  10.7043  0.0000</r>
       <r>  10.9807  0.0000</r>
       <r>  10.9807  0.0000</r>
       <r>  11.3051  0.0000</r>
       <r>  11.3074  0.0000</r>
       <r>  11.4772  0.0000</r>
       <r>  11.7365  0.0000</r>
       <r>  11.7365  0.0000</r>
      </set>
      <set comment="kpoint 7">
       <r>  -2.5738  1.0000</r>
       <r>  -1.7902  1.0000</r>
       <r>  -1.0112  1.0000</r>
       <r>  -0.2382  1.0000</r>
       <r>  -0.2368  1.0000</r>
       <r>  -0.2353  1.0000</r>
       <r>   0.5313  1.0000</r>
       <r>   0.5331  1.0000</r>
       <r>   0.5343  1.0000</r>
       <r>   1.2950  1.0000</r>
       <r>   1.2980  1.0000</r>
       <r>   1.2985  1.0000</r>
       <r>   1.2997  1.0000</r>
       <r>   2.0591  1.0000</r>
       <r>   2.0591  1.0000</r>
       <r>   2.8126  1.0000</r>
       <r>   2.8141  1.0000</r>
       <r>   2.8144  1.0000</r>
       <r>   3.5443  1.0000</r>
       <r>   3.5546  1.0000</r>
       <r>   3.5546  1.0000</r>
       <r>   3.5635  1.0000</r>
       <r>   3.5637  1.0000</r>
       <r>   4.3087  1.0000</r>
       <r>   4.9693  1.0000</r>
       <r>   5.0285  1.0000</r>
       <r>   5.1035  1.0000</r>
       <r>   5.1035  1.0000</r>
       <r>   5.7003  1.0000</r>
       <r>   5.7513  1.0000</r>
       <r>   5.7514  1.0000</r>
       <r>   5.8999  1.0000</r>
       <r>   6.4771  1.0000</r>
       <r>   6.5726  1.0000</r>
       <r>   6.5726  1.0000</r>
       <r>   6.6163  1.0000</r>
       <r>   7.1972  1.0000</r>
       <r>   7.1973  1.0000</r>
       <r>   7.2763  1.0000</r>
       <r>   7.2763  1.0000</r>
       <r>   7.3339  1.0000</r>
       <r>   7.3659  1.0000</r>
       <r>   7.9185  1.0000</r>
       <r>   7.9186  1.0000</r>
       <r>   7.9745  1.0000</r>
       <r>   8.0527  1.0000</r>
       <r>   8.2883  1.0000</r>
       <r>   8.7396  0.0000</r>
       <r>   8.7397  0.0000</r>
       <r>   8.7719  0.0000</r>
       <r>   8.8091  0.0000</r>
       <r>   8.9571  0.0000</r>
       <r>   8.9738  0.0000</r>
       <r>   9.4904  0.0000</r>
       <r>   9.4939  0.0000</r>
       <r>   9.6858  0.0000</r>
       <r>   9.7321  0.0000</r>
       <r>  10.2093  0.0000</r>
       <r>  10.4686  0.0000</r>
       <r>  10.4686  0.0000</r>
       <r>  10.8210  0.0000</r>
       <r>  10.8212  0.0000</r>
       <r>  10.8276  0.0000</r>
       <r>  10.9356  0.0000</r>
       <r>  11.1709  0.0000</r>
       <r>  11.3018  0.0000</r>
       <r>  11.3018  0.0000</r>
       <r>  11.3975  0.0000</r>
       <r>  11.5454  0.0000</r>
       <r>  11.6521  0.0000</r>
       <r>  12.1367  0.0000</r>
       <r>  12.1392  0.0000</r>
      </set>
      <set comment="kpoint 8">
       <r>  -2.2482  1.0000</r>
       <r>  -2.2452  1.0000</r>
       <r>  -0.6894  1.0000</r>
       <r>  -0.6864  1.0000</r>
       <r>   0.0824  1.0000</r>
       <r>   0.0836  1.0000</r>
       <r>   0.0854  1.0000</r>
       <r>   0.0866  1.0000</r>
       <r>   0.8505  1.0000</r>
       <r>   0.8535  1.0000</r>
       <r>   1.6140  1.0000</r>
       <r>   1.6152  1.0000</r>
       <r>   1.6170  1.0000</r>
       <r>   1.6182  1.0000</r>
       <r>   2.3673  1.0000</r>
       <r>   2.3684  1.0000</r>
       <r>   3.1237  1.0000</r>
       <r>   3.1250  1.0000</r>
       <r>   3.1267  1.0000</r>
       <r>   3.1280  1.0000</r>
       <r>   3.8696  1.0000</r>
       <r>   3.8708  1.0000</r>
       <r>   4.6105  1.0000</r>
       <r>   4.6110  1.0000</r>
       <r>   4.6116  1.0000</r>
       <r>   4.6121  1.0000</r>
       <r>   5.2730  1.0000</r>
       <r>   5.2761  1.0000</r>
       <r>   5.3474  1.0000</r>
       <r>   5.3485  1.0000</r>
       <r>   6.1357  1.0000</r>
       <r>   6.1360  1.0000</r>
       <r>   6.1370  1.0000</r>
       <r>   6.1371  1.0000</r>
       <r>   6.1967  1.0000</r>
       <r>   6.1999  1.0000</r>
       <r>   7.4921  1.0000</r>
       <r>   7.4934  1.0000</r>
       <r>   7.4953  1.0000</r>
       <r>   7.4965  1.0000</r>
       <r>   7.6060  1.0000</r>
       <r>   7.6063  1.0000</r>
       <r>   7.6073  1.0000</r>
       <r>   7.6075  1.0000</r>
       <r>   7.6317  1.0000</r>
       <r>   7.6350  1.0000</r>
       <r>   7.6547  1.0000</r>
       <r>   7.6576  1.0000</r>
       <r>   8.5767  1.0000</r>
       <r>   8.5798  1.0000</r>
       <r>   9.0705  0.0000</r>
       <r>   9.0738  0.0000</r>
       <r>   9.2918  0.0000</r>
       <r>   9.2948  0.0000</r>
       <r>   9.7227  0.0000</r>
       <r>   9.7244  0.0000</r>
       <r>  10.5111  0.0000</r>
       <r>  10.5133  0.0000</r>
       <r>  10.6922  0.0000</r>
       <r>  10.6955  0.0000</r>
       <r>  10.8494  0.0000</r>
       <r>  10.8501  0.0000</r>
       <r>  10.8526  0.0000</r>
       <r>  10.8533  0.0000</r>
       <r>  11.4172  0.0000</r>
       <r>  11.4183  0.0000</r>
       <r>  11.8366  0.0000</r>
       <r>  11.8367  0.0000</r>
       <r>  11.8383  0.0000</r>
       <r>  11.8384  0.0000</r>
       <r>  11.9573  0.0000</r>
       <r>  11.9596  0.0000</r>
      </set>
      <set comment="kpoint 9">
       <r>  -2.6394  1.0000</r>
       <r>  -1.8553  1.0000</r>
       <r>  -0.3042  1.0000</r>
       <r>  -0.3012  1.0000</r>
       <r>  -0.3012  1.0000</r>
       <r>  -0.2982  1.0000</r>
       <r>   0.4661  1.0000</r>
       <r>   0.4691  1.0000</r>
       <r>   0.4691  1.0000</r>
       <r>   0.4721  1.0000</r>
       <r>   1.2326  1.0000</r>
       <r>   1.9937  1.0000</r>
       <r>   1.9946  1.0000</r>
       <r>   1.9971  1.0000</r>
       <r>   1.9980  1.0000</r>
       <r>   2.7483  1.0000</r>
       <r>   2.7492  1.0000</r>
       <r>   2.7517  1.0000</r>
       <r>   2.7526  1.0000</r>
       <r>   3.4822  1.0000</r>
       <r>   3.4984  1.0000</r>
       <r>   3.5015  1.0000</r>
       <r>   3.5015  1.0000</r>
       <r>   3.5046  1.0000</r>
       <r>   5.6960  1.0000</r>
       <r>   5.6992  1.0000</r>
       <r>   5.6992  1.0000</r>
       <r>   5.7024  1.0000</r>
       <r>   5.7715  1.0000</r>
       <r>   5.7725  1.0000</r>
       <r>   5.7750  1.0000</r>
       <r>   5.7760  1.0000</r>
       <r>   5.8403  1.0000</r>
       <r>   5.8403  1.0000</r>
       <r>   6.5565  1.0000</r>
       <r>   6.5566  1.0000</r>
       <r>   7.3077  1.0000</r>
       <r>   7.3077  1.0000</r>
       <r>   7.9457  1.0000</r>
       <r>   7.9468  1.0000</r>
       <r>   7.9494  1.0000</r>
       <r>   7.9505  1.0000</r>
       <r>   7.9897  1.0000</r>
       <r>   7.9924  1.0000</r>
       <r>   7.9925  1.0000</r>
       <r>   7.9954  1.0000</r>
       <r>   8.0136  1.0000</r>
       <r>   8.0138  1.0000</r>
       <r>   8.7094  0.0000</r>
       <r>   8.7123  0.0000</r>
       <r>   8.7123  0.0000</r>
       <r>   8.7152  0.0000</r>
       <r>   9.4314  0.0000</r>
       <r>   9.4315  0.0000</r>
       <r>   9.5873  0.0000</r>
       <r>   9.5898  0.0000</r>
       <r>   9.5898  0.0000</r>
       <r>   9.5923  0.0000</r>
       <r>   9.6287  0.0000</r>
       <r>  10.3971  0.0000</r>
       <r>  10.3996  0.0000</r>
       <r>  10.3996  0.0000</r>
       <r>  10.4020  0.0000</r>
       <r>  11.3117  0.0000</r>
       <r>  11.3117  0.0000</r>
       <r>  11.5916  0.0000</r>
       <r>  11.5916  0.0000</r>
       <r>  11.5946  0.0000</r>
       <r>  11.5976  0.0000</r>
       <r>  11.5976  0.0000</r>
       <r>  11.6006  0.0000</r>
       <r>  12.0397  0.0000</r>
      </set>
      <set comment="kpoint 10">
       <r>  -2.5738  1.0000</r>
       <r>  -1.7902  1.0000</r>
       <r>  -1.0112  1.0000</r>
       <r>  -0.2382  1.0000</r>
       <r>  -0.2368  1.0000</r>
       <r>  -0.2353  1.0000</r>
       <r>   0.5313  1.0000</r>
       <r>   0.5331  1.0000</r>
       <r>   0.5343  1.0000</r>
       <r>   1.2952  1.0000</r>
       <r>   1.2974  1.0000</r>
       <r>   1.2985  1.0000</r>
       <r>   1.3001  1.0000</r>
       <r>   2.0591  1.0000</r>
       <r>   2.0591  1.0000</r>
       <r>   2.8120  1.0000</r>
       <r>   2.8141  1.0000</r>
       <r>   2.8150  1.0000</r>
       <r>   3.5443  1.0000</r>
       <r>   3.5547  1.0000</r>
       <r>   3.5548  1.0000</r>
       <r>   3.5634  1.0000</r>
       <r>   3.5635  1.0000</r>
       <r>   4.3087  1.0000</r>
       <r>   4.9694  1.0000</r>
       <r>   5.0284  1.0000</r>
       <r>   5.1035  1.0000</r>
       <r>   5.1035  1.0000</r>
       <r>   5.7003  1.0000</r>
       <r>   5.7514  1.0000</r>
       <r>   5.7514  1.0000</r>
       <r>   5.8999  1.0000</r>
       <r>   6.4771  1.0000</r>
       <r>   6.5726  1.0000</r>
       <r>   6.5726  1.0000</r>
       <r>   6.6163  1.0000</r>
       <r>   7.1973  1.0000</r>
       <r>   7.1973  1.0000</r>
       <r>   7.2763  1.0000</r>
       <r>   7.2763  1.0000</r>
       <r>   7.3339  1.0000</r>
       <r>   7.3659  1.0000</r>
       <r>   7.9185  1.0000</r>
       <r>   7.9185  1.0000</r>
       <r>   7.9746  1.0000</r>
       <r>   8.0527  1.0000</r>
       <r>   8.2883  1.0000</r>
       <r>   8.7397  0.0000</r>
       <r>   8.7397  0.0000</r>
       <r>   8.7718  0.0000</r>
       <r>   8.8091  0.0000</r>
       <r>   8.9571  0.0000</r>
       <r>   8.9739  0.0000</r>
       <r>   9.4911  0.0000</r>
       <r>   9.4931  0.0000</r>
       <r>   9.6858  0.0000</r>
       <r>   9.7320  0.0000</r>
       <r>  10.2093  0.0000</r>
       <r>  10.4686  0.0000</r>
       <r>  10.4686  0.0000</r>
       <r>  10.8211  0.0000</r>
       <r>  10.8212  0.0000</r>
       <r>  10.8275  0.0000</r>
       <r>  10.9356  0.0000</r>
       <r>  11.1709  0.0000</r>
       <r>  11.3018  0.0000</r>
       <r>  11.3018  0.0000</r>
       <r>  11.3975  0.0000</r>
       <r>  11.5454  0.0000</r>
       <r>  11.6521  0.0000</r>
       <r>  12.1367  0.0000</r>
       <r>  12.1375  0.0000</r>
      </set>
      <set comment="kpoint 11">
       <r>  -2.3775  1.0000</r>
       <r>  -1.5962  1.0000</r>
       <r>  -1.5937  1.0000</r>
       <r>  -0.8171  1.0000</r>
       <r>  -0.0439  1.0000</r>
       <r>  -0.0439  1.0000</r>
       <r>   0.7232  1.0000</r>
       <r>   0.7242  1.0000</r>
       <r>   0.7257  1.0000</r>
       <r>   0.7267  1.0000</r>
       <r>   1.4852  1.0000</r>
       <r>   1.4876  1.0000</r>
       <r>   1.4892  1.0000</r>
       <r>   1.4901  1.0000</r>
       <r>   2.2459  1.0000</r>
       <r>   2.2468  1.0000</r>
       <r>   3.7306  1.0000</r>
       <r>   3.7315  1.0000</r>
       <r>   3.7466  1.0000</r>
       <r>   3.7474  1.0000</r>
       <r>   3.7491  1.0000</r>
       <r>   3.7501  1.0000</r>
       <r>   4.3135  1.0000</r>
       <r>   4.3135  1.0000</r>
       <r>   4.4734  1.0000</r>
       <r>   4.4759  1.0000</r>
       <r>   4.7187  1.0000</r>
       <r>   4.7187  1.0000</r>
       <r>   5.2288  1.0000</r>
       <r>   5.7580  1.0000</r>
       <r>   5.7580  1.0000</r>
       <r>   6.0789  1.0000</r>
       <r>   6.1777  1.0000</r>
       <r>   6.1777  1.0000</r>
       <r>   6.7255  1.0000</r>
       <r>   6.7265  1.0000</r>
       <r>   6.7281  1.0000</r>
       <r>   6.7292  1.0000</r>
       <r>   6.7942  1.0000</r>
       <r>   6.7971  1.0000</r>
       <r>   7.3112  1.0000</r>
       <r>   7.3134  1.0000</r>
       <r>   7.4903  1.0000</r>
       <r>   7.4903  1.0000</r>
       <r>   7.5136  1.0000</r>
       <r>   7.5318  1.0000</r>
       <r>   8.5056  1.0000</r>
       <r>   8.5069  1.0000</r>
       <r>   9.1808  0.0000</r>
       <r>   9.6465  0.0000</r>
       <r>   9.6474  0.0000</r>
       <r>   9.6478  0.0000</r>
       <r>   9.6488  0.0000</r>
       <r>   9.6707  0.0000</r>
       <r>   9.6736  0.0000</r>
       <r>   9.6850  0.0000</r>
       <r>   9.8532  0.0000</r>
       <r>   9.8544  0.0000</r>
       <r>  10.3787  0.0000</r>
       <r>  10.3814  0.0000</r>
       <r>  10.3931  0.0000</r>
       <r>  10.3949  0.0000</r>
       <r>  11.7088  0.0000</r>
       <r>  11.7088  0.0000</r>
       <r>  11.7181  0.0000</r>
       <r>  11.7188  0.0000</r>
       <r>  11.7852  0.0000</r>
       <r>  11.7853  0.0000</r>
       <r>  11.8326  0.0000</r>
       <r>  11.8345  0.0000</r>
       <r>  12.0223  0.0000</r>
       <r>  12.0227  0.0000</r>
      </set>
      <set comment="kpoint 12">
       <r>  -2.0524  1.0000</r>
       <r>  -2.0494  1.0000</r>
       <r>  -1.2718  1.0000</r>
       <r>  -1.2688  1.0000</r>
       <r>   0.2749  1.0000</r>
       <r>   0.2761  1.0000</r>
       <r>   0.2779  1.0000</r>
       <r>   0.2791  1.0000</r>
       <r>   1.0419  1.0000</r>
       <r>   1.0431  1.0000</r>
       <r>   1.0449  1.0000</r>
       <r>   1.0461  1.0000</r>
       <r>   1.8023  1.0000</r>
       <r>   1.8054  1.0000</r>
       <r>   2.5561  1.0000</r>
       <r>   2.5572  1.0000</r>
       <r>   3.3086  1.0000</r>
       <r>   3.3097  1.0000</r>
       <r>   4.0401  1.0000</r>
       <r>   4.0431  1.0000</r>
       <r>   4.0470  1.0000</r>
       <r>   4.0485  1.0000</r>
       <r>   4.0500  1.0000</r>
       <r>   4.0515  1.0000</r>
       <r>   4.7845  1.0000</r>
       <r>   4.7852  1.0000</r>
       <r>   4.7855  1.0000</r>
       <r>   4.7862  1.0000</r>
       <r>   5.5923  1.0000</r>
       <r>   5.5924  1.0000</r>
       <r>   5.5934  1.0000</r>
       <r>   5.5935  1.0000</r>
       <r>   6.2478  1.0000</r>
       <r>   6.2488  1.0000</r>
       <r>   6.3076  1.0000</r>
       <r>   6.3086  1.0000</r>
       <r>   6.3106  1.0000</r>
       <r>   6.3116  1.0000</r>
       <r>   6.3758  1.0000</r>
       <r>   6.3790  1.0000</r>
       <r>   7.0930  1.0000</r>
       <r>   7.0963  1.0000</r>
       <r>   7.7228  1.0000</r>
       <r>   7.7251  1.0000</r>
       <r>   8.5193  1.0000</r>
       <r>   8.5195  1.0000</r>
       <r>   8.5206  1.0000</r>
       <r>   8.5208  1.0000</r>
       <r>   8.6846  0.3181</r>
       <r>   8.6854  0.2790</r>
       <r>   8.7569  0.0000</r>
       <r>   8.7597  0.0000</r>
       <r>   9.9712  0.0000</r>
       <r>   9.9745  0.0000</r>
       <r>  10.1137  0.0000</r>
       <r>  10.1167  0.0000</r>
       <r>  10.6661  0.0000</r>
       <r>  10.6662  0.0000</r>
       <r>  10.6676  0.0000</r>
       <r>  10.6677  0.0000</r>
       <r>  10.6920  0.0000</r>
       <r>  10.6941  0.0000</r>
       <r>  11.4151  0.0000</r>
       <r>  11.4174  0.0000</r>
       <r>  11.4301  0.0000</r>
       <r>  11.4332  0.0000</r>
       <r>  11.5616  0.0000</r>
       <r>  11.5623  0.0000</r>
       <r>  12.1340  0.0000</r>
       <r>  12.1374  0.0000</r>
       <r>  12.3366  0.0000</r>
       <r>  12.3396  0.0000</r>
      </set>
      <set comment="kpoint 13">
       <r>  -2.3121  1.0000</r>
       <r>  -2.3121  1.0000</r>
       <r>   0.0148  1.0000</r>
       <r>   0.0197  1.0000</r>
       <r>   0.0203  1.0000</r>
       <r>   0.0203  1.0000</r>
       <r>   0.0203  1.0000</r>
       <r>   0.0203  1.0000</r>
       <r>   0.0209  1.0000</r>
       <r>   0.0257  1.0000</r>
       <r>   2.3033  1.0000</r>
       <r>   2.3046  1.0000</r>
       <r>   2.3086  1.0000</r>
       <r>   2.3091  1.0000</r>
       <r>   2.3109  1.0000</r>
       <r>   2.3111  1.0000</r>
       <r>   2.3116  1.0000</r>
       <r>   2.3120  1.0000</r>
       <r>   2.3136  1.0000</r>
       <r>   2.3156  1.0000</r>
       <r>   4.5479  1.0000</r>
       <r>   4.5485  1.0000</r>
       <r>   4.5513  1.0000</r>
       <r>   4.5513  1.0000</r>
       <r>   4.5513  1.0000</r>
       <r>   4.5513  1.0000</r>
       <r>   4.5542  1.0000</r>
       <r>   4.5548  1.0000</r>
       <r>   6.1385  1.0000</r>
       <r>   6.1386  1.0000</r>
       <r>   6.1386  1.0000</r>
       <r>   6.1386  1.0000</r>
       <r>   6.8077  1.0000</r>
       <r>   6.8094  1.0000</r>
       <r>   6.8094  1.0000</r>
       <r>   6.8096  1.0000</r>
       <r>   6.8120  1.0000</r>
       <r>   6.8122  1.0000</r>
       <r>   6.8122  1.0000</r>
       <r>   6.8139  1.0000</r>
       <r>   7.6096  1.0000</r>
       <r>   7.6097  1.0000</r>
       <r>   7.6097  1.0000</r>
       <r>   7.6097  1.0000</r>
       <r>   8.2871  1.0000</r>
       <r>   8.2918  1.0000</r>
       <r>   8.2923  1.0000</r>
       <r>   8.2923  1.0000</r>
       <r>   8.2923  1.0000</r>
       <r>   8.2924  1.0000</r>
       <r>   8.2928  1.0000</r>
       <r>   8.2976  1.0000</r>
       <r>   9.9444  0.0000</r>
       <r>   9.9482  0.0000</r>
       <r>   9.9488  0.0000</r>
       <r>   9.9488  0.0000</r>
       <r>   9.9488  0.0000</r>
       <r>   9.9488  0.0000</r>
       <r>   9.9494  0.0000</r>
       <r>   9.9531  0.0000</r>
       <r>  10.4519  0.0000</r>
       <r>  10.4519  0.0000</r>
       <r>  10.4519  0.0000</r>
       <r>  10.4519  0.0000</r>
       <r>  11.3659  0.0000</r>
       <r>  11.3659  0.0000</r>
       <r>  12.2474  0.0000</r>
       <r>  12.2474  0.0000</r>
       <r>  12.2475  0.0000</r>
       <r>  12.2475  0.0000</r>
       <r>  12.6204  0.0000</r>
       <r>  12.6207  0.0000</r>
      </set>
      <set comment="kpoint 14">
       <r>  -2.2467  1.0000</r>
       <r>  -2.2467  1.0000</r>
       <r>  -0.6879  1.0000</r>
       <r>  -0.6879  1.0000</r>
       <r>   0.0845  1.0000</r>
       <r>   0.0845  1.0000</r>
       <r>   0.0845  1.0000</r>
       <r>   0.0845  1.0000</r>
       <r>   0.8520  1.0000</r>
       <r>   0.8520  1.0000</r>
       <r>   1.6161  1.0000</r>
       <r>   1.6161  1.0000</r>
       <r>   1.6161  1.0000</r>
       <r>   1.6161  1.0000</r>
       <r>   2.3678  1.0000</r>
       <r>   2.3678  1.0000</r>
       <r>   3.1259  1.0000</r>
       <r>   3.1259  1.0000</r>
       <r>   3.1259  1.0000</r>
       <r>   3.1259  1.0000</r>
       <r>   3.8702  1.0000</r>
       <r>   3.8702  1.0000</r>
       <r>   4.6113  1.0000</r>
       <r>   4.6113  1.0000</r>
       <r>   4.6113  1.0000</r>
       <r>   4.6113  1.0000</r>
       <r>   5.2746  1.0000</r>
       <r>   5.2746  1.0000</r>
       <r>   5.3479  1.0000</r>
       <r>   5.3479  1.0000</r>
       <r>   6.1364  1.0000</r>
       <r>   6.1365  1.0000</r>
       <r>   6.1365  1.0000</r>
       <r>   6.1365  1.0000</r>
       <r>   6.1983  1.0000</r>
       <r>   6.1983  1.0000</r>
       <r>   7.4943  1.0000</r>
       <r>   7.4943  1.0000</r>
       <r>   7.4943  1.0000</r>
       <r>   7.4944  1.0000</r>
       <r>   7.6067  1.0000</r>
       <r>   7.6068  1.0000</r>
       <r>   7.6068  1.0000</r>
       <r>   7.6068  1.0000</r>
       <r>   7.6333  1.0000</r>
       <r>   7.6335  1.0000</r>
       <r>   7.6561  1.0000</r>
       <r>   7.6561  1.0000</r>
       <r>   8.5782  1.0000</r>
       <r>   8.5783  1.0000</r>
       <r>   9.0721  0.0000</r>
       <r>   9.0721  0.0000</r>
       <r>   9.2933  0.0000</r>
       <r>   9.2933  0.0000</r>
       <r>   9.7236  0.0000</r>
       <r>   9.7236  0.0000</r>
       <r>  10.5122  0.0000</r>
       <r>  10.5122  0.0000</r>
       <r>  10.6938  0.0000</r>
       <r>  10.6938  0.0000</r>
       <r>  10.8513  0.0000</r>
       <r>  10.8513  0.0000</r>
       <r>  10.8514  0.0000</r>
       <r>  10.8514  0.0000</r>
       <r>  11.4177  0.0000</r>
       <r>  11.4178  0.0000</r>
       <r>  11.8375  0.0000</r>
       <r>  11.8375  0.0000</r>
       <r>  11.8375  0.0000</r>
       <r>  11.8375  0.0000</r>
       <r>  11.9584  0.0000</r>
       <r>  11.9584  0.0000</r>
      </set>
      <set comment="kpoint 15">
       <r>  -2.0509  1.0000</r>
       <r>  -2.0509  1.0000</r>
       <r>  -1.2703  1.0000</r>
       <r>  -1.2703  1.0000</r>
       <r>   0.2769  1.0000</r>
       <r>   0.2770  1.0000</r>
       <r>   0.2770  1.0000</r>
       <r>   0.2770  1.0000</r>
       <r>   1.0440  1.0000</r>
       <r>   1.0440  1.0000</r>
       <r>   1.0440  1.0000</r>
       <r>   1.0440  1.0000</r>
       <r>   1.8039  1.0000</r>
       <r>   1.8039  1.0000</r>
       <r>   2.5567  1.0000</r>
       <r>   2.5567  1.0000</r>
       <r>   3.3091  1.0000</r>
       <r>   3.3091  1.0000</r>
       <r>   4.0416  1.0000</r>
       <r>   4.0416  1.0000</r>
       <r>   4.0492  1.0000</r>
       <r>   4.0492  1.0000</r>
       <r>   4.0493  1.0000</r>
       <r>   4.0493  1.0000</r>
       <r>   4.7853  1.0000</r>
       <r>   4.7853  1.0000</r>
       <r>   4.7853  1.0000</r>
       <r>   4.7853  1.0000</r>
       <r>   5.5929  1.0000</r>
       <r>   5.5929  1.0000</r>
       <r>   5.5929  1.0000</r>
       <r>   5.5929  1.0000</r>
       <r>   6.2483  1.0000</r>
       <r>   6.2483  1.0000</r>
       <r>   6.3095  1.0000</r>
       <r>   6.3096  1.0000</r>
       <r>   6.3096  1.0000</r>
       <r>   6.3096  1.0000</r>
       <r>   6.3774  1.0000</r>
       <r>   6.3775  1.0000</r>
       <r>   7.0946  1.0000</r>
       <r>   7.0946  1.0000</r>
       <r>   7.7239  1.0000</r>
       <r>   7.7239  1.0000</r>
       <r>   8.5200  1.0000</r>
       <r>   8.5200  1.0000</r>
       <r>   8.5200  1.0000</r>
       <r>   8.5200  1.0000</r>
       <r>   8.6850  0.2981</r>
       <r>   8.6850  0.2981</r>
       <r>   8.7583  0.0000</r>
       <r>   8.7583  0.0000</r>
       <r>   9.9728  0.0000</r>
       <r>   9.9728  0.0000</r>
       <r>  10.1152  0.0000</r>
       <r>  10.1152  0.0000</r>
       <r>  10.6668  0.0000</r>
       <r>  10.6668  0.0000</r>
       <r>  10.6669  0.0000</r>
       <r>  10.6669  0.0000</r>
       <r>  10.6931  0.0000</r>
       <r>  10.6932  0.0000</r>
       <r>  11.4162  0.0000</r>
       <r>  11.4162  0.0000</r>
       <r>  11.4316  0.0000</r>
       <r>  11.4316  0.0000</r>
       <r>  11.5620  0.0000</r>
       <r>  11.5620  0.0000</r>
       <r>  12.1357  0.0000</r>
       <r>  12.1357  0.0000</r>
       <r>  12.3383  0.0000</r>
       <r>  12.3384  0.0000</r>
      </set>
      <set comment="kpoint 16">
       <r>  -1.7278  1.0000</r>
       <r>  -1.7253  1.0000</r>
       <r>  -1.7248  1.0000</r>
       <r>  -1.7223  1.0000</r>
       <r>   0.5933  1.0000</r>
       <r>   0.5955  1.0000</r>
       <r>   0.5968  1.0000</r>
       <r>   0.5970  1.0000</r>
       <r>   0.5972  1.0000</r>
       <r>   0.5975  1.0000</r>
       <r>   0.5988  1.0000</r>
       <r>   0.6009  1.0000</r>
       <r>   2.8668  1.0000</r>
       <r>   2.8686  1.0000</r>
       <r>   2.8703  1.0000</r>
       <r>   2.8708  1.0000</r>
       <r>   2.8708  1.0000</r>
       <r>   2.8712  1.0000</r>
       <r>   2.8730  1.0000</r>
       <r>   2.8748  1.0000</r>
       <r>   4.9139  1.0000</r>
       <r>   4.9155  1.0000</r>
       <r>   4.9163  1.0000</r>
       <r>   4.9169  1.0000</r>
       <r>   4.9169  1.0000</r>
       <r>   4.9176  1.0000</r>
       <r>   4.9183  1.0000</r>
       <r>   4.9200  1.0000</r>
       <r>   5.3379  1.0000</r>
       <r>   5.3383  1.0000</r>
       <r>   5.3391  1.0000</r>
       <r>   5.3401  1.0000</r>
       <r>   5.3402  1.0000</r>
       <r>   5.3412  1.0000</r>
       <r>   5.3420  1.0000</r>
       <r>   5.3424  1.0000</r>
       <r>   6.6731  1.0000</r>
       <r>   6.6759  1.0000</r>
       <r>   6.6763  1.0000</r>
       <r>   6.6791  1.0000</r>
       <r>   7.1973  1.0000</r>
       <r>   7.1978  1.0000</r>
       <r>   7.1995  1.0000</r>
       <r>   7.2000  1.0000</r>
       <r>   8.3990  1.0000</r>
       <r>   8.4002  1.0000</r>
       <r>   8.4011  1.0000</r>
       <r>   8.4024  1.0000</r>
       <r>   9.5427  0.0000</r>
       <r>   9.5435  0.0000</r>
       <r>   9.5438  0.0000</r>
       <r>   9.5438  0.0000</r>
       <r>   9.5451  0.0000</r>
       <r>   9.5451  0.0000</r>
       <r>   9.5454  0.0000</r>
       <r>   9.5462  0.0000</r>
       <r>  10.9886  0.0000</r>
       <r>  10.9924  0.0000</r>
       <r>  10.9940  0.0000</r>
       <r>  10.9944  0.0000</r>
       <r>  10.9944  0.0000</r>
       <r>  10.9948  0.0000</r>
       <r>  10.9965  0.0000</r>
       <r>  11.0002  0.0000</r>
       <r>  11.7115  0.0000</r>
       <r>  11.7133  0.0000</r>
       <r>  11.7150  0.0000</r>
       <r>  11.7151  0.0000</r>
       <r>  11.7154  0.0000</r>
       <r>  11.7155  0.0000</r>
       <r>  11.7172  0.0000</r>
       <r>  11.7190  0.0000</r>
      </set>
      <set comment="kpoint 17">
       <r>  -2.7705  1.0000</r>
       <r>  -1.2055  1.0000</r>
       <r>  -1.2055  1.0000</r>
       <r>  -0.4317  1.0000</r>
       <r>  -0.4283  1.0000</r>
       <r>   0.3405  1.0000</r>
       <r>   0.3405  1.0000</r>
       <r>   0.3412  1.0000</r>
       <r>   1.1049  1.0000</r>
       <r>   1.1069  1.0000</r>
       <r>   1.1083  1.0000</r>
       <r>   1.1103  1.0000</r>
       <r>   1.8689  1.0000</r>
       <r>   1.8689  1.0000</r>
       <r>   2.6229  1.0000</r>
       <r>   2.6238  1.0000</r>
       <r>   2.6253  1.0000</r>
       <r>   2.6266  1.0000</r>
       <r>   2.6267  1.0000</r>
       <r>   2.6288  1.0000</r>
       <r>   3.3778  1.0000</r>
       <r>   3.9510  1.0000</r>
       <r>   3.9510  1.0000</r>
       <r>   4.3392  1.0000</r>
       <r>   4.3393  1.0000</r>
       <r>   4.7859  1.0000</r>
       <r>   4.7860  1.0000</r>
       <r>   5.6501  1.0000</r>
       <r>   5.6536  1.0000</r>
       <r>   5.7210  1.0000</r>
       <r>   6.2442  1.0000</r>
       <r>   6.2443  1.0000</r>
       <r>   6.8185  1.0000</r>
       <r>   6.8185  1.0000</r>
       <r>   7.1430  1.0000</r>
       <r>   7.1432  1.0000</r>
       <r>   7.1543  1.0000</r>
       <r>   7.1545  1.0000</r>
       <r>   7.1843  1.0000</r>
       <r>   7.6316  1.0000</r>
       <r>   7.6316  1.0000</r>
       <r>   8.1099  1.0000</r>
       <r>   8.1099  1.0000</r>
       <r>   8.4620  1.0000</r>
       <r>   8.4641  1.0000</r>
       <r>   8.4658  1.0000</r>
       <r>   8.4679  1.0000</r>
       <r>   8.5917  1.0000</r>
       <r>   8.5917  1.0000</r>
       <r>   8.5924  1.0000</r>
       <r>   8.7620  0.0000</r>
       <r>   8.7621  0.0000</r>
       <r>   9.3158  0.0000</r>
       <r>   9.3158  0.0000</r>
       <r>   9.9141  0.0000</r>
       <r>   9.9142  0.0000</r>
       <r>   9.9159  0.0000</r>
       <r>   9.9164  0.0000</r>
       <r>   9.9196  0.0000</r>
       <r>   9.9203  0.0000</r>
       <r>  10.0337  0.0000</r>
       <r>  10.0337  0.0000</r>
       <r>  10.2889  0.0000</r>
       <r>  10.7040  0.0000</r>
       <r>  10.7040  0.0000</r>
       <r>  10.9807  0.0000</r>
       <r>  10.9807  0.0000</r>
       <r>  11.3062  0.0000</r>
       <r>  11.3063  0.0000</r>
       <r>  11.4773  0.0000</r>
       <r>  11.7365  0.0000</r>
       <r>  11.7368  0.0000</r>
      </set>
      <set comment="kpoint 18">
       <r>  -2.7049  1.0000</r>
       <r>  -1.1425  1.0000</r>
       <r>  -1.1407  1.0000</r>
       <r>  -1.1389  1.0000</r>
       <r>   0.4012  1.0000</r>
       <r>   0.4043  1.0000</r>
       <r>   0.4045  1.0000</r>
       <r>   0.4053  1.0000</r>
       <r>   0.4054  1.0000</r>
       <r>   0.4085  1.0000</r>
       <r>   1.9289  1.0000</r>
       <r>   1.9310  1.0000</r>
       <r>   1.9318  1.0000</r>
       <r>   1.9322  1.0000</r>
       <r>   1.9330  1.0000</r>
       <r>   1.9335  1.0000</r>
       <r>   1.9358  1.0000</r>
       <r>   3.4296  1.0000</r>
       <r>   3.4303  1.0000</r>
       <r>   3.4309  1.0000</r>
       <r>   3.4383  1.0000</r>
       <r>   3.4400  1.0000</r>
       <r>   3.4419  1.0000</r>
       <r>   4.8465  1.0000</r>
       <r>   4.8471  1.0000</r>
       <r>   4.8477  1.0000</r>
       <r>   4.9799  1.0000</r>
       <r>   4.9806  1.0000</r>
       <r>   4.9812  1.0000</r>
       <r>   6.2953  1.0000</r>
       <r>   6.2968  1.0000</r>
       <r>   6.2982  1.0000</r>
       <r>   6.2982  1.0000</r>
       <r>   6.2997  1.0000</r>
       <r>   6.3012  1.0000</r>
       <r>   6.4517  1.0000</r>
       <r>   7.7695  1.0000</r>
       <r>   7.7698  1.0000</r>
       <r>   7.7715  1.0000</r>
       <r>   7.7715  1.0000</r>
       <r>   7.7731  1.0000</r>
       <r>   7.7735  1.0000</r>
       <r>   7.7965  1.0000</r>
       <r>   7.7983  1.0000</r>
       <r>   7.8001  1.0000</r>
       <r>   8.1683  1.0000</r>
       <r>   8.1689  1.0000</r>
       <r>   8.1696  1.0000</r>
       <r>   9.2493  0.0000</r>
       <r>   9.2502  0.0000</r>
       <r>   9.2514  0.0000</r>
       <r>   9.2514  0.0000</r>
       <r>   9.2527  0.0000</r>
       <r>   9.2536  0.0000</r>
       <r>   9.6106  0.0000</r>
       <r>   9.6119  0.0000</r>
       <r>   9.6130  0.0000</r>
       <r>   9.6130  0.0000</r>
       <r>   9.6141  0.0000</r>
       <r>   9.6154  0.0000</r>
       <r>  10.7021  0.0000</r>
       <r>  10.7032  0.0000</r>
       <r>  10.7042  0.0000</r>
       <r>  11.1928  0.0000</r>
       <r>  11.1938  0.0000</r>
       <r>  11.1948  0.0000</r>
       <r>  11.4032  0.0000</r>
       <r>  11.4036  0.0000</r>
       <r>  11.4048  0.0000</r>
       <r>  11.4048  0.0000</r>
       <r>  11.4060  0.0000</r>
       <r>  11.4065  0.0000</r>
      </set>
      <set comment="kpoint 19">
       <r>  -2.5084  1.0000</r>
       <r>  -1.7251  1.0000</r>
       <r>  -0.9465  1.0000</r>
       <r>  -0.9464  1.0000</r>
       <r>  -0.1724  1.0000</r>
       <r>  -0.1723  1.0000</r>
       <r>   0.5965  1.0000</r>
       <r>   0.5965  1.0000</r>
       <r>   0.5973  1.0000</r>
       <r>   1.3585  1.0000</r>
       <r>   1.3615  1.0000</r>
       <r>   1.3621  1.0000</r>
       <r>   1.3631  1.0000</r>
       <r>   2.1218  1.0000</r>
       <r>   2.1218  1.0000</r>
       <r>   2.8739  1.0000</r>
       <r>   2.8745  1.0000</r>
       <r>   2.8765  1.0000</r>
       <r>   2.8771  1.0000</r>
       <r>   3.6067  1.0000</r>
       <r>   3.6251  1.0000</r>
       <r>   4.1927  1.0000</r>
       <r>   4.3689  1.0000</r>
       <r>   4.3689  1.0000</r>
       <r>   4.5927  1.0000</r>
       <r>   5.0303  1.0000</r>
       <r>   5.0304  1.0000</r>
       <r>   5.0880  1.0000</r>
       <r>   5.0881  1.0000</r>
       <r>   5.7596  1.0000</r>
       <r>   5.7596  1.0000</r>
       <r>   5.8966  1.0000</r>
       <r>   5.8966  1.0000</r>
       <r>   6.3474  1.0000</r>
       <r>   6.3474  1.0000</r>
       <r>   6.6054  1.0000</r>
       <r>   6.7233  1.0000</r>
       <r>   6.7233  1.0000</r>
       <r>   7.2535  1.0000</r>
       <r>   7.2535  1.0000</r>
       <r>   7.3704  1.0000</r>
       <r>   7.9695  1.0000</r>
       <r>   7.9695  1.0000</r>
       <r>   8.0686  1.0000</r>
       <r>   8.0686  1.0000</r>
       <r>   8.3423  1.0000</r>
       <r>   8.3423  1.0000</r>
       <r>   8.5617  1.0000</r>
       <r>   8.5618  1.0000</r>
       <r>   8.7045  0.0005</r>
       <r>   8.7045  0.0005</r>
       <r>   9.2414  0.0000</r>
       <r>   9.2415  0.0000</r>
       <r>   9.5295  0.0000</r>
       <r>   9.7400  0.0000</r>
       <r>   9.8781  0.0000</r>
       <r>   9.8781  0.0000</r>
       <r>  10.1552  0.0000</r>
       <r>  10.1552  0.0000</r>
       <r>  10.6435  0.0000</r>
       <r>  10.6435  0.0000</r>
       <r>  10.8725  0.0000</r>
       <r>  10.8725  0.0000</r>
       <r>  10.8924  0.0000</r>
       <r>  10.8924  0.0000</r>
       <r>  11.6049  0.0000</r>
       <r>  11.6049  0.0000</r>
       <r>  11.8562  0.0000</r>
       <r>  11.8562  0.0000</r>
       <r>  12.0609  0.0000</r>
       <r>  12.0609  0.0000</r>
       <r>  12.2246  0.0000</r>
      </set>
      <set comment="kpoint 20">
       <r>  -2.1829  1.0000</r>
       <r>  -2.1799  1.0000</r>
       <r>  -0.6259  1.0000</r>
       <r>  -0.6238  1.0000</r>
       <r>  -0.6229  1.0000</r>
       <r>  -0.6208  1.0000</r>
       <r>   0.9130  1.0000</r>
       <r>   0.9153  1.0000</r>
       <r>   0.9154  1.0000</r>
       <r>   0.9162  1.0000</r>
       <r>   0.9175  1.0000</r>
       <r>   0.9189  1.0000</r>
       <r>   2.4294  1.0000</r>
       <r>   2.4310  1.0000</r>
       <r>   2.4356  1.0000</r>
       <r>   2.4358  1.0000</r>
       <r>   2.4382  1.0000</r>
       <r>   2.4392  1.0000</r>
       <r>   3.9251  1.0000</r>
       <r>   3.9280  1.0000</r>
       <r>   3.9314  1.0000</r>
       <r>   3.9314  1.0000</r>
       <r>   3.9323  1.0000</r>
       <r>   3.9326  1.0000</r>
       <r>   5.3334  1.0000</r>
       <r>   5.3337  1.0000</r>
       <r>   5.3365  1.0000</r>
       <r>   5.3368  1.0000</r>
       <r>   5.3994  1.0000</r>
       <r>   5.3996  1.0000</r>
       <r>   5.4004  1.0000</r>
       <r>   5.4006  1.0000</r>
       <r>   5.4688  1.0000</r>
       <r>   5.4699  1.0000</r>
       <r>   6.8355  1.0000</r>
       <r>   6.8376  1.0000</r>
       <r>   6.8385  1.0000</r>
       <r>   6.8407  1.0000</r>
       <r>   6.9315  1.0000</r>
       <r>   6.9322  1.0000</r>
       <r>   6.9328  1.0000</r>
       <r>   6.9334  1.0000</r>
       <r>   8.2755  1.0000</r>
       <r>   8.2763  1.0000</r>
       <r>   8.2787  1.0000</r>
       <r>   8.2795  1.0000</r>
       <r>   8.4003  1.0000</r>
       <r>   8.4016  1.0000</r>
       <r>   8.6033  1.0000</r>
       <r>   8.6040  1.0000</r>
       <r>   8.6061  1.0000</r>
       <r>   8.6069  1.0000</r>
       <r>   9.8063  0.0000</r>
       <r>   9.8068  0.0000</r>
       <r>   9.8078  0.0000</r>
       <r>   9.8084  0.0000</r>
       <r>  10.2050  0.0000</r>
       <r>  10.2060  0.0000</r>
       <r>  10.2081  0.0000</r>
       <r>  10.2091  0.0000</r>
       <r>  11.1709  0.0000</r>
       <r>  11.1715  0.0000</r>
       <r>  11.1726  0.0000</r>
       <r>  11.1732  0.0000</r>
       <r>  11.4537  0.0000</r>
       <r>  11.4545  0.0000</r>
       <r>  11.5619  0.0000</r>
       <r>  11.5642  0.0000</r>
       <r>  11.5652  0.0000</r>
       <r>  11.5675  0.0000</r>
       <r>  12.5791  0.0000</r>
       <r>  12.6096  0.0000</r>
      </set>
      <set comment="kpoint 21">
       <r>  -2.5738  1.0000</r>
       <r>  -1.7902  1.0000</r>
       <r>  -1.0112  1.0000</r>
       <r>  -0.2390  1.0000</r>
       <r>  -0.2368  1.0000</r>
       <r>  -0.2346  1.0000</r>
       <r>   0.5307  1.0000</r>
       <r>   0.5328  1.0000</r>
       <r>   0.5352  1.0000</r>
       <r>   1.2953  1.0000</r>
       <r>   1.2973  1.0000</r>
       <r>   1.2980  1.0000</r>
       <r>   1.3006  1.0000</r>
       <r>   2.0574  1.0000</r>
       <r>   2.0608  1.0000</r>
       <r>   2.8121  1.0000</r>
       <r>   2.8132  1.0000</r>
       <r>   2.8159  1.0000</r>
       <r>   3.5443  1.0000</r>
       <r>   3.5531  1.0000</r>
       <r>   3.5564  1.0000</r>
       <r>   3.5617  1.0000</r>
       <r>   3.5651  1.0000</r>
       <r>   4.3087  1.0000</r>
       <r>   4.9694  1.0000</r>
       <r>   5.0284  1.0000</r>
       <r>   5.1018  1.0000</r>
       <r>   5.1052  1.0000</r>
       <r>   5.7003  1.0000</r>
       <r>   5.7497  1.0000</r>
       <r>   5.7531  1.0000</r>
       <r>   5.8999  1.0000</r>
       <r>   6.4771  1.0000</r>
       <r>   6.5708  1.0000</r>
       <r>   6.5744  1.0000</r>
       <r>   6.6163  1.0000</r>
       <r>   7.1955  1.0000</r>
       <r>   7.1991  1.0000</r>
       <r>   7.2745  1.0000</r>
       <r>   7.2781  1.0000</r>
       <r>   7.3339  1.0000</r>
       <r>   7.3659  1.0000</r>
       <r>   7.9167  1.0000</r>
       <r>   7.9204  1.0000</r>
       <r>   7.9745  1.0000</r>
       <r>   8.0527  1.0000</r>
       <r>   8.2883  1.0000</r>
       <r>   8.7378  0.0000</r>
       <r>   8.7415  0.0000</r>
       <r>   8.7718  0.0000</r>
       <r>   8.8091  0.0000</r>
       <r>   8.9571  0.0000</r>
       <r>   8.9738  0.0000</r>
       <r>   9.4916  0.0000</r>
       <r>   9.4927  0.0000</r>
       <r>   9.6858  0.0000</r>
       <r>   9.7320  0.0000</r>
       <r>  10.2093  0.0000</r>
       <r>  10.4673  0.0000</r>
       <r>  10.4699  0.0000</r>
       <r>  10.8192  0.0000</r>
       <r>  10.8231  0.0000</r>
       <r>  10.8275  0.0000</r>
       <r>  10.9356  0.0000</r>
       <r>  11.1709  0.0000</r>
       <r>  11.3002  0.0000</r>
       <r>  11.3034  0.0000</r>
       <r>  11.3975  0.0000</r>
       <r>  11.5454  0.0000</r>
       <r>  11.6521  0.0000</r>
       <r>  12.1363  0.0000</r>
       <r>  12.1406  0.0000</r>
      </set>
      <set comment="kpoint 22">
       <r>  -2.5084  1.0000</r>
       <r>  -1.7251  1.0000</r>
       <r>  -0.9477  1.0000</r>
       <r>  -0.9452  1.0000</r>
       <r>  -0.1736  1.0000</r>
       <r>  -0.1711  1.0000</r>
       <r>   0.5948  1.0000</r>
       <r>   0.5968  1.0000</r>
       <r>   0.5986  1.0000</r>
       <r>   1.3592  1.0000</r>
       <r>   1.3603  1.0000</r>
       <r>   1.3619  1.0000</r>
       <r>   1.3638  1.0000</r>
       <r>   2.1214  1.0000</r>
       <r>   2.1223  1.0000</r>
       <r>   2.8741  1.0000</r>
       <r>   2.8751  1.0000</r>
       <r>   2.8758  1.0000</r>
       <r>   2.8771  1.0000</r>
       <r>   3.6067  1.0000</r>
       <r>   3.6250  1.0000</r>
       <r>   4.1927  1.0000</r>
       <r>   4.3676  1.0000</r>
       <r>   4.3701  1.0000</r>
       <r>   4.5927  1.0000</r>
       <r>   5.0300  1.0000</r>
       <r>   5.0308  1.0000</r>
       <r>   5.0867  1.0000</r>
       <r>   5.0894  1.0000</r>
       <r>   5.7592  1.0000</r>
       <r>   5.7601  1.0000</r>
       <r>   5.8962  1.0000</r>
       <r>   5.8971  1.0000</r>
       <r>   6.3461  1.0000</r>
       <r>   6.3486  1.0000</r>
       <r>   6.6054  1.0000</r>
       <r>   6.7219  1.0000</r>
       <r>   6.7247  1.0000</r>
       <r>   7.2523  1.0000</r>
       <r>   7.2548  1.0000</r>
       <r>   7.3704  1.0000</r>
       <r>   7.9688  1.0000</r>
       <r>   7.9703  1.0000</r>
       <r>   8.0680  1.0000</r>
       <r>   8.0691  1.0000</r>
       <r>   8.3418  1.0000</r>
       <r>   8.3428  1.0000</r>
       <r>   8.5610  1.0000</r>
       <r>   8.5625  1.0000</r>
       <r>   8.7038  0.0007</r>
       <r>   8.7052  0.0004</r>
       <r>   9.2414  0.0000</r>
       <r>   9.2415  0.0000</r>
       <r>   9.5295  0.0000</r>
       <r>   9.7400  0.0000</r>
       <r>   9.8773  0.0000</r>
       <r>   9.8789  0.0000</r>
       <r>  10.1539  0.0000</r>
       <r>  10.1565  0.0000</r>
       <r>  10.6428  0.0000</r>
       <r>  10.6442  0.0000</r>
       <r>  10.8711  0.0000</r>
       <r>  10.8739  0.0000</r>
       <r>  10.8920  0.0000</r>
       <r>  10.8928  0.0000</r>
       <r>  11.6042  0.0000</r>
       <r>  11.6056  0.0000</r>
       <r>  11.8553  0.0000</r>
       <r>  11.8572  0.0000</r>
       <r>  12.0595  0.0000</r>
       <r>  12.0622  0.0000</r>
       <r>  12.2139  0.0000</r>
      </set>
      <set comment="kpoint 23">
       <r>  -2.3121  1.0000</r>
       <r>  -1.5312  1.0000</r>
       <r>  -1.5287  1.0000</r>
       <r>  -0.7535  1.0000</r>
       <r>  -0.7515  1.0000</r>
       <r>   0.0192  1.0000</r>
       <r>   0.0218  1.0000</r>
       <r>   0.7879  1.0000</r>
       <r>   0.7893  1.0000</r>
       <r>   1.5483  1.0000</r>
       <r>   1.5508  1.0000</r>
       <r>   1.5516  1.0000</r>
       <r>   1.5540  1.0000</r>
       <r>   2.3085  1.0000</r>
       <r>   2.3096  1.0000</r>
       <r>   2.3117  1.0000</r>
       <r>   3.0619  1.0000</r>
       <r>   3.0645  1.0000</r>
       <r>   3.7927  1.0000</r>
       <r>   3.7936  1.0000</r>
       <r>   3.8010  1.0000</r>
       <r>   3.8018  1.0000</r>
       <r>   4.5346  1.0000</r>
       <r>   4.5371  1.0000</r>
       <r>   4.5424  1.0000</r>
       <r>   4.5449  1.0000</r>
       <r>   5.2130  1.0000</r>
       <r>   5.2606  1.0000</r>
       <r>   5.2615  1.0000</r>
       <r>   5.2809  1.0000</r>
       <r>   5.3509  1.0000</r>
       <r>   5.3518  1.0000</r>
       <r>   5.9320  1.0000</r>
       <r>   5.9348  1.0000</r>
       <r>   6.0639  1.0000</r>
       <r>   6.0665  1.0000</r>
       <r>   6.7174  1.0000</r>
       <r>   6.7919  1.0000</r>
       <r>   6.7928  1.0000</r>
       <r>   6.8152  1.0000</r>
       <r>   7.4782  1.0000</r>
       <r>   7.4797  1.0000</r>
       <r>   7.5170  1.0000</r>
       <r>   7.5196  1.0000</r>
       <r>   8.2854  1.0000</r>
       <r>   8.4823  1.0000</r>
       <r>   8.8555  0.0000</r>
       <r>   8.8584  0.0000</r>
       <r>   8.9773  0.0000</r>
       <r>   8.9787  0.0000</r>
       <r>   9.3711  0.0000</r>
       <r>   9.3731  0.0000</r>
       <r>   9.6069  0.0000</r>
       <r>   9.6083  0.0000</r>
       <r>   9.7729  0.0000</r>
       <r>   9.8859  0.0000</r>
       <r>   9.8872  0.0000</r>
       <r>  10.0979  0.0000</r>
       <r>  10.4346  0.0000</r>
       <r>  10.4359  0.0000</r>
       <r>  10.6401  0.0000</r>
       <r>  10.6420  0.0000</r>
       <r>  11.0992  0.0000</r>
       <r>  11.1003  0.0000</r>
       <r>  11.1187  0.0000</r>
       <r>  11.3686  0.0000</r>
       <r>  11.3692  0.0000</r>
       <r>  11.7349  0.0000</r>
       <r>  11.7378  0.0000</r>
       <r>  12.1724  0.0000</r>
       <r>  12.1736  0.0000</r>
       <r>  12.4391  0.0000</r>
      </set>
      <set comment="kpoint 24">
       <r>  -1.9871  1.0000</r>
       <r>  -1.9842  1.0000</r>
       <r>  -1.2070  1.0000</r>
       <r>  -1.2040  1.0000</r>
       <r>  -0.4313  1.0000</r>
       <r>  -0.4284  1.0000</r>
       <r>   0.3398  1.0000</r>
[...]
       <r>   7.7239  1.0000</r>
       <r>   8.5179  1.0000</r>
       <r>   8.5185  1.0000</r>
       <r>   8.5215  1.0000</r>
       <r>   8.5222  1.0000</r>
       <r>   8.6850  0.2986</r>
       <r>   8.6850  0.2980</r>
       <r>   8.7583  0.0000</r>
       <r>   8.7583  0.0000</r>
       <r>   9.9728  0.0000</r>
       <r>   9.9728  0.0000</r>
       <r>  10.1152  0.0000</r>
       <r>  10.1153  0.0000</r>
       <r>  10.6647  0.0000</r>
       <r>  10.6652  0.0000</r>
       <r>  10.6685  0.0000</r>
       <r>  10.6690  0.0000</r>
       <r>  10.6931  0.0000</r>
       <r>  10.6931  0.0000</r>
       <r>  11.4160  0.0000</r>
       <r>  11.4161  0.0000</r>
       <r>  11.4318  0.0000</r>
       <r>  11.4319  0.0000</r>
       <r>  11.5620  0.0000</r>
       <r>  11.5620  0.0000</r>
       <r>  12.1357  0.0000</r>
       <r>  12.1357  0.0000</r>
       <r>  12.3364  0.0000</r>
       <r>  12.3386  0.0000</r>
      </set>
      <set comment="kpoint 34">
       <r>  -1.9857  1.0000</r>
       <r>  -1.9856  1.0000</r>
       <r>  -1.2055  1.0000</r>
       <r>  -1.2055  1.0000</r>
       <r>  -0.4299  1.0000</r>
       <r>  -0.4299  1.0000</r>
       <r>   0.3413  1.0000</r>
       <r>   0.3413  1.0000</r>
       <r>   1.1070  1.0000</r>
       <r>   1.1070  1.0000</r>
       <r>   1.8667  1.0000</r>
       <r>   1.8672  1.0000</r>
       <r>   1.8689  1.0000</r>
       <r>   1.8694  1.0000</r>
       <r>   2.6195  1.0000</r>
       <r>   2.6195  1.0000</r>
       <r>   3.3713  1.0000</r>
       <r>   3.3715  1.0000</r>
       <r>   3.3741  1.0000</r>
       <r>   3.3743  1.0000</r>
       <r>   4.1034  1.0000</r>
       <r>   4.1034  1.0000</r>
       <r>   4.1158  1.0000</r>
       <r>   4.1159  1.0000</r>
       <r>   4.6757  1.0000</r>
       <r>   4.6757  1.0000</r>
       <r>   5.0932  1.0000</r>
       <r>   5.0932  1.0000</r>
       <r>   5.3979  1.0000</r>
       <r>   5.3979  1.0000</r>
       <r>   5.5159  1.0000</r>
       <r>   5.5160  1.0000</r>
       <r>   5.8229  1.0000</r>
       <r>   5.8229  1.0000</r>
       <r>   6.1077  1.0000</r>
       <r>   6.1077  1.0000</r>
       <r>   6.3813  1.0000</r>
       <r>   6.3813  1.0000</r>
       <r>   6.4946  1.0000</r>
       <r>   6.4946  1.0000</r>
       <r>   7.0910  1.0000</r>
       <r>   7.0910  1.0000</r>
       <r>   7.8473  1.0000</r>
       <r>   7.8473  1.0000</r>
       <r>   8.3488  1.0000</r>
       <r>   8.3488  1.0000</r>
       <r>   9.0937  0.0000</r>
       <r>   9.0938  0.0000</r>
       <r>   9.1774  0.0000</r>
       <r>   9.1775  0.0000</r>
       <r>   9.3115  0.0000</r>
       <r>   9.3115  0.0000</r>
       <r>   9.6715  0.0000</r>
       <r>   9.6715  0.0000</r>
       <r>   9.7683  0.0000</r>
       <r>   9.7683  0.0000</r>
       <r>   9.9988  0.0000</r>
       <r>   9.9988  0.0000</r>
       <r>  10.3815  0.0000</r>
       <r>  10.3815  0.0000</r>
       <r>  10.6228  0.0000</r>
       <r>  10.6228  0.0000</r>
       <r>  11.2155  0.0000</r>
       <r>  11.2155  0.0000</r>
       <r>  11.4518  0.0000</r>
       <r>  11.4518  0.0000</r>
       <r>  11.7326  0.0000</r>
       <r>  11.7327  0.0000</r>
       <r>  11.7982  0.0000</r>
       <r>  11.7982  0.0000</r>
       <r>  12.0874  0.0000</r>
       <r>  12.0874  0.0000</r>
      </set>
      <set comment="kpoint 35">
       <r>  -1.7902  1.0000</r>
       <r>  -1.7902  1.0000</r>
       <r>  -1.0134  1.0000</r>
       <r>  -1.0114  1.0000</r>
       <r>  -1.0109  1.0000</r>
       <r>  -1.0089  1.0000</r>
       <r>  -0.2366  1.0000</r>
       <r>  -0.2366  1.0000</r>
       <r>   2.0546  1.0000</r>
       <r>   2.0567  1.0000</r>
       <r>   2.0571  1.0000</r>
       <r>   2.0592  1.0000</r>
       <r>   2.8070  1.0000</r>
       <r>   2.8078  1.0000</r>
       <r>   2.8119  1.0000</r>
       <r>   2.8122  1.0000</r>
       <r>   2.8125  1.0000</r>
       <r>   2.8136  1.0000</r>
       <r>   3.5567  1.0000</r>
       <r>   3.5568  1.0000</r>
       <r>   3.5593  1.0000</r>
       <r>   3.5594  1.0000</r>
       <r>   4.2871  1.0000</r>
       <r>   4.2882  1.0000</r>
       <r>   4.2885  1.0000</r>
       <r>   4.2887  1.0000</r>
       <r>   4.2915  1.0000</r>
       <r>   4.2924  1.0000</r>
       <r>   5.0129  1.0000</r>
       <r>   5.0149  1.0000</r>
       <r>   5.0155  1.0000</r>
       <r>   5.0174  1.0000</r>
       <r>   5.8431  1.0000</r>
       <r>   5.8431  1.0000</r>
       <r>   6.5661  1.0000</r>
       <r>   6.5661  1.0000</r>
       <r>   6.5688  1.0000</r>
       <r>   6.5688  1.0000</r>
       <r>   7.2945  1.0000</r>
       <r>   7.2954  1.0000</r>
       <r>   7.2955  1.0000</r>
       <r>   7.2964  1.0000</r>
       <r>   7.9961  1.0000</r>
       <r>   7.9972  1.0000</r>
       <r>   7.9975  1.0000</r>
       <r>   7.9985  1.0000</r>
       <r>   8.6842  0.3354</r>
       <r>   8.6850  0.2996</r>
       <r>   8.6855  0.2747</r>
       <r>   8.6862  0.2422</r>
       <r>   9.4469  0.0000</r>
       <r>   9.4470  0.0000</r>
       <r>   9.4497  0.0000</r>
       <r>   9.4498  0.0000</r>
       <r>  10.1208  0.0000</r>
       <r>  10.1208  0.0000</r>
       <r>  10.2187  0.0000</r>
       <r>  10.2187  0.0000</r>
       <r>  10.5000  0.0000</r>
       <r>  10.5002  0.0000</r>
       <r>  10.5005  0.0000</r>
       <r>  10.5008  0.0000</r>
       <r>  11.2063  0.0000</r>
       <r>  11.2074  0.0000</r>
       <r>  11.2077  0.0000</r>
       <r>  11.2088  0.0000</r>
       <r>  11.9163  0.0000</r>
       <r>  11.9163  0.0000</r>
       <r>  12.3500  0.0000</r>
       <r>  12.3508  0.0000</r>
       <r>  12.3513  0.0000</r>
       <r>  12.3521  0.0000</r>
      </set>
      <set comment="kpoint 36">
       <r>  -1.4678  1.0000</r>
       <r>  -1.4652  1.0000</r>
       <r>  -1.4648  1.0000</r>
       <r>  -1.4623  1.0000</r>
       <r>  -0.6906  1.0000</r>
       <r>  -0.6881  1.0000</r>
       <r>  -0.6876  1.0000</r>
       <r>  -0.6851  1.0000</r>
       <r>   2.3696  1.0000</r>
       <r>   2.3721  1.0000</r>
       <r>   2.3726  1.0000</r>
       <r>   2.3751  1.0000</r>
       <r>   3.1173  1.0000</r>
       <r>   3.1190  1.0000</r>
       <r>   3.1208  1.0000</r>
       <r>   3.1212  1.0000</r>
       <r>   3.1212  1.0000</r>
       <r>   3.1217  1.0000</r>
       <r>   3.1234  1.0000</r>
       <r>   3.1252  1.0000</r>
       <r>   3.8632  1.0000</r>
       <r>   3.8650  1.0000</r>
       <r>   3.8668  1.0000</r>
       <r>   3.8672  1.0000</r>
       <r>   3.8672  1.0000</r>
       <r>   3.8677  1.0000</r>
       <r>   3.8694  1.0000</r>
       <r>   3.8712  1.0000</r>
       <r>   4.5921  1.0000</r>
       <r>   4.5947  1.0000</r>
       <r>   4.5951  1.0000</r>
       <r>   4.5978  1.0000</r>
       <r>   6.8628  1.0000</r>
       <r>   6.8645  1.0000</r>
       <r>   6.8665  1.0000</r>
       <r>   6.8669  1.0000</r>
       <r>   6.8669  1.0000</r>
       <r>   6.8672  1.0000</r>
       <r>   6.8693  1.0000</r>
       <r>   6.8710  1.0000</r>
       <r>   7.5775  1.0000</r>
       <r>   7.5787  1.0000</r>
       <r>   7.5789  1.0000</r>
       <r>   7.5801  1.0000</r>
       <r>   8.3214  1.0000</r>
       <r>   8.3227  1.0000</r>
       <r>   8.3227  1.0000</r>
       <r>   8.3241  1.0000</r>
       <r>   9.0096  0.0000</r>
       <r>   9.0118  0.0000</r>
       <r>   9.0138  0.0000</r>
       <r>   9.0142  0.0000</r>
       <r>   9.0142  0.0000</r>
       <r>   9.0145  0.0000</r>
       <r>   9.0166  0.0000</r>
       <r>   9.0187  0.0000</r>
       <r>  10.7899  0.0000</r>
       <r>  10.7922  0.0000</r>
       <r>  10.7930  0.0000</r>
       <r>  10.7952  0.0000</r>
       <r>  11.2347  0.0000</r>
       <r>  11.2360  0.0000</r>
       <r>  11.2362  0.0000</r>
       <r>  11.2375  0.0000</r>
       <r>  12.1908  0.0000</r>
       <r>  12.1918  0.0000</r>
       <r>  12.1919  0.0000</r>
       <r>  12.1932  0.0000</r>
       <r>  12.1935  0.0000</r>
       <r>  12.1947  0.0000</r>
       <r>  12.1949  0.0000</r>
       <r>  12.1958  0.0000</r>
      </set>
      <set comment="kpoint 37">
       <r>  -1.7251  1.0000</r>
       <r>  -1.7251  1.0000</r>
       <r>  -1.7251  1.0000</r>
       <r>  -1.7251  1.0000</r>
       <r>   0.5919  1.0000</r>
       <r>   0.5964  1.0000</r>
       <r>   0.5964  1.0000</r>
       <r>   0.5970  1.0000</r>
       <r>   0.5972  1.0000</r>
       <r>   0.5978  1.0000</r>
       <r>   0.5978  1.0000</r>
       <r>   0.6024  1.0000</r>
       <r>   2.8708  1.0000</r>
       <r>   2.8708  1.0000</r>
       <r>   2.8708  1.0000</r>
       <r>   2.8708  1.0000</r>
       <r>   2.8708  1.0000</r>
       <r>   2.8708  1.0000</r>
       <r>   2.8708  1.0000</r>
       <r>   2.8708  1.0000</r>
       <r>   4.9154  1.0000</r>
       <r>   4.9154  1.0000</r>
       <r>   4.9169  1.0000</r>
       <r>   4.9169  1.0000</r>
       <r>   4.9169  1.0000</r>
       <r>   4.9169  1.0000</r>
       <r>   4.9185  1.0000</r>
       <r>   4.9185  1.0000</r>
       <r>   5.3383  1.0000</r>
       <r>   5.3383  1.0000</r>
       <r>   5.3401  1.0000</r>
       <r>   5.3401  1.0000</r>
       <r>   5.3401  1.0000</r>
       <r>   5.3402  1.0000</r>
       <r>   5.3420  1.0000</r>
       <r>   5.3420  1.0000</r>
       <r>   6.6761  1.0000</r>
       <r>   6.6761  1.0000</r>
       <r>   6.6761  1.0000</r>
       <r>   6.6762  1.0000</r>
       <r>   7.1987  1.0000</r>
       <r>   7.1987  1.0000</r>
       <r>   7.1987  1.0000</r>
       <r>   7.1987  1.0000</r>
       <r>   8.4006  1.0000</r>
       <r>   8.4006  1.0000</r>
       <r>   8.4006  1.0000</r>
       <r>   8.4006  1.0000</r>
       <r>   9.5421  0.0000</r>
       <r>   9.5421  0.0000</r>
       <r>   9.5424  0.0000</r>
       <r>   9.5437  0.0000</r>
       <r>   9.5452  0.0000</r>
       <r>   9.5465  0.0000</r>
       <r>   9.5468  0.0000</r>
       <r>   9.5468  0.0000</r>
       <r>  10.9944  0.0000</r>
       <r>  10.9944  0.0000</r>
       <r>  10.9944  0.0000</r>
       <r>  10.9944  0.0000</r>
       <r>  10.9944  0.0000</r>
       <r>  10.9944  0.0000</r>
       <r>  10.9944  0.0000</r>
       <r>  10.9945  0.0000</r>
       <r>  11.7153  0.0000</r>
       <r>  11.7153  0.0000</r>
       <r>  11.7153  0.0000</r>
       <r>  11.7153  0.0000</r>
       <r>  11.7153  0.0000</r>
       <r>  11.7153  0.0000</r>
       <r>  11.7153  0.0000</r>
       <r>  11.7153  0.0000</r>
      </set>
      <set comment="kpoint 38">
       <r>  -1.6600  1.0000</r>
       <r>  -1.6600  1.0000</r>
       <r>  -1.6600  1.0000</r>
       <r>  -1.6600  1.0000</r>
       <r>  -0.1080  1.0000</r>
       <r>  -0.1080  1.0000</r>
       <r>  -0.1080  1.0000</r>
       <r>  -0.1080  1.0000</r>
       <r>   1.4251  1.0000</r>
       <r>   1.4251  1.0000</r>
       <r>   1.4251  1.0000</r>
       <r>   1.4251  1.0000</r>
       <r>   2.9334  1.0000</r>
       <r>   2.9334  1.0000</r>
       <r>   2.9334  1.0000</r>
       <r>   2.9334  1.0000</r>
       <r>   2.9335  1.0000</r>
       <r>   2.9335  1.0000</r>
       <r>   2.9335  1.0000</r>
       <r>   2.9335  1.0000</r>
       <r>   4.4146  1.0000</r>
       <r>   4.4146  1.0000</r>
       <r>   4.4150  1.0000</r>
       <r>   4.4150  1.0000</r>
       <r>   4.4150  1.0000</r>
       <r>   4.4150  1.0000</r>
       <r>   4.4153  1.0000</r>
       <r>   4.4153  1.0000</r>
       <r>   5.8116  1.0000</r>
       <r>   5.8116  1.0000</r>
       <r>   5.8116  1.0000</r>
       <r>   5.8116  1.0000</r>
       <r>   5.9611  1.0000</r>
       <r>   5.9611  1.0000</r>
       <r>   5.9617  1.0000</r>
       <r>   5.9617  1.0000</r>
       <r>   5.9617  1.0000</r>
       <r>   5.9617  1.0000</r>
       <r>   5.9623  1.0000</r>
       <r>   5.9623  1.0000</r>
       <r>   7.3706  1.0000</r>
       <r>   7.3706  1.0000</r>
       <r>   7.3706  1.0000</r>
       <r>   7.3706  1.0000</r>
       <r>   8.8739  0.0000</r>
       <r>   8.8739  0.0000</r>
       <r>   8.8739  0.0000</r>
       <r>   8.8739  0.0000</r>
       <r>   9.2662  0.0000</r>
       <r>   9.2662  0.0000</r>
       <r>   9.2662  0.0000</r>
       <r>   9.2662  0.0000</r>
       <r>  10.1823  0.0000</r>
       <r>  10.1823  0.0000</r>
       <r>  10.1830  0.0000</r>
       <r>  10.1830  0.0000</r>
       <r>  10.1830  0.0000</r>
       <r>  10.1830  0.0000</r>
       <r>  10.1836  0.0000</r>
       <r>  10.1836  0.0000</r>
       <r>  10.3328  0.0000</r>
       <r>  10.3328  0.0000</r>
       <r>  10.3328  0.0000</r>
       <r>  10.3328  0.0000</r>
       <r>  11.9575  0.0000</r>
       <r>  11.9575  0.0000</r>
       <r>  11.9586  0.0000</r>
       <r>  11.9586  0.0000</r>
       <r>  11.9586  0.0000</r>
       <r>  11.9587  0.0000</r>
       <r>  11.9598  0.0000</r>
       <r>  11.9598  0.0000</r>
      </set>
      <set comment="kpoint 39">
       <r>  -1.4651  1.0000</r>
       <r>  -1.4650  1.0000</r>
       <r>  -1.4650  1.0000</r>
       <r>  -1.4650  1.0000</r>
       <r>  -0.6879  1.0000</r>
       <r>  -0.6879  1.0000</r>
       <r>  -0.6879  1.0000</r>
       <r>  -0.6878  1.0000</r>
       <r>   2.3723  1.0000</r>
       <r>   2.3724  1.0000</r>
       <r>   2.3724  1.0000</r>
       <r>   2.3724  1.0000</r>
       <r>   3.1212  1.0000</r>
       <r>   3.1212  1.0000</r>
       <r>   3.1212  1.0000</r>
       <r>   3.1212  1.0000</r>
       <r>   3.1212  1.0000</r>
       <r>   3.1212  1.0000</r>
       <r>   3.1213  1.0000</r>
       <r>   3.1213  1.0000</r>
       <r>   3.8671  1.0000</r>
       <r>   3.8671  1.0000</r>
       <r>   3.8672  1.0000</r>
       <r>   3.8672  1.0000</r>
       <r>   3.8672  1.0000</r>
       <r>   3.8672  1.0000</r>
       <r>   3.8673  1.0000</r>
       <r>   3.8673  1.0000</r>
       <r>   4.5949  1.0000</r>
       <r>   4.5949  1.0000</r>
       <r>   4.5949  1.0000</r>
       <r>   4.5950  1.0000</r>
       <r>   6.8664  1.0000</r>
       <r>   6.8664  1.0000</r>
       <r>   6.8669  1.0000</r>
       <r>   6.8669  1.0000</r>
       <r>   6.8669  1.0000</r>
       <r>   6.8669  1.0000</r>
       <r>   6.8673  1.0000</r>
       <r>   6.8673  1.0000</r>
       <r>   7.5788  1.0000</r>
       <r>   7.5788  1.0000</r>
       <r>   7.5788  1.0000</r>
       <r>   7.5788  1.0000</r>
       <r>   8.3227  1.0000</r>
       <r>   8.3227  1.0000</r>
       <r>   8.3227  1.0000</r>
       <r>   8.3227  1.0000</r>
       <r>   9.0137  0.0000</r>
       <r>   9.0137  0.0000</r>
       <r>   9.0142  0.0000</r>
       <r>   9.0142  0.0000</r>
       <r>   9.0142  0.0000</r>
       <r>   9.0142  0.0000</r>
       <r>   9.0147  0.0000</r>
       <r>   9.0147  0.0000</r>
       <r>  10.7926  0.0000</r>
       <r>  10.7926  0.0000</r>
       <r>  10.7926  0.0000</r>
       <r>  10.7926  0.0000</r>
       <r>  11.2361  0.0000</r>
       <r>  11.2361  0.0000</r>
       <r>  11.2361  0.0000</r>
       <r>  11.2361  0.0000</r>
       <r>  12.1925  0.0000</r>
       <r>  12.1925  0.0000</r>
       <r>  12.1933  0.0000</r>
       <r>  12.1933  0.0000</r>
       <r>  12.1933  0.0000</r>
       <r>  12.1933  0.0000</r>
       <r>  12.1941  0.0000</r>
       <r>  12.1941  0.0000</r>
      </set>
      <set comment="kpoint 40">
       <r>  -1.1457  1.0000</r>
       <r>  -1.1411  1.0000</r>
       <r>  -1.1411  1.0000</r>
       <r>  -1.1407  1.0000</r>
       <r>  -1.1407  1.0000</r>
       <r>  -1.1402  1.0000</r>
       <r>  -1.1402  1.0000</r>
       <r>  -1.1357  1.0000</r>
       <r>   3.4228  1.0000</r>
       <r>   3.4289  1.0000</r>
       <r>   3.4289  1.0000</r>
       <r>   3.4322  1.0000</r>
       <r>   3.4326  1.0000</r>
       <r>   3.4327  1.0000</r>
       <r>   3.4331  1.0000</r>
       <r>   3.4331  1.0000</r>
       <r>   3.4332  1.0000</r>
       <r>   3.4332  1.0000</r>
       <r>   3.4332  1.0000</r>
       <r>   3.4332  1.0000</r>
       <r>   3.4332  1.0000</r>
       <r>   3.4332  1.0000</r>
       <r>   3.4333  1.0000</r>
       <r>   3.4333  1.0000</r>
       <r>   3.4333  1.0000</r>
       <r>   3.4333  1.0000</r>
       <r>   3.4337  1.0000</r>
       <r>   3.4338  1.0000</r>
       <r>   3.4342  1.0000</r>
       <r>   3.4375  1.0000</r>
       <r>   3.4375  1.0000</r>
       <r>   3.4436  1.0000</r>
       <r>   7.8853  1.0000</r>
       <r>   7.8853  1.0000</r>
       <r>   7.8875  1.0000</r>
       <r>   7.8891  1.0000</r>
       <r>   7.8908  1.0000</r>
       <r>   7.8911  1.0000</r>
       <r>   7.8912  1.0000</r>
       <r>   7.8912  1.0000</r>
       <r>   7.8915  1.0000</r>
       <r>   7.8915  1.0000</r>
       <r>   7.8916  1.0000</r>
       <r>   7.8916  1.0000</r>
       <r>   7.8916  1.0000</r>
       <r>   7.8916  1.0000</r>
       <r>   7.8916  1.0000</r>
       <r>   7.8916  1.0000</r>
       <r>   7.8919  1.0000</r>
       <r>   7.8919  1.0000</r>
       <r>   7.8920  1.0000</r>
       <r>   7.8923  1.0000</r>
       <r>   7.8941  1.0000</r>
       <r>   7.8956  1.0000</r>
       <r>   7.8979  1.0000</r>
       <r>   7.8979  1.0000</r>
       <r>  12.2475  0.0000</r>
       <r>  12.2479  0.0000</r>
       <r>  12.2479  0.0000</r>
       <r>  12.2481  0.0000</r>
       <r>  12.2500  0.0000</r>
       <r>  12.2503  0.0000</r>
       <r>  12.2503  0.0000</r>
       <r>  12.2508  0.0000</r>
       <r>  12.4985  0.0000</r>
       <r>  12.4991  0.0000</r>
       <r>  12.5003  0.0000</r>
       <r>  12.5010  0.0000</r>
       <r>  12.5019  0.0000</r>
       <r>  12.5023  0.0000</r>
       <r>  12.5026  0.0000</r>
       <r>  12.5031  0.0000</r>
      </set>
     </set>
    </set>
   </array>
  </eigenvalues>
 </calculation>
 <structure name="finalpos" >
  <crystal>
   <varray name="basis" >
    <v>       7.91291180      0.00000000      0.00000000</v>
    <v>       0.00000000      7.91291180      0.00000000</v>
    <v>       0.00000000      0.00000000      7.91291180</v>
   </varray>
   <i name="volume">    495.46043035</i>
   <varray name="rec_basis" >
    <v>       0.12637573      0.00000000      0.00000000</v>
    <v>       0.00000000      0.12637573      0.00000000</v>
    <v>       0.00000000      0.00000000      0.12637573</v>
   </varray>
  </crystal>
  <varray name="positions" >
   <v>       0.25126376      0.25000000      0.00000000</v>
   <v>       0.75000000      0.25000000      0.00000000</v>
   <v>       0.25000000      0.75000000      0.00000000</v>
   <v>       0.75000000      0.75000000      0.00000000</v>
   <v>       0.25000000      0.25000000      0.50000000</v>
   <v>       0.75000000      0.25000000      0.50000000</v>
   <v>       0.25000000      0.75000000      0.50000000</v>
   <v>       0.75000000      0.75000000      0.50000000</v>
   <v>       0.25000000      0.00000000      0.25000000</v>
   <v>       0.75000000      0.00000000      0.25000000</v>
   <v>       0.25000000      0.50000000      0.25000000</v>
   <v>       0.75000000      0.50000000      0.25000000</v>
   <v>       0.25000000      0.00000000      0.75000000</v>
   <v>       0.75000000      0.00000000      0.75000000</v>
   <v>       0.25000000      0.50000000      0.75000000</v>
   <v>       0.75000000      0.50000000      0.75000000</v>
   <v>       0.00000000      0.25000000      0.25000000</v>
   <v>       0.50000000      0.25000000      0.25000000</v>
   <v>       0.00000000      0.75000000      0.25000000</v>
   <v>       0.50000000      0.75000000      0.25000000</v>
   <v>       0.00000000      0.25000000      0.75000000</v>
   <v>       0.50000000      0.25000000      0.75000000</v>
   <v>       0.00000000      0.75000000      0.75000000</v>
   <v>       0.50000000      0.75000000      0.75000000</v>
   <v>       0.00000000      0.00000000      0.00000000</v>
   <v>       0.50000000      0.00000000      0.00000000</v>
   <v>       0.00000000      0.50000000      0.00000000</v>
   <v>       0.50000000      0.50000000      0.00000000</v>
   <v>       0.00000000      0.00000000      0.50000000</v>
   <v>       0.50000000      0.00000000      0.50000000</v>
   <v>       0.00000000      0.50000000      0.50000000</v>
   <v>       0.50000000      0.50000000      0.50000000</v>
  </varray>
 </structure>
</modeling>
