32   
1    

1    
  0.0100000000000000   0.0000000000000000   0.0000000000000000
  -0.0645948000   -0.0000000000    0.0000000000
   0.0027614100    0.0000000000   -0.0000000000
   0.0007513700   -0.0000000000    0.0000000000
   0.0003991400    0.0000000000   -0.0000000000
   0.0007513700    0.0000000000    0.0000000000
   0.0003991400   -0.0000000000   -0.0000000000
  -0.0001468500    0.0000000000   -0.0000000000
   0.0005221200   -0.0000000000   -0.0000000000
  -0.0018490500    0.0000387800   -0.0000387800
  -0.0012366400    0.0000002600   -0.0000002600
  -0.0018490500   -0.0000387800   -0.0000387800
  -0.0012366400   -0.0000002600   -0.0000002600
  -0.0018490500    0.0000387800    0.0000387800
  -0.0012366400    0.0000002600    0.0000002600
  -0.0018490500   -0.0000387800    0.0000387800
  -0.0012366400   -0.0000002600    0.0000002600
   0.0087007300   -0.0000000000   -0.0093833400
   0.0088909100    0.0000000000    0.0093973400
   0.0001380900   -0.0000000000    0.0009921500
   0.0001452100    0.0000000000   -0.0007483000
   0.0087007300   -0.0000000000    0.0093833400
   0.0088909100    0.0000000000   -0.0093973400
   0.0001380900   -0.0000000000   -0.0009921500
   0.0001452100   -0.0000000000    0.0007483000
   0.0087007300    0.0093833400   -0.0000000000
   0.0088909100   -0.0093973400   -0.0000000000
   0.0087007300   -0.0093833400    0.0000000000
   0.0088909100    0.0093973400   -0.0000000000
   0.0001380900   -0.0009921500   -0.0000000000
   0.0001452100    0.0007483000   -0.0000000000
   0.0001380900    0.0009921500   -0.0000000000
   0.0001452100   -0.0007483000   -0.0000000000
