<?xml version="1.0" encoding="ISO-8859-1"?>
<modeling>
 <generator>
  <i name="program" type="string">vasp</i>
  <i name="version" type="string">4.6.28 </i>
  <i name="subversion" type="string">25Jul05 complex  parallel</i>
  <i name="platform" type="string">LinuxIFC</i>
  <i name="date" type="string">2016 10 19</i>
  <i name="time" type="string">12:32:52</i>
 </generator>
 <incar>
  <i type="string" name="PREC">accurate</i>
  <i type="int" name="IALGO">    38</i>
  <i name="EDIFF">      0.00000001</i>
  <i type="int" name="IBRION">    -1</i>
  <i name="ENCUT">    500.00000000</i>
  <i type="logical" name="LREAL"> F  </i>
  <i type="int" name="ISMEAR">     0</i>
  <i name="SIGMA">      0.01000000</i>
  <i type="logical" name="LWAVE"> F  </i>
  <i type="logical" name="LCHARG"> F  </i>
 </incar>
 <kpoints>
  <generation param="Auto">
   <i name="subdivisionlength">     50.00000000</i>
   <v type="int" name="divisions">       6       6       6</v>
   <v name="usershift">      0.00000000      0.00000000      0.00000000</v>
   <v name="genvec1">      0.16666667      0.00000000      0.00000000</v>
   <v name="genvec2">      0.00000000      0.16666667      0.00000000</v>
   <v name="genvec3">      0.00000000      0.00000000      0.16666667</v>
   <v name="shift">      0.00000000      0.00000000      0.00000000</v>
  </generation>
  <varray name="kpointlist" >
   <v>       0.00000000      0.00000000      0.00000000</v>
   <v>       0.16666667      0.00000000      0.00000000</v>
   <v>       0.33333333      0.00000000      0.00000000</v>
   <v>       0.50000000      0.00000000      0.00000000</v>
   <v>       0.00000000      0.16666667      0.00000000</v>
   <v>       0.16666667      0.16666667      0.00000000</v>
   <v>       0.33333333      0.16666667      0.00000000</v>
   <v>       0.50000000      0.16666667      0.00000000</v>
   <v>       0.00000000      0.33333333      0.00000000</v>
   <v>       0.16666667      0.33333333      0.00000000</v>
   <v>       0.33333333      0.33333333      0.00000000</v>
   <v>       0.50000000      0.33333333      0.00000000</v>
   <v>       0.00000000      0.50000000      0.00000000</v>
   <v>       0.16666667      0.50000000      0.00000000</v>
   <v>       0.33333333      0.50000000      0.00000000</v>
   <v>       0.50000000      0.50000000      0.00000000</v>
   <v>       0.00000000      0.16666667      0.16666667</v>
   <v>       0.16666667      0.16666667      0.16666667</v>
   <v>       0.33333333      0.16666667      0.16666667</v>
   <v>       0.50000000      0.16666667      0.16666667</v>
   <v>       0.00000000      0.33333333      0.16666667</v>
   <v>       0.16666667      0.33333333      0.16666667</v>
   <v>       0.33333333      0.33333333      0.16666667</v>
   <v>       0.50000000      0.33333333      0.16666667</v>
   <v>       0.00000000      0.50000000      0.16666667</v>
   <v>       0.16666667      0.50000000      0.16666667</v>
   <v>       0.33333333      0.50000000      0.16666667</v>
   <v>       0.50000000      0.50000000      0.16666667</v>
   <v>       0.00000000      0.33333333      0.33333333</v>
   <v>       0.16666667      0.33333333      0.33333333</v>
   <v>       0.33333333      0.33333333      0.33333333</v>
   <v>       0.50000000      0.33333333      0.33333333</v>
   <v>       0.00000000      0.50000000      0.33333333</v>
   <v>       0.16666667      0.50000000      0.33333333</v>
   <v>       0.33333333      0.50000000      0.33333333</v>
   <v>       0.50000000      0.50000000      0.33333333</v>
   <v>       0.00000000      0.50000000      0.50000000</v>
   <v>       0.16666667      0.50000000      0.50000000</v>
   <v>       0.33333333      0.50000000      0.50000000</v>
   <v>       0.50000000      0.50000000      0.50000000</v>
  </varray>
  <varray name="weights" >
   <v>       0.00462963</v>
   <v>       0.00925926</v>
   <v>       0.00925926</v>
   <v>       0.00462963</v>
   <v>       0.01851852</v>
   <v>       0.03703704</v>
   <v>       0.03703704</v>
   <v>       0.01851852</v>
   <v>       0.01851852</v>
   <v>       0.03703704</v>
   <v>       0.03703704</v>
   <v>       0.01851852</v>
   <v>       0.00925926</v>
   <v>       0.01851852</v>
   <v>       0.01851852</v>
   <v>       0.00925926</v>
   <v>       0.01851852</v>
   <v>       0.03703704</v>
   <v>       0.03703704</v>
   <v>       0.01851852</v>
   <v>       0.03703704</v>
   <v>       0.07407407</v>
   <v>       0.07407407</v>
   <v>       0.03703704</v>
   <v>       0.01851852</v>
   <v>       0.03703704</v>
   <v>       0.03703704</v>
   <v>       0.01851852</v>
   <v>       0.01851852</v>
   <v>       0.03703704</v>
   <v>       0.03703704</v>
   <v>       0.01851852</v>
   <v>       0.01851852</v>
   <v>       0.03703704</v>
   <v>       0.03703704</v>
   <v>       0.01851852</v>
   <v>       0.00462963</v>
   <v>       0.00925926</v>
   <v>       0.00925926</v>
   <v>       0.00462963</v>
  </varray>
 </kpoints>
 <parameters>
  <separator name="general" >
   <i type="string" name="SYSTEM">unknown system</i>
   <i type="logical" name="LCOMPAT"> F  </i>
  </separator>
  <separator name="electronic" >
   <i type="string" name="PREC">accura</i>
   <i name="ENMAX">    500.00000000</i>
   <i name="ENAUG">    291.05200000</i>
   <i name="EDIFF">      0.00000001</i>
   <i type="int" name="IALGO">    38</i>
   <i type="int" name="IWAVPR">    10</i>
   <i type="int" name="NBANDS">    65</i>
   <i name="NELECT">     96.00000000</i>
   <separator name="electronic smearing" >
    <i type="int" name="ISMEAR">     0</i>
    <i name="SIGMA">      0.01000000</i>
   </separator>
   <separator name="electronic projectors" >
    <i type="logical" name="LREAL"> F  </i>
    <v name="ROPT">      0.00000000</v>
    <i type="int" name="LMAXPAW">  -100</i>
    <i type="int" name="LMAXMIX">     2</i>
   </separator>
   <separator name="electronic startup" >
    <i type="int" name="ISTART">     0</i>
    <i type="int" name="ICHARG">     2</i>
    <i type="int" name="INIWAV">     1</i>
   </separator>
   <separator name="electronic spin" >
    <i type="int" name="ISPIN">     1</i>
    <i type="logical" name="LNONCOLLINEAR"> F  </i>
    <v name="MAGMOM">      1.00000000      1.00000000      1.00000000      1.00000000      1.00000000      1.00000000      1.00000000      1.00000000      1.00000000      1.00000000      1.00000000      1.00000000      1.00000000      1.00000000      1.00000000      1.00000000      1.00000000      1.00000000      1.00000000      1.00000000
      1.00000000      1.00000000      1.00000000      1.00000000      1.00000000      1.00000000      1.00000000      1.00000000      1.00000000      1.00000000      1.00000000      1.00000000</v>
    <i name="NUPDOWN">     -1.00000000</i>
    <i type="logical" name="LSORBIT"> F  </i>
    <v name="SAXIS">      0.00000000      0.00000000      1.00000000</v>
    <i type="logical" name="LSPIRAL"> F  </i>
    <v name="QSPIRAL">      0.00000000      0.00000000      0.00000000</v>
    <i type="logical" name="LZEROZ"> F  </i>
   </separator>
   <separator name="electronic exchange-correlation" >
    <i type="string" name="GGA">--</i>
    <i type="int" name="VOSKOWN">     0</i>
    <i type="logical" name="LASPH"> F  </i>
    <i type="logical" name="LMETAGGA"> F  </i>
    <i type="string" name="GGA2">--</i>
   </separator>
   <separator name="electronic convergence" >
    <i type="int" name="NELM">    60</i>
    <i type="int" name="NELMDL">     0</i>
    <i type="int" name="NELMIN">     2</i>
    <i name="ENINI">    500.00000000</i>
    <separator name="electronic convergence detail" >
     <i type="logical" name="LDIAG"> T  </i>
     <i name="WEIMIN">      0.00000000</i>
     <i name="EBREAK">      0.00000000</i>
     <i name="DEPER">      0.30000000</i>
     <i type="int" name="NRMM">     4</i>
     <i name="TIME">      0.10000000</i>
    </separator>
   </separator>
   <separator name="electronic mixer" >
    <i name="AMIX">      0.40000000</i>
    <i name="BMIX">      1.00000000</i>
    <i name="AMIN">      0.10000000</i>
    <i name="AMIX_MAG">      1.60000000</i>
    <i name="BMIX_MAG">      1.00000000</i>
    <separator name="electronic mixer details" >
     <i type="int" name="IMIX">     4</i>
     <i type="int" name="MAXMIX">   -45</i>
     <i name="WC">    100.00000000</i>
     <i type="int" name="INIMIX">     1</i>
     <i type="int" name="MIXPRE">     1</i>
     <i type="int" name="MREMOVE">     5</i>
    </separator>
   </separator>
   <separator name="electronic dipolcorrection" >
    <i type="int" name="IDIPOL">     0</i>
    <i type="logical" name="LDIPOL"> F  </i>
    <v name="DIPOL">   -100.00000000</v>
    <i name="EFIELD">      0.00000000</i>
   </separator>
  </separator>
  <separator name="grids" >
   <i type="int" name="NGX">    60</i>
   <i type="int" name="NGY">    60</i>
   <i type="int" name="NGZ">    60</i>
   <i type="int" name="NGXF">   120</i>
   <i type="int" name="NGYF">   120</i>
   <i type="int" name="NGZF">   120</i>
   <i type="logical" name="ADDGRID"> F  </i>
  </separator>
  <separator name="ionic" >
   <i type="int" name="NSW">     0</i>
   <i type="int" name="IBRION">    -1</i>
   <i type="int" name="ISIF">     2</i>
   <i name="PSTRESS">      0.00000000</i>
   <i name="EDIFFG">      0.00000010</i>
   <i type="int" name="NFREE">     0</i>
   <i name="POTIM">      0.50000000</i>
   <i name="SMASS">     -3.00000000</i>
  </separator>
  <separator name="ionic md" >
   <i name="TEBEG">      0.00010000</i>
   <i name="TEEND">      0.00010000</i>
   <i type="int" name="NBLOCK">     1</i>
   <i type="int" name="KBLOCK">     1</i>
   <i type="int" name="NPACO">   256</i>
   <i name="APACO">     16.00000000</i>
  </separator>
  <separator name="symmetry" >
   <i type="int" name="ISYM">     2</i>
   <i name="SYMPREC">      0.00001000</i>
  </separator>
  <separator name="dos" >
   <i type="logical" name="LORBIT"> F  </i>
   <v name="RWIGS">     -1.00000000</v>
   <i type="int" name="NEDOS">   301</i>
   <i name="EMIN">     10.00000000</i>
   <i name="EMAX">    -10.00000000</i>
  </separator>
  <separator name="writing" >
   <i type="int" name="NWRITE">     2</i>
   <i type="logical" name="LWAVE"> F  </i>
   <i type="logical" name="LCHARG"> F  </i>
   <i type="logical" name="LPARD"> F  </i>
   <i type="logical" name="LVTOT"> F  </i>
   <i type="logical" name="LELF"> F  </i>
   <i type="logical" name="LOPTICS"> F  </i>
   <i name="STM">      0.00000000</i>
  </separator>
  <separator name="performance" >
   <i type="int" name="NPAR">     8</i>
   <i type="int" name="NSIM">     4</i>
   <i type="int" name="NBLK">   256</i>
   <i type="logical" name="LPLANE"> T  </i>
   <i type="logical" name="LCRITICAL_MEM"> F  </i>
   <i type="logical" name="LSCALAPACK"> F  </i>
   <i type="logical" name="LSCALU"> F  </i>
   <i type="logical" name="LASYNC"> F  </i>
  </separator>
  <separator name="miscellaneous" >
   <i type="int" name="IDIOT">     3</i>
   <i type="logical" name="LMUSIC"> F  </i>
   <v name="POMASS">     26.98200000</v>
   <i type="logical" name="LCORR"> T  </i>
  </separator>
  <i type="logical" name="LREAL_COMPAT"> F  </i>
  <i type="logical" name="GGA_COMPAT"> T  </i>
  <i type="logical" name="LBERRY"> F  </i>
  <i type="int" name="ICORELEVEL">     0</i>
  <i type="logical" name="LDAU"> F  </i>
  <i type="int" name="I_CONSTRAINED_M">     0</i>
 </parameters>
 <atominfo>
  <atoms>      32</atoms>
  <types>       1</types>
  <array name="atoms" >
   <dimension dim="1">ion</dimension>
   <field type="string">element</field>
   <field type="int">atomtype</field>
   <set>
    <rc><c>Al</c><c>   1</c></rc>
    <rc><c>Al</c><c>   1</c></rc>
    <rc><c>Al</c><c>   1</c></rc>
    <rc><c>Al</c><c>   1</c></rc>
    <rc><c>Al</c><c>   1</c></rc>
    <rc><c>Al</c><c>   1</c></rc>
    <rc><c>Al</c><c>   1</c></rc>
    <rc><c>Al</c><c>   1</c></rc>
    <rc><c>Al</c><c>   1</c></rc>
    <rc><c>Al</c><c>   1</c></rc>
    <rc><c>Al</c><c>   1</c></rc>
    <rc><c>Al</c><c>   1</c></rc>
    <rc><c>Al</c><c>   1</c></rc>
    <rc><c>Al</c><c>   1</c></rc>
    <rc><c>Al</c><c>   1</c></rc>
    <rc><c>Al</c><c>   1</c></rc>
    <rc><c>Al</c><c>   1</c></rc>
    <rc><c>Al</c><c>   1</c></rc>
    <rc><c>Al</c><c>   1</c></rc>
    <rc><c>Al</c><c>   1</c></rc>
    <rc><c>Al</c><c>   1</c></rc>
    <rc><c>Al</c><c>   1</c></rc>
    <rc><c>Al</c><c>   1</c></rc>
    <rc><c>Al</c><c>   1</c></rc>
    <rc><c>Al</c><c>   1</c></rc>
    <rc><c>Al</c><c>   1</c></rc>
    <rc><c>Al</c><c>   1</c></rc>
    <rc><c>Al</c><c>   1</c></rc>
    <rc><c>Al</c><c>   1</c></rc>
    <rc><c>Al</c><c>   1</c></rc>
    <rc><c>Al</c><c>   1</c></rc>
    <rc><c>Al</c><c>   1</c></rc>
   </set>
  </array>
  <array name="atomtypes" >
   <dimension dim="1">type</dimension>
   <field type="int">atomspertype</field>
   <field type="string">element</field>
   <field>mass</field>
   <field>valence</field>
   <field type="string">pseudopotential</field>
   <set>
    <rc><c>  32</c><c>Al</c><c>     26.98200000</c><c>      3.00000000</c><c> PAW_PBE Al 04Jan2001                   </c></rc>
   </set>
  </array>
 </atominfo>
 <structure name="initialpos" >
  <crystal>
   <varray name="basis" >
    <v>       7.83216781      0.00000000      0.00000000</v>
    <v>       0.00000000      7.83216781      0.00000000</v>
    <v>       0.00000000      0.00000000      7.83216781</v>
   </varray>
   <i name="volume">    480.44751480</i>
   <varray name="rec_basis" >
    <v>       0.12767857      0.00000000      0.00000000</v>
    <v>       0.00000000      0.12767857      0.00000000</v>
    <v>       0.00000000      0.00000000      0.12767857</v>
   </varray>
  </crystal>
  <varray name="positions" >
   <v>       0.25127679      0.25000000      0.00000000</v>
   <v>       0.75000000      0.25000000      0.00000000</v>
   <v>       0.25000000      0.75000000      0.00000000</v>
   <v>       0.75000000      0.75000000      0.00000000</v>
   <v>       0.25000000      0.25000000      0.50000000</v>
   <v>       0.75000000      0.25000000      0.50000000</v>
   <v>       0.25000000      0.75000000      0.50000000</v>
   <v>       0.75000000      0.75000000      0.50000000</v>
   <v>       0.25000000      0.00000000      0.25000000</v>
   <v>       0.75000000      0.00000000      0.25000000</v>
   <v>       0.25000000      0.50000000      0.25000000</v>
   <v>       0.75000000      0.50000000      0.25000000</v>
   <v>       0.25000000      0.00000000      0.75000000</v>
   <v>       0.75000000      0.00000000      0.75000000</v>
   <v>       0.25000000      0.50000000      0.75000000</v>
   <v>       0.75000000      0.50000000      0.75000000</v>
   <v>       0.00000000      0.25000000      0.25000000</v>
   <v>       0.50000000      0.25000000      0.25000000</v>
   <v>       0.00000000      0.75000000      0.25000000</v>
   <v>       0.50000000      0.75000000      0.25000000</v>
   <v>       0.00000000      0.25000000      0.75000000</v>
   <v>       0.50000000      0.25000000      0.75000000</v>
   <v>       0.00000000      0.75000000      0.75000000</v>
   <v>       0.50000000      0.75000000      0.75000000</v>
   <v>       0.00000000      0.00000000      0.00000000</v>
   <v>       0.50000000      0.00000000      0.00000000</v>
   <v>       0.00000000      0.50000000      0.00000000</v>
   <v>       0.50000000      0.50000000      0.00000000</v>
   <v>       0.00000000      0.00000000      0.50000000</v>
   <v>       0.50000000      0.00000000      0.50000000</v>
   <v>       0.00000000      0.50000000      0.50000000</v>
   <v>       0.50000000      0.50000000      0.50000000</v>
  </varray>
 </structure>
 <calculation>
  <scstep>
   <time name="dav">   21.20   21.23</time>
   <time name="total">   21.38   21.41</time>
   <energy>
    <i name="alphaZ">     -7.15879130</i>
    <i name="ewald">  -2427.68642844</i>
    <i name="hartreedc">     -2.39553881</i>
    <i name="XCdc">   -834.14180131</i>
    <i name="pawpsdc">   1137.73615723</i>
    <i name="pawaedc">   -115.16745734</i>
    <i name="eentropy">     -0.00037853</i>
    <i name="bandstr">    666.91407846</i>
    <i name="atom">   1713.22913220</i>
    <i name="e_fr_energy">    131.32897217</i>
    <i name="e_wo_entrp">    131.32935069</i>
    <i name="e_0_energy">    131.32916143</i>
   </energy>
  </scstep>
  <scstep>
   <time name="dav">   24.04   24.04</time>
   <time name="total">   24.05   24.05</time>
   <energy>
    <i name="e_fr_energy">   -105.94794765</i>
    <i name="e_wo_entrp">   -105.94706906</i>
    <i name="e_0_energy">   -105.94750835</i>
   </energy>
  </scstep>
  <scstep>
   <time name="dav">   24.98   24.98</time>
   <time name="total">   24.99   24.99</time>
   <energy>
    <i name="e_fr_energy">   -119.14275958</i>
    <i name="e_wo_entrp">   -119.14176734</i>
    <i name="e_0_energy">   -119.14226346</i>
   </energy>
  </scstep>
  <scstep>
   <time name="dav">   23.83   23.83</time>
   <time name="total">   23.84   23.84</time>
   <energy>
    <i name="e_fr_energy">   -119.37455756</i>
    <i name="e_wo_entrp">   -119.37344953</i>
    <i name="e_0_energy">   -119.37400354</i>
   </energy>
  </scstep>
  <scstep>
   <time name="dav">   23.79   23.79</time>
   <time name="total">   24.90   24.90</time>
   <energy>
    <i name="e_fr_energy">   -119.37724357</i>
    <i name="e_wo_entrp">   -119.37613558</i>
    <i name="e_0_energy">   -119.37668957</i>
   </energy>
  </scstep>
  <scstep>
   <time name="dav">   23.60   23.60</time>
   <time name="total">   24.89   24.89</time>
   <energy>
    <i name="e_fr_energy">   -118.91426060</i>
    <i name="e_wo_entrp">   -118.91308167</i>
    <i name="e_0_energy">   -118.91367114</i>
   </energy>
  </scstep>
  <scstep>
   <time name="dav">   22.73   22.73</time>
   <time name="total">   24.00   24.00</time>
   <energy>
    <i name="e_fr_energy">   -118.57938821</i>
    <i name="e_wo_entrp">   -118.57806322</i>
    <i name="e_0_energy">   -118.57872572</i>
   </energy>
  </scstep>
  <scstep>
   <time name="dav">   24.30   24.30</time>
   <time name="total">   25.59   25.59</time>
   <energy>
    <i name="e_fr_energy">   -118.57958801</i>
    <i name="e_wo_entrp">   -118.57826068</i>
    <i name="e_0_energy">   -118.57892435</i>
   </energy>
  </scstep>
  <scstep>
   <time name="dav">   23.64   23.66</time>
   <time name="total">   24.92   24.94</time>
   <energy>
    <i name="e_fr_energy">   -118.57962250</i>
    <i name="e_wo_entrp">   -118.57829499</i>
    <i name="e_0_energy">   -118.57895875</i>
   </energy>
  </scstep>
  <scstep>
   <time name="dav">   24.30   24.32</time>
   <time name="total">   25.60   25.62</time>
   <energy>
    <i name="e_fr_energy">   -118.57962343</i>
    <i name="e_wo_entrp">   -118.57829586</i>
    <i name="e_0_energy">   -118.57895965</i>
   </energy>
  </scstep>
  <scstep>
   <time name="dav">   22.15   22.15</time>
   <time name="total">   23.16   23.16</time>
   <energy>
    <i name="e_fr_energy">   -118.57962179</i>
    <i name="e_wo_entrp">   -118.57829416</i>
    <i name="e_0_energy">   -118.57895798</i>
   </energy>
  </scstep>
  <scstep>
   <time name="dav">   15.27   15.27</time>
   <time name="total">   16.10   16.10</time>
   <energy>
    <i name="e_fr_energy">   -118.57962067</i>
    <i name="e_wo_entrp">   -118.57829302</i>
    <i name="e_0_energy">   -118.57895684</i>
   </energy>
  </scstep>
  <scstep>
   <time name="dav">   12.64   12.64</time>
   <time name="total">   13.47   13.47</time>
   <energy>
    <i name="e_fr_energy">   -118.57962046</i>
    <i name="e_wo_entrp">   -118.57829281</i>
    <i name="e_0_energy">   -118.57895663</i>
   </energy>
  </scstep>
  <scstep>
   <time name="dav">   12.47   12.47</time>
   <time name="total">   13.31   13.31</time>
   <energy>
    <i name="e_fr_energy">   -118.57962045</i>
    <i name="e_wo_entrp">   -118.57829279</i>
    <i name="e_0_energy">   -118.57895662</i>
   </energy>
  </scstep>
  <scstep>
   <time name="dav">   14.31   14.31</time>
   <time name="total">   14.46   14.47</time>
   <energy>
    <i name="alphaZ">     -7.15879130</i>
    <i name="ewald">  -2427.68642844</i>
    <i name="hartreedc">     -3.93532805</i>
    <i name="XCdc">   -829.97647792</i>
    <i name="pawpsdc">   1151.92427425</i>
    <i name="pawaedc">   -130.31168009</i>
    <i name="eentropy">     -0.00132765</i>
    <i name="bandstr">    415.33700654</i>
    <i name="atom">   1713.22913220</i>
    <i name="e_fr_energy">   -118.57962045</i>
    <i name="e_wo_entrp">   -118.57829280</i>
    <i name="e_0_energy">   -118.57895663</i>
   </energy>
  </scstep>
  <structure>
   <crystal>
    <varray name="basis" >
     <v>       7.83216781      0.00000000      0.00000000</v>
     <v>       0.00000000      7.83216781      0.00000000</v>
     <v>       0.00000000      0.00000000      7.83216781</v>
    </varray>
    <i name="volume">    480.44751480</i>
    <varray name="rec_basis" >
     <v>       0.12767857      0.00000000      0.00000000</v>
     <v>       0.00000000      0.12767857      0.00000000</v>
     <v>       0.00000000      0.00000000      0.12767857</v>
    </varray>
   </crystal>
   <varray name="positions" >
    <v>       0.25127679      0.25000000      0.00000000</v>
    <v>       0.75000000      0.25000000      0.00000000</v>
    <v>       0.25000000      0.75000000      0.00000000</v>
    <v>       0.75000000      0.75000000      0.00000000</v>
    <v>       0.25000000      0.25000000      0.50000000</v>
    <v>       0.75000000      0.25000000      0.50000000</v>
    <v>       0.25000000      0.75000000      0.50000000</v>
    <v>       0.75000000      0.75000000      0.50000000</v>
    <v>       0.25000000      0.00000000      0.25000000</v>
    <v>       0.75000000      0.00000000      0.25000000</v>
    <v>       0.25000000      0.50000000      0.25000000</v>
    <v>       0.75000000      0.50000000      0.25000000</v>
    <v>       0.25000000      0.00000000      0.75000000</v>
    <v>       0.75000000      0.00000000      0.75000000</v>
    <v>       0.25000000      0.50000000      0.75000000</v>
    <v>       0.75000000      0.50000000      0.75000000</v>
    <v>       0.00000000      0.25000000      0.25000000</v>
    <v>       0.50000000      0.25000000      0.25000000</v>
    <v>       0.00000000      0.75000000      0.25000000</v>
    <v>       0.50000000      0.75000000      0.25000000</v>
    <v>       0.00000000      0.25000000      0.75000000</v>
    <v>       0.50000000      0.25000000      0.75000000</v>
    <v>       0.00000000      0.75000000      0.75000000</v>
    <v>       0.50000000      0.75000000      0.75000000</v>
    <v>       0.00000000      0.00000000      0.00000000</v>
    <v>       0.50000000      0.00000000      0.00000000</v>
    <v>       0.00000000      0.50000000      0.00000000</v>
    <v>       0.50000000      0.50000000      0.00000000</v>
    <v>       0.00000000      0.00000000      0.50000000</v>
    <v>       0.50000000      0.00000000      0.50000000</v>
    <v>       0.00000000      0.50000000      0.50000000</v>
    <v>       0.50000000      0.50000000      0.50000000</v>
   </varray>
  </structure>
  <varray name="forces" >
   <v>      -0.06459480     -0.00000000      0.00000000</v>
   <v>       0.00276141      0.00000000     -0.00000000</v>
   <v>       0.00075137     -0.00000000      0.00000000</v>
   <v>       0.00039914      0.00000000     -0.00000000</v>
   <v>       0.00075137      0.00000000      0.00000000</v>
   <v>       0.00039914     -0.00000000     -0.00000000</v>
   <v>      -0.00014685      0.00000000     -0.00000000</v>
   <v>       0.00052212     -0.00000000     -0.00000000</v>
   <v>      -0.00184905      0.00003878     -0.00003878</v>
   <v>      -0.00123664      0.00000026     -0.00000026</v>
   <v>      -0.00184905     -0.00003878     -0.00003878</v>
   <v>      -0.00123664     -0.00000026     -0.00000026</v>
   <v>      -0.00184905      0.00003878      0.00003878</v>
   <v>      -0.00123664      0.00000026      0.00000026</v>
   <v>      -0.00184905     -0.00003878      0.00003878</v>
   <v>      -0.00123664     -0.00000026      0.00000026</v>
   <v>       0.00870073     -0.00000000     -0.00938334</v>
   <v>       0.00889091      0.00000000      0.00939734</v>
   <v>       0.00013809     -0.00000000      0.00099215</v>
   <v>       0.00014521      0.00000000     -0.00074830</v>
   <v>       0.00870073     -0.00000000      0.00938334</v>
   <v>       0.00889091      0.00000000     -0.00939734</v>
   <v>       0.00013809     -0.00000000     -0.00099215</v>
   <v>       0.00014521     -0.00000000      0.00074830</v>
   <v>       0.00870073      0.00938334     -0.00000000</v>
   <v>       0.00889091     -0.00939734     -0.00000000</v>
   <v>       0.00870073     -0.00938334      0.00000000</v>
   <v>       0.00889091      0.00939734     -0.00000000</v>
   <v>       0.00013809     -0.00099215     -0.00000000</v>
   <v>       0.00014521      0.00074830     -0.00000000</v>
   <v>       0.00013809      0.00099215     -0.00000000</v>
   <v>       0.00014521     -0.00074830     -0.00000000</v>
  </varray>
  <varray name="stress" >
   <v>      88.97833561      0.00000000      0.00000000</v>
   <v>      -0.00000000     88.98326361      0.00000000</v>
   <v>       0.00000000      0.00000000     88.98326361</v>
  </varray>
  <energy>
   <i name="e_fr_energy">   -118.57962045</i>
   <i name="e_wo_entrp">   -118.57895663</i>
   <i name="e_0_energy">     -0.00132765</i>
  </energy>
  <eigenvalues>
   <array>
    <dimension dim="1">band</dimension>
    <dimension dim="2">kpoint</dimension>
    <dimension dim="3">spin</dimension>
    <field>eigene</field>
    <field>occ</field>
    <set>
     <set comment="spin 1">
      <set comment="kpoint 1">
       <r>  -2.7824  1.0000</r>
       <r>  -0.3966  1.0000</r>
       <r>  -0.3927  1.0000</r>
       <r>  -0.3927  1.0000</r>
       <r>  -0.3927  1.0000</r>
       <r>  -0.3927  1.0000</r>
       <r>  -0.3889  1.0000</r>
       <r>   1.9462  1.0000</r>
       <r>   1.9505  1.0000</r>
       <r>   1.9505  1.0000</r>
       <r>   1.9523  1.0000</r>
       <r>   1.9525  1.0000</r>
       <r>   1.9525  1.0000</r>
       <r>   1.9525  1.0000</r>
       <r>   1.9525  1.0000</r>
       <r>   1.9526  1.0000</r>
       <r>   1.9545  1.0000</r>
       <r>   1.9545  1.0000</r>
       <r>   1.9589  1.0000</r>
       <r>   4.0448  1.0000</r>
       <r>   4.0448  1.0000</r>
       <r>   4.0448  1.0000</r>
       <r>   4.0448  1.0000</r>
       <r>   4.5084  1.0000</r>
       <r>   4.5084  1.0000</r>
       <r>   4.5084  1.0000</r>
       <r>   4.5084  1.0000</r>
       <r>   5.8682  1.0000</r>
       <r>   5.8682  1.0000</r>
       <r>   5.8682  1.0000</r>
       <r>   7.3870  1.0000</r>
       <r>   7.3870  1.0000</r>
       <r>   7.3871  1.0000</r>
       <r>   8.0499  1.0000</r>
       <r>   8.0499  1.0000</r>
       <r>   8.0545  1.0000</r>
       <r>   8.0545  1.0000</r>
       <r>   8.0546  1.0000</r>
       <r>   8.0547  1.0000</r>
       <r>   8.0547  1.0000</r>
       <r>   8.0547  1.0000</r>
       <r>   8.0548  1.0000</r>
       <r>   8.0548  1.0000</r>
       <r>   8.0594  1.0000</r>
       <r>   8.0594  1.0000</r>
       <r>   9.0130  0.3537</r>
       <r>   9.0173  0.1613</r>
       <r>   9.0173  0.1610</r>
       <r>   9.0173  0.1607</r>
       <r>   9.0173  0.1607</r>
       <r>   9.0217  0.0540</r>
       <r>  10.2485  0.0000</r>
       <r>  10.2485  0.0000</r>
       <r>  10.2499  0.0000</r>
       <r>  10.2525  0.0000</r>
       <r>  10.2527  0.0000</r>
       <r>  10.2527  0.0000</r>
       <r>  10.2527  0.0000</r>
       <r>  10.2528  0.0000</r>
       <r>  10.2529  0.0000</r>
       <r>  10.2556  0.0000</r>
       <r>  10.2569  0.0000</r>
       <r>  10.2569  0.0000</r>
       <r>  10.6733  0.0000</r>
       <r>  10.6745  0.0000</r>
       <r>  10.6745  0.0000</r>
       <r>  10.6745  0.0000</r>
       <r>  10.6746  0.0000</r>
       <r>  10.6758  0.0000</r>
       <r>  12.0628  0.0000</r>
       <r>  12.0659  0.0000</r>
       <r>  12.0664  0.0000</r>
      </set>
      <set comment="kpoint 2">
       <r>  -2.7154  1.0000</r>
       <r>  -1.1181  1.0000</r>
       <r>  -0.3270  1.0000</r>
       <r>  -0.3270  1.0000</r>
       <r>  -0.3270  1.0000</r>
       <r>  -0.3270  1.0000</r>
       <r>   0.4588  1.0000</r>
       <r>   1.2407  1.0000</r>
       <r>   1.2407  1.0000</r>
       <r>   1.2407  1.0000</r>
       <r>   1.2407  1.0000</r>
       <r>   2.0170  1.0000</r>
       <r>   2.0170  1.0000</r>
       <r>   2.0170  1.0000</r>
       <r>   2.0170  1.0000</r>
       <r>   2.7877  1.0000</r>
       <r>   2.7877  1.0000</r>
       <r>   2.7877  1.0000</r>
       <r>   2.7877  1.0000</r>
       <r>   3.5385  1.0000</r>
       <r>   3.5385  1.0000</r>
       <r>   3.5385  1.0000</r>
       <r>   3.5386  1.0000</r>
       <r>   4.9849  1.0000</r>
       <r>   5.1375  1.0000</r>
       <r>   5.1375  1.0000</r>
       <r>   5.1375  1.0000</r>
       <r>   5.1376  1.0000</r>
       <r>   5.9288  1.0000</r>
       <r>   5.9288  1.0000</r>
       <r>   7.1896  1.0000</r>
       <r>   7.1896  1.0000</r>
       <r>   7.1896  1.0000</r>
       <r>   7.1896  1.0000</r>
       <r>   7.3855  1.0000</r>
       <r>   7.3855  1.0000</r>
       <r>   7.4496  1.0000</r>
       <r>   7.4496  1.0000</r>
       <r>   8.1156  1.0000</r>
       <r>   8.1156  1.0000</r>
       <r>   8.1156  1.0000</r>
       <r>   8.1156  1.0000</r>
       <r>   8.3839  1.0000</r>
       <r>   8.7746  1.0000</r>
       <r>   8.7746  1.0000</r>
       <r>   8.8465  1.0000</r>
       <r>   8.8465  1.0000</r>
       <r>   9.4729  0.0000</r>
       <r>   9.4729  0.0000</r>
       <r>   9.4729  0.0000</r>
       <r>   9.4729  0.0000</r>
       <r>   9.5449  0.0000</r>
       <r>   9.5449  0.0000</r>
       <r>   9.5450  0.0000</r>
       <r>   9.5451  0.0000</r>
       <r>   9.5803  0.0000</r>
       <r>   9.5803  0.0000</r>
       <r>   9.5805  0.0000</r>
       <r>   9.5805  0.0000</r>
       <r>  11.0299  0.0000</r>
       <r>  11.0299  0.0000</r>
       <r>  11.0480  0.0000</r>
       <r>  11.0480  0.0000</r>
       <r>  11.0480  0.0000</r>
       <r>  11.0480  0.0000</r>
       <r>  11.1882  0.0000</r>
       <r>  11.1882  0.0000</r>
       <r>  11.1883  0.0000</r>
       <r>  11.1883  0.0000</r>
       <r>  11.3827  0.0000</r>
       <r>  11.3827  0.0000</r>
       <r>  11.3827  0.0000</r>
      </set>
      <set comment="kpoint 3">
       <r>  -2.5147  1.0000</r>
       <r>  -1.7147  1.0000</r>
       <r>  -0.1300  1.0000</r>
       <r>  -0.1300  1.0000</r>
       <r>  -0.1300  1.0000</r>
       <r>  -0.1300  1.0000</r>
       <r>   0.6551  1.0000</r>
       <r>   0.6551  1.0000</r>
       <r>   0.6551  1.0000</r>
       <r>   0.6551  1.0000</r>
       <r>   1.4331  1.0000</r>
       <r>   2.2101  1.0000</r>
       <r>   2.2101  1.0000</r>
       <r>   2.2101  1.0000</r>
       <r>   2.2101  1.0000</r>
       <r>   2.9768  1.0000</r>
       <r>   2.9768  1.0000</r>
       <r>   2.9768  1.0000</r>
       <r>   2.9769  1.0000</r>
       <r>   3.7231  1.0000</r>
       <r>   3.7422  1.0000</r>
       <r>   3.7422  1.0000</r>
       <r>   3.7422  1.0000</r>
       <r>   3.7423  1.0000</r>
       <r>   5.9741  1.0000</r>
       <r>   5.9741  1.0000</r>
       <r>   5.9741  1.0000</r>
       <r>   5.9741  1.0000</r>
       <r>   6.0666  1.0000</r>
       <r>   6.0666  1.0000</r>
       <r>   6.0667  1.0000</r>
       <r>   6.0667  1.0000</r>
       <r>   6.1107  1.0000</r>
       <r>   6.1107  1.0000</r>
       <r>   6.8386  1.0000</r>
       <r>   6.8386  1.0000</r>
       <r>   7.6355  1.0000</r>
       <r>   7.6355  1.0000</r>
       <r>   8.2748  1.0000</r>
       <r>   8.2748  1.0000</r>
       <r>   8.2750  1.0000</r>
       <r>   8.2750  1.0000</r>
       <r>   8.2985  1.0000</r>
       <r>   8.2986  1.0000</r>
       <r>   8.2987  1.0000</r>
       <r>   8.2987  1.0000</r>
       <r>   8.3377  1.0000</r>
       <r>   8.3378  1.0000</r>
       <r>   9.0306  0.0020</r>
       <r>   9.0307  0.0020</r>
       <r>   9.0307  0.0020</r>
       <r>   9.0307  0.0020</r>
       <r>   9.7612  0.0000</r>
       <r>   9.7612  0.0000</r>
       <r>   9.9621  0.0000</r>
       <r>   9.9621  0.0000</r>
       <r>   9.9621  0.0000</r>
       <r>   9.9621  0.0000</r>
       <r>   9.9862  0.0000</r>
       <r>  10.8093  0.0000</r>
       <r>  10.8093  0.0000</r>
       <r>  10.8093  0.0000</r>
       <r>  10.8093  0.0000</r>
       <r>  11.8003  0.0000</r>
       <r>  11.8004  0.0000</r>
       <r>  11.9556  0.0000</r>
       <r>  11.9556  0.0000</r>
       <r>  11.9662  0.0000</r>
       <r>  11.9662  0.0000</r>
       <r>  11.9664  0.0000</r>
       <r>  11.9664  0.0000</r>
       <r>  12.5138  0.0000</r>
      </set>
      <set comment="kpoint 4">
       <r>  -2.1823  1.0000</r>
       <r>  -2.1792  1.0000</r>
       <r>   0.1935  1.0000</r>
       <r>   0.1968  1.0000</r>
       <r>   0.1968  1.0000</r>
       <r>   0.1977  1.0000</r>
       <r>   0.1978  1.0000</r>
       <r>   0.1986  1.0000</r>
       <r>   0.1986  1.0000</r>
       <r>   0.2020  1.0000</r>
       <r>   2.5226  1.0000</r>
       <r>   2.5251  1.0000</r>
       <r>   2.5293  1.0000</r>
       <r>   2.5296  1.0000</r>
       <r>   2.5296  1.0000</r>
       <r>   2.5304  1.0000</r>
       <r>   2.5314  1.0000</r>
       <r>   2.5322  1.0000</r>
       <r>   2.5322  1.0000</r>
       <r>   2.5349  1.0000</r>
       <r>   4.8084  1.0000</r>
       <r>   4.8084  1.0000</r>
       <r>   4.8090  1.0000</r>
       <r>   4.8091  1.0000</r>
       <r>   4.8094  1.0000</r>
       <r>   4.8096  1.0000</r>
       <r>   4.8101  1.0000</r>
       <r>   4.8101  1.0000</r>
       <r>   6.4121  1.0000</r>
       <r>   6.4121  1.0000</r>
       <r>   6.4154  1.0000</r>
       <r>   6.4154  1.0000</r>
       <r>   7.1192  1.0000</r>
       <r>   7.1192  1.0000</r>
       <r>   7.1195  1.0000</r>
       <r>   7.1201  1.0000</r>
       <r>   7.1202  1.0000</r>
       <r>   7.1207  1.0000</r>
       <r>   7.1211  1.0000</r>
       <r>   7.1211  1.0000</r>
       <r>   7.9356  1.0000</r>
       <r>   7.9368  1.0000</r>
       <r>   7.9386  1.0000</r>
       <r>   7.9398  1.0000</r>
       <r>   8.6009  1.0000</r>
       <r>   8.6009  1.0000</r>
       <r>   8.6018  1.0000</r>
       <r>   8.6034  1.0000</r>
       <r>   8.6035  1.0000</r>
       <r>   8.6051  1.0000</r>
       <r>   8.6060  1.0000</r>
       <r>   8.6060  1.0000</r>
       <r>  10.3413  0.0000</r>
       <r>  10.3422  0.0000</r>
       <r>  10.3422  0.0000</r>
       <r>  10.3424  0.0000</r>
       <r>  10.3448  0.0000</r>
       <r>  10.3450  0.0000</r>
       <r>  10.3450  0.0000</r>
       <r>  10.3459  0.0000</r>
       <r>  10.7973  0.0000</r>
       <r>  10.7973  0.0000</r>
       <r>  10.7995  0.0000</r>
       <r>  10.7995  0.0000</r>
       <r>  11.7506  0.0000</r>
       <r>  11.7516  0.0000</r>
       <r>  12.7372  0.0000</r>
       <r>  12.7373  0.0000</r>
       <r>  12.7392  0.0000</r>
       <r>  12.7393  0.0000</r>
       <r>  13.0076  0.0000</r>
       <r>  13.0078  0.0000</r>
      </set>
      <set comment="kpoint 5">
       <r>  -2.7154  1.0000</r>
       <r>  -1.1181  1.0000</r>
       <r>  -0.3300  1.0000</r>
       <r>  -0.3270  1.0000</r>
       <r>  -0.3270  1.0000</r>
       <r>  -0.3240  1.0000</r>
       <r>   0.4588  1.0000</r>
       <r>   1.2377  1.0000</r>
       <r>   1.2407  1.0000</r>
       <r>   1.2407  1.0000</r>
       <r>   1.2437  1.0000</r>
       <r>   2.0148  1.0000</r>
       <r>   2.0157  1.0000</r>
       <r>   2.0182  1.0000</r>
       <r>   2.0191  1.0000</r>
       <r>   2.7846  1.0000</r>
       <r>   2.7877  1.0000</r>
       <r>   2.7877  1.0000</r>
       <r>   2.7907  1.0000</r>
       <r>   3.5365  1.0000</r>
       <r>   3.5373  1.0000</r>
       <r>   3.5398  1.0000</r>
       <r>   3.5406  1.0000</r>
       <r>   4.9849  1.0000</r>
       <r>   5.1354  1.0000</r>
       <r>   5.1363  1.0000</r>
       <r>   5.1388  1.0000</r>
       <r>   5.1396  1.0000</r>
       <r>   5.9288  1.0000</r>
       <r>   5.9288  1.0000</r>
       <r>   7.1863  1.0000</r>
       <r>   7.1896  1.0000</r>
       <r>   7.1896  1.0000</r>
       <r>   7.1929  1.0000</r>
       <r>   7.3854  1.0000</r>
       <r>   7.3855  1.0000</r>
       <r>   7.4496  1.0000</r>
       <r>   7.4496  1.0000</r>
       <r>   8.1127  1.0000</r>
       <r>   8.1156  1.0000</r>
       <r>   8.1156  1.0000</r>
       <r>   8.1185  1.0000</r>
       <r>   8.3839  1.0000</r>
       <r>   8.7746  1.0000</r>
       <r>   8.7746  1.0000</r>
       <r>   8.8465  1.0000</r>
       <r>   8.8465  1.0000</r>
       <r>   9.4703  0.0000</r>
       <r>   9.4716  0.0000</r>
       <r>   9.4742  0.0000</r>
       <r>   9.4756  0.0000</r>
       <r>   9.5422  0.0000</r>
       <r>   9.5450  0.0000</r>
       <r>   9.5450  0.0000</r>
       <r>   9.5478  0.0000</r>
       <r>   9.5774  0.0000</r>
       <r>   9.5803  0.0000</r>
       <r>   9.5805  0.0000</r>
       <r>   9.5833  0.0000</r>
       <r>  11.0297  0.0000</r>
       <r>  11.0299  0.0000</r>
       <r>  11.0450  0.0000</r>
       <r>  11.0480  0.0000</r>
       <r>  11.0482  0.0000</r>
       <r>  11.0510  0.0000</r>
       <r>  11.1867  0.0000</r>
       <r>  11.1882  0.0000</r>
       <r>  11.1883  0.0000</r>
       <r>  11.1897  0.0000</r>
       <r>  11.3813  0.0000</r>
       <r>  11.3827  0.0000</r>
       <r>  11.3848  0.0000</r>
      </set>
      <set comment="kpoint 6">
       <r>  -2.6485  1.0000</r>
       <r>  -1.0532  1.0000</r>
       <r>  -1.0507  1.0000</r>
       <r>  -0.2613  1.0000</r>
       <r>  -0.2613  1.0000</r>
       <r>   0.5224  1.0000</r>
       <r>   0.5244  1.0000</r>
       <r>   0.5262  1.0000</r>
       <r>   1.3039  1.0000</r>
       <r>   1.3048  1.0000</r>
       <r>   1.3064  1.0000</r>
       <r>   1.3073  1.0000</r>
       <r>   2.0806  1.0000</r>
       <r>   2.0815  1.0000</r>
       <r>   2.8480  1.0000</r>
       <r>   2.8487  1.0000</r>
       <r>   2.8506  1.0000</r>
       <r>   2.8510  1.0000</r>
       <r>   2.8525  1.0000</r>
       <r>   2.8537  1.0000</r>
       <r>   3.6164  1.0000</r>
       <r>   4.1678  1.0000</r>
       <r>   4.1678  1.0000</r>
       <r>   4.6380  1.0000</r>
       <r>   4.6380  1.0000</r>
       <r>   5.0467  1.0000</r>
       <r>   5.0475  1.0000</r>
       <r>   5.9427  1.0000</r>
       <r>   5.9428  1.0000</r>
       <r>   5.9894  1.0000</r>
       <r>   6.5256  1.0000</r>
       <r>   6.5281  1.0000</r>
       <r>   7.0906  1.0000</r>
       <r>   7.0906  1.0000</r>
       <r>   7.4448  1.0000</r>
       <r>   7.4476  1.0000</r>
       <r>   7.4640  1.0000</r>
       <r>   7.4641  1.0000</r>
       <r>   7.5112  1.0000</r>
       <r>   7.9203  1.0000</r>
       <r>   7.9225  1.0000</r>
       <r>   8.4438  1.0000</r>
       <r>   8.4447  1.0000</r>
       <r>   8.7926  1.0000</r>
       <r>   8.7936  1.0000</r>
       <r>   8.7952  1.0000</r>
       <r>   8.7962  1.0000</r>
       <r>   8.9055  1.0000</r>
       <r>   8.9080  1.0000</r>
       <r>   8.9105  1.0000</r>
       <r>   9.1250  0.0000</r>
       <r>   9.1266  0.0000</r>
       <r>   9.6204  0.0000</r>
       <r>   9.6232  0.0000</r>
       <r>  10.2316  0.0000</r>
       <r>  10.2317  0.0000</r>
       <r>  10.2716  0.0000</r>
       <r>  10.2725  0.0000</r>
       <r>  10.2730  0.0000</r>
       <r>  10.2741  0.0000</r>
       <r>  10.3739  0.0000</r>
       <r>  10.3757  0.0000</r>
       <r>  10.7003  0.0000</r>
       <r>  11.2174  0.0000</r>
       <r>  11.2181  0.0000</r>
       <r>  11.4893  0.0000</r>
       <r>  11.4893  0.0000</r>
       <r>  11.7780  0.0000</r>
       <r>  11.7802  0.0000</r>
       <r>  11.8440  0.0000</r>
       <r>  12.1719  0.0000</r>
       <r>  12.1721  0.0000</r>
      </set>
      <set comment="kpoint 7">
       <r>  -2.4478  1.0000</r>
       <r>  -1.6483  1.0000</r>
       <r>  -0.8538  1.0000</r>
       <r>  -0.0658  1.0000</r>
       <r>  -0.0644  1.0000</r>
       <r>  -0.0628  1.0000</r>
       <r>   0.7185  1.0000</r>
       <r>   0.7203  1.0000</r>
       <r>   0.7216  1.0000</r>
       <r>   1.4966  1.0000</r>
       <r>   1.4995  1.0000</r>
       <r>   1.5001  1.0000</r>
       <r>   1.5013  1.0000</r>
       <r>   2.2741  1.0000</r>
       <r>   2.2741  1.0000</r>
       <r>   3.0415  1.0000</r>
       <r>   3.0426  1.0000</r>
       <r>   3.0430  1.0000</r>
       <r>   3.7860  1.0000</r>
       <r>   3.7909  1.0000</r>
       <r>   3.7912  1.0000</r>
       <r>   3.8051  1.0000</r>
       <r>   3.8052  1.0000</r>
       <r>   4.5625  1.0000</r>
       <r>   5.2334  1.0000</r>
       <r>   5.2942  1.0000</r>
       <r>   5.3890  1.0000</r>
       <r>   5.3891  1.0000</r>
       <r>   5.9754  1.0000</r>
       <r>   6.0241  1.0000</r>
       <r>   6.0241  1.0000</r>
       <r>   6.1712  1.0000</r>
       <r>   6.7597  1.0000</r>
       <r>   6.8783  1.0000</r>
       <r>   6.8784  1.0000</r>
       <r>   6.8995  1.0000</r>
       <r>   7.5074  1.0000</r>
       <r>   7.5074  1.0000</r>
       <r>   7.5917  1.0000</r>
       <r>   7.5918  1.0000</r>
       <r>   7.6290  1.0000</r>
       <r>   7.6929  1.0000</r>
       <r>   8.2386  1.0000</r>
       <r>   8.2387  1.0000</r>
       <r>   8.2746  1.0000</r>
       <r>   8.3599  1.0000</r>
       <r>   8.6232  1.0000</r>
       <r>   9.0800  0.0000</r>
       <r>   9.0803  0.0000</r>
       <r>   9.0911  0.0000</r>
       <r>   9.1833  0.0000</r>
       <r>   9.2841  0.0000</r>
       <r>   9.3550  0.0000</r>
       <r>   9.8214  0.0000</r>
       <r>   9.8254  0.0000</r>
       <r>  10.0431  0.0000</r>
       <r>  10.1327  0.0000</r>
       <r>  10.5528  0.0000</r>
       <r>  10.8321  0.0000</r>
       <r>  10.8321  0.0000</r>
       <r>  11.1916  0.0000</r>
       <r>  11.1917  0.0000</r>
       <r>  11.2045  0.0000</r>
       <r>  11.2923  0.0000</r>
       <r>  11.5890  0.0000</r>
       <r>  11.7111  0.0000</r>
       <r>  11.7111  0.0000</r>
       <r>  11.8931  0.0000</r>
       <r>  12.0174  0.0000</r>
       <r>  12.0477  0.0000</r>
       <r>  12.6148  0.0000</r>
       <r>  12.6214  0.0000</r>
      </set>
      <set comment="kpoint 8">
       <r>  -2.1156  1.0000</r>
       <r>  -2.1126  1.0000</r>
       <r>  -0.5257  1.0000</r>
       <r>  -0.5227  1.0000</r>
       <r>   0.2610  1.0000</r>
       <r>   0.2623  1.0000</r>
       <r>   0.2641  1.0000</r>
       <r>   0.2653  1.0000</r>
       <r>   1.0437  1.0000</r>
       <r>   1.0468  1.0000</r>
       <r>   1.8212  1.0000</r>
       <r>   1.8225  1.0000</r>
       <r>   1.8243  1.0000</r>
       <r>   1.8255  1.0000</r>
       <r>   2.5886  1.0000</r>
       <r>   2.5897  1.0000</r>
       <r>   3.3566  1.0000</r>
       <r>   3.3579  1.0000</r>
       <r>   3.3597  1.0000</r>
       <r>   3.3610  1.0000</r>
       <r>   4.1168  1.0000</r>
       <r>   4.1179  1.0000</r>
       <r>   4.8686  1.0000</r>
       <r>   4.8692  1.0000</r>
       <r>   4.8696  1.0000</r>
       <r>   4.8703  1.0000</r>
       <r>   5.5417  1.0000</r>
       <r>   5.5449  1.0000</r>
       <r>   5.6166  1.0000</r>
       <r>   5.6177  1.0000</r>
       <r>   6.4344  1.0000</r>
       <r>   6.4347  1.0000</r>
       <r>   6.4357  1.0000</r>
       <r>   6.4358  1.0000</r>
       <r>   6.4729  1.0000</r>
       <r>   6.4762  1.0000</r>
       <r>   7.8054  1.0000</r>
       <r>   7.8066  1.0000</r>
       <r>   7.8086  1.0000</r>
       <r>   7.8099  1.0000</r>
       <r>   7.9286  1.0000</r>
       <r>   7.9292  1.0000</r>
       <r>   7.9302  1.0000</r>
       <r>   7.9302  1.0000</r>
       <r>   7.9321  1.0000</r>
       <r>   7.9353  1.0000</r>
       <r>   7.9782  1.0000</r>
       <r>   7.9811  1.0000</r>
       <r>   8.9107  1.0000</r>
       <r>   8.9138  1.0000</r>
       <r>   9.3947  0.0000</r>
       <r>   9.3981  0.0000</r>
       <r>   9.6828  0.0000</r>
       <r>   9.6858  0.0000</r>
       <r>  10.0887  0.0000</r>
       <r>  10.0904  0.0000</r>
       <r>  10.8587  0.0000</r>
       <r>  10.8608  0.0000</r>
       <r>  11.0855  0.0000</r>
       <r>  11.0889  0.0000</r>
       <r>  11.2420  0.0000</r>
       <r>  11.2428  0.0000</r>
       <r>  11.2453  0.0000</r>
       <r>  11.2461  0.0000</r>
       <r>  11.8010  0.0000</r>
       <r>  11.8020  0.0000</r>
       <r>  12.2247  0.0000</r>
       <r>  12.2247  0.0000</r>
       <r>  12.2265  0.0000</r>
       <r>  12.2265  0.0000</r>
       <r>  12.3315  0.0000</r>
       <r>  12.3338  0.0000</r>
      </set>
      <set comment="kpoint 9">
       <r>  -2.5147  1.0000</r>
       <r>  -1.7147  1.0000</r>
       <r>  -0.1330  1.0000</r>
       <r>  -0.1300  1.0000</r>
       <r>  -0.1300  1.0000</r>
       <r>  -0.1270  1.0000</r>
       <r>   0.6521  1.0000</r>
       <r>   0.6551  1.0000</r>
       <r>   0.6551  1.0000</r>
       <r>   0.6581  1.0000</r>
       <r>   1.4331  1.0000</r>
       <r>   2.2080  1.0000</r>
       <r>   2.2088  1.0000</r>
       <r>   2.2114  1.0000</r>
       <r>   2.2122  1.0000</r>
       <r>   2.9747  1.0000</r>
       <r>   2.9756  1.0000</r>
       <r>   2.9781  1.0000</r>
       <r>   2.9790  1.0000</r>
       <r>   3.7231  1.0000</r>
       <r>   3.7392  1.0000</r>
       <r>   3.7422  1.0000</r>
       <r>   3.7422  1.0000</r>
       <r>   3.7453  1.0000</r>
       <r>   5.9709  1.0000</r>
       <r>   5.9741  1.0000</r>
       <r>   5.9741  1.0000</r>
       <r>   5.9773  1.0000</r>
       <r>   6.0645  1.0000</r>
       <r>   6.0653  1.0000</r>
       <r>   6.0680  1.0000</r>
       <r>   6.0689  1.0000</r>
       <r>   6.1107  1.0000</r>
       <r>   6.1107  1.0000</r>
       <r>   6.8386  1.0000</r>
       <r>   6.8386  1.0000</r>
       <r>   7.6355  1.0000</r>
       <r>   7.6355  1.0000</r>
       <r>   8.2726  1.0000</r>
       <r>   8.2737  1.0000</r>
       <r>   8.2763  1.0000</r>
       <r>   8.2774  1.0000</r>
       <r>   8.2956  1.0000</r>
       <r>   8.2985  1.0000</r>
       <r>   8.2985  1.0000</r>
       <r>   8.3014  1.0000</r>
       <r>   8.3377  1.0000</r>
       <r>   8.3378  1.0000</r>
       <r>   9.0278  0.0068</r>
       <r>   9.0307  0.0020</r>
       <r>   9.0307  0.0020</r>
       <r>   9.0336  0.0005</r>
       <r>   9.7612  0.0000</r>
       <r>   9.7612  0.0000</r>
       <r>   9.9595  0.0000</r>
       <r>   9.9621  0.0000</r>
       <r>   9.9621  0.0000</r>
       <r>   9.9646  0.0000</r>
       <r>   9.9862  0.0000</r>
       <r>  10.8068  0.0000</r>
       <r>  10.8093  0.0000</r>
       <r>  10.8093  0.0000</r>
       <r>  10.8118  0.0000</r>
       <r>  11.8003  0.0000</r>
       <r>  11.8003  0.0000</r>
       <r>  11.9558  0.0000</r>
       <r>  11.9558  0.0000</r>
       <r>  11.9632  0.0000</r>
       <r>  11.9662  0.0000</r>
       <r>  11.9663  0.0000</r>
       <r>  11.9692  0.0000</r>
       <r>  12.5141  0.0000</r>
      </set>
      <set comment="kpoint 10">
       <r>  -2.4478  1.0000</r>
       <r>  -1.6483  1.0000</r>
       <r>  -0.8538  1.0000</r>
       <r>  -0.0658  1.0000</r>
       <r>  -0.0644  1.0000</r>
       <r>  -0.0628  1.0000</r>
       <r>   0.7186  1.0000</r>
       <r>   0.7203  1.0000</r>
       <r>   0.7216  1.0000</r>
       <r>   1.4968  1.0000</r>
       <r>   1.4990  1.0000</r>
       <r>   1.5001  1.0000</r>
       <r>   1.5016  1.0000</r>
       <r>   2.2741  1.0000</r>
       <r>   2.2741  1.0000</r>
       <r>   3.0408  1.0000</r>
       <r>   3.0426  1.0000</r>
       <r>   3.0437  1.0000</r>
       <r>   3.7860  1.0000</r>
       <r>   3.7909  1.0000</r>
       <r>   3.7913  1.0000</r>
       <r>   3.8050  1.0000</r>
       <r>   3.8051  1.0000</r>
       <r>   4.5625  1.0000</r>
       <r>   5.2334  1.0000</r>
       <r>   5.2941  1.0000</r>
       <r>   5.3890  1.0000</r>
       <r>   5.3891  1.0000</r>
       <r>   5.9754  1.0000</r>
       <r>   6.0241  1.0000</r>
       <r>   6.0242  1.0000</r>
       <r>   6.1712  1.0000</r>
       <r>   6.7597  1.0000</r>
       <r>   6.8783  1.0000</r>
       <r>   6.8784  1.0000</r>
       <r>   6.8994  1.0000</r>
       <r>   7.5074  1.0000</r>
       <r>   7.5074  1.0000</r>
       <r>   7.5918  1.0000</r>
       <r>   7.5918  1.0000</r>
       <r>   7.6289  1.0000</r>
       <r>   7.6929  1.0000</r>
       <r>   8.2386  1.0000</r>
       <r>   8.2386  1.0000</r>
       <r>   8.2746  1.0000</r>
       <r>   8.3599  1.0000</r>
       <r>   8.6232  1.0000</r>
       <r>   9.0803  0.0000</r>
       <r>   9.0803  0.0000</r>
       <r>   9.0909  0.0000</r>
       <r>   9.1833  0.0000</r>
       <r>   9.2841  0.0000</r>
       <r>   9.3550  0.0000</r>
       <r>   9.8221  0.0000</r>
       <r>   9.8247  0.0000</r>
       <r>  10.0431  0.0000</r>
       <r>  10.1327  0.0000</r>
       <r>  10.5527  0.0000</r>
       <r>  10.8321  0.0000</r>
       <r>  10.8321  0.0000</r>
       <r>  11.1917  0.0000</r>
       <r>  11.1917  0.0000</r>
       <r>  11.2044  0.0000</r>
       <r>  11.2923  0.0000</r>
       <r>  11.5890  0.0000</r>
       <r>  11.7111  0.0000</r>
       <r>  11.7111  0.0000</r>
       <r>  11.8931  0.0000</r>
       <r>  12.0174  0.0000</r>
       <r>  12.0477  0.0000</r>
       <r>  12.6155  0.0000</r>
       <r>  12.6215  0.0000</r>
      </set>
      <set comment="kpoint 11">
       <r>  -2.2475  1.0000</r>
       <r>  -1.4504  1.0000</r>
       <r>  -1.4480  1.0000</r>
       <r>  -0.6559  1.0000</r>
       <r>   0.1323  1.0000</r>
       <r>   0.1323  1.0000</r>
       <r>   0.9141  1.0000</r>
       <r>   0.9150  1.0000</r>
       <r>   0.9165  1.0000</r>
       <r>   0.9175  1.0000</r>
       <r>   1.6904  1.0000</r>
       <r>   1.6927  1.0000</r>
       <r>   1.6942  1.0000</r>
       <r>   1.6951  1.0000</r>
       <r>   2.4649  1.0000</r>
       <r>   2.4658  1.0000</r>
       <r>   3.9757  1.0000</r>
       <r>   3.9765  1.0000</r>
       <r>   3.9903  1.0000</r>
       <r>   3.9911  1.0000</r>
       <r>   3.9927  1.0000</r>
       <r>   3.9937  1.0000</r>
       <r>   4.5369  1.0000</r>
       <r>   4.5369  1.0000</r>
       <r>   4.7306  1.0000</r>
       <r>   4.7331  1.0000</r>
       <r>   5.0236  1.0000</r>
       <r>   5.0236  1.0000</r>
       <r>   5.4961  1.0000</r>
       <r>   6.0083  1.0000</r>
       <r>   6.0083  1.0000</r>
       <r>   6.3531  1.0000</r>
       <r>   6.5000  1.0000</r>
       <r>   6.5000  1.0000</r>
       <r>   7.0325  1.0000</r>
       <r>   7.0335  1.0000</r>
       <r>   7.0350  1.0000</r>
       <r>   7.0362  1.0000</r>
       <r>   7.0803  1.0000</r>
       <r>   7.0831  1.0000</r>
       <r>   7.5918  1.0000</r>
       <r>   7.5941  1.0000</r>
       <r>   7.8110  1.0000</r>
       <r>   7.8117  1.0000</r>
       <r>   7.8124  1.0000</r>
       <r>   7.8539  1.0000</r>
       <r>   8.9001  1.0000</r>
       <r>   8.9013  1.0000</r>
       <r>   9.5738  0.0000</r>
       <r>  10.0027  0.0000</r>
       <r>  10.0028  0.0000</r>
       <r>  10.0041  0.0000</r>
       <r>  10.0052  0.0000</r>
       <r>  10.0054  0.0000</r>
       <r>  10.0081  0.0000</r>
       <r>  10.0603  0.0000</r>
       <r>  10.2089  0.0000</r>
       <r>  10.2101  0.0000</r>
       <r>  10.7084  0.0000</r>
       <r>  10.7111  0.0000</r>
       <r>  10.7401  0.0000</r>
       <r>  10.7419  0.0000</r>
       <r>  12.0633  0.0000</r>
       <r>  12.0633  0.0000</r>
       <r>  12.1769  0.0000</r>
       <r>  12.1769  0.0000</r>
       <r>  12.2014  0.0000</r>
       <r>  12.2034  0.0000</r>
       <r>  12.2376  0.0000</r>
       <r>  12.2382  0.0000</r>
       <r>  12.4432  0.0000</r>
       <r>  12.4437  0.0000</r>
      </set>
      <set comment="kpoint 12">
       <r>  -1.9158  1.0000</r>
       <r>  -1.9127  1.0000</r>
       <r>  -1.1196  1.0000</r>
       <r>  -1.1166  1.0000</r>
       <r>   0.4572  1.0000</r>
       <r>   0.4584  1.0000</r>
       <r>   0.4602  1.0000</r>
       <r>   0.4614  1.0000</r>
       <r>   1.2386  1.0000</r>
       <r>   1.2398  1.0000</r>
       <r>   1.2417  1.0000</r>
       <r>   1.2429  1.0000</r>
       <r>   2.0133  1.0000</r>
       <r>   2.0164  1.0000</r>
       <r>   2.7808  1.0000</r>
       <r>   2.7819  1.0000</r>
       <r>   3.5464  1.0000</r>
       <r>   3.5475  1.0000</r>
       <r>   4.2902  1.0000</r>
       <r>   4.2915  1.0000</r>
       <r>   4.2930  1.0000</r>
       <r>   4.2934  1.0000</r>
       <r>   4.2945  1.0000</r>
       <r>   4.2961  1.0000</r>
       <r>   5.0412  1.0000</r>
       <r>   5.0421  1.0000</r>
       <r>   5.0422  1.0000</r>
       <r>   5.0430  1.0000</r>
       <r>   5.8860  1.0000</r>
       <r>   5.8861  1.0000</r>
       <r>   5.8871  1.0000</r>
       <r>   5.8872  1.0000</r>
       <r>   6.5265  1.0000</r>
       <r>   6.5274  1.0000</r>
       <r>   6.6113  1.0000</r>
       <r>   6.6122  1.0000</r>
       <r>   6.6143  1.0000</r>
       <r>   6.6153  1.0000</r>
       <r>   6.6549  1.0000</r>
       <r>   6.6582  1.0000</r>
       <r>   7.3840  1.0000</r>
       <r>   7.3874  1.0000</r>
       <r>   8.0183  1.0000</r>
       <r>   8.0205  1.0000</r>
       <r>   8.8578  1.0000</r>
       <r>   8.8582  1.0000</r>
       <r>   8.8591  1.0000</r>
       <r>   8.8595  1.0000</r>
       <r>   9.0753  0.0000</r>
       <r>   9.0760  0.0000</r>
       <r>   9.1461  0.0000</r>
       <r>   9.1489  0.0000</r>
       <r>  10.3106  0.0000</r>
       <r>  10.3140  0.0000</r>
       <r>  10.4629  0.0000</r>
       <r>  10.4660  0.0000</r>
       <r>  11.0397  0.0000</r>
       <r>  11.0399  0.0000</r>
       <r>  11.0412  0.0000</r>
       <r>  11.0414  0.0000</r>
       <r>  11.0428  0.0000</r>
       <r>  11.0450  0.0000</r>
       <r>  11.7793  0.0000</r>
       <r>  11.7816  0.0000</r>
       <r>  11.7995  0.0000</r>
       <r>  11.8027  0.0000</r>
       <r>  11.9386  0.0000</r>
       <r>  11.9392  0.0000</r>
       <r>  12.5087  0.0000</r>
       <r>  12.5121  0.0000</r>
       <r>  12.7377  0.0000</r>
       <r>  12.7391  0.0000</r>
      </set>
      <set comment="kpoint 13">
       <r>  -2.1807  1.0000</r>
       <r>  -2.1807  1.0000</r>
       <r>   0.1923  1.0000</r>
       <r>   0.1972  1.0000</r>
       <r>   0.1977  1.0000</r>
       <r>   0.1977  1.0000</r>
       <r>   0.1977  1.0000</r>
       <r>   0.1977  1.0000</r>
       <r>   0.1983  1.0000</r>
       <r>   0.2032  1.0000</r>
       <r>   2.5234  1.0000</r>
       <r>   2.5248  1.0000</r>
       <r>   2.5283  1.0000</r>
       <r>   2.5286  1.0000</r>
       <r>   2.5305  1.0000</r>
       <r>   2.5306  1.0000</r>
       <r>   2.5312  1.0000</r>
       <r>   2.5316  1.0000</r>
       <r>   2.5332  1.0000</r>
       <r>   2.5351  1.0000</r>
       <r>   4.8058  1.0000</r>
       <r>   4.8064  1.0000</r>
       <r>   4.8093  1.0000</r>
       <r>   4.8093  1.0000</r>
       <r>   4.8093  1.0000</r>
       <r>   4.8093  1.0000</r>
       <r>   4.8121  1.0000</r>
       <r>   4.8127  1.0000</r>
       <r>   6.4138  1.0000</r>
       <r>   6.4138  1.0000</r>
       <r>   6.4138  1.0000</r>
       <r>   6.4138  1.0000</r>
       <r>   7.1170  1.0000</r>
       <r>   7.1187  1.0000</r>
       <r>   7.1188  1.0000</r>
       <r>   7.1189  1.0000</r>
       <r>   7.1214  1.0000</r>
       <r>   7.1215  1.0000</r>
       <r>   7.1216  1.0000</r>
       <r>   7.1233  1.0000</r>
       <r>   7.9377  1.0000</r>
       <r>   7.9377  1.0000</r>
       <r>   7.9377  1.0000</r>
       <r>   7.9377  1.0000</r>
       <r>   8.5982  1.0000</r>
       <r>   8.6030  1.0000</r>
       <r>   8.6035  1.0000</r>
       <r>   8.6035  1.0000</r>
       <r>   8.6035  1.0000</r>
       <r>   8.6035  1.0000</r>
       <r>   8.6040  1.0000</r>
       <r>   8.6087  1.0000</r>
       <r>  10.3392  0.0000</r>
       <r>  10.3430  0.0000</r>
       <r>  10.3436  0.0000</r>
       <r>  10.3436  0.0000</r>
       <r>  10.3436  0.0000</r>
       <r>  10.3436  0.0000</r>
       <r>  10.3442  0.0000</r>
       <r>  10.3480  0.0000</r>
       <r>  10.7984  0.0000</r>
       <r>  10.7984  0.0000</r>
       <r>  10.7984  0.0000</r>
       <r>  10.7984  0.0000</r>
       <r>  11.7511  0.0000</r>
       <r>  11.7511  0.0000</r>
       <r>  12.7382  0.0000</r>
       <r>  12.7382  0.0000</r>
       <r>  12.7382  0.0000</r>
       <r>  12.7382  0.0000</r>
       <r>  13.0063  0.0000</r>
       <r>  13.0079  0.0000</r>
      </set>
      <set comment="kpoint 14">
       <r>  -2.1141  1.0000</r>
       <r>  -2.1141  1.0000</r>
       <r>  -0.5242  1.0000</r>
       <r>  -0.5242  1.0000</r>
       <r>   0.2632  1.0000</r>
       <r>   0.2632  1.0000</r>
       <r>   0.2632  1.0000</r>
       <r>   0.2632  1.0000</r>
       <r>   1.0453  1.0000</r>
       <r>   1.0453  1.0000</r>
       <r>   1.8234  1.0000</r>
       <r>   1.8234  1.0000</r>
       <r>   1.8234  1.0000</r>
       <r>   1.8234  1.0000</r>
       <r>   2.5891  1.0000</r>
       <r>   2.5891  1.0000</r>
       <r>   3.3588  1.0000</r>
       <r>   3.3588  1.0000</r>
       <r>   3.3588  1.0000</r>
       <r>   3.3588  1.0000</r>
       <r>   4.1173  1.0000</r>
       <r>   4.1173  1.0000</r>
       <r>   4.8694  1.0000</r>
       <r>   4.8694  1.0000</r>
       <r>   4.8694  1.0000</r>
       <r>   4.8694  1.0000</r>
       <r>   5.5433  1.0000</r>
       <r>   5.5433  1.0000</r>
       <r>   5.6171  1.0000</r>
       <r>   5.6171  1.0000</r>
       <r>   6.4351  1.0000</r>
       <r>   6.4352  1.0000</r>
       <r>   6.4352  1.0000</r>
       <r>   6.4352  1.0000</r>
       <r>   6.4745  1.0000</r>
       <r>   6.4745  1.0000</r>
       <r>   7.8076  1.0000</r>
       <r>   7.8076  1.0000</r>
       <r>   7.8076  1.0000</r>
       <r>   7.8076  1.0000</r>
       <r>   7.9288  1.0000</r>
       <r>   7.9296  1.0000</r>
       <r>   7.9297  1.0000</r>
       <r>   7.9297  1.0000</r>
       <r>   7.9334  1.0000</r>
       <r>   7.9343  1.0000</r>
       <r>   7.9796  1.0000</r>
       <r>   7.9797  1.0000</r>
       <r>   8.9123  1.0000</r>
       <r>   8.9123  1.0000</r>
       <r>   9.3964  0.0000</r>
       <r>   9.3964  0.0000</r>
       <r>   9.6843  0.0000</r>
       <r>   9.6843  0.0000</r>
       <r>  10.0895  0.0000</r>
       <r>  10.0895  0.0000</r>
       <r>  10.8597  0.0000</r>
       <r>  10.8597  0.0000</r>
       <r>  11.0872  0.0000</r>
       <r>  11.0872  0.0000</r>
       <r>  11.2441  0.0000</r>
       <r>  11.2441  0.0000</r>
       <r>  11.2441  0.0000</r>
       <r>  11.2441  0.0000</r>
       <r>  11.8015  0.0000</r>
       <r>  11.8015  0.0000</r>
       <r>  12.2256  0.0000</r>
       <r>  12.2256  0.0000</r>
       <r>  12.2256  0.0000</r>
       <r>  12.2256  0.0000</r>
       <r>  12.3327  0.0000</r>
       <r>  12.3327  0.0000</r>
      </set>
      <set comment="kpoint 15">
       <r>  -1.9143  1.0000</r>
       <r>  -1.9143  1.0000</r>
       <r>  -1.1181  1.0000</r>
       <r>  -1.1181  1.0000</r>
       <r>   0.4593  1.0000</r>
       <r>   0.4593  1.0000</r>
       <r>   0.4593  1.0000</r>
       <r>   0.4593  1.0000</r>
       <r>   1.2408  1.0000</r>
       <r>   1.2408  1.0000</r>
       <r>   1.2408  1.0000</r>
       <r>   1.2408  1.0000</r>
       <r>   2.0148  1.0000</r>
       <r>   2.0149  1.0000</r>
       <r>   2.7813  1.0000</r>
       <r>   2.7813  1.0000</r>
       <r>   3.5469  1.0000</r>
       <r>   3.5469  1.0000</r>
       <r>   4.2917  1.0000</r>
       <r>   4.2917  1.0000</r>
       <r>   4.2938  1.0000</r>
       <r>   4.2938  1.0000</r>
       <r>   4.2938  1.0000</r>
       <r>   4.2939  1.0000</r>
       <r>   5.0421  1.0000</r>
       <r>   5.0421  1.0000</r>
       <r>   5.0421  1.0000</r>
       <r>   5.0421  1.0000</r>
       <r>   5.8866  1.0000</r>
       <r>   5.8866  1.0000</r>
       <r>   5.8866  1.0000</r>
       <r>   5.8866  1.0000</r>
       <r>   6.5270  1.0000</r>
       <r>   6.5270  1.0000</r>
       <r>   6.6131  1.0000</r>
       <r>   6.6133  1.0000</r>
       <r>   6.6133  1.0000</r>
       <r>   6.6133  1.0000</r>
       <r>   6.6566  1.0000</r>
       <r>   6.6567  1.0000</r>
       <r>   7.3857  1.0000</r>
       <r>   7.3857  1.0000</r>
       <r>   8.0194  1.0000</r>
       <r>   8.0194  1.0000</r>
       <r>   8.8586  1.0000</r>
       <r>   8.8587  1.0000</r>
       <r>   8.8587  1.0000</r>
       <r>   8.8587  1.0000</r>
       <r>   9.0756  0.0000</r>
       <r>   9.0756  0.0000</r>
       <r>   9.1475  0.0000</r>
       <r>   9.1475  0.0000</r>
       <r>  10.3123  0.0000</r>
       <r>  10.3123  0.0000</r>
       <r>  10.4645  0.0000</r>
       <r>  10.4645  0.0000</r>
       <r>  11.0398  0.0000</r>
       <r>  11.0400  0.0000</r>
       <r>  11.0406  0.0000</r>
       <r>  11.0406  0.0000</r>
       <r>  11.0445  0.0000</r>
       <r>  11.0447  0.0000</r>
       <r>  11.7805  0.0000</r>
       <r>  11.7805  0.0000</r>
       <r>  11.8011  0.0000</r>
       <r>  11.8011  0.0000</r>
       <r>  11.9389  0.0000</r>
       <r>  11.9389  0.0000</r>
       <r>  12.5104  0.0000</r>
       <r>  12.5104  0.0000</r>
       <r>  12.7385  0.0000</r>
       <r>  12.7385  0.0000</r>
      </set>
      <set comment="kpoint 16">
       <r>  -1.5846  1.0000</r>
       <r>  -1.5822  1.0000</r>
       <r>  -1.5816  1.0000</r>
       <r>  -1.5792  1.0000</r>
       <r>   0.7817  1.0000</r>
       <r>   0.7839  1.0000</r>
       <r>   0.7851  1.0000</r>
       <r>   0.7854  1.0000</r>
       <r>   0.7857  1.0000</r>
       <r>   0.7860  1.0000</r>
       <r>   0.7872  1.0000</r>
       <r>   0.7894  1.0000</r>
       <r>   3.0970  1.0000</r>
       <r>   3.0987  1.0000</r>
       <r>   3.1005  1.0000</r>
       <r>   3.1009  1.0000</r>
       <r>   3.1010  1.0000</r>
       <r>   3.1014  1.0000</r>
       <r>   3.1032  1.0000</r>
       <r>   3.1049  1.0000</r>
       <r>   5.1482  1.0000</r>
       <r>   5.1499  1.0000</r>
       <r>   5.1507  1.0000</r>
       <r>   5.1513  1.0000</r>
       <r>   5.1514  1.0000</r>
       <r>   5.1520  1.0000</r>
       <r>   5.1527  1.0000</r>
       <r>   5.1544  1.0000</r>
       <r>   5.6517  1.0000</r>
       <r>   5.6522  1.0000</r>
       <r>   5.6529  1.0000</r>
       <r>   5.6539  1.0000</r>
       <r>   5.6540  1.0000</r>
       <r>   5.6550  1.0000</r>
       <r>   5.6557  1.0000</r>
       <r>   5.6562  1.0000</r>
       <r>   6.9572  1.0000</r>
       <r>   6.9600  1.0000</r>
       <r>   6.9605  1.0000</r>
       <r>   6.9633  1.0000</r>
       <r>   7.4752  1.0000</r>
       <r>   7.4756  1.0000</r>
       <r>   7.4775  1.0000</r>
       <r>   7.4779  1.0000</r>
       <r>   8.7979  1.0000</r>
       <r>   8.7991  1.0000</r>
       <r>   8.8001  1.0000</r>
       <r>   8.8013  1.0000</r>
       <r>   9.8986  0.0000</r>
       <r>   9.8993  0.0000</r>
       <r>   9.8997  0.0000</r>
       <r>   9.8997  0.0000</r>
       <r>   9.9010  0.0000</r>
       <r>   9.9010  0.0000</r>
       <r>   9.9014  0.0000</r>
       <r>   9.9021  0.0000</r>
       <r>  11.3450  0.0000</r>
       <r>  11.3487  0.0000</r>
       <r>  11.3505  0.0000</r>
       <r>  11.3508  0.0000</r>
       <r>  11.3509  0.0000</r>
       <r>  11.3512  0.0000</r>
       <r>  11.3530  0.0000</r>
       <r>  11.3567  0.0000</r>
       <r>  12.0683  0.0000</r>
       <r>  12.0703  0.0000</r>
       <r>  12.0720  0.0000</r>
       <r>  12.0720  0.0000</r>
       <r>  12.0725  0.0000</r>
       <r>  12.0725  0.0000</r>
       <r>  12.0742  0.0000</r>
       <r>  12.0761  0.0000</r>
      </set>
      <set comment="kpoint 17">
       <r>  -2.6485  1.0000</r>
       <r>  -1.0520  1.0000</r>
       <r>  -1.0520  1.0000</r>
       <r>  -0.2630  1.0000</r>
       <r>  -0.2596  1.0000</r>
       <r>   0.5241  1.0000</r>
       <r>   0.5241  1.0000</r>
       <r>   0.5247  1.0000</r>
       <r>   1.3029  1.0000</r>
       <r>   1.3049  1.0000</r>
       <r>   1.3063  1.0000</r>
       <r>   1.3083  1.0000</r>
       <r>   2.0810  1.0000</r>
       <r>   2.0810  1.0000</r>
       <r>   2.8474  1.0000</r>
       <r>   2.8490  1.0000</r>
       <r>   2.8508  1.0000</r>
       <r>   2.8509  1.0000</r>
       <r>   2.8523  1.0000</r>
       <r>   2.8543  1.0000</r>
       <r>   3.6164  1.0000</r>
       <r>   4.1678  1.0000</r>
       <r>   4.1678  1.0000</r>
       <r>   4.6380  1.0000</r>
       <r>   4.6380  1.0000</r>
       <r>   5.0471  1.0000</r>
       <r>   5.0471  1.0000</r>
       <r>   5.9410  1.0000</r>
       <r>   5.9445  1.0000</r>
       <r>   5.9894  1.0000</r>
       <r>   6.5269  1.0000</r>
       <r>   6.5269  1.0000</r>
       <r>   7.0906  1.0000</r>
       <r>   7.0906  1.0000</r>
       <r>   7.4462  1.0000</r>
       <r>   7.4463  1.0000</r>
       <r>   7.4640  1.0000</r>
       <r>   7.4641  1.0000</r>
       <r>   7.5112  1.0000</r>
       <r>   7.9214  1.0000</r>
       <r>   7.9214  1.0000</r>
       <r>   8.4443  1.0000</r>
       <r>   8.4443  1.0000</r>
       <r>   8.7914  1.0000</r>
       <r>   8.7935  1.0000</r>
       <r>   8.7953  1.0000</r>
       <r>   8.7974  1.0000</r>
       <r>   8.9076  1.0000</r>
       <r>   8.9076  1.0000</r>
       <r>   8.9088  1.0000</r>
       <r>   9.1258  0.0000</r>
       <r>   9.1258  0.0000</r>
       <r>   9.6218  0.0000</r>
       <r>   9.6218  0.0000</r>
       <r>  10.2317  0.0000</r>
       <r>  10.2318  0.0000</r>
       <r>  10.2704  0.0000</r>
       <r>  10.2711  0.0000</r>
       <r>  10.2744  0.0000</r>
       <r>  10.2751  0.0000</r>
       <r>  10.3748  0.0000</r>
       <r>  10.3749  0.0000</r>
       <r>  10.7003  0.0000</r>
       <r>  11.2177  0.0000</r>
       <r>  11.2177  0.0000</r>
       <r>  11.4893  0.0000</r>
       <r>  11.4893  0.0000</r>
       <r>  11.7790  0.0000</r>
       <r>  11.7791  0.0000</r>
       <r>  11.8440  0.0000</r>
       <r>  12.1718  0.0000</r>
       <r>  12.1719  0.0000</r>
      </set>
      <set comment="kpoint 18">
       <r>  -2.5816  1.0000</r>
       <r>  -0.9876  1.0000</r>
       <r>  -0.9859  1.0000</r>
       <r>  -0.9841  1.0000</r>
       <r>   0.5860  1.0000</r>
       <r>   0.5891  1.0000</r>
       <r>   0.5893  1.0000</r>
       <r>   0.5901  1.0000</r>
       <r>   0.5902  1.0000</r>
       <r>   0.5933  1.0000</r>
       <r>   2.1420  1.0000</r>
       <r>   2.1442  1.0000</r>
       <r>   2.1449  1.0000</r>
       <r>   2.1454  1.0000</r>
       <r>   2.1460  1.0000</r>
       <r>   2.1466  1.0000</r>
       <r>   2.1489  1.0000</r>
       <r>   3.6639  1.0000</r>
       <r>   3.6645  1.0000</r>
       <r>   3.6651  1.0000</r>
       <r>   3.6777  1.0000</r>
       <r>   3.6794  1.0000</r>
       <r>   3.6812  1.0000</r>
       <r>   5.1086  1.0000</r>
       <r>   5.1092  1.0000</r>
       <r>   5.1097  1.0000</r>
       <r>   5.2634  1.0000</r>
       <r>   5.2640  1.0000</r>
       <r>   5.2646  1.0000</r>
       <r>   6.5767  1.0000</r>
       <r>   6.5782  1.0000</r>
       <r>   6.5796  1.0000</r>
       <r>   6.5796  1.0000</r>
       <r>   6.5811  1.0000</r>
       <r>   6.5826  1.0000</r>
       <r>   6.7555  1.0000</r>
       <r>   8.0797  1.0000</r>
       <r>   8.0801  1.0000</r>
       <r>   8.0817  1.0000</r>
       <r>   8.0817  1.0000</r>
       <r>   8.0833  1.0000</r>
       <r>   8.0837  1.0000</r>
       <r>   8.1148  1.0000</r>
       <r>   8.1166  1.0000</r>
       <r>   8.1184  1.0000</r>
       <r>   8.5026  1.0000</r>
       <r>   8.5033  1.0000</r>
       <r>   8.5039  1.0000</r>
       <r>   9.5920  0.0000</r>
       <r>   9.5930  0.0000</r>
       <r>   9.5942  0.0000</r>
       <r>   9.5942  0.0000</r>
       <r>   9.5954  0.0000</r>
       <r>   9.5963  0.0000</r>
       <r>   9.9579  0.0000</r>
       <r>   9.9593  0.0000</r>
       <r>   9.9604  0.0000</r>
       <r>   9.9604  0.0000</r>
       <r>   9.9615  0.0000</r>
       <r>   9.9629  0.0000</r>
       <r>  11.0709  0.0000</r>
       <r>  11.0720  0.0000</r>
       <r>  11.0731  0.0000</r>
       <r>  11.6041  0.0000</r>
       <r>  11.6052  0.0000</r>
       <r>  11.6062  0.0000</r>
       <r>  11.8867  0.0000</r>
       <r>  11.8869  0.0000</r>
       <r>  11.8881  0.0000</r>
       <r>  11.8881  0.0000</r>
       <r>  11.8894  0.0000</r>
       <r>  11.8896  0.0000</r>
      </set>
      <set comment="kpoint 19">
       <r>  -2.3810  1.0000</r>
       <r>  -1.5819  1.0000</r>
       <r>  -0.7878  1.0000</r>
       <r>  -0.7878  1.0000</r>
       <r>   0.0014  1.0000</r>
       <r>   0.0014  1.0000</r>
       <r>   0.7849  1.0000</r>
       <r>   0.7849  1.0000</r>
       <r>   0.7857  1.0000</r>
       <r>   1.5613  1.0000</r>
       <r>   1.5642  1.0000</r>
       <r>   1.5648  1.0000</r>
       <r>   1.5659  1.0000</r>
       <r>   2.3383  1.0000</r>
       <r>   2.3383  1.0000</r>
       <r>   3.1030  1.0000</r>
       <r>   3.1035  1.0000</r>
       <r>   3.1061  1.0000</r>
       <r>   3.1066  1.0000</r>
       <r>   3.8497  1.0000</r>
       <r>   3.8666  1.0000</r>
       <r>   4.4139  1.0000</r>
       <r>   4.6229  1.0000</r>
       <r>   4.6229  1.0000</r>
       <r>   4.8956  1.0000</r>
       <r>   5.2953  1.0000</r>
       <r>   5.2953  1.0000</r>
       <r>   5.3540  1.0000</r>
       <r>   5.3540  1.0000</r>
       <r>   6.0352  1.0000</r>
       <r>   6.0352  1.0000</r>
       <r>   6.1916  1.0000</r>
       <r>   6.1916  1.0000</r>
       <r>   6.6099  1.0000</r>
       <r>   6.6099  1.0000</r>
       <r>   6.9106  1.0000</r>
       <r>   7.0439  1.0000</r>
       <r>   7.0439  1.0000</r>
       <r>   7.5635  1.0000</r>
       <r>   7.5635  1.0000</r>
       <r>   7.6898  1.0000</r>
       <r>   8.2877  1.0000</r>
       <r>   8.2877  1.0000</r>
       <r>   8.3973  1.0000</r>
       <r>   8.3973  1.0000</r>
       <r>   8.6756  1.0000</r>
       <r>   8.6756  1.0000</r>
       <r>   8.8643  1.0000</r>
       <r>   8.8643  1.0000</r>
       <r>   9.0373  0.0001</r>
       <r>   9.0373  0.0001</r>
       <r>   9.6203  0.0000</r>
       <r>   9.6203  0.0000</r>
       <r>   9.8842  0.0000</r>
       <r>  10.0962  0.0000</r>
       <r>  10.2535  0.0000</r>
       <r>  10.2535  0.0000</r>
       <r>  10.5133  0.0000</r>
       <r>  10.5133  0.0000</r>
       <r>  11.0438  0.0000</r>
       <r>  11.0438  0.0000</r>
       <r>  11.2098  0.0000</r>
       <r>  11.2099  0.0000</r>
       <r>  11.2717  0.0000</r>
       <r>  11.2717  0.0000</r>
       <r>  11.9898  0.0000</r>
       <r>  11.9898  0.0000</r>
       <r>  12.3692  0.0000</r>
       <r>  12.3692  0.0000</r>
       <r>  12.4775  0.0000</r>
       <r>  12.4775  0.0000</r>
       <r>  12.6605  0.0000</r>
      </set>
      <set comment="kpoint 20">
       <r>  -2.0489  1.0000</r>
       <r>  -2.0459  1.0000</r>
       <r>  -0.4609  1.0000</r>
       <r>  -0.4589  1.0000</r>
       <r>  -0.4579  1.0000</r>
       <r>  -0.4558  1.0000</r>
       <r>   1.1075  1.0000</r>
       <r>   1.1097  1.0000</r>
       <r>   1.1098  1.0000</r>
       <r>   1.1107  1.0000</r>
       <r>   1.1120  1.0000</r>
       <r>   1.1134  1.0000</r>
       <r>   2.6518  1.0000</r>
       <r>   2.6534  1.0000</r>
       <r>   2.6574  1.0000</r>
       <r>   2.6577  1.0000</r>
       <r>   2.6600  1.0000</r>
       <r>   2.6611  1.0000</r>
       <r>   4.1675  1.0000</r>
       <r>   4.1706  1.0000</r>
       <r>   4.1793  1.0000</r>
       <r>   4.1793  1.0000</r>
       <r>   4.1803  1.0000</r>
       <r>   4.1805  1.0000</r>
       <r>   5.6029  1.0000</r>
       <r>   5.6032  1.0000</r>
       <r>   5.6061  1.0000</r>
       <r>   5.6064  1.0000</r>
       <r>   5.6663  1.0000</r>
       <r>   5.6664  1.0000</r>
       <r>   5.6673  1.0000</r>
       <r>   5.6674  1.0000</r>
       <r>   5.7605  1.0000</r>
       <r>   5.7616  1.0000</r>
       <r>   7.1416  1.0000</r>
       <r>   7.1437  1.0000</r>
       <r>   7.1446  1.0000</r>
       <r>   7.1469  1.0000</r>
       <r>   7.2428  1.0000</r>
       <r>   7.2434  1.0000</r>
       <r>   7.2440  1.0000</r>
       <r>   7.2447  1.0000</r>
       <r>   8.6003  1.0000</r>
       <r>   8.6010  1.0000</r>
       <r>   8.6036  1.0000</r>
       <r>   8.6043  1.0000</r>
       <r>   8.7372  1.0000</r>
       <r>   8.7385  1.0000</r>
       <r>   8.9281  1.0000</r>
       <r>   8.9288  1.0000</r>
       <r>   8.9309  1.0000</r>
       <r>   8.9318  1.0000</r>
       <r>  10.1793  0.0000</r>
       <r>  10.1799  0.0000</r>
       <r>  10.1808  0.0000</r>
       <r>  10.1814  0.0000</r>
       <r>  10.5942  0.0000</r>
       <r>  10.5952  0.0000</r>
       <r>  10.5973  0.0000</r>
       <r>  10.5983  0.0000</r>
       <r>  11.5460  0.0000</r>
       <r>  11.5466  0.0000</r>
       <r>  11.5478  0.0000</r>
       <r>  11.5483  0.0000</r>
       <r>  11.8316  0.0000</r>
       <r>  11.8322  0.0000</r>
       <r>  11.9477  0.0000</r>
       <r>  11.9500  0.0000</r>
       <r>  11.9511  0.0000</r>
       <r>  11.9534  0.0000</r>
       <r>  12.9884  0.0000</r>
       <r>  13.0127  0.0000</r>
      </set>
      <set comment="kpoint 21">
       <r>  -2.4478  1.0000</r>
       <r>  -1.6483  1.0000</r>
       <r>  -0.8538  1.0000</r>
       <r>  -0.0666  1.0000</r>
       <r>  -0.0643  1.0000</r>
       <r>  -0.0621  1.0000</r>
       <r>   0.7179  1.0000</r>
       <r>   0.7200  1.0000</r>
       <r>   0.7225  1.0000</r>
       <r>   1.4969  1.0000</r>
       <r>   1.4989  1.0000</r>
       <r>   1.4996  1.0000</r>
       <r>   1.5021  1.0000</r>
       <r>   2.2724  1.0000</r>
       <r>   2.2758  1.0000</r>
       <r>   3.0407  1.0000</r>
       <r>   3.0420  1.0000</r>
       <r>   3.0444  1.0000</r>
       <r>   3.7859  1.0000</r>
       <r>   3.7896  1.0000</r>
       <r>   3.7928  1.0000</r>
       <r>   3.8033  1.0000</r>
       <r>   3.8067  1.0000</r>
       <r>   4.5625  1.0000</r>
       <r>   5.2334  1.0000</r>
       <r>   5.2941  1.0000</r>
       <r>   5.3874  1.0000</r>
       <r>   5.3907  1.0000</r>
       <r>   5.9754  1.0000</r>
       <r>   6.0224  1.0000</r>
       <r>   6.0258  1.0000</r>
       <r>   6.1712  1.0000</r>
       <r>   6.7597  1.0000</r>
       <r>   6.8766  1.0000</r>
       <r>   6.8802  1.0000</r>
       <r>   6.8994  1.0000</r>
       <r>   7.5056  1.0000</r>
       <r>   7.5092  1.0000</r>
       <r>   7.5900  1.0000</r>
       <r>   7.5936  1.0000</r>
       <r>   7.6289  1.0000</r>
       <r>   7.6929  1.0000</r>
       <r>   8.2367  1.0000</r>
       <r>   8.2405  1.0000</r>
       <r>   8.2745  1.0000</r>
       <r>   8.3599  1.0000</r>
       <r>   8.6232  1.0000</r>
       <r>   9.0784  0.0000</r>
       <r>   9.0822  0.0000</r>
       <r>   9.0909  0.0000</r>
       <r>   9.1833  0.0000</r>
       <r>   9.2841  0.0000</r>
       <r>   9.3550  0.0000</r>
       <r>   9.8224  0.0000</r>
       <r>   9.8243  0.0000</r>
       <r>  10.0431  0.0000</r>
       <r>  10.1327  0.0000</r>
       <r>  10.5527  0.0000</r>
       <r>  10.8309  0.0000</r>
       <r>  10.8333  0.0000</r>
       <r>  11.1897  0.0000</r>
       <r>  11.1937  0.0000</r>
       <r>  11.2044  0.0000</r>
       <r>  11.2923  0.0000</r>
       <r>  11.5890  0.0000</r>
       <r>  11.7095  0.0000</r>
       <r>  11.7127  0.0000</r>
       <r>  11.8931  0.0000</r>
       <r>  12.0174  0.0000</r>
       <r>  12.0477  0.0000</r>
       <r>  12.6150  0.0000</r>
       <r>  12.6215  0.0000</r>
      </set>
      <set comment="kpoint 22">
       <r>  -2.3810  1.0000</r>
       <r>  -1.5819  1.0000</r>
       <r>  -0.7891  1.0000</r>
       <r>  -0.7866  1.0000</r>
       <r>   0.0001  1.0000</r>
       <r>   0.0026  1.0000</r>
       <r>   0.7832  1.0000</r>
       <r>   0.7853  1.0000</r>
       <r>   0.7871  1.0000</r>
       <r>   1.5620  1.0000</r>
       <r>   1.5631  1.0000</r>
       <r>   1.5646  1.0000</r>
       <r>   1.5665  1.0000</r>
       <r>   2.3379  1.0000</r>
       <r>   2.3388  1.0000</r>
       <r>   3.1034  1.0000</r>
       <r>   3.1042  1.0000</r>
       <r>   3.1047  1.0000</r>
       <r>   3.1070  1.0000</r>
       <r>   3.8497  1.0000</r>
       <r>   3.8666  1.0000</r>
       <r>   4.4139  1.0000</r>
       <r>   4.6216  1.0000</r>
       <r>   4.6242  1.0000</r>
       <r>   4.8956  1.0000</r>
       <r>   5.2949  1.0000</r>
       <r>   5.2957  1.0000</r>
       <r>   5.3526  1.0000</r>
       <r>   5.3553  1.0000</r>
       <r>   6.0348  1.0000</r>
       <r>   6.0356  1.0000</r>
       <r>   6.1912  1.0000</r>
       <r>   6.1921  1.0000</r>
       <r>   6.6087  1.0000</r>
       <r>   6.6112  1.0000</r>
       <r>   6.9106  1.0000</r>
       <r>   7.0426  1.0000</r>
       <r>   7.0453  1.0000</r>
       <r>   7.5622  1.0000</r>
       <r>   7.5648  1.0000</r>
       <r>   7.6898  1.0000</r>
       <r>   8.2870  1.0000</r>
       <r>   8.2885  1.0000</r>
       <r>   8.3968  1.0000</r>
       <r>   8.3978  1.0000</r>
       <r>   8.6751  1.0000</r>
       <r>   8.6761  1.0000</r>
       <r>   8.8635  1.0000</r>
       <r>   8.8651  1.0000</r>
       <r>   9.0365  0.0001</r>
       <r>   9.0380  0.0000</r>
       <r>   9.6203  0.0000</r>
       <r>   9.6204  0.0000</r>
       <r>   9.8842  0.0000</r>
       <r>  10.0962  0.0000</r>
       <r>  10.2527  0.0000</r>
       <r>  10.2544  0.0000</r>
       <r>  10.5120  0.0000</r>
       <r>  10.5146  0.0000</r>
       <r>  11.0430  0.0000</r>
       <r>  11.0445  0.0000</r>
       <r>  11.2084  0.0000</r>
       <r>  11.2113  0.0000</r>
       <r>  11.2714  0.0000</r>
       <r>  11.2721  0.0000</r>
       <r>  11.9891  0.0000</r>
       <r>  11.9905  0.0000</r>
       <r>  12.3683  0.0000</r>
       <r>  12.3701  0.0000</r>
       <r>  12.4761  0.0000</r>
       <r>  12.4788  0.0000</r>
       <r>  12.6534  0.0000</r>
      </set>
      <set comment="kpoint 23">
       <r>  -2.1808  1.0000</r>
       <r>  -1.3841  1.0000</r>
       <r>  -1.3817  1.0000</r>
       <r>  -0.5911  1.0000</r>
       <r>  -0.5890  1.0000</r>
       <r>   0.1967  1.0000</r>
       <r>   0.1992  1.0000</r>
       <r>   0.9800  1.0000</r>
       <r>   0.9813  1.0000</r>
       <r>   1.7546  1.0000</r>
       <r>   1.7571  1.0000</r>
       <r>   1.7578  1.0000</r>
       <r>   1.7603  1.0000</r>
       <r>   2.5285  1.0000</r>
       <r>   2.5296  1.0000</r>
       <r>   2.5314  1.0000</r>
       <r>   3.2949  1.0000</r>
       <r>   3.2974  1.0000</r>
       <r>   4.0385  1.0000</r>
       <r>   4.0394  1.0000</r>
       <r>   4.0416  1.0000</r>
       <r>   4.0425  1.0000</r>
       <r>   4.7926  1.0000</r>
       <r>   4.7950  1.0000</r>
       <r>   4.7952  1.0000</r>
       <r>   4.7977  1.0000</r>
       <r>   5.4806  1.0000</r>
       <r>   5.5254  1.0000</r>
       <r>   5.5262  1.0000</r>
       <r>   5.5458  1.0000</r>
       <r>   5.6407  1.0000</r>
       <r>   5.6416  1.0000</r>
       <r>   6.2075  1.0000</r>
       <r>   6.2103  1.0000</r>
       <r>   6.3642  1.0000</r>
       <r>   6.3667  1.0000</r>
       <r>   7.0219  1.0000</r>
       <r>   7.1010  1.0000</r>
       <r>   7.1019  1.0000</r>
       <r>   7.1249  1.0000</r>
       <r>   7.7850  1.0000</r>
       <r>   7.7867  1.0000</r>
       <r>   7.8361  1.0000</r>
       <r>   7.8387  1.0000</r>
       <r>   8.6208  1.0000</r>
       <r>   8.8051  1.0000</r>
       <r>   9.1834  0.0000</r>
       <r>   9.1862  0.0000</r>
       <r>   9.3213  0.0000</r>
       <r>   9.3227  0.0000</r>
       <r>   9.7516  0.0000</r>
       <r>   9.7535  0.0000</r>
       <r>   9.9544  0.0000</r>
       <r>   9.9558  0.0000</r>
       <r>  10.1566  0.0000</r>
       <r>  10.2345  0.0000</r>
       <r>  10.2359  0.0000</r>
       <r>  10.4896  0.0000</r>
       <r>  10.8053  0.0000</r>
       <r>  10.8067  0.0000</r>
       <r>  11.0067  0.0000</r>
       <r>  11.0087  0.0000</r>
       <r>  11.4889  0.0000</r>
       <r>  11.4899  0.0000</r>
       <r>  11.4972  0.0000</r>
       <r>  11.7490  0.0000</r>
       <r>  11.7495  0.0000</r>
       <r>  12.1138  0.0000</r>
       <r>  12.1167  0.0000</r>
       <r>  12.5912  0.0000</r>
       <r>  12.5926  0.0000</r>
       <r>  12.9166  0.0000</r>
      </set>
      <set comment="kpoint 24">
       <r>  -1.8492  1.0000</r>
       <r>  -1.8462  1.0000</r>
       <r>  -1.0535  1.0000</r>
       <r>  -1.0504  1.0000</r>
       <r>  -0.2627  1.0000</r>
       <r>  -0.2596  1.0000</r>
       <r>   0.5233  1.0000</r>
[...]
       <r>   8.0194  1.0000</r>
       <r>   8.8564  1.0000</r>
       <r>   8.8572  1.0000</r>
       <r>   8.8601  1.0000</r>
       <r>   8.8609  1.0000</r>
       <r>   9.0756  0.0000</r>
       <r>   9.0756  0.0000</r>
       <r>   9.1475  0.0000</r>
       <r>   9.1475  0.0000</r>
       <r>  10.3122  0.0000</r>
       <r>  10.3123  0.0000</r>
       <r>  10.4645  0.0000</r>
       <r>  10.4645  0.0000</r>
       <r>  11.0382  0.0000</r>
       <r>  11.0389  0.0000</r>
       <r>  11.0422  0.0000</r>
       <r>  11.0425  0.0000</r>
       <r>  11.0440  0.0000</r>
       <r>  11.0444  0.0000</r>
       <r>  11.7803  0.0000</r>
       <r>  11.7803  0.0000</r>
       <r>  11.8012  0.0000</r>
       <r>  11.8013  0.0000</r>
       <r>  11.9389  0.0000</r>
       <r>  11.9389  0.0000</r>
       <r>  12.5104  0.0000</r>
       <r>  12.5104  0.0000</r>
       <r>  12.7379  0.0000</r>
       <r>  12.7398  0.0000</r>
      </set>
      <set comment="kpoint 34">
       <r>  -1.8477  1.0000</r>
       <r>  -1.8477  1.0000</r>
       <r>  -1.0520  1.0000</r>
       <r>  -1.0520  1.0000</r>
       <r>  -0.2611  1.0000</r>
       <r>  -0.2611  1.0000</r>
       <r>   0.5248  1.0000</r>
       <r>   0.5249  1.0000</r>
       <r>   1.3050  1.0000</r>
       <r>   1.3050  1.0000</r>
       <r>   2.0787  1.0000</r>
       <r>   2.0793  1.0000</r>
       <r>   2.0808  1.0000</r>
       <r>   2.0814  1.0000</r>
       <r>   2.8453  1.0000</r>
       <r>   2.8453  1.0000</r>
       <r>   3.6099  1.0000</r>
       <r>   3.6102  1.0000</r>
       <r>   3.6114  1.0000</r>
       <r>   3.6117  1.0000</r>
       <r>   4.3545  1.0000</r>
       <r>   4.3546  1.0000</r>
       <r>   4.3658  1.0000</r>
       <r>   4.3658  1.0000</r>
       <r>   4.9056  1.0000</r>
       <r>   4.9056  1.0000</r>
       <r>   5.4036  1.0000</r>
       <r>   5.4036  1.0000</r>
       <r>   5.6413  1.0000</r>
       <r>   5.6413  1.0000</r>
       <r>   5.7876  1.0000</r>
       <r>   5.7876  1.0000</r>
       <r>   6.1419  1.0000</r>
       <r>   6.1419  1.0000</r>
       <r>   6.3658  1.0000</r>
       <r>   6.3658  1.0000</r>
       <r>   6.6839  1.0000</r>
       <r>   6.6839  1.0000</r>
       <r>   6.8130  1.0000</r>
       <r>   6.8131  1.0000</r>
       <r>   7.4030  1.0000</r>
       <r>   7.4030  1.0000</r>
       <r>   8.1738  1.0000</r>
       <r>   8.1738  1.0000</r>
       <r>   8.6445  1.0000</r>
       <r>   8.6445  1.0000</r>
       <r>   9.4937  0.0000</r>
       <r>   9.4940  0.0000</r>
       <r>   9.5156  0.0000</r>
       <r>   9.5159  0.0000</r>
       <r>   9.6644  0.0000</r>
       <r>   9.6644  0.0000</r>
       <r>  10.0562  0.0000</r>
       <r>  10.0563  0.0000</r>
       <r>  10.0933  0.0000</r>
       <r>  10.0934  0.0000</r>
       <r>  10.3597  0.0000</r>
       <r>  10.3597  0.0000</r>
       <r>  10.7768  0.0000</r>
       <r>  10.7768  0.0000</r>
       <r>  10.9862  0.0000</r>
       <r>  10.9862  0.0000</r>
       <r>  11.5682  0.0000</r>
       <r>  11.5682  0.0000</r>
       <r>  11.8401  0.0000</r>
       <r>  11.8401  0.0000</r>
       <r>  12.1374  0.0000</r>
       <r>  12.1374  0.0000</r>
       <r>  12.2146  0.0000</r>
       <r>  12.2146  0.0000</r>
       <r>  12.4491  0.0000</r>
       <r>  12.4491  0.0000</r>
      </set>
      <set comment="kpoint 35">
       <r>  -1.6483  1.0000</r>
       <r>  -1.6483  1.0000</r>
       <r>  -0.8561  1.0000</r>
       <r>  -0.8540  1.0000</r>
       <r>  -0.8536  1.0000</r>
       <r>  -0.8515  1.0000</r>
       <r>  -0.0641  1.0000</r>
       <r>  -0.0641  1.0000</r>
       <r>   2.2701  1.0000</r>
       <r>   2.2722  1.0000</r>
       <r>   2.2726  1.0000</r>
       <r>   2.2747  1.0000</r>
       <r>   3.0360  1.0000</r>
       <r>   3.0368  1.0000</r>
       <r>   3.0405  1.0000</r>
       <r>   3.0407  1.0000</r>
       <r>   3.0411  1.0000</r>
       <r>   3.0421  1.0000</r>
       <r>   3.7983  1.0000</r>
       <r>   3.7984  1.0000</r>
       <r>   3.8009  1.0000</r>
       <r>   3.8010  1.0000</r>
       <r>   4.5387  1.0000</r>
       <r>   4.5397  1.0000</r>
       <r>   4.5421  1.0000</r>
       <r>   4.5423  1.0000</r>
       <r>   4.5426  1.0000</r>
       <r>   4.5437  1.0000</r>
       <r>   5.2736  1.0000</r>
       <r>   5.2756  1.0000</r>
       <r>   5.2761  1.0000</r>
       <r>   5.2781  1.0000</r>
       <r>   6.1407  1.0000</r>
       <r>   6.1407  1.0000</r>
       <r>   6.8728  1.0000</r>
       <r>   6.8728  1.0000</r>
       <r>   6.8754  1.0000</r>
       <r>   6.8755  1.0000</r>
       <r>   7.6112  1.0000</r>
       <r>   7.6122  1.0000</r>
       <r>   7.6122  1.0000</r>
       <r>   7.6132  1.0000</r>
       <r>   8.3212  1.0000</r>
       <r>   8.3222  1.0000</r>
       <r>   8.3226  1.0000</r>
       <r>   8.3237  1.0000</r>
       <r>   9.0109  0.4677</r>
       <r>   9.0116  0.4288</r>
       <r>   9.0121  0.3992</r>
       <r>   9.0128  0.3619</r>
       <r>   9.7967  0.0000</r>
       <r>   9.7968  0.0000</r>
       <r>   9.7994  0.0000</r>
       <r>   9.7995  0.0000</r>
       <r>  10.4726  0.0000</r>
       <r>  10.4726  0.0000</r>
       <r>  10.5877  0.0000</r>
       <r>  10.5877  0.0000</r>
       <r>  10.8940  0.0000</r>
       <r>  10.8942  0.0000</r>
       <r>  10.8946  0.0000</r>
       <r>  10.8947  0.0000</r>
       <r>  11.6074  0.0000</r>
       <r>  11.6085  0.0000</r>
       <r>  11.6089  0.0000</r>
       <r>  11.6100  0.0000</r>
       <r>  12.3291  0.0000</r>
       <r>  12.3291  0.0000</r>
       <r>  12.7548  0.0000</r>
       <r>  12.7556  0.0000</r>
       <r>  12.7562  0.0000</r>
       <r>  12.7570  0.0000</r>
      </set>
      <set comment="kpoint 36">
       <r>  -1.3194  1.0000</r>
       <r>  -1.3169  1.0000</r>
       <r>  -1.3164  1.0000</r>
       <r>  -1.3139  1.0000</r>
       <r>  -0.5269  1.0000</r>
       <r>  -0.5245  1.0000</r>
       <r>  -0.5239  1.0000</r>
       <r>  -0.5214  1.0000</r>
       <r>   2.5906  1.0000</r>
       <r>   2.5931  1.0000</r>
       <r>   2.5937  1.0000</r>
       <r>   2.5962  1.0000</r>
       <r>   3.3517  1.0000</r>
       <r>   3.3534  1.0000</r>
       <r>   3.3552  1.0000</r>
       <r>   3.3556  1.0000</r>
       <r>   3.3557  1.0000</r>
       <r>   3.3561  1.0000</r>
       <r>   3.3579  1.0000</r>
       <r>   3.3596  1.0000</r>
       <r>   4.1089  1.0000</r>
       <r>   4.1107  1.0000</r>
       <r>   4.1125  1.0000</r>
       <r>   4.1129  1.0000</r>
       <r>   4.1129  1.0000</r>
       <r>   4.1134  1.0000</r>
       <r>   4.1152  1.0000</r>
       <r>   4.1169  1.0000</r>
       <r>   4.8499  1.0000</r>
       <r>   4.8525  1.0000</r>
       <r>   4.8530  1.0000</r>
       <r>   4.8557  1.0000</r>
       <r>   7.1725  1.0000</r>
       <r>   7.1740  1.0000</r>
       <r>   7.1762  1.0000</r>
       <r>   7.1765  1.0000</r>
       <r>   7.1765  1.0000</r>
       <r>   7.1769  1.0000</r>
       <r>   7.1790  1.0000</r>
       <r>   7.1806  1.0000</r>
       <r>   7.8941  1.0000</r>
       <r>   7.8953  1.0000</r>
       <r>   7.8956  1.0000</r>
       <r>   7.8967  1.0000</r>
       <r>   8.6544  1.0000</r>
       <r>   8.6557  1.0000</r>
       <r>   8.6558  1.0000</r>
       <r>   8.6571  1.0000</r>
       <r>   9.3491  0.0000</r>
       <r>   9.3512  0.0000</r>
       <r>   9.3533  0.0000</r>
       <r>   9.3536  0.0000</r>
       <r>   9.3536  0.0000</r>
       <r>   9.3539  0.0000</r>
       <r>   9.3560  0.0000</r>
       <r>   9.3582  0.0000</r>
       <r>  11.1866  0.0000</r>
       <r>  11.1888  0.0000</r>
       <r>  11.1897  0.0000</r>
       <r>  11.1919  0.0000</r>
       <r>  11.6213  0.0000</r>
       <r>  11.6227  0.0000</r>
       <r>  11.6228  0.0000</r>
       <r>  11.6242  0.0000</r>
       <r>  12.6019  0.0000</r>
       <r>  12.6029  0.0000</r>
       <r>  12.6030  0.0000</r>
       <r>  12.6043  0.0000</r>
       <r>  12.6046  0.0000</r>
       <r>  12.6059  0.0000</r>
       <r>  12.6060  0.0000</r>
       <r>  12.6071  0.0000</r>
      </set>
      <set comment="kpoint 37">
       <r>  -1.5819  1.0000</r>
       <r>  -1.5819  1.0000</r>
       <r>  -1.5819  1.0000</r>
       <r>  -1.5819  1.0000</r>
       <r>   0.7803  1.0000</r>
       <r>   0.7848  1.0000</r>
       <r>   0.7848  1.0000</r>
       <r>   0.7854  1.0000</r>
       <r>   0.7857  1.0000</r>
       <r>   0.7862  1.0000</r>
       <r>   0.7862  1.0000</r>
       <r>   0.7908  1.0000</r>
       <r>   3.1009  1.0000</r>
       <r>   3.1009  1.0000</r>
       <r>   3.1010  1.0000</r>
       <r>   3.1010  1.0000</r>
       <r>   3.1010  1.0000</r>
       <r>   3.1010  1.0000</r>
       <r>   3.1010  1.0000</r>
       <r>   3.1010  1.0000</r>
       <r>   5.1497  1.0000</r>
       <r>   5.1497  1.0000</r>
       <r>   5.1513  1.0000</r>
       <r>   5.1513  1.0000</r>
       <r>   5.1513  1.0000</r>
       <r>   5.1513  1.0000</r>
       <r>   5.1529  1.0000</r>
       <r>   5.1529  1.0000</r>
       <r>   5.6521  1.0000</r>
       <r>   5.6521  1.0000</r>
       <r>   5.6539  1.0000</r>
       <r>   5.6539  1.0000</r>
       <r>   5.6540  1.0000</r>
       <r>   5.6540  1.0000</r>
       <r>   5.6559  1.0000</r>
       <r>   5.6559  1.0000</r>
       <r>   6.9602  1.0000</r>
       <r>   6.9602  1.0000</r>
       <r>   6.9602  1.0000</r>
       <r>   6.9603  1.0000</r>
       <r>   7.4765  1.0000</r>
       <r>   7.4765  1.0000</r>
       <r>   7.4765  1.0000</r>
       <r>   7.4765  1.0000</r>
       <r>   8.7996  1.0000</r>
       <r>   8.7996  1.0000</r>
       <r>   8.7996  1.0000</r>
       <r>   8.7996  1.0000</r>
       <r>   9.8980  0.0000</r>
       <r>   9.8980  0.0000</r>
       <r>   9.8982  0.0000</r>
       <r>   9.8997  0.0000</r>
       <r>   9.9011  0.0000</r>
       <r>   9.9025  0.0000</r>
       <r>   9.9028  0.0000</r>
       <r>   9.9028  0.0000</r>
       <r>  11.3508  0.0000</r>
       <r>  11.3508  0.0000</r>
       <r>  11.3508  0.0000</r>
       <r>  11.3508  0.0000</r>
       <r>  11.3508  0.0000</r>
       <r>  11.3508  0.0000</r>
       <r>  11.3509  0.0000</r>
       <r>  11.3509  0.0000</r>
       <r>  12.0722  0.0000</r>
       <r>  12.0722  0.0000</r>
       <r>  12.0722  0.0000</r>
       <r>  12.0723  0.0000</r>
       <r>  12.0723  0.0000</r>
       <r>  12.0723  0.0000</r>
       <r>  12.0723  0.0000</r>
       <r>  12.0723  0.0000</r>
      </set>
      <set comment="kpoint 38">
       <r>  -1.5156  1.0000</r>
       <r>  -1.5155  1.0000</r>
       <r>  -1.5155  1.0000</r>
       <r>  -1.5155  1.0000</r>
       <r>   0.0669  1.0000</r>
       <r>   0.0669  1.0000</r>
       <r>   0.0669  1.0000</r>
       <r>   0.0670  1.0000</r>
       <r>   1.6289  1.0000</r>
       <r>   1.6289  1.0000</r>
       <r>   1.6290  1.0000</r>
       <r>   1.6290  1.0000</r>
       <r>   3.1647  1.0000</r>
       <r>   3.1647  1.0000</r>
       <r>   3.1647  1.0000</r>
       <r>   3.1647  1.0000</r>
       <r>   3.1647  1.0000</r>
       <r>   3.1647  1.0000</r>
       <r>   3.1647  1.0000</r>
       <r>   3.1647  1.0000</r>
       <r>   4.6652  1.0000</r>
       <r>   4.6652  1.0000</r>
       <r>   4.6656  1.0000</r>
       <r>   4.6656  1.0000</r>
       <r>   4.6656  1.0000</r>
       <r>   4.6657  1.0000</r>
       <r>   4.6660  1.0000</r>
       <r>   4.6660  1.0000</r>
       <r>   6.0851  1.0000</r>
       <r>   6.0851  1.0000</r>
       <r>   6.0851  1.0000</r>
       <r>   6.0851  1.0000</r>
       <r>   6.2603  1.0000</r>
       <r>   6.2603  1.0000</r>
       <r>   6.2610  1.0000</r>
       <r>   6.2610  1.0000</r>
       <r>   6.2610  1.0000</r>
       <r>   6.2611  1.0000</r>
       <r>   6.2618  1.0000</r>
       <r>   6.2618  1.0000</r>
       <r>   7.6759  1.0000</r>
       <r>   7.6759  1.0000</r>
       <r>   7.6759  1.0000</r>
       <r>   7.6759  1.0000</r>
       <r>   9.2174  0.0000</r>
       <r>   9.2174  0.0000</r>
       <r>   9.2174  0.0000</r>
       <r>   9.2174  0.0000</r>
       <r>   9.6508  0.0000</r>
       <r>   9.6508  0.0000</r>
       <r>   9.6508  0.0000</r>
       <r>   9.6508  0.0000</r>
       <r>  10.5334  0.0000</r>
       <r>  10.5334  0.0000</r>
       <r>  10.5342  0.0000</r>
       <r>  10.5342  0.0000</r>
       <r>  10.5342  0.0000</r>
       <r>  10.5342  0.0000</r>
       <r>  10.5349  0.0000</r>
       <r>  10.5349  0.0000</r>
       <r>  10.7032  0.0000</r>
       <r>  10.7032  0.0000</r>
       <r>  10.7032  0.0000</r>
       <r>  10.7032  0.0000</r>
       <r>  12.3484  0.0000</r>
       <r>  12.3484  0.0000</r>
       <r>  12.3497  0.0000</r>
       <r>  12.3497  0.0000</r>
       <r>  12.3497  0.0000</r>
       <r>  12.3497  0.0000</r>
       <r>  12.3510  0.0000</r>
       <r>  12.3510  0.0000</r>
      </set>
      <set comment="kpoint 39">
       <r>  -1.3167  1.0000</r>
       <r>  -1.3167  1.0000</r>
       <r>  -1.3167  1.0000</r>
       <r>  -1.3166  1.0000</r>
       <r>  -0.5242  1.0000</r>
       <r>  -0.5242  1.0000</r>
       <r>  -0.5242  1.0000</r>
       <r>  -0.5241  1.0000</r>
       <r>   2.5934  1.0000</r>
       <r>   2.5934  1.0000</r>
       <r>   2.5934  1.0000</r>
       <r>   2.5934  1.0000</r>
       <r>   3.3556  1.0000</r>
       <r>   3.3556  1.0000</r>
       <r>   3.3556  1.0000</r>
       <r>   3.3556  1.0000</r>
       <r>   3.3556  1.0000</r>
       <r>   3.3557  1.0000</r>
       <r>   3.3557  1.0000</r>
       <r>   3.3557  1.0000</r>
       <r>   4.1128  1.0000</r>
       <r>   4.1128  1.0000</r>
       <r>   4.1129  1.0000</r>
       <r>   4.1129  1.0000</r>
       <r>   4.1129  1.0000</r>
       <r>   4.1130  1.0000</r>
       <r>   4.1131  1.0000</r>
       <r>   4.1131  1.0000</r>
       <r>   4.8528  1.0000</r>
       <r>   4.8528  1.0000</r>
       <r>   4.8528  1.0000</r>
       <r>   4.8528  1.0000</r>
       <r>   7.1760  1.0000</r>
       <r>   7.1760  1.0000</r>
       <r>   7.1765  1.0000</r>
       <r>   7.1765  1.0000</r>
       <r>   7.1765  1.0000</r>
       <r>   7.1765  1.0000</r>
       <r>   7.1770  1.0000</r>
       <r>   7.1770  1.0000</r>
       <r>   7.8954  1.0000</r>
       <r>   7.8954  1.0000</r>
       <r>   7.8954  1.0000</r>
       <r>   7.8954  1.0000</r>
       <r>   8.6557  1.0000</r>
       <r>   8.6557  1.0000</r>
       <r>   8.6557  1.0000</r>
       <r>   8.6557  1.0000</r>
       <r>   9.3530  0.0000</r>
       <r>   9.3530  0.0000</r>
       <r>   9.3536  0.0000</r>
       <r>   9.3536  0.0000</r>
       <r>   9.3536  0.0000</r>
       <r>   9.3536  0.0000</r>
       <r>   9.3542  0.0000</r>
       <r>   9.3542  0.0000</r>
       <r>  11.1892  0.0000</r>
       <r>  11.1892  0.0000</r>
       <r>  11.1892  0.0000</r>
       <r>  11.1892  0.0000</r>
       <r>  11.6228  0.0000</r>
       <r>  11.6228  0.0000</r>
       <r>  11.6228  0.0000</r>
       <r>  11.6228  0.0000</r>
       <r>  12.6035  0.0000</r>
       <r>  12.6035  0.0000</r>
       <r>  12.6045  0.0000</r>
       <r>  12.6045  0.0000</r>
       <r>  12.6045  0.0000</r>
       <r>  12.6045  0.0000</r>
       <r>  12.6054  0.0000</r>
       <r>  12.6054  0.0000</r>
      </set>
      <set comment="kpoint 40">
       <r>  -0.9909  1.0000</r>
       <r>  -0.9863  1.0000</r>
       <r>  -0.9863  1.0000</r>
       <r>  -0.9860  1.0000</r>
       <r>  -0.9858  1.0000</r>
       <r>  -0.9854  1.0000</r>
       <r>  -0.9854  1.0000</r>
       <r>  -0.9809  1.0000</r>
       <r>   3.6623  1.0000</r>
       <r>   3.6683  1.0000</r>
       <r>   3.6683  1.0000</r>
       <r>   3.6717  1.0000</r>
       <r>   3.6720  1.0000</r>
       <r>   3.6721  1.0000</r>
       <r>   3.6725  1.0000</r>
       <r>   3.6725  1.0000</r>
       <r>   3.6726  1.0000</r>
       <r>   3.6726  1.0000</r>
       <r>   3.6726  1.0000</r>
       <r>   3.6726  1.0000</r>
       <r>   3.6727  1.0000</r>
       <r>   3.6727  1.0000</r>
       <r>   3.6727  1.0000</r>
       <r>   3.6727  1.0000</r>
       <r>   3.6727  1.0000</r>
       <r>   3.6728  1.0000</r>
       <r>   3.6731  1.0000</r>
       <r>   3.6733  1.0000</r>
       <r>   3.6736  1.0000</r>
       <r>   3.6770  1.0000</r>
       <r>   3.6770  1.0000</r>
       <r>   3.6830  1.0000</r>
       <r>   8.2095  1.0000</r>
       <r>   8.2095  1.0000</r>
       <r>   8.2119  1.0000</r>
       <r>   8.2133  1.0000</r>
       <r>   8.2151  1.0000</r>
       <r>   8.2155  1.0000</r>
       <r>   8.2156  1.0000</r>
       <r>   8.2156  1.0000</r>
       <r>   8.2158  1.0000</r>
       <r>   8.2159  1.0000</r>
       <r>   8.2159  1.0000</r>
       <r>   8.2159  1.0000</r>
       <r>   8.2159  1.0000</r>
       <r>   8.2159  1.0000</r>
       <r>   8.2159  1.0000</r>
       <r>   8.2159  1.0000</r>
       <r>   8.2162  1.0000</r>
       <r>   8.2162  1.0000</r>
       <r>   8.2163  1.0000</r>
       <r>   8.2167  1.0000</r>
       <r>   8.2184  1.0000</r>
       <r>   8.2199  1.0000</r>
       <r>   8.2222  1.0000</r>
       <r>   8.2222  1.0000</r>
       <r>  12.6519  0.0000</r>
       <r>  12.6524  0.0000</r>
       <r>  12.6524  0.0000</r>
       <r>  12.6526  0.0000</r>
       <r>  12.6545  0.0000</r>
       <r>  12.6548  0.0000</r>
       <r>  12.6548  0.0000</r>
       <r>  12.6554  0.0000</r>
       <r>  12.9191  0.0000</r>
       <r>  12.9198  0.0000</r>
       <r>  12.9208  0.0000</r>
       <r>  12.9216  0.0000</r>
       <r>  12.9219  0.0000</r>
       <r>  12.9222  0.0000</r>
       <r>  12.9230  0.0000</r>
       <r>  12.9237  0.0000</r>
      </set>
     </set>
    </set>
   </array>
  </eigenvalues>
 </calculation>
 <structure name="finalpos" >
  <crystal>
   <varray name="basis" >
    <v>       7.83216781      0.00000000      0.00000000</v>
    <v>       0.00000000      7.83216781      0.00000000</v>
    <v>       0.00000000      0.00000000      7.83216781</v>
   </varray>
   <i name="volume">    480.44751480</i>
   <varray name="rec_basis" >
    <v>       0.12767857      0.00000000      0.00000000</v>
    <v>       0.00000000      0.12767857      0.00000000</v>
    <v>       0.00000000      0.00000000      0.12767857</v>
   </varray>
  </crystal>
  <varray name="positions" >
   <v>       0.25127679      0.25000000      0.00000000</v>
   <v>       0.75000000      0.25000000      0.00000000</v>
   <v>       0.25000000      0.75000000      0.00000000</v>
   <v>       0.75000000      0.75000000      0.00000000</v>
   <v>       0.25000000      0.25000000      0.50000000</v>
   <v>       0.75000000      0.25000000      0.50000000</v>
   <v>       0.25000000      0.75000000      0.50000000</v>
   <v>       0.75000000      0.75000000      0.50000000</v>
   <v>       0.25000000      0.00000000      0.25000000</v>
   <v>       0.75000000      0.00000000      0.25000000</v>
   <v>       0.25000000      0.50000000      0.25000000</v>
   <v>       0.75000000      0.50000000      0.25000000</v>
   <v>       0.25000000      0.00000000      0.75000000</v>
   <v>       0.75000000      0.00000000      0.75000000</v>
   <v>       0.25000000      0.50000000      0.75000000</v>
   <v>       0.75000000      0.50000000      0.75000000</v>
   <v>       0.00000000      0.25000000      0.25000000</v>
   <v>       0.50000000      0.25000000      0.25000000</v>
   <v>       0.00000000      0.75000000      0.25000000</v>
   <v>       0.50000000      0.75000000      0.25000000</v>
   <v>       0.00000000      0.25000000      0.75000000</v>
   <v>       0.50000000      0.25000000      0.75000000</v>
   <v>       0.00000000      0.75000000      0.75000000</v>
   <v>       0.50000000      0.75000000      0.75000000</v>
   <v>       0.00000000      0.00000000      0.00000000</v>
   <v>       0.50000000      0.00000000      0.00000000</v>
   <v>       0.00000000      0.50000000      0.00000000</v>
   <v>       0.50000000      0.50000000      0.00000000</v>
   <v>       0.00000000      0.00000000      0.50000000</v>
   <v>       0.50000000      0.00000000      0.50000000</v>
   <v>       0.00000000      0.50000000      0.50000000</v>
   <v>       0.50000000      0.50000000      0.50000000</v>
  </varray>
 </structure>
</modeling>
