  32  32   0   0
  0.1904358E+02  0.8478120E-09  0.8478120E-09  0.8478120E-09  0.5000000E-15
  1.000000000000000E-004
  CAR 
 unknown system                          
     10.91814094     -4.28925876  301      6.60234814      1.00000000
     -4.289  0.0000E+00  0.0000E+00
     -4.239  0.0000E+00  0.0000E+00
     -4.188  0.0000E+00  0.0000E+00
     -4.137  0.0000E+00  0.0000E+00
     -4.086  0.0000E+00  0.0000E+00
     -4.036  0.0000E+00  0.0000E+00
     -3.985  0.0000E+00  0.0000E+00
     -3.934  0.0000E+00  0.0000E+00
     -3.884  0.0000E+00  0.0000E+00
     -3.833  0.0000E+00  0.0000E+00
     -3.782  0.0000E+00  0.0000E+00
     -3.732  0.0000E+00  0.0000E+00
     -3.681  0.0000E+00  0.0000E+00
     -3.630  0.4628E-06  0.2346E-07
     -3.580  0.1818E+00  0.9217E-02
     -3.529  0.1047E+01  0.6227E-01
     -3.478  0.1758E+01  0.1514E+00
     -3.428  0.1131E+01  0.2087E+00
     -3.377  0.9741E+00  0.2581E+00
     -3.326  0.1045E+01  0.3111E+00
     -3.275  0.4284E+01  0.5282E+00
     -3.225  0.4375E+01  0.7500E+00
     -3.174  0.3334E-05  0.7500E+00
     -3.123  0.2178E+01  0.8604E+00
     -3.073  0.5194E+01  0.1124E+01
     -3.022  0.3625E+01  0.1307E+01
     -2.971  0.2934E+01  0.1456E+01
     -2.921  0.2717E+01  0.1594E+01
     -2.870  0.1366E+01  0.1663E+01
     -2.819  0.4291E+01  0.1881E+01
     -2.769  0.8746E+01  0.2324E+01
     -2.718  0.2309E-05  0.2324E+01
     -2.667  0.1090E+01  0.2379E+01
     -2.616  0.8382E+01  0.2804E+01
     -2.566  0.5622E+01  0.3089E+01
     -2.515  0.3487E+01  0.3266E+01
     -2.464  0.3055E+01  0.3421E+01
     -2.414  0.3923E+01  0.3620E+01
     -2.363  0.8438E+01  0.4047E+01
     -2.312  0.4361E+01  0.4269E+01
     -2.262  0.4422E-04  0.4269E+01
     -2.211  0.4373E+01  0.4490E+01
     -2.160  0.5359E+01  0.4762E+01
     -2.110  0.1158E+02  0.5349E+01
     -2.059  0.5271E+01  0.5616E+01
     -2.008  0.2274E+01  0.5731E+01
     -1.957  0.1141E+01  0.5789E+01
     -1.907  0.1213E+02  0.6404E+01
     -1.856  0.8650E+01  0.6843E+01
     -1.805  0.1127E-03  0.6843E+01
     -1.755  0.2191E+01  0.6954E+01
     -1.704  0.8704E+01  0.7395E+01
     -1.653  0.8369E+01  0.7819E+01
     -1.603  0.7344E+01  0.8191E+01
     -1.552  0.4616E+01  0.8425E+01
     -1.501  0.3634E+01  0.8610E+01
     -1.451  0.4172E+01  0.8821E+01
     -1.400  0.1248E+02  0.9454E+01
     -1.349  0.2940E-02  0.9454E+01
     -1.298  0.4381E+01  0.9676E+01
     -1.248  0.1752E+02  0.1056E+02
     -1.197  0.8689E+01  0.1100E+02
     -1.146  0.4184E+01  0.1122E+02
     -1.096  0.3606E+01  0.1140E+02
     -1.045  0.7206E+01  0.1176E+02
     -0.994  0.8694E+01  0.1221E+02
     -0.944  0.7095E+01  0.1256E+02
     -0.893  0.1150E-01  0.1257E+02
     -0.842  0.1457E+01  0.1264E+02
     -0.792  0.9856E+01  0.1314E+02
     -0.741  0.1533E+02  0.1392E+02
     -0.690  0.8682E+01  0.1436E+02
     -0.639  0.4217E+01  0.1457E+02
     -0.589  0.1064E+02  0.1511E+02
     -0.538  0.1195E+02  0.1571E+02
     -0.487  0.8363E+01  0.1614E+02
     -0.437  0.6629E+00  0.1617E+02
     -0.386  0.8227E+01  0.1659E+02
     -0.335  0.8652E+01  0.1703E+02
     -0.285  0.4379E+01  0.1725E+02
     -0.234  0.1314E+02  0.1792E+02
     -0.183  0.5714E-02  0.1792E+02
     -0.133  0.1277E+02  0.1856E+02
     -0.082  0.1575E+02  0.1936E+02
     -0.031  0.2172E+01  0.1947E+02
      0.020  0.4361E+00  0.1949E+02
      0.070  0.3379E+01  0.1967E+02
      0.121  0.1556E+02  0.2045E+02
      0.172  0.1682E+02  0.2131E+02
      0.222  0.4360E+01  0.2153E+02
      0.273  0.8761E+01  0.2197E+02
      0.324  0.1752E+02  0.2286E+02
      0.374  0.8720E+01  0.2330E+02
      0.425  0.6153E-01  0.2331E+02
      0.476  0.5586E+01  0.2359E+02
      0.526  0.6505E+01  0.2392E+02
      0.577  0.1118E+02  0.2449E+02
      0.628  0.1544E+02  0.2527E+02
      0.678  0.8938E+01  0.2572E+02
      0.729  0.4366E+01  0.2594E+02
      0.780  0.1740E+02  0.2682E+02
      0.831  0.8761E+01  0.2727E+02
      0.881  0.3629E-03  0.2727E+02
      0.932  0.4364E+01  0.2749E+02
      0.983  0.1811E+02  0.2841E+02
      1.033  0.8566E+01  0.2884E+02
      1.084  0.1033E+02  0.2937E+02
      1.135  0.7544E+01  0.2975E+02
      1.185  0.6898E+01  0.3010E+02
      1.236  0.8559E+01  0.3053E+02
      1.287  0.2002E+02  0.3155E+02
      1.337  0.1332E-01  0.3155E+02
      1.388  0.4380E+01  0.3177E+02
      1.439  0.2629E+02  0.3310E+02
      1.490  0.2189E+02  0.3421E+02
      1.540  0.8750E+01  0.3465E+02
      1.591  0.4779E-01  0.3466E+02
      1.642  0.7347E+01  0.3503E+02
      1.692  0.1339E+02  0.3571E+02
      1.743  0.5563E+01  0.3599E+02
      1.794  0.8423E+00  0.3603E+02
      1.844  0.4426E+01  0.3626E+02
      1.895  0.8259E+01  0.3668E+02
      1.946  0.1943E+02  0.3766E+02
      1.996  0.1309E+02  0.3832E+02
      2.047  0.5475E+01  0.3860E+02
      2.098  0.3065E+02  0.4016E+02
      2.149  0.8741E+01  0.4060E+02
      2.199  0.5412E-01  0.4060E+02
      2.250  0.1182E+02  0.4120E+02
      2.301  0.1658E+02  0.4204E+02
      2.351  0.9771E+01  0.4254E+02
      2.402  0.1028E+02  0.4306E+02
      2.453  0.1151E+02  0.4364E+02
      2.503  0.7269E+01  0.4401E+02
      2.554  0.1415E+02  0.4473E+02
      2.605  0.1653E+02  0.4556E+02
      2.655  0.2469E+01  0.4569E+02
      2.706  0.1972E+01  0.4579E+02
      2.757  0.2184E+02  0.4690E+02
      2.808  0.8584E+01  0.4733E+02
      2.858  0.1353E+02  0.4802E+02
      2.909  0.8552E+01  0.4845E+02
      2.960  0.1723E+02  0.4933E+02
      3.010  0.1730E+02  0.5020E+02
      3.061  0.4967E+01  0.5045E+02
      3.112  0.4611E+01  0.5069E+02
      3.162  0.6537E+01  0.5102E+02
      3.213  0.2502E+02  0.5229E+02
      3.264  0.4376E+01  0.5251E+02
      3.314  0.1314E+02  0.5317E+02
      3.365  0.4294E+01  0.5339E+02
      3.416  0.3395E+02  0.5511E+02
      3.467  0.1000E+02  0.5562E+02
      3.517  0.4168E+01  0.5583E+02
      3.568  0.3720E+01  0.5602E+02
      3.619  0.1875E+02  0.5697E+02
      3.669  0.1390E+02  0.5767E+02
      3.720  0.1465E+02  0.5842E+02
      3.771  0.1277E+02  0.5906E+02
      3.821  0.2299E+01  0.5918E+02
      3.872  0.2839E+02  0.6062E+02
      3.923  0.6472E+01  0.6095E+02
      3.973  0.6843E+01  0.6130E+02
      4.024  0.1360E+02  0.6199E+02
      4.075  0.2388E+02  0.6320E+02
      4.126  0.1502E+02  0.6396E+02
      4.176  0.1297E+02  0.6461E+02
      4.227  0.9427E+01  0.6509E+02
      4.278  0.1896E+02  0.6605E+02
      4.328  0.6053E+01  0.6636E+02
      4.379  0.3488E+01  0.6654E+02
      4.430  0.1703E+01  0.6662E+02
      4.480  0.1736E+02  0.6750E+02
      4.531  0.1752E+02  0.6839E+02
      4.582  0.2917E+02  0.6987E+02
      4.632  0.1460E+01  0.6994E+02
      4.683  0.7877E+00  0.6998E+02
      4.734  0.3432E+02  0.7172E+02
      4.784  0.1311E+02  0.7239E+02
      4.835  0.1811E-01  0.7239E+02
      4.886  0.1517E+02  0.7316E+02
      4.937  0.2148E+02  0.7425E+02
      4.987  0.1839E+02  0.7518E+02
      5.038  0.1127E+02  0.7575E+02
      5.089  0.1065E+02  0.7629E+02
      5.139  0.6825E+01  0.7664E+02
      5.190  0.1221E+02  0.7726E+02
      5.241  0.3579E+01  0.7744E+02
      5.291  0.4209E+01  0.7765E+02
      5.342  0.1683E+02  0.7850E+02
      5.393  0.2824E+02  0.7994E+02
      5.443  0.9543E+01  0.8042E+02
      5.494  0.6815E+01  0.8076E+02
      5.545  0.1482E+02  0.8152E+02
      5.596  0.2871E+02  0.8297E+02
      5.646  0.1310E+02  0.8364E+02
      5.697  0.2577E+01  0.8377E+02
      5.748  0.1284E+02  0.8442E+02
      5.798  0.4086E+01  0.8462E+02
      5.849  0.2131E+02  0.8570E+02
      5.900  0.1107E+02  0.8626E+02
      5.950  0.1576E+02  0.8706E+02
      6.001  0.2591E+02  0.8838E+02
      6.052  0.1677E+02  0.8923E+02
      6.102  0.9131E+01  0.8969E+02
      6.153  0.5313E+01  0.8996E+02
      6.204  0.8584E+01  0.9039E+02
      6.255  0.1256E+02  0.9103E+02
      6.305  0.1309E+02  0.9169E+02
      6.356  0.5587E+01  0.9198E+02
      6.407  0.2280E+02  0.9313E+02
      6.457  0.3090E+02  0.9470E+02
      6.508  0.1742E+02  0.9558E+02
      6.559  0.1550E-01  0.9558E+02
      6.609  0.9561E+01  0.9607E+02
      6.660  0.4478E+02  0.9834E+02
      6.711  0.7027E+01  0.9869E+02
      6.761  0.6090E+01  0.9900E+02
      6.812  0.1230E+02  0.9963E+02
      6.863  0.2265E+02  0.1008E+03
      6.914  0.1771E+02  0.1017E+03
      6.964  0.5918E+01  0.1020E+03
      7.015  0.2525E+01  0.1021E+03
      7.066  0.1790E+02  0.1030E+03
      7.116  0.1292E+02  0.1037E+03
      7.167  0.1748E+02  0.1045E+03
      7.218  0.4349E+01  0.1048E+03
      7.268  0.9229E+01  0.1052E+03
      7.319  0.2136E+02  0.1063E+03
      7.370  0.1828E+02  0.1072E+03
      7.420  0.5585E+01  0.1075E+03
      7.471  0.3547E+02  0.1093E+03
      7.522  0.1820E+02  0.1102E+03
      7.573  0.1187E+02  0.1109E+03
      7.623  0.6802E+01  0.1112E+03
      7.674  0.1708E+02  0.1121E+03
      7.725  0.2065E+02  0.1131E+03
      7.775  0.1642E+02  0.1139E+03
      7.826  0.1371E+02  0.1146E+03
      7.877  0.1114E+02  0.1152E+03
      7.927  0.2786E+02  0.1166E+03
      7.978  0.2596E+02  0.1179E+03
      8.029  0.6858E+01  0.1183E+03
      8.079  0.1283E+02  0.1189E+03
      8.130  0.9647E+01  0.1194E+03
      8.181  0.2113E+02  0.1205E+03
      8.232  0.3703E+01  0.1207E+03
      8.282  0.1324E+02  0.1213E+03
      8.333  0.1375E+02  0.1220E+03
      8.384  0.3147E+02  0.1236E+03
      8.434  0.7881E+01  0.1240E+03
      8.485  0.8950E+01  0.1245E+03
      8.536  0.2762E+02  0.1259E+03
      8.586  0.1327E+02  0.1266E+03
      8.637  0.6181E+01  0.1269E+03
      8.688  0.1290E+02  0.1275E+03
      8.738  0.2484E+02  0.1288E+03
      8.789  0.2531E+02  0.1301E+03
      8.840  0.2029E+02  0.1311E+03
      8.890  0.4402E+01  0.1313E+03
      8.941  0.1514E+02  0.1321E+03
      8.992  0.1625E+02  0.1329E+03
      9.043  0.1533E+02  0.1337E+03
      9.093  0.1617E+02  0.1345E+03
      9.144  0.4492E+01  0.1347E+03
      9.195  0.2127E+02  0.1358E+03
      9.245  0.1161E+02  0.1364E+03
      9.296  0.3908E+01  0.1366E+03
      9.347  0.2484E+02  0.1379E+03
      9.397  0.2386E+02  0.1391E+03
      9.448  0.2996E+02  0.1406E+03
      9.499  0.6121E+01  0.1409E+03
      9.549  0.7907E+01  0.1413E+03
      9.600  0.1821E+02  0.1422E+03
      9.651  0.4654E+01  0.1425E+03
      9.702  0.1943E-05  0.1425E+03
      9.752  0.1812E+01  0.1426E+03
      9.803  0.5569E+01  0.1428E+03
      9.854  0.1608E+02  0.1437E+03
      9.904  0.1381E+01  0.1437E+03
      9.955  0.0000E+00  0.1437E+03
     10.006  0.7516E-13  0.1437E+03
     10.056  0.9243E+00  0.1438E+03
     10.107  0.3460E+01  0.1439E+03
     10.158  0.0000E+00  0.1439E+03
     10.208  0.1059E-01  0.1439E+03
     10.259  0.1085E+01  0.1440E+03
     10.310  0.0000E+00  0.1440E+03
     10.361  0.0000E+00  0.1440E+03
     10.411  0.0000E+00  0.1440E+03
     10.462  0.0000E+00  0.1440E+03
     10.513  0.0000E+00  0.1440E+03
     10.563  0.0000E+00  0.1440E+03
     10.614  0.0000E+00  0.1440E+03
     10.665  0.0000E+00  0.1440E+03
     10.715  0.0000E+00  0.1440E+03
     10.766  0.0000E+00  0.1440E+03
     10.817  0.0000E+00  0.1440E+03
     10.867  0.0000E+00  0.1440E+03
     10.918  0.0000E+00  0.1440E+03
