   32   32    1    1
  0.1904358E+02  0.8478120E-09  0.8478120E-09  0.8478120E-09  0.5000000E-15
  1.000000000000000E-004
  CAR 
 unknown system                          
   96   40   72
 
  0.0000000E+00  0.0000000E+00  0.0000000E+00  0.4629630E-02
   1       -3.5980
   2       -1.5551
   3       -1.5516
   4       -1.5516
   5       -1.5516
   6       -1.5516
   7       -1.5482
   8        0.4628
   9        0.4671
  10        0.4671
  11        0.4686
  12        0.4687
  13        0.4687
  14        0.4687
  15        0.4687
  16        0.4689
  17        0.4703
  18        0.4703
  19        0.4747
  20        2.3839
  21        2.3839
  22        2.3839
  23        2.3839
  24        2.5476
  25        2.5476
  26        2.5476
  27        2.5477
  28        4.0047
  29        4.0047
  30        4.0048
  31        4.9692
  32        4.9692
  33        4.9692
  34        5.9147
  35        5.9147
  36        5.9187
  37        5.9187
  38        5.9188
  39        5.9188
  40        5.9188
  41        5.9188
  42        5.9189
  43        5.9189
  44        5.9228
  45        5.9228
  46        6.9405
  47        6.9413
  48        6.9413
  49        6.9413
  50        6.9413
  51        6.9421
  52        6.9850
  53        6.9888
  54        6.9888
  55        6.9888
  56        6.9889
  57        6.9925
  58        7.8298
  59        7.8298
  60        7.8316
  61        7.8335
  62        7.8336
  63        7.8336
  64        7.8336
  65        7.8337
  66        7.8338
  67        7.8357
  68        7.8375
  69        7.8375
  70        8.9044
  71        8.9064
  72        8.9073
 
  0.1666667E+00  0.0000000E+00  0.0000000E+00  0.9259259E-02
   1       -3.5408
   2       -2.1741
   3       -1.4952
   4       -1.4952
   5       -1.4952
   6       -1.4952
   7       -0.8192
   8       -0.1460
   9       -0.1460
  10       -0.1460
  11       -0.1460
  12        0.5244
  13        0.5244
  14        0.5244
  15        0.5244
  16        1.1921
  17        1.1921
  18        1.1921
  19        1.1921
  20        1.8533
  21        1.8533
  22        1.8533
  23        1.8533
  24        3.1345
  25        3.1856
  26        3.1856
  27        3.1856
  28        3.1856
  29        4.0578
  30        4.0578
  31        5.0254
  32        5.0255
  33        5.0883
  34        5.0883
  35        5.0883
  36        5.0884
  37        5.3335
  38        5.3335
  39        5.9401
  40        5.9720
  41        5.9720
  42        5.9720
  43        5.9720
  44        6.3619
  45        6.3619
  46        6.6108
  47        6.6108
  48        7.0193
  49        7.0195
  50        7.0195
  51        7.0198
  52        7.0267
  53        7.0269
  54        7.0269
  55        7.0272
  56        7.2485
  57        7.2485
  58        7.2485
  59        7.2485
  60        7.6684
  61        7.6684
  62        7.8934
  63        7.8934
  64        7.8934
  65        7.8934
  66        8.3207
  67        8.3207
  68        8.3207
  69        8.3207
  70        8.5251
  71        8.5251
  72        8.5252
 
  0.3333333E+00  0.0000000E+00  0.0000000E+00  0.9259259E-02
   1       -3.3694
   2       -2.6853
   3       -1.3260
   4       -1.3259
   5       -1.3259
   6       -1.3259
   7       -0.6507
   8       -0.6507
   9       -0.6507
  10       -0.6507
  11        0.0213
  12        0.6914
  13        0.6914
  14        0.6914
  15        0.6914
  16        1.3572
  17        1.3572
  18        1.3572
  19        1.3572
  20        2.0119
  21        2.0221
  22        2.0221
  23        2.0221
  24        2.0223
  25        3.9862
  26        3.9862
  27        3.9863
  28        3.9863
  29        4.0032
  30        4.0033
  31        4.0033
  32        4.0033
  33        4.2172
  34        4.2172
  35        4.8549
  36        4.8549
  37        5.1940
  38        5.1940
  39        5.8641
  40        5.8641
  41        5.9416
  42        5.9416
  43        5.9417
  44        5.9417
  45        6.1315
  46        6.1315
  47        6.1315
  48        6.1315
  49        6.7697
  50        6.7697
  51        6.7697
  52        6.7697
  53        7.1841
  54        7.1841
  55        7.1841
  56        7.1841
  57        7.3641
  58        7.4098
  59        7.4098
  60        7.8361
  61        7.8361
  62        7.8361
  63        7.8362
  64        8.4637
  65        8.4637
  66        9.2870
  67        9.2872
  68        9.2874
  69        9.2879
  70        9.3225
  71        9.3228
  72        9.3249
 
  0.5000000E+00  0.0000000E+00  0.0000000E+00  0.4629630E-02
   1       -3.0853
   2       -3.0827
   3       -1.0480
   4       -1.0450
   5       -1.0450
   6       -1.0443
   7       -1.0442
   8       -1.0435
   9       -1.0435
  10       -1.0406
  11        0.9635
  12        0.9670
  13        0.9681
  14        0.9681
  15        0.9686
  16        0.9689
  17        0.9696
  18        0.9704
  19        0.9704
  20        0.9733
  21        2.9543
  22        2.9551
  23        2.9551
  24        2.9556
  25        2.9559
  26        2.9565
  27        2.9565
  28        2.9573
  29        4.4815
  30        4.4815
  31        4.4842
  32        4.4842
  33        4.9236
  34        4.9236
  35        4.9243
  36        4.9244
  37        4.9251
  38        4.9251
  39        4.9259
  40        4.9259
  41        5.4725
  42        5.4732
  43        5.4750
  44        5.4757
  45        6.3952
  46        6.3952
  47        6.3962
  48        6.3973
  49        6.3975
  50        6.3986
  51        6.3996
  52        6.3996
  53        7.4543
  54        7.4557
  55        7.4557
  56        7.4557
  57        7.4574
  58        7.4575
  59        7.4575
  60        7.4589
  61        8.3143
  62        8.3143
  63        8.3166
  64        8.3166
  65        8.9093
  66        8.9109
  67        9.3363
  68        9.3370
  69        9.3381
  70        9.3387
  71       10.2248
  72       10.2269
 
  0.0000000E+00  0.1666667E+00  0.0000000E+00  0.1851852E-01
   1       -3.5408
   2       -2.1741
   3       -1.4979
   4       -1.4952
   5       -1.4952
   6       -1.4925
   7       -0.8192
   8       -0.1487
   9       -0.1460
  10       -0.1460
  11       -0.1433
  12        0.5223
  13        0.5234
  14        0.5254
  15        0.5265
  16        1.1894
  17        1.1921
  18        1.1921
  19        1.1948
  20        1.8512
  21        1.8523
  22        1.8543
  23        1.8554
  24        3.1345
  25        3.1835
  26        3.1846
  27        3.1866
  28        3.1877
  29        4.0578
  30        4.0579
  31        5.0255
  32        5.0255
  33        5.0855
  34        5.0883
  35        5.0883
  36        5.0911
  37        5.3335
  38        5.3336
  39        5.9401
  40        5.9695
  41        5.9720
  42        5.9720
  43        5.9745
  44        6.3619
  45        6.3619
  46        6.6108
  47        6.6109
  48        7.0179
  49        7.0197
  50        7.0198
  51        7.0216
  52        7.0245
  53        7.0257
  54        7.0277
  55        7.0291
  56        7.2460
  57        7.2485
  58        7.2485
  59        7.2510
  60        7.6684
  61        7.6684
  62        7.8908
  63        7.8934
  64        7.8934
  65        7.8960
  66        8.3188
  67        8.3207
  68        8.3207
  69        8.3225
  70        8.5227
  71        8.5252
  72        8.5257
 
  0.1666667E+00  0.1666667E+00  0.0000000E+00  0.3703704E-01
   1       -3.4836
   2       -2.1186
   3       -2.1164
   4       -1.4388
   5       -1.4388
   6       -0.7648
   7       -0.7630
   8       -0.7613
   9       -0.0916
  10       -0.0907
  11       -0.0894
  12       -0.0886
  13        0.5795
  14        0.5807
  15        1.2446
  16        1.2456
  17        1.2470
  18        1.2472
  19        1.2484
  20        1.2496
  21        1.9122
  22        2.4970
  23        2.4970
  24        2.6543
  25        2.6543
  26        3.1885
  27        3.1895
  28        3.8951
  29        3.8951
  30        4.1110
  31        4.4921
  32        4.4943
  33        5.0817
  34        5.1230
  35        5.1230
  36        5.1621
  37        5.1622
  38        5.3855
  39        5.3879
  40        5.7886
  41        5.7895
  42        5.9944
  43        5.9955
  44        6.4170
  45        6.4190
  46        6.4350
  47        6.4357
  48        6.4371
  49        6.4381
  50        6.6616
  51        6.6637
  52        6.6659
  53        7.3005
  54        7.3013
  55        7.7202
  56        7.7218
  57        7.7219
  58        7.7220
  59        7.7228
  60        7.7245
  61        7.7296
  62        7.9358
  63        7.9360
  64        7.9395
  65        7.9413
  66        7.9580
  67        7.9581
  68        8.5839
  69        8.5860
  70        9.0099
  71        9.0100
  72        9.2202
 
  0.3333333E+00  0.1666667E+00  0.0000000E+00  0.3703704E-01
   1       -3.3122
   2       -2.6284
   3       -1.9476
   4       -1.2709
   5       -1.2696
   6       -1.2683
   7       -0.5959
   8       -0.5946
   9       -0.5933
  10        0.0755
  11        0.0776
  12        0.0776
  13        0.0794
  14        0.7465
  15        0.7465
  16        1.4128
  17        1.4137
  18        1.4141
  19        2.0668
  20        2.0742
  21        2.0746
  22        2.0775
  23        2.0782
  24        2.7386
  25        3.3524
  26        3.3854
  27        3.4031
  28        3.4031
  29        4.0050
  30        4.0405
  31        4.0405
  32        4.2703
  33        4.6936
  34        4.7111
  35        4.7111
  36        4.9081
  37        5.2501
  38        5.3052
  39        5.3053
  40        5.3469
  41        5.3470
  42        5.5462
  43        5.9193
  44        5.9523
  45        5.9523
  46        6.1593
  47        6.1844
  48        6.5833
  49        6.5959
  50        6.6418
  51        6.6418
  52        6.8137
  53        6.8236
  54        7.2408
  55        7.4182
  56        7.4607
  57        7.4640
  58        7.8845
  59        8.1082
  60        8.1082
  61        8.5049
  62        8.5172
  63        8.5204
  64        8.5204
  65        8.5304
  66        8.7055
  67        8.7385
  68        8.7503
  69        8.7504
  70        9.3401
  71        9.3410
  72        9.3705
 
  0.5000000E+00  0.1666667E+00  0.0000000E+00  0.1851852E-01
   1       -3.0283
   2       -3.0256
   3       -1.6661
   4       -1.6635
   5       -0.9899
   6       -0.9888
   7       -0.9873
   8       -0.9861
   9       -0.3154
  10       -0.3128
  11        0.3547
  12        0.3559
  13        0.3574
  14        0.3585
  15        1.0218
  16        1.0233
  17        1.6881
  18        1.6892
  19        1.6908
  20        1.6919
  21        2.3498
  22        2.3513
  23        3.0097
  24        3.0098
  25        3.0112
  26        3.0113
  27        3.6232
  28        3.6259
  29        3.6673
  30        3.6688
  31        4.3256
  32        4.3257
  33        4.3272
  34        4.3272
  35        4.5346
  36        4.5374
  37        5.5286
  38        5.5311
  39        5.5730
  40        5.5743
  41        5.5757
  42        5.5770
  43        5.6284
  44        5.6284
  45        5.6299
  46        5.6299
  47        5.8107
  48        5.8135
  49        6.4312
  50        6.4338
  51        6.8568
  52        6.8593
  53        7.0881
  54        7.0909
  55        7.5017
  56        7.5034
  57        8.1532
  58        8.1557
  59        8.3673
  60        8.3695
  61        8.3746
  62        8.3757
  63        8.3774
  64        8.3781
  65        8.9626
  66        8.9642
  67        9.3900
  68        9.3906
  69        9.4180
  70        9.4183
  71        9.4198
  72        9.4201
 
  0.0000000E+00  0.3333333E+00  0.0000000E+00  0.1851852E-01
   1       -3.3693
   2       -2.6853
   3       -1.3286
   4       -1.3259
   5       -1.3259
   6       -1.3233
   7       -0.6534
   8       -0.6507
   9       -0.6507
  10       -0.6480
  11        0.0213
  12        0.6893
  13        0.6904
  14        0.6924
  15        0.6935
  16        1.3551
  17        1.3562
  18        1.3582
  19        1.3594
  20        2.0120
  21        2.0195
  22        2.0221
  23        2.0221
  24        2.0248
  25        3.9836
  26        3.9863
  27        3.9863
  28        3.9890
  29        4.0011
  30        4.0022
  31        4.0042
  32        4.0054
  33        4.2172
  34        4.2172
  35        4.8549
  36        4.8549
  37        5.1940
  38        5.1940
  39        5.8640
  40        5.8641
  41        5.9395
  42        5.9407
  43        5.9427
  44        5.9439
  45        6.1290
  46        6.1315
  47        6.1315
  48        6.1340
  49        6.7672
  50        6.7697
  51        6.7697
  52        6.7722
  53        7.1822
  54        7.1841
  55        7.1841
  56        7.1859
  57        7.3641
  58        7.4098
  59        7.4098
  60        7.8343
  61        7.8361
  62        7.8362
  63        7.8380
  64        8.4636
  65        8.4637
  66        9.2845
  67        9.2871
  68        9.2874
  69        9.2896
  70        9.3218
  71        9.3230
  72        9.3244
 
  0.1666667E+00  0.3333333E+00  0.0000000E+00  0.3703704E-01
   1       -3.3122
   2       -2.6284
   3       -1.9476
   4       -1.2709
   5       -1.2696
   6       -1.2683
   7       -0.5959
   8       -0.5946
   9       -0.5933
  10        0.0755
  11        0.0775
  12        0.0776
  13        0.0795
  14        0.7465
  15        0.7465
  16        1.4121
  17        1.4137
  18        1.4149
  19        2.0669
  20        2.0748
  21        2.0749
  22        2.0773
  23        2.0774
  24        2.7386
  25        3.3524
  26        3.3854
  27        3.4031
  28        3.4031
  29        4.0050
  30        4.0405
  31        4.0405
  32        4.2703
  33        4.6936
  34        4.7111
  35        4.7111
  36        4.9081
  37        5.2501
  38        5.3053
  39        5.3053
  40        5.3469
  41        5.3469
  42        5.5462
  43        5.9192
  44        5.9523
  45        5.9523
  46        6.1593
  47        6.1844
  48        6.5833
  49        6.5958
  50        6.6418
  51        6.6418
  52        6.8137
  53        6.8236
  54        7.2408
  55        7.4182
  56        7.4613
  57        7.4633
  58        7.8845
  59        8.1082
  60        8.1082
  61        8.5050
  62        8.5167
  63        8.5204
  64        8.5210
  65        8.5303
  66        8.7055
  67        8.7385
  68        8.7503
  69        8.7504
  70        9.3401
  71        9.3404
  72        9.3745
 
  0.3333333E+00  0.3333333E+00  0.0000000E+00  0.3703704E-01
   1       -3.1410
   2       -2.4591
   3       -2.4569
   4       -1.7779
   5       -1.1006
   6       -1.1006
   7       -0.4279
   8       -0.4270
   9       -0.4257
  10       -0.4248
  11        0.2429
  12        0.2448
  13        0.2449
  14        0.2467
  15        0.9129
  16        0.9140
  17        2.2317
  18        2.2328
  19        2.2410
  20        2.2417
  21        2.2430
  22        2.2440
  23        2.8352
  24        2.8353
  25        2.8910
  26        2.8932
  27        2.9741
  28        2.9741
  29        3.5608
  30        4.1666
  31        4.1666
  32        4.2429
  33        4.2429
  34        4.4297
  35        4.8573
  36        4.8581
  37        4.8595
  38        4.8604
  39        5.0664
  40        5.0687
  41        5.4181
  42        5.5044
  43        5.5052
  44        5.5237
  45        5.5237
  46        5.7056
  47        6.0867
  48        6.0888
  49        6.7490
  50        7.4276
  51        7.4444
  52        7.4453
  53        7.4455
  54        7.4464
  55        7.5796
  56        7.5807
  57        7.6212
  58        7.6236
  59        8.2244
  60        8.2252
  61        8.2593
  62        8.2613
  63        8.6769
  64        8.6789
  65        9.3153
  66        9.3154
  67        9.3456
  68        9.3456
  69        9.4863
  70        9.4870
  71        9.5121
  72        9.5143
 
  0.5000000E+00  0.3333333E+00  0.0000000E+00  0.1851852E-01
   1       -2.8574
   2       -2.8548
   3       -2.1756
   4       -2.1730
   5       -0.8212
   6       -0.8201
   7       -0.8186
   8       -0.8175
   9       -0.1482
  10       -0.1471
  11       -0.1456
  12       -0.1445
  13        0.5224
  14        0.5250
  15        1.1883
  16        1.1898
  17        1.8530
  18        1.8544
  19        2.5062
  20        2.5089
  21        2.5145
  22        2.5155
  23        2.5171
  24        2.5181
  25        3.1733
  26        3.1734
  27        3.1748
  28        3.1750
  29        3.8354
  30        3.8355
  31        3.8369
  32        3.8369
  33        4.4768
  34        4.4780
  35        4.4795
  36        4.4807
  37        4.4846
  38        4.4862
  39        4.6940
  40        4.6968
  41        5.3320
  42        5.3348
  43        5.6954
  44        5.6979
  45        6.3624
  46        6.3649
  47        6.4196
  48        6.4212
  49        6.4368
  50        6.4368
  51        6.4383
  52        6.4384
  53        7.8481
  54        7.8507
  55        7.8868
  56        7.8896
  57        8.3481
  58        8.3482
  59        8.3498
  60        8.3499
  61        8.5268
  62        8.5291
  63        8.9426
  64        8.9451
  65        9.1223
  66        9.1239
  67        9.1640
  68        9.1663
  69        9.5482
  70        9.5488
  71        9.7618
  72        9.7656
 
  0.0000000E+00  0.5000000E+00  0.0000000E+00  0.9259259E-02
   1       -3.0840
   2       -3.0840
   3       -1.0492
   4       -1.0447
   5       -1.0443
   6       -1.0443
   7       -1.0443
   8       -1.0443
   9       -1.0438
  10       -1.0394
  11        0.9640
  12        0.9666
  13        0.9674
  14        0.9678
  15        0.9690
  16        0.9691
  17        0.9694
  18        0.9699
  19        0.9711
  20        0.9736
  21        2.9529
  22        2.9532
  23        2.9558
  24        2.9558
  25        2.9558
  26        2.9558
  27        2.9583
  28        2.9586
  29        4.4828
  30        4.4829
  31        4.4829
  32        4.4829
  33        4.9221
  34        4.9230
  35        4.9235
  36        4.9239
  37        4.9255
  38        4.9259
  39        4.9264
  40        4.9274
  41        5.4740
  42        5.4741
  43        5.4741
  44        5.4741
  45        6.3928
  46        6.3970
  47        6.3974
  48        6.3974
  49        6.3974
  50        6.3974
  51        6.3978
  52        6.4021
  53        7.4531
  54        7.4562
  55        7.4566
  56        7.4566
  57        7.4566
  58        7.4566
  59        7.4570
  60        7.4601
  61        8.3154
  62        8.3154
  63        8.3154
  64        8.3155
  65        8.9101
  66        8.9101
  67        9.3375
  68        9.3375
  69        9.3375
  70        9.3375
  71       10.2244
  72       10.2250
 
  0.1666667E+00  0.5000000E+00  0.0000000E+00  0.1851852E-01
   1       -3.0270
   2       -3.0270
   3       -1.6648
   4       -1.6648
   5       -0.9880
   6       -0.9880
   7       -0.9880
   8       -0.9880
   9       -0.3141
  10       -0.3141
  11        0.3566
  12        0.3566
  13        0.3566
  14        0.3566
  15        1.0225
  16        1.0225
  17        1.6900
  18        1.6900
  19        1.6900
  20        1.6900
  21        2.3505
  22        2.3505
  23        3.0105
  24        3.0105
  25        3.0105
  26        3.0105
  27        3.6246
  28        3.6246
  29        3.6681
  30        3.6681
  31        4.3264
  32        4.3264
  33        4.3264
  34        4.3264
  35        4.5360
  36        4.5360
  37        5.5297
  38        5.5299
  39        5.5750
  40        5.5750
  41        5.5750
  42        5.5752
  43        5.6291
  44        5.6292
  45        5.6292
  46        5.6292
  47        5.8121
  48        5.8121
  49        6.4325
  50        6.4325
  51        6.8581
  52        6.8581
  53        7.0895
  54        7.0895
  55        7.5025
  56        7.5025
  57        8.1544
  58        8.1544
  59        8.3683
  60        8.3686
  61        8.3764
  62        8.3764
  63        8.3764
  64        8.3766
  65        8.9634
  66        8.9634
  67        9.3901
  68        9.3903
  69        9.4191
  70        9.4191
  71        9.4191
  72        9.4193
 
  0.3333333E+00  0.5000000E+00  0.0000000E+00  0.1851852E-01
   1       -2.8561
   2       -2.8561
   3       -2.1743
   4       -2.1743
   5       -0.8194
   6       -0.8194
   7       -0.8194
   8       -0.8194
   9       -0.1464
  10       -0.1464
  11       -0.1463
  12       -0.1463
  13        0.5237
  14        0.5237
  15        1.1891
  16        1.1891
  17        1.8537
  18        1.8537
  19        2.5074
  20        2.5076
  21        2.5163
  22        2.5163
  23        2.5163
  24        2.5165
  25        3.1741
  26        3.1741
  27        3.1741
  28        3.1741
  29        3.8362
  30        3.8362
  31        3.8362
  32        3.8362
  33        4.4787
  34        4.4787
  35        4.4788
  36        4.4788
  37        4.4854
  38        4.4854
  39        4.6954
  40        4.6954
  41        5.3334
  42        5.3334
  43        5.6967
  44        5.6967
  45        6.3637
  46        6.3637
  47        6.4203
  48        6.4204
  49        6.4375
  50        6.4375
  51        6.4376
  52        6.4377
  53        7.8494
  54        7.8494
  55        7.8882
  56        7.8882
  57        8.3490
  58        8.3490
  59        8.3490
  60        8.3490
  61        8.5280
  62        8.5280
  63        8.9439
  64        8.9439
  65        9.1231
  66        9.1231
  67        9.1652
  68        9.1652
  69        9.5485
  70        9.5485
  71        9.7597
  72        9.7621
 
  0.5000000E+00  0.5000000E+00  0.0000000E+00  0.9259259E-02
   1       -2.5741
   2       -2.5719
   3       -2.5714
   4       -2.5693
   5       -0.5420
   6       -0.5400
   7       -0.5390
   8       -0.5387
   9       -0.5385
  10       -0.5383
  11       -0.5372
  12       -0.5352
  13        1.4624
  14        1.4645
  15        1.4660
  16        1.4663
  17        1.4663
  18        1.4666
  19        1.4681
  20        1.4702
  21        3.3927
  22        3.3930
  23        3.3938
  24        3.3947
  25        3.3947
  26        3.3955
  27        3.3964
  28        3.3967
  29        3.5028
  30        3.5041
  31        3.5048
  32        3.5053
  33        3.5054
  34        3.5058
  35        3.5066
  36        3.5079
  37        4.9586
  38        4.9610
  39        4.9614
  40        4.9638
  41        5.4027
  42        5.4034
  43        5.4042
  44        5.4050
  45        5.9749
  46        5.9770
  47        5.9775
  48        5.9795
  49        7.3447
  50        7.3457
  51        7.3459
  52        7.3464
  53        7.3468
  54        7.3473
  55        7.3474
  56        7.3484
  57        8.7882
  58        8.7921
  59        8.7933
  60        8.7935
  61        8.7936
  62        8.7938
  63        8.7950
  64        8.7989
  65        9.3858
  66        9.3866
  67        9.3871
  68        9.3880
  69        9.3882
  70        9.3891
  71        9.3895
  72        9.3903
 
  0.0000000E+00  0.1666667E+00  0.1666667E+00  0.1851852E-01
   1       -3.4836
   2       -2.1175
   3       -2.1175
   4       -1.4403
   5       -1.4372
   6       -0.7631
   7       -0.7630
   8       -0.7630
   9       -0.0926
  10       -0.0906
  11       -0.0895
  12       -0.0875
  13        0.5801
  14        0.5801
  15        1.2441
  16        1.2454
  17        1.2469
  18        1.2475
  19        1.2481
  20        1.2502
  21        1.9122
  22        2.4970
  23        2.4970
  24        2.6543
  25        2.6543
  26        3.1890
  27        3.1890
  28        3.8935
  29        3.8966
  30        4.1110
  31        4.4932
  32        4.4932
  33        5.0817
  34        5.1229
  35        5.1229
  36        5.1622
  37        5.1622
  38        5.3867
  39        5.3867
  40        5.7890
  41        5.7891
  42        5.9949
  43        5.9949
  44        6.4180
  45        6.4181
  46        6.4338
  47        6.4357
  48        6.4371
  49        6.4391
  50        6.6632
  51        6.6640
  52        6.6641
  53        7.3009
  54        7.3009
  55        7.7199
  56        7.7204
  57        7.7224
  58        7.7229
  59        7.7238
  60        7.7240
  61        7.7294
  62        7.9358
  63        7.9359
  64        7.9403
  65        7.9405
  66        7.9581
  67        7.9582
  68        8.5849
  69        8.5849
  70        9.0099
  71        9.0100
  72        9.2184
 
  0.1666667E+00  0.1666667E+00  0.1666667E+00  0.3703704E-01
   1       -3.4265
   2       -2.0624
   3       -2.0608
   4       -2.0593
   5       -0.7102
   6       -0.7072
   7       -0.7072
   8       -0.7066
   9       -0.7065
  10       -0.7036
  11        0.6323
  12        0.6347
  13        0.6350
  14        0.6357
  15        0.6360
  16        0.6367
  17        0.6389
  18        1.9627
  19        1.9638
  20        1.9644
  21        1.9664
  22        1.9676
  23        1.9693
  24        3.2427
  25        3.2435
  26        3.2442
  27        3.2939
  28        3.2947
  29        3.2954
  30        4.5446
  31        4.5460
  32        4.5472
  33        4.5472
  34        4.5484
  35        4.5498
  36        4.6033
  37        5.8415
  38        5.8419
  39        5.8434
  40        5.8438
  41        5.8441
  42        5.8443
  43        5.8446
  44        5.8461
  45        5.8471
  46        6.0490
  47        6.0497
  48        6.0505
  49        7.1317
  50        7.1324
  51        7.1335
  52        7.1335
  53        7.1345
  54        7.1352
  55        7.3543
  56        7.3545
  57        7.3556
  58        7.3556
  59        7.3568
  60        7.3570
  61        8.4143
  62        8.4150
  63        8.4157
  64        8.6357
  65        8.6375
  66        8.6383
  67        8.6384
  68        8.6389
  69        8.6408
  70        8.6446
  71        8.6454
  72        8.6458
 
  0.3333333E+00  0.1666667E+00  0.1666667E+00  0.3703704E-01
   1       -3.2552
   2       -2.5716
   3       -1.8910
   4       -1.8910
   5       -1.2134
   6       -1.2133
   7       -0.5386
   8       -0.5384
   9       -0.5384
  10        0.1312
  11        0.1332
  12        0.1335
  13        0.1353
  14        0.8026
  15        0.8026
  16        1.4667
  17        1.4675
  18        1.4693
  19        1.4701
  20        2.1221
  21        2.1327
  22        2.7227
  23        2.7934
  24        2.7934
  25        2.8676
  26        3.4068
  27        3.4069
  28        3.4400
  29        3.4400
  30        4.0592
  31        4.0593
  32        4.1120
  33        4.1120
  34        4.6961
  35        4.6962
  36        4.7504
  37        4.7622
  38        4.7622
  39        5.3594
  40        5.3594
  41        5.4165
  42        6.0054
  43        6.0055
  44        6.0492
  45        6.0492
  46        6.2140
  47        6.2140
  48        6.6475
  49        6.6480
  50        6.6511
  51        6.6516
  52        6.8688
  53        6.8688
  54        7.3395
  55        7.4722
  56        7.5179
  57        7.5179
  58        7.9342
  59        7.9342
  60        8.1639
  61        8.1640
  62        8.5582
  63        8.5582
  64        8.7561
  65        8.7561
  66        8.8010
  67        8.8010
  68        9.2108
  69        9.2108
  70        9.4222
  71        9.4245
  72        9.4356
 
  0.5000000E+00  0.1666667E+00  0.1666667E+00  0.1851852E-01
   1       -2.9713
   2       -2.9687
   3       -1.6106
   4       -1.6087
   5       -1.6079
   6       -1.6061
   7       -0.2608
   8       -0.2593
   9       -0.2585
  10       -0.2577
  11       -0.2573
  12       -0.2556
  13        1.0759
  14        1.0782
  15        1.0791
  16        1.0799
  17        1.0815
  18        1.0828
  19        2.4040
  20        2.4051
  21        2.4053
  22        2.4059
  23        2.4067
  24        2.4082
  25        3.6774
  26        3.6777
  27        3.6802
  28        3.6803
  29        3.7212
  30        3.7218
  31        3.7227
  32        3.7233
  33        3.7265
  34        3.7280
  35        4.9792
  36        4.9809
  37        4.9819
  38        4.9836
  39        5.0318
  40        5.0325
  41        5.0333
  42        5.0340
  43        6.2730
  44        6.2734
  45        6.2757
  46        6.2761
  47        6.3301
  48        6.3317
  49        6.4855
  50        6.4860
  51        6.4881
  52        6.4886
  53        7.5549
  54        7.5554
  55        7.5566
  56        7.5572
  57        7.7862
  58        7.7866
  59        7.7888
  60        7.7892
  61        8.8341
  62        8.8350
  63        8.8359
  64        8.8368
  65        9.0159
  66        9.0175
  67        9.0621
  68        9.0639
  69        9.0647
  70        9.0665
  71       10.0580
  72       10.0633
 
  0.0000000E+00  0.3333333E+00  0.1666667E+00  0.3703704E-01
   1       -3.3122
   2       -2.6284
   3       -1.9476
   4       -1.2716
   5       -1.2696
   6       -1.2676
   7       -0.5966
   8       -0.5946
   9       -0.5925
  10        0.0754
  11        0.0774
  12        0.0777
  13        0.0797
  14        0.7449
  15        0.7480
  16        1.4119
  17        1.4133
  18        1.4153
  19        2.0669
  20        2.0734
  21        2.0757
  22        2.0764
  23        2.0789
  24        2.7386
  25        3.3524
  26        3.3853
  27        3.4015
  28        3.4047
  29        4.0050
  30        4.0389
  31        4.0421
  32        4.2703
  33        4.6936
  34        4.7095
  35        4.7127
  36        4.9081
  37        5.2501
  38        5.3036
  39        5.3069
  40        5.3453
  41        5.3485
  42        5.5462
  43        5.9192
  44        5.9506
  45        5.9539
  46        6.1593
  47        6.1844
  48        6.5833
  49        6.5958
  50        6.6402
  51        6.6435
  52        6.8135
  53        6.8237
  54        7.2408
  55        7.4181
  56        7.4617
  57        7.4630
  58        7.8845
  59        8.1068