       N       E                     dE             d eps       ncg     rms          rms(c)
DAV:   1     0.104718592635E+03    0.10472E+03   -0.31632E+04  5760   0.102E+03
DAV:   2    -0.105605881360E+03   -0.21032E+03   -0.19547E+03  6792   0.129E+02
DAV:   3    -0.117862228135E+03   -0.12256E+02   -0.11644E+02  7184   0.248E+01
DAV:   4    -0.118110345862E+03   -0.24812E+00   -0.24597E+00  6752   0.380E+00
DAV:   5    -0.118113492374E+03   -0.31465E-02   -0.31450E-02  6744   0.512E-01    0.490E+00
DAV:   6    -0.117726920360E+03    0.38657E+00   -0.72216E-02  6560   0.812E-01    0.304E+00
DAV:   7    -0.117450115779E+03    0.27680E+00   -0.20895E-01  6328   0.130E+00    0.136E-01
DAV:   8    -0.117449957503E+03    0.15828E-03   -0.15456E-03  6896   0.138E-01    0.394E-02
DAV:   9    -0.117449972034E+03   -0.14531E-04   -0.48995E-05  6800   0.194E-02    0.319E-03
DAV:  10    -0.117449969790E+03    0.22446E-05   -0.16124E-06  6920   0.406E-03    0.181E-03
DAV:  11    -0.117449966118E+03    0.36713E-05   -0.11942E-07  6712   0.986E-04    0.578E-04
DAV:  12    -0.117449965197E+03    0.92103E-06   -0.16952E-08  4152   0.371E-04    0.847E-05
DAV:  13    -0.117449965140E+03    0.57817E-07   -0.27845E-09  3744   0.171E-04    0.287E-05
DAV:  14    -0.117449965152E+03   -0.11950E-07   -0.42184E-10  3688   0.691E-05    0.956E-06
DAV:  15    -0.117449965172E+03   -0.20968E-07   -0.12041E-10  3680   0.370E-05    0.453E-06
DAV:  16    -0.117449965177E+03   -0.43117E-08   -0.26428E-11  3696   0.169E-05
   1 F= -.11744997E+03 E0= -.11744968E+03  d E =-.579523E-03
