 vasp.4.6.28 25Jul05 complex 
 executed on             LinuxIFC date 2016.10.19  12:33:34
 running on    8 nodes
 distr:  one band on    1 nodes,    8 groups


--------------------------------------------------------------------------------------------------------


 INCAR:
 POTCAR:   PAW_PBE Al 04Jan2001                   
 POTCAR:   PAW_PBE Al 04Jan2001                   
   VRHFIN =Al: s2p1                                                             
   LEXCH  = PE                                                                  
   EATOM  =    53.5387 eV,    3.9350 Ry                                         
                                                                                
   TITEL  = PAW_PBE Al 04Jan2001                                                
   LULTRA =        F    use ultrasoft PP ?                                      
   IUNSCR =        1    unscreen: 0-lin 1-nonlin 2-no                           
   RPACOR =    1.500    partial core radius                                     
   POMASS =   26.982; ZVAL   =    3.000    mass and valenz                      
   RCORE  =    1.900    outmost cutoff radius                                   
   RWIGS  =    2.650; RWIGS  =    1.402    wigner-seitz radius (au A)           
   ENMAX  =  240.300; ENMIN  =  180.225 eV                                      
   ICORE  =        2    local potential                                         
   LCOR   =        T    correct aug charges                                     
   LPAW   =        T    paw PP                                                  
   EAUG   =  291.052                                                            
   DEXC   =    -.041                                                            
   RMAX   =    2.974    core radius for proj-oper                               
   RAUG   =    1.300    factor for augmentation sphere                          
   RDEP   =    1.966    radius for radial grids                                 
   QCUT   =   -4.203; QGAM   =    8.405    optimization parameters              
                                                                                
   Description                                                                  
     l     E      TYP  RCUT    TYP  RCUT                                        
     0   .000     23  1.900                                                     
     0   .000     23  1.900                                                     
     1   .000     23  1.900                                                     
     1  1.000     23  1.900                                                     
     2   .000      7  1.900                                                     
  local pseudopotential read in
  partial core-charges read in
  atomic valenz-charges read in
  non local Contribution for L=           0  read in
    real space projection operators read in
  non local Contribution for L=           0  read in
    real space projection operators read in
  non local Contribution for L=           1  read in
    real space projection operators read in
  non local Contribution for L=           1  read in
    real space projection operators read in
    PAW grid and wavefunctions read in
 
   number of l-projection  operators is LMAX  =           4
   number of lm-projection operators is LMMAX =           8
 

 ----------------------------------------------------------------------------- 
|                                                                             |
|  ADVICE TO THIS USER RUNNING 'VASP/VAMP'   (HEAR YOUR MASTER'S VOICE ...):  |
|                                                                             |
|      You have a (more or less) 'large supercell' and for larger cells       |
|      it might be more efficient to use real space projection operators      |
|      So try LREAL= Auto  in the INCAR   file.                               |
|      Mind: If you want to do an extremely accurate calculations keep the    |
|      reciprocal projection scheme          (i.e. LREAL=.FALSE.)             |
|                                                                             |
 ----------------------------------------------------------------------------- 

 PAW_PBE Al 04Jan2001                   :
 energy of atom  1       EATOM=  -53.5387
 kinetic energy error for atom=    0.0003 (will be added to EATOM!!)
 
 EXHCAR: internal setup
 exchange correlation table for  LEXCH =        8
   RHO(1)=    0.500       N(1)  =     2000
   RHO(2)=  100.500       N(2)  =     4000
 
 POSCAR: Al                                      
  positions in direct lattice
  No initial velocities read in
 


--------------------------------------------------------------------------------------------------------


 ion  position               nearest neighbor table
   1  0.251  0.250  0.000-  18 2.99  22 2.99  26 2.99  28 2.99   9 3.00  11 3.00  13 3.00  15 3.00
                            25 3.00  21 3.00  27 3.00  17 3.00
   2  0.750  0.250  0.000-  10 3.00  12 3.00  14 3.00  16 3.00  17 3.00  18 3.00  21 3.00  22 3.00
                            25 3.00  26 3.00  27 3.00  28 3.00
   3  0.250  0.750  0.000-   9 3.00  11 3.00  13 3.00  15 3.00  19 3.00  20 3.00  23 3.00  24 3.00
                            25 3.00  26 3.00  27 3.00  28 3.00
   4  0.750  0.750  0.000-  10 3.00  12 3.00  14 3.00  16 3.00  19 3.00  20 3.00  23 3.00  24 3.00
                            25 3.00  26 3.00  27 3.00  28 3.00
   5  0.250  0.250  0.500-   9 3.00  11 3.00  13 3.00  15 3.00  17 3.00  18 3.00  21 3.00  22 3.00
                            29 3.00  30 3.00  31 3.00  32 3.00
   6  0.750  0.250  0.500-  10 3.00  12 3.00  14 3.00  16 3.00  17 3.00  18 3.00  21 3.00  22 3.00
                            29 3.00  30 3.00  31 3.00  32 3.00
   7  0.250  0.750  0.500-   9 3.00  11 3.00  13 3.00  15 3.00  19 3.00  20 3.00  23 3.00  24 3.00
                            29 3.00  30 3.00  31 3.00  32 3.00
   8  0.750  0.750  0.500-  10 3.00  12 3.00  14 3.00  16 3.00  19 3.00  20 3.00  23 3.00  24 3.00
                            29 3.00  30 3.00  31 3.00  32 3.00
   9  0.250  0.000  0.250-   3 3.00   5 3.00   7 3.00  17 3.00  18 3.00  19 3.00  20 3.00  25 3.00
                            26 3.00  29 3.00  30 3.00   1 3.00
  10  0.750  0.000  0.250-   2 3.00   4 3.00   6 3.00   8 3.00  17 3.00  18 3.00  19 3.00  20 3.00
                            25 3.00  26 3.00  29 3.00  30 3.00
  11  0.250  0.500  0.250-   3 3.00   5 3.00   7 3.00  17 3.00  18 3.00  19 3.00  20 3.00  27 3.00
                            28 3.00  31 3.00  32 3.00   1 3.00
  12  0.750  0.500  0.250-   2 3.00   4 3.00   6 3.00   8 3.00  17 3.00  18 3.00  19 3.00  20 3.00
                            27 3.00  28 3.00  31 3.00  32 3.00
  13  0.250  0.000  0.750-   3 3.00   5 3.00   7 3.00  21 3.00  22 3.00  23 3.00  24 3.00  25 3.00
                            26 3.00  29 3.00  30 3.00   1 3.00
  14  0.750  0.000  0.750-   2 3.00   4 3.00   6 3.00   8 3.00  21 3.00  22 3.00  23 3.00  24 3.00
                            25 3.00  26 3.00  29 3.00  30 3.00
  15  0.250  0.500  0.750-   3 3.00   5 3.00   7 3.00  21 3.00  22 3.00  23 3.00  24 3.00  27 3.00
                            28 3.00  31 3.00  32 3.00   1 3.00
  16  0.750  0.500  0.750-   2 3.00   4 3.00   6 3.00   8 3.00  21 3.00  22 3.00  23 3.00  24 3.00
                            27 3.00  28 3.00  31 3.00  32 3.00
  17  0.000  0.250  0.250-   2 3.00   5 3.00   6 3.00   9 3.00  10 3.00  11 3.00  12 3.00  25 3.00
                            27 3.00  29 3.00  31 3.00   1 3.00
  18  0.500  0.250  0.250-   1 2.99   2 3.00   5 3.00   6 3.00   9 3.00  10 3.00  11 3.00  12 3.00
                            26 3.00  28 3.00  30 3.00  32 3.00
  19  0.000  0.750  0.250-   3 3.00   4 3.00   7 3.00   8 3.00   9 3.00  10 3.00  11 3.00  12 3.00
                            25 3.00  27 3.00  29 3.00  31 3.00
  20  0.500  0.750  0.250-   3 3.00   4 3.00   7 3.00   8 3.00   9 3.00  10 3.00  11 3.00  12 3.00
                            26 3.00  28 3.00  30 3.00  32 3.00
  21  0.000  0.250  0.750-   2 3.00   5 3.00   6 3.00  13 3.00  14 3.00  15 3.00  16 3.00  25 3.00
                            27 3.00  29 3.00  31 3.00   1 3.00
  22  0.500  0.250  0.750-   1 2.99   2 3.00   5 3.00   6 3.00  13 3.00  14 3.00  15 3.00  16 3.00
                            26 3.00  28 3.00  30 3.00  32 3.00
  23  0.000  0.750  0.750-   3 3.00   4 3.00   7 3.00   8 3.00  13 3.00  14 3.00  15 3.00  16 3.00
                            25 3.00  27 3.00  29 3.00  31 3.00
  24  0.500  0.750  0.750-   3 3.00   4 3.00   7 3.00   8 3.00  13 3.00  14 3.00  15 3.00  16 3.00
                            26 3.00  28 3.00  30 3.00  32 3.00
  25  0.000  0.000  0.000-   2 3.00   3 3.00   4 3.00   9 3.00  10 3.00  13 3.00  14 3.00  17 3.00
                            19 3.00  21 3.00  23 3.00   1 3.00
  26  0.500  0.000  0.000-   1 2.99   2 3.00   3 3.00   4 3.00   9 3.00  10 3.00  13 3.00  14 3.00
                            18 3.00  20 3.00  22 3.00  24 3.00
  27  0.000  0.500  0.000-   2 3.00   3 3.00   4 3.00  11 3.00  12 3.00  15 3.00  16 3.00  17 3.00
                            19 3.00  21 3.00  23 3.00   1 3.00
  28  0.500  0.500  0.000-   1 2.99   2 3.00   3 3.00   4 3.00  11 3.00  12 3.00  15 3.00  16 3.00
                            18 3.00  20 3.00  22 3.00  24 3.00
  29  0.000  0.000  0.500-   5 3.00   6 3.00   7 3.00   8 3.00   9 3.00  10 3.00  13 3.00  14 3.00
                            17 3.00  19 3.00  21 3.00  23 3.00
  30  0.500  0.000  0.500-   5 3.00   6 3.00   7 3.00   8 3.00   9 3.00  10 3.00  13 3.00  14 3.00
                            18 3.00  20 3.00  22 3.00  24 3.00
  31  0.000  0.500  0.500-   5 3.00   6 3.00   7 3.00   8 3.00  11 3.00  12 3.00  15 3.00  16 3.00
                            17 3.00  19 3.00  21 3.00  23 3.00
  32  0.500  0.500  0.500-   5 3.00   6 3.00   7 3.00   8 3.00  11 3.00  12 3.00  15 3.00  16 3.00
                            18 3.00  20 3.00  22 3.00  24 3.00
 
  LATTYP: Found a simple cubic cell.
 ALAT       =     8.4781197900
  
  Lattice vectors:
  
 A1 = (   8.4781197900,   0.0000000000,   0.0000000000)
 A2 = (   0.0000000000,   8.4781197900,   0.0000000000)
 A3 = (   0.0000000000,   0.0000000000,   8.4781197900)
 Subroutine PRICEL returns:
 Original cell was already a primitive cell.
 

Analysis of symmetry for initial positions (statically):

 Routine SETGRP: Setting up the symmetry group for a 
 simple cubic supercell.


 Subroutine GETGRP returns: Found  8 space group operations
 (whereof  2 operations were pure point group operations)
 out of a pool of 48 trial point group operations.


The static configuration has the point symmetry C_1h.
 The point group associated with its full space group is C_4v.

Analysis of symmetry for dynamics (positions and initial velocities):

 Subroutine DYNSYM returns: Found  8 space group operations
 (whereof  2 operations were pure point group operations)
 out of a pool of  8 trial space group operations
 (whereof  2 operations were pure point group operations)
 and found also     1 'primitive' translations


The dynamic configuration has the point symmetry C_1h.
 The point group associated with its full space group is C_4v.
 
 
 KPOINTS: Automatic mesh                          

Automatic generation of k-mesh.
 generate k-points for:   6   6   6
 
 Subroutine IBZKPT returns following result:
 ===========================================
 
 Found     40 irreducible k-points:
 
 Following reciprocal coordinates:
            Coordinates               Weight
  0.000000  0.000000  0.000000      1.000000
  0.166667  0.000000  0.000000      2.000000
  0.333333  0.000000  0.000000      2.000000
  0.500000  0.000000  0.000000      1.000000
  0.000000  0.166667  0.000000      4.000000
  0.166667  0.166667  0.000000      8.000000
  0.333333  0.166667  0.000000      8.000000
  0.500000  0.166667  0.000000      4.000000
  0.000000  0.333333  0.000000      4.000000
  0.166667  0.333333  0.000000      8.000000
  0.333333  0.333333  0.000000      8.000000
  0.500000  0.333333  0.000000      4.000000
  0.000000  0.500000  0.000000      2.000000
  0.166667  0.500000  0.000000      4.000000
  0.333333  0.500000  0.000000      4.000000
  0.500000  0.500000  0.000000      2.000000
  0.000000  0.166667  0.166667      4.000000
  0.166667  0.166667  0.166667      8.000000
  0.333333  0.166667  0.166667      8.000000
  0.500000  0.166667  0.166667      4.000000
  0.000000  0.333333  0.166667      8.000000
  0.166667  0.333333  0.166667     16.000000
  0.333333  0.333333  0.166667     16.000000
  0.500000  0.333333  0.166667      8.000000
  0.000000  0.500000  0.166667      4.000000
  0.166667  0.500000  0.166667      8.000000
  0.333333  0.500000  0.166667      8.000000
  0.500000  0.500000  0.166667      4.000000
  0.000000  0.333333  0.333333      4.000000
  0.166667  0.333333  0.333333      8.000000
  0.333333  0.333333  0.333333      8.000000
  0.500000  0.333333  0.333333      4.000000
  0.000000  0.500000  0.333333      4.000000
  0.166667  0.500000  0.333333      8.000000
  0.333333  0.500000  0.333333      8.000000
  0.500000  0.500000  0.333333      4.000000
  0.000000  0.500000  0.500000      1.000000
  0.166667  0.500000  0.500000      2.000000
  0.333333  0.500000  0.500000      2.000000
  0.500000  0.500000  0.500000      1.000000
 
 Following cartesian coordinates:
            Coordinates               Weight
  0.000000  0.000000  0.000000      1.000000
  0.019658  0.000000  0.000000      2.000000
  0.039317  0.000000  0.000000      2.000000
  0.058975  0.000000  0.000000      1.000000
  0.000000  0.019658  0.000000      4.000000
  0.019658  0.019658  0.000000      8.000000
  0.039317  0.019658  0.000000      8.000000
  0.058975  0.019658  0.000000      4.000000
  0.000000  0.039317  0.000000      4.000000
  0.019658  0.039317  0.000000      8.000000
  0.039317  0.039317  0.000000      8.000000
  0.058975  0.039317  0.000000      4.000000
  0.000000  0.058975  0.000000      2.000000
  0.019658  0.058975  0.000000      4.000000
  0.039317  0.058975  0.000000      4.000000
  0.058975  0.058975  0.000000      2.000000
  0.000000  0.019658  0.019658      4.000000
  0.019658  0.019658  0.019658      8.000000
  0.039317  0.019658  0.019658      8.000000
  0.058975  0.019658  0.019658      4.000000
  0.000000  0.039317  0.019658      8.000000
  0.019658  0.039317  0.019658     16.000000
  0.039317  0.039317  0.019658     16.000000
  0.058975  0.039317  0.019658      8.000000
  0.000000  0.058975  0.019658      4.000000
  0.019658  0.058975  0.019658      8.000000
  0.039317  0.058975  0.019658      8.000000
  0.058975  0.058975  0.019658      4.000000
  0.000000  0.039317  0.039317      4.000000
  0.019658  0.039317  0.039317      8.000000
  0.039317  0.039317  0.039317      8.000000
  0.058975  0.039317  0.039317      4.000000
  0.000000  0.058975  0.039317      4.000000
  0.019658  0.058975  0.039317      8.000000
  0.039317  0.058975  0.039317      8.000000
  0.058975  0.058975  0.039317      4.000000
  0.000000  0.058975  0.058975      1.000000
  0.019658  0.058975  0.058975      2.000000
  0.039317  0.058975  0.058975      2.000000
  0.058975  0.058975  0.058975      1.000000
 


--------------------------------------------------------------------------------------------------------




 Dimension of arrays:
   k-Points           NKPTS =     40   number of bands    NBANDS=     72
   number of dos      NEDOS =    301   number of ions     NIONS =     32
   non local maximal  LDIM  =      4   non local SUM 2l+1 LMDIM =      8
   total plane-waves  NPLWV = 262144
   max r-space proj   IRMAX =      1   max aug-charges    IRDMAX=  16940
   dimension x,y,z NGX =    64 NGY =   64 NGZ =   64
   dimension x,y,z NGXF=   128 NGYF=  128 NGZF=  128
   support grid    NGXF=   128 NGYF=  128 NGZF=  128
   ions per type =              32
 NGX,Y,Z   is equivalent  to a cutoff of  12.55, 12.55, 12.55 a.u.
 NGXF,Y,Z  is equivalent  to a cutoff of  25.10, 25.10, 25.10 a.u.


 I would recommend the setting:
   dimension x,y,z NGX =    62 NGY =   62 NGZ =   62
 SYSTEM =  unknown system                          
 POSCAR =  Al                                      

 Startparameter for this run:
   NWRITE =      2    write-flag & timer
   PREC   = accura    medium, high low
   ISTART =      0    job   : 0-new  1-cont  2-samecut
   ICHARG =      2    charge: 1-file 2-atom 10-const
   ISPIN  =      1    spin polarized calculation?
   LNONCOLLINEAR =      F non collinear calculations
   LSORBIT =      F    spin-orbit coupling
   INIWAV =      1    electr: 0-lowe 1-rand  2-diag
   LASPH  =      F    aspherical Exc in radial PAW
   METAGGA=      F    non-selfconsistent MetaGGA calc.

 Electronic Relaxation 1
   ENCUT  =  500.0 eV  36.75 Ry    6.06 a.u.  15.46 15.46 15.46*2*pi/ulx,y,z
   ENINI  =  500.0     initial cutoff
   ENAUG  =  291.1 eV  augmentation charge cutoff
   NELM   =     60;   NELMIN=  2; NELMDL=  0     # of ELM steps 
   EDIFF  = 0.1E-07   stopping-criterion for ELM
   LREAL  =      F    real-space projection
   LCOMPAT=      F    compatible to vasp.4.4
   LREAL_COMPAT= F    compatible to vasp.4.5.1-3
   GGA_COMPAT  = T    GGA compatible to vasp.4.4-vasp.4.6
   LMAXPAW     = -100 max onsite density
   LMAXMIX     =    2 max onsite mixed and CHGCAR
   VOSKOWN=      0    Vosko Wilk Nusair interpolation
   ROPT   =    0.00000
 Ionic relaxation
   EDIFFG = 0.1E-06   stopping-criterion for IOM
   NSW    =      0    number of steps for IOM
   NBLOCK =      1;   KBLOCK =      1    inner block; outer block 
   IBRION =     -1    ionic relax: 0-MD 1-quasi-New 2-CG
   NFREE  =      0    steps in history (QN), initial steepest desc. (CG)
   ISIF   =      2    stress and relaxation
   IWAVPR =     10    prediction:  0-non 1-charg 2-wave 3-comb
   ISYM   =      2    0-nonsym 1-usesym 2-fastsym
   LCORR  =      T    Harris-Foulkes like correction to forces

   POTIM  =   0.50    time-step for ionic-motion
   TEIN   =    0.0    initial temperature
   TEBEG  =    0.0;   TEEND  =   0.0 temperature during run
   SMASS  =  -3.00    Nose mass-parameter (am)
   estimated Nose-frequenzy (Omega)   =  0.10E-29 period in steps =****** mass=  -0.164E-26a.u.
   NPACO  =    256;   APACO  = 16.0  distance and # of slots for P.C.
   PSTRESS=    0.0 pullay stress

  Mass of Ions in am
   POMASS =  26.98
  Ionic Valenz
   ZVAL   =   3.00
  Atomic Wigner-Seitz radii
   RWIGS  =  -1.00
   NELECT =      96.0000    total number of electrons
   NUPDOWN=      -1.0000    fix difference up-down

 DOS related values:
   EMIN   =  10.00;   EMAX   =-10.00  energy-range for DOS
   ISMEAR =     0;   SIGMA  =   0.01  broadening in eV -4-tet -1-fermi 0-gaus

 Electronic relaxation 2 (details)
   IALGO  =     38    algorithm
   LDIAG  =      T    sub-space diagonalisation
   IMIX   =      4    mixing-type and parameters
     AMIX     =   0.40;   BMIX     =  1.00
     AMIX_MAG =   1.60;   BMIX_MAG =  1.00
     AMIN     =   0.10
     WC   =   100.;   INIMIX=   1;  MIXPRE=   1

 Intra band minimization:
   WEIMIN = 0.0000     energy-eigenvalue tresh-hold
   EBREAK =  0.38E-10  absolut break condition
   DEPER  =   0.30     relativ break condition  

   TIME   =   0.10     timestep for ELM

  volume/ion in A,a.u.               =      19.04       128.51
  Fermi-wavevector in a.u.,eV,Ry     =   0.884163 10.636277  0.781744

 Second variation
   LSECVAR=     F    do a second variation
 
 Write flags
   LWAVE  =      F    write WAVECAR
   LCHARG =      F    write CHGCAR
   LVTOT  =      F    write LOCPOT, local potential
   LELF   =      F    write electronic localiz. function (ELF)
   LORBIT =      0    0 simple, 1 ext, 2 COOP (PROOUT)


 Dipole corrections
   IDIPOL =      0    1-x, 2-y, 3-z
   LDIPOL =      F    correct potential



--------------------------------------------------------------------------------------------------------


 Static calculation
 charge density will be updated during run
 non-spin polarized calculation
 Variant of blocked Davidson
 Davidson routine will perform the subspace rotation
 performe sub-space diagonalisation
    after iterative eigenvector-optimisation
 modified Broyden-mixing scheme, WC =      100.0
 initial mixing is a Kerker type mixing with AMIX =  0.4000 and BMIX =      1.0000
 Hartree-type preconditioning will be used
 using additional bands           24
 reciprocal scheme for non local part
 use partial core corrections
 calculate Harris-corrections to forces 
   (improved forces if not selfconsistent)
 use gradient corrections 
 use of overlap-Matrix (Vanderbilt PP)
 Gauss-broadening in eV      SIGMA  =   0.01


--------------------------------------------------------------------------------------------------------


  energy-cutoff  :      500.00
  volume of cell :      609.39
      direct lattice vectors                 reciprocal lattice vectors
     8.478119790  0.000000000  0.000000000     0.117950681  0.000000000  0.000000000
     0.000000000  8.478119790  0.000000000     0.000000000  0.117950681  0.000000000
     0.000000000  0.000000000  8.478119790     0.000000000  0.000000000  0.117950681

  length of vectors
     8.478119790  8.478119790  8.478119790     0.117950681  0.117950681  0.117950681


 
 k-points in units of 2pi/SCALE and weight: Automatic mesh                          
   0.00000000  0.00000000  0.00000000       0.005
   0.01965845  0.00000000  0.00000000       0.009
   0.03931689  0.00000000  0.00000000       0.009
   0.05897534  0.00000000  0.00000000       0.005
   0.00000000  0.01965845  0.00000000       0.019
   0.01965845  0.01965845  0.00000000       0.037
   0.03931689  0.01965845  0.00000000       0.037
   0.05897534  0.01965845  0.00000000       0.019
   0.00000000  0.03931689  0.00000000       0.019
   0.01965845  0.03931689  0.00000000       0.037
   0.03931689  0.03931689  0.00000000       0.037
   0.05897534  0.03931689  0.00000000       0.019
   0.00000000  0.05897534  0.00000000       0.009
   0.01965845  0.05897534  0.00000000       0.019
   0.03931689  0.05897534  0.00000000       0.019
   0.05897534  0.05897534  0.00000000       0.009
   0.00000000  0.01965845  0.01965845       0.019
   0.01965845  0.01965845  0.01965845       0.037
   0.03931689  0.01965845  0.01965845       0.037
   0.05897534  0.01965845  0.01965845       0.019
   0.00000000  0.03931689  0.01965845       0.037
   0.01965845  0.03931689  0.01965845       0.074
   0.03931689  0.03931689  0.01965845       0.074
   0.05897534  0.03931689  0.01965845       0.037
   0.00000000  0.05897534  0.01965845       0.019
   0.01965845  0.05897534  0.01965845       0.037
   0.03931689  0.05897534  0.01965845       0.037
   0.05897534  0.05897534  0.01965845       0.019
   0.00000000  0.03931689  0.03931689       0.019
   0.01965845  0.03931689  0.03931689       0.037
   0.03931689  0.03931689  0.03931689       0.037
   0.05897534  0.03931689  0.03931689       0.019
   0.00000000  0.05897534  0.03931689       0.019
   0.01965845  0.05897534  0.03931689       0.037
   0.03931689  0.05897534  0.03931689       0.037
   0.05897534  0.05897534  0.03931689       0.019
   0.00000000  0.05897534  0.05897534       0.005
   0.01965845  0.05897534  0.05897534       0.009
   0.03931689  0.05897534  0.05897534       0.009
   0.05897534  0.05897534  0.05897534       0.005
 
 k-points in reciprocal lattice and weights: Automatic mesh                          
   0.00000000  0.00000000  0.00000000       0.005
   0.16666667  0.00000000  0.00000000       0.009
   0.33333333  0.00000000  0.00000000       0.009
   0.50000000  0.00000000  0.00000000       0.005
   0.00000000  0.16666667  0.00000000       0.019
   0.16666667  0.16666667  0.00000000       0.037
   0.33333333  0.16666667  0.00000000       0.037
   0.50000000  0.16666667  0.00000000       0.019
   0.00000000  0.33333333  0.00000000       0.019
   0.16666667  0.33333333  0.00000000       0.037
   0.33333333  0.33333333  0.00000000       0.037
   0.50000000  0.33333333  0.00000000       0.019
   0.00000000  0.50000000  0.00000000       0.009
   0.16666667  0.50000000  0.00000000       0.019
   0.33333333  0.50000000  0.00000000       0.019
   0.50000000  0.50000000  0.00000000       0.009
   0.00000000  0.16666667  0.16666667       0.019
   0.16666667  0.16666667  0.16666667       0.037
   0.33333333  0.16666667  0.16666667       0.037
   0.50000000  0.16666667  0.16666667       0.019
   0.00000000  0.33333333  0.16666667       0.037
   0.16666667  0.33333333  0.16666667       0.074
   0.33333333  0.33333333  0.16666667       0.074
   0.50000000  0.33333333  0.16666667       0.037
   0.00000000  0.50000000  0.16666667       0.019
   0.16666667  0.50000000  0.16666667       0.037
   0.33333333  0.50000000  0.16666667       0.037
   0.50000000  0.50000000  0.16666667       0.019
   0.00000000  0.33333333  0.33333333       0.019
   0.16666667  0.33333333  0.33333333       0.037
   0.33333333  0.33333333  0.33333333       0.037
   0.50000000  0.33333333  0.33333333       0.019
   0.00000000  0.50000000  0.33333333       0.019
   0.16666667  0.50000000  0.33333333       0.037
   0.33333333  0.50000000  0.33333333       0.037
   0.50000000  0.50000000  0.33333333       0.019
   0.00000000  0.50000000  0.50000000       0.005
   0.16666667  0.50000000  0.50000000       0.009
   0.33333333  0.50000000  0.50000000       0.009
   0.50000000  0.50000000  0.50000000       0.005
 
 position of ions in fractional coordinates (direct lattice) 
   0.25117951  0.25000000  0.00000000
   0.75000000  0.25000000  0.00000000
   0.25000000  0.75000000  0.00000000
   0.75000000  0.75000000  0.00000000
   0.25000000  0.25000000  0.50000000
   0.75000000  0.25000000  0.50000000
   0.25000000  0.75000000  0.50000000
   0.75000000  0.75000000  0.50000000
   0.25000000  0.00000000  0.25000000
   0.75000000  0.00000000  0.25000000
   0.25000000  0.50000000  0.25000000
   0.75000000  0.50000000  0.25000000
   0.25000000  0.00000000  0.75000000
   0.75000000  0.00000000  0.75000000
   0.25000000  0.50000000  0.75000000
   0.75000000  0.50000000  0.75000000
   0.00000000  0.25000000  0.25000000
   0.50000000  0.25000000  0.25000000
   0.00000000  0.75000000  0.25000000
   0.50000000  0.75000000  0.25000000
   0.00000000  0.25000000  0.75000000
   0.50000000  0.25000000  0.75000000
   0.00000000  0.75000000  0.75000000
   0.50000000  0.75000000  0.75000000
   0.00000000  0.00000000  0.00000000
   0.50000000  0.00000000  0.00000000
   0.00000000  0.50000000  0.00000000
   0.50000000  0.50000000  0.00000000
   0.00000000  0.00000000  0.50000000
   0.50000000  0.00000000  0.50000000
   0.00000000  0.50000000  0.50000000
   0.50000000  0.50000000  0.50000000
 
 position of ions in cartesian coordinates  (Angst):
   2.12952995  2.11952995  0.00000000
   6.35858984  2.11952995  0.00000000
   2.11952995  6.35858984  0.00000000
   6.35858984  6.35858984  0.00000000
   2.11952995  2.11952995  4.23905990
   6.35858984  2.11952995  4.23905990
   2.11952995  6.35858984  4.23905990
   6.35858984  6.35858984  4.23905990
   2.11952995  0.00000000  2.11952995
   6.35858984  0.00000000  2.11952995
   2.11952995  4.23905990  2.11952995
   6.35858984  4.23905990  2.11952995
   2.11952995  0.00000000  6.35858984
   6.35858984  0.00000000  6.35858984
   2.11952995  4.23905990  6.35858984
   6.35858984  4.23905990  6.35858984
   0.00000000  2.11952995  2.11952995
   4.23905990  2.11952995  2.11952995
   0.00000000  6.35858984  2.11952995
   4.23905990  6.35858984  2.11952995
   0.00000000  2.11952995  6.35858984
   4.23905990  2.11952995  6.35858984
   0.00000000  6.35858984  6.35858984
   4.23905990  6.35858984  6.35858984
   0.00000000  0.00000000  0.00000000
   4.23905990  0.00000000  0.00000000
   0.00000000  4.23905990  0.00000000
   4.23905990  4.23905990  0.00000000
   0.00000000  0.00000000  4.23905990
   4.23905990  0.00000000  4.23905990
   0.00000000  4.23905990  4.23905990
   4.23905990  4.23905990  4.23905990
 


--------------------------------------------------------------------------------------------------------


 k-point  1 :  0.00000.00000.0000  plane waves:  15515
 k-point  2 :  0.16670.00000.0000  plane waves:  15475
 k-point  3 :  0.33330.00000.0000  plane waves:  15487
 k-point  4 :  0.50000.00000.0000  plane waves:  15494
 k-point  5 :  0.00000.16670.0000  plane waves:  15475
 k-point  6 :  0.16670.16670.0000  plane waves:  15472
 k-point  7 :  0.33330.16670.0000  plane waves:  15458
 k-point  8 :  0.50000.16670.0000  plane waves:  15470
 k-point  9 :  0.00000.33330.0000  plane waves:  15487
 k-point 10 :  0.16670.33330.0000  plane waves:  15458
 k-point 11 :  0.33330.33330.0000  plane waves:  15506
 k-point 12 :  0.50000.33330.0000  plane waves:  15458
 k-point 13 :  0.00000.50000.0000  plane waves:  15494
 k-point 14 :  0.16670.50000.0000  plane waves:  15470
 k-point 15 :  0.33330.50000.0000  plane waves:  15458
 k-point 16 :  0.50000.50000.0000  plane waves:  15500
 k-point 17 :  0.00000.16670.1667  plane waves:  15472
 k-point 18 :  0.16670.16670.1667  plane waves:  15495
 k-point 19 :  0.33330.16670.1667  plane waves:  15472
 k-point 20 :  0.50000.16670.1667  plane waves:  15472
 k-point 21 :  0.00000.33330.1667  plane waves:  15458
 k-point 22 :  0.16670.33330.1667  plane waves:  15472
 k-point 23 :  0.33330.33330.1667  plane waves:  15503
 k-point 24 :  0.50000.33330.1667  plane waves:  15454
 k-point 25 :  0.00000.50000.1667  plane waves:  15470
 k-point 26 :  0.16670.50000.1667  plane waves:  15472
 k-point 27 :  0.33330.50000.1667  plane waves:  15454
 k-point 28 :  0.50000.50000.1667  plane waves:  15444
 k-point 29 :  0.00000.33330.3333  plane waves:  15506
 k-point 30 :  0.16670.33330.3333  plane waves:  15503
 k-point 31 :  0.33330.33330.3333  plane waves:  15465
 k-point 32 :  0.50000.33330.3333  plane waves:  15450
 k-point 33 :  0.00000.50000.3333  plane waves:  15458
 k-point 34 :  0.16670.50000.3333  plane waves:  15454
 k-point 35 :  0.33330.50000.3333  plane waves:  15450
 k-point 36 :  0.50000.50000.3333  plane waves:  15412
 k-point 37 :  0.00000.50000.5000  plane waves:  15500
 k-point 38 :  0.16670.50000.5000  plane waves:  15444
 k-point 39 :  0.33330.50000.5000  plane waves:  15412
 k-point 40 :  0.50000.50000.5000  plane waves:  15408

 maximum and minimum number of plane-waves per node :  15515 15408

 maximum number of plane-waves:  15515
 maximal index in each direction: 
   IXMAX= 15   IYMAX= 15   IZMAX= 15
   IXMIN=-15   IYMIN=-15   IZMIN=-15

 NGX is ok and might be reduce to  62
 NGY is ok and might be reduce to  62
 NGZ is ok and might be reduce to  62

 parallel 3dFFT wavefunction:
    minimum data exchange during FFTs selected (reduces bandwidth)
 parallel 3dFFT charge:
    minimum data exchange during FFTs selected (reduces bandwidth)

 For storing wavefunctions  712.83 MBYTES are necessary
 For predicting wavefunctions   39.48 MBYTES are necessary
Broyden mixing: mesh for mixing (old mesh)
   NGX = 31   NGY = 31   NGZ = 31
  (NGX  =128   NGY  =128   NGZ  =128)
 gives a total of  29791 points
 initial charge density was supplied:
 charge density of overlapping atoms calculated
 number of electron   96.0000000 magnetization 
 keeping initial charge density in first step


--------------------------------------------------------------------------------------------------------


 Maximum index for augmentation-charges         1939 (set IRDMAX)


--------------------------------------------------------------------------------------------------------


 First call to EWALD:  gamma=   0.209
 Maximum number of real-space cells 3x 3x 3
 Maximum number of reciprocal cells 3x 3x 3

    FEWALD:  VPU time    0.00: CPU time    0.00


----------------------------------------- Iteration    1(   1)  ---------------------------------------


    POTLOK:  VPU time    0.16: CPU time    0.16
    SETDIJ:  VPU time    0.01: CPU time    0.01
    EDDAV :  VPU time   24.30: CPU time   24.37
    DOS   :  VPU time    0.00: CPU time   -0.00
    ------------------------------------------
      LOOP:  VPU time   24.47: CPU time   24.54

 eigenvalue-minimisations  :  5760
 total energy-change (2. order) : 0.1047186E+03  (-0.3163205E+04)
 number of electron   96.0000000 magnetization 
 augmentation part    96.0000000 magnetization 

 Free energy of the ion-electron system (eV)
  ---------------------------------------------------
  alpha Z        PSCENC =        -5.64400003
  Ewald energy   TEWEN  =     -2242.72008056
  -1/2 Hartree   DENC   =        -5.70587823
  -V(xc)+E(xc)   XCENC  =      -847.68808879
  PAW double counting   =      1137.73615723     -115.16745734
  entropy T*S    EENTRO =        -0.00076628
  eigenvalues    EBANDS =       470.67957443
  atomic energy  EATOM  =      1713.22913220
  ---------------------------------------------------
  free energy    TOTEN  =       104.71859263 eV

  energy without entropy =      104.71935891  energy(sigma->0) =      104.71897577


--------------------------------------------------------------------------------------------------------




----------------------------------------- Iteration    1(   2)  ---------------------------------------


    EDDAV :  VPU time   27.24: CPU time   27.29
    DOS   :  VPU time    0.00: CPU time   -0.00
    ------------------------------------------
      LOOP:  VPU time   27.25: CPU time   27.29

 eigenvalue-minimisations  :  6792
 total energy-change (2. order) :-0.2103245E+03  (-0.1954721E+03)
 number of electron   96.0000000 magnetization 
 augmentation part    96.0000000 magnetization 

 Free energy of the ion-electron system (eV)
  ---------------------------------------------------
  alpha Z        PSCENC =        -5.64400003
  Ewald energy   TEWEN  =     -2242.72008056
  -1/2 Hartree   DENC   =        -5.70587823
  -V(xc)+E(xc)   XCENC  =      -847.68808879
  PAW double counting   =      1137.73615723     -115.16745734
  entropy T*S    EENTRO =        -0.00080812
  eigenvalues    EBANDS =       260.35514228
  atomic energy  EATOM  =      1713.22913220
  ---------------------------------------------------
  free energy    TOTEN  =      -105.60588136 eV

  energy without entropy =     -105.60507324  energy(sigma->0) =     -105.60547730


--------------------------------------------------------------------------------------------------------




----------------------------------------- Iteration    1(   3)  ---------------------------------------


    EDDAV :  VPU time   28.38: CPU time   28.43
    DOS   :  VPU time    0.00: CPU time   -0.00
    ------------------------------------------
      LOOP:  VPU time   28.39: CPU time   28.43

 eigenvalue-minimisations  :  7184
 total energy-change (2. order) :-0.1225635E+02  (-0.1164384E+02)
 number of electron   96.0000000 magnetization 
 augmentation part    96.0000000 magnetization 

 Free energy of the ion-electron system (eV)
  ---------------------------------------------------
  alpha Z        PSCENC =        -5.64400003
  Ewald energy   TEWEN  =     -2242.72008056
  -1/2 Hartree   DENC   =        -5.70587823
  -V(xc)+E(xc)   XCENC  =      -847.68808879
  PAW double counting   =      1137.73615723     -115.16745734
  entropy T*S    EENTRO =        -0.00063453
  eigenvalues    EBANDS =       248.09862190
  atomic energy  EATOM  =      1713.22913220
  ---------------------------------------------------
  free energy    TOTEN  =      -117.86222813 eV

  energy without entropy =     -117.86159361  energy(sigma->0) =     -117.86191087


--------------------------------------------------------------------------------------------------------




----------------------------------------- Iteration    1(   4)  ---------------------------------------


    EDDAV :  VPU time   27.11: CPU time   27.16
    DOS   :  VPU time   -0.00: CPU time   -0.00
    ------------------------------------------
      LOOP:  VPU time   27.12: CPU time   27.17

 eigenvalue-minimisations  :  6752
 total energy-change (2. order) :-0.2481177E+00  (-0.2459693E+00)
 number of electron   96.0000000 magnetization 
 augmentation part    96.0000000 magnetization 

 Free energy of the ion-electron system (eV)
  ---------------------------------------------------
  alpha Z        PSCENC =        -5.64400003
  Ewald energy   TEWEN  =     -2242.72008056
  -1/2 Hartree   DENC   =        -5.70587823
  -V(xc)+E(xc)   XCENC  =      -847.68808879
  PAW double counting   =      1137.73615723     -115.16745734
  entropy T*S    EENTRO =        -0.00074564
  eigenvalues    EBANDS =       247.85061529
  atomic energy  EATOM  =      1713.22913220
  ---------------------------------------------------
  free energy    TOTEN  =      -118.11034586 eV

  energy without entropy =     -118.10960022  energy(sigma->0) =     -118.10997304


--------------------------------------------------------------------------------------------------------




----------------------------------------- Iteration    1(   5)  ---------------------------------------


    EDDAV :  VPU time   27.09: CPU time   27.13
    DOS   :  VPU time    0.00: CPU time   -0.00
    CHARGE:  VPU time    1.67: CPU time    1.67
    MIXING:  VPU time    0.00: CPU time    0.00
    ------------------------------------------
      LOOP:  VPU time   28.76: CPU time   28.81

 eigenvalue-minimisations  :  6744
 total energy-change (2. order) :-0.3146512E-02  (-0.3145042E-02)
 number of electron   96.0000002 magnetization 
 augmentation part    -1.3003240 magnetization 

 Broyden mixing:
  rms(total) = 0.49048E+00    rms(broyden)= 0.49048E+00
  rms(prec ) = 0.71738E+00
  weight for this iteration     100.00

 Free energy of the ion-electron system (eV)
  ---------------------------------------------------
  alpha Z        PSCENC =        -5.64400003
  Ewald energy   TEWEN  =     -2242.72008056
  -1/2 Hartree   DENC   =        -5.70587823
  -V(xc)+E(xc)   XCENC  =      -847.68808879
  PAW double counting   =      1137.73615723     -115.16745734
  entropy T*S    EENTRO =        -0.00075162
  eigenvalues    EBANDS =       247.84747476
  atomic energy  EATOM  =      1713.22913220
  ---------------------------------------------------
  free energy    TOTEN  =      -118.11349237 eV

  energy without entropy =     -118.11274075  energy(sigma->0) =     -118.11311656


--------------------------------------------------------------------------------------------------------




----------------------------------------- Iteration    1(   6)  ---------------------------------------


    POTLOK:  VPU time    0.16: CPU time    0.16
    SETDIJ:  VPU time    0.01: CPU time    0.01
    EDDAV :  VPU time   26.57: CPU time   26.61
    DOS   :  VPU time    0.00: CPU time   -0.00
    CHARGE:  VPU time    1.66: CPU time    1.66
    MIXING:  VPU time    0.01: CPU time    0.00
    ------------------------------------------
      LOOP:  VPU time   28.40: CPU time   28.44

 eigenvalue-minimisations  :  6560
 total energy-change (2. order) : 0.3865720E+00  (-0.7221584E-02)
 number of electron   96.0000002 magnetization 
 augmentation part    -1.3217166 magnetization 

 Broyden mixing:
  rms(total) = 0.30376E+00    rms(broyden)= 0.30376E+00
  rms(prec ) = 0.44580E+00
  weight for this iteration     100.00

 eigenvalues of (default mixing * dielectric matrix)
  average eigenvalue GAMMA=   2.6165
  2.6165

 Free energy of the ion-electron system (eV)
  ---------------------------------------------------
  alpha Z        PSCENC =        -5.64400003
  Ewald energy   TEWEN  =     -2242.72008056
  -1/2 Hartree   DENC   =        -4.25527544
  -V(xc)+E(xc)   XCENC  =      -846.93516147
  PAW double counting   =      1134.04018191     -111.33498472
  entropy T*S    EENTRO =        -0.00070902
  eigenvalues    EBANDS =       245.89397676
  atomic energy  EATOM  =      1713.22913220
  ---------------------------------------------------
  free energy    TOTEN  =      -117.72692036 eV

  energy without entropy =     -117.72621134  energy(sigma->0) =     -117.72656585


--------------------------------------------------------------------------------------------------------




----------------------------------------- Iteration    1(   7)  ---------------------------------------


    POTLOK:  VPU time    0.18: CPU time    0.18
    SETDIJ:  VPU time    0.01: CPU time    0.01
    EDDAV :  VPU time   25.84: CPU time   25.88
    DOS   :  VPU time    0.00: CPU time   -0.00
    CHARGE:  VPU time    1.67: CPU time    1.67
    MIXING:  VPU time    0.00: CPU time    0.01
    ------------------------------------------
      LOOP:  VPU time   27.71: CPU time   27.75

 eigenvalue-minimisations  :  6328
 total energy-change (2. order) : 0.2768046E+00  (-0.2089485E-01)
 number of electron   96.0000002 magnetization 
 augmentation part    -1.3609035 magnetization 

 Broyden mixing:
  rms(total) = 0.13644E-01    rms(broyden)= 0.13644E-01
  rms(prec ) = 0.16352E-01
  weight for this iteration     100.00

 eigenvalues of (default mixing * dielectric matrix)
  average eigenvalue GAMMA=   2.5139
  2.5139  2.5139

 Free energy of the ion-electron system (eV)
  ---------------------------------------------------
  alpha Z        PSCENC =        -5.64400003
  Ewald energy   TEWEN  =     -2242.72008056
  -1/2 Hartree   DENC   =        -3.21833012
  -V(xc)+E(xc)   XCENC  =      -845.29731571
  PAW double counting   =      1128.75864479     -105.89633460
  entropy T*S    EENTRO =        -0.00058427
  eigenvalues    EBANDS =       243.33875252
  atomic energy  EATOM  =      1713.22913220
  ---------------------------------------------------
  free energy    TOTEN  =      -117.45011578 eV

  energy without entropy =     -117.44953151  energy(sigma->0) =     -117.44982365


--------------------------------------------------------------------------------------------------------




----------------------------------------- Iteration    1(   8)  ---------------------------------------


    POTLOK:  VPU time    0.15: CPU time    0.16
    SETDIJ:  VPU time    0.01: CPU time    0.01
    EDDAV :  VPU time   27.44: CPU time   27.48
    DOS   :  VPU time    0.00: CPU time   -0.00
    CHARGE:  VPU time    1.68: CPU time    1.69
    MIXING:  VPU time    0.01: CPU time    0.01
    ------------------------------------------
      LOOP:  VPU time   29.30: CPU time   29.35

 eigenvalue-minimisations  :  6896
 total energy-change (2. order) : 0.1582764E-03  (-0.1545563E-03)
 number of electron   96.0000002 magnetization 
 augmentation part    -1.3625999 magnetization 

 Broyden mixing:
  rms(total) = 0.39366E-02    rms(broyden)= 0.39366E-02
  rms(prec ) = 0.53793E-02
  weight for this iteration     100.00

 eigenvalues of (default mixing * dielectric matrix)
  average eigenvalue GAMMA=   2.0655
  0.9703  2.6770  2.5490

 Free energy of the ion-electron system (eV)
  ---------------------------------------------------
  alpha Z        PSCENC =        -5.64400003
  Ewald energy   TEWEN  =     -2242.72008056
  -1/2 Hartree   DENC   =        -3.28088078
  -V(xc)+E(xc)   XCENC  =      -845.25615268
  PAW double counting   =      1130.23691582     -107.46711591
  entropy T*S    EENTRO =        -0.00058181
  eigenvalues    EBANDS =       243.45280623
  atomic energy  EATOM  =      1713.22913220
  ---------------------------------------------------
  free energy    TOTEN  =      -117.44995750 eV

  energy without entropy =     -117.44937569  energy(sigma->0) =     -117.44966660


--------------------------------------------------------------------------------------------------------




----------------------------------------- Iteration    1(   9)  ---------------------------------------


    POTLOK:  VPU time    0.15: CPU time    0.16
    SETDIJ:  VPU time    0.01: CPU time    0.01
    EDDAV :  VPU time   27.17: CPU time   27.22
    DOS   :  VPU time    0.00: CPU time   -0.00
    CHARGE:  VPU time    1.66: CPU time    1.66
    MIXING:  VPU time    0.00: CPU time    0.01
    ------------------------------------------
      LOOP:  VPU time   29.00: CPU time   29.05

 eigenvalue-minimisations  :  6800
 total energy-change (2. order) :-0.1453125E-04  (-0.4899540E-05)
 number of electron   96.0000002 magnetization 
 augmentation part    -1.3635162 magnetization 

 Broyden mixing:
  rms(total) = 0.31852E-03    rms(broyden)= 0.31851E-03
  rms(prec ) = 0.44614E-03
  weight for this iteration     100.00

 eigenvalues of (default mixing * dielectric matrix)
  average eigenvalue GAMMA=   1.9729
  1.0023  2.6697  2.5564  1.6631

 Free energy of the ion-electron system (eV)
  ---------------------------------------------------
  alpha Z        PSCENC =        -5.64400003
  Ewald energy   TEWEN  =     -2242.72008056
  -1/2 Hartree   DENC   =        -3.30273527
  -V(xc)+E(xc)   XCENC  =      -845.22099217
  PAW double counting   =      1130.63379338     -107.89359843
  entropy T*S    EENTRO =        -0.00057973
  eigenvalues    EBANDS =       243.46908856
  atomic energy  EATOM  =      1713.22913220
  ---------------------------------------------------
  free energy    TOTEN  =      -117.44997203 eV

  energy without entropy =     -117.44939231  energy(sigma->0) =     -117.44968217


--------------------------------------------------------------------------------------------------------




----------------------------------------- Iteration    1(  10)  ---------------------------------------


    POTLOK:  VPU time    0.18: CPU time    0.19
    SETDIJ:  VPU time    0.01: CPU time    0.01
    EDDAV :  VPU time   27.52: CPU time   27.57
    DOS   :  VPU time    0.00: CPU time   -0.00
    CHARGE:  VPU time    1.70: CPU time    1.70
    MIXING:  VPU time    0.00: CPU time    0.01
    ------------------------------------------
      LOOP:  VPU time   29.42: CPU time   29.48

 eigenvalue-minimisations  :  6920
 total energy-change (2. order) : 0.2244587E-05  (-0.1612428E-06)
 number of electron   96.0000002 magnetization 
 augmentation part    -1.3635922 magnetization 

 Broyden mixing:
  rms(total) = 0.18118E-03    rms(broyden)= 0.18118E-03
  rms(prec ) = 0.23974E-03
  weight for this iteration     100.00

 eigenvalues of (default mixing * dielectric matrix)
  average eigenvalue GAMMA=   1.9216
  2.6598  2.6598  2.3774  1.0345  0.8763

 Free energy of the ion-electron system (eV)
  ---------------------------------------------------
  alpha Z        PSCENC =        -5.64400003
  Ewald energy   TEWEN  =     -2242.72008056
  -1/2 Hartree   DENC   =        -3.30362804
  -V(xc)+E(xc)   XCENC  =      -845.22009067
  PAW double counting   =      1130.58100396     -107.83933329
  entropy T*S    EENTRO =        -0.00057960
  eigenvalues    EBANDS =       243.46760623
  atomic energy  EATOM  =      1713.22913220
  ---------------------------------------------------
  free energy    TOTEN  =      -117.44996979 eV

  energy without entropy =     -117.44939019  energy(sigma->0) =     -117.44967999


--------------------------------------------------------------------------------------------------------




----------------------------------------- Iteration    1(  11)  ---------------------------------------


    POTLOK:  VPU time    0.16: CPU time    0.16
    SETDIJ:  VPU time    0.01: CPU time    0.01
    EDDAV :  VPU time   27.07: CPU time   27.13
    DOS   :  VPU time    0.00: CPU time   -0.00
    CHARGE:  VPU time    1.69: CPU time    1.69
    MIXING:  VPU time    0.01: CPU time    0.01
    ------------------------------------------
      LOOP:  VPU time   28.94: CPU time   28.99

 eigenvalue-minimisations  :  6712
 total energy-change (2. order) : 0.3671347E-05  (-0.1194153E-07)
 number of electron   96.0000002 magnetization 
 augmentation part    -1.3636070 magnetization 

 Broyden mixing:
  rms(total) = 0.57797E-04    rms(broyden)= 0.57797E-04
  rms(prec ) = 0.78517E-04
  weight for this iteration     100.00

 eigenvalues of (default mixing * dielectric matrix)
  average eigenvalue GAMMA=   1.8253
  2.7209  2.7209  2.4722  1.2233  0.9878  0.8269

 Free energy of the ion-electron system (eV)
  ---------------------------------------------------
  alpha Z        PSCENC =        -5.64400003
  Ewald energy   TEWEN  =     -2242.72008056
  -1/2 Hartree   DENC   =        -3.30412338
  -V(xc)+E(xc)   XCENC  =      -845.22046470
  PAW double counting   =      1130.51755911     -107.77371978
  entropy T*S    EENTRO =        -0.00057955
  eigenvalues    EBANDS =       243.46631056
  atomic energy  EATOM  =      1713.22913220
  ---------------------------------------------------
  free energy    TOTEN  =      -117.44996612 eV

  energy without entropy =     -117.44938657  energy(sigma->0) =     -117.44967635


--------------------------------------------------------------------------------------------------------




----------------------------------------- Iteration    1(  12)  ---------------------------------------


    POTLOK:  VPU time    0.16: CPU time    0.16
    SETDIJ:  VPU time    0.01: CPU time    0.01
    EDDAV :  VPU time   19.60: CPU time   19.64
    DOS   :  VPU time   -0.00: CPU time   -0.00
    CHARGE:  VPU time    1.67: CPU time    1.67
    MIXING:  VPU time    0.00: CPU time    0.01
    ------------------------------------------
      LOOP:  VPU time   21.44: CPU time   21.48

 eigenvalue-minimisations  :  4152
 total energy-change (2. order) : 0.9210337E-06  (-0.1695224E-08)
 number of electron   96.0000002 magnetization 
 augmentation part    -1.3636146 magnetization 

 Broyden mixing:
  rms(total) = 0.84661E-05    rms(broyden)= 0.84660E-05
  rms(prec ) = 0.14125E-04
  weight for this iteration     100.00

 eigenvalues of (default mixing * dielectric matrix)
  average eigenvalue GAMMA=   1.7775
  2.7050  2.7050  2.4621  1.6319  1.0201  1.1078  0.8104

 Free energy of the ion-electron system (eV)
  ---------------------------------------------------
  alpha Z        PSCENC =        -5.64400003
  Ewald energy   TEWEN  =     -2242.72008056
  -1/2 Hartree   DENC   =        -3.30437018
  -V(xc)+E(xc)   XCENC  =      -845.22027709
  PAW double counting   =      1130.49856809     -107.75416113
  entropy T*S    EENTRO =        -0.00057952
  eigenvalues    EBANDS =       243.46580301
  atomic energy  EATOM  =      1713.22913220
  ---------------------------------------------------
  free energy    TOTEN  =      -117.44996520 eV

  energy without entropy =     -117.44938568  energy(sigma->0) =     -117.44967544


--------------------------------------------------------------------------------------------------------




----------------------------------------- Iteration    1(  13)  ---------------------------------------


    POTLOK:  VPU time    0.20: CPU time    0.20
    SETDIJ:  VPU time    0.01: CPU time    0.01
    EDDAV :  VPU time   18.42: CPU time   18.45
    DOS   :  VPU time    0.00: CPU time   -0.00
    CHARGE:  VPU time    1.67: CPU time    1.68
    MIXING:  VPU time    0.00: CPU time    0.01
    ------------------------------------------
      LOOP:  VPU time   20.31: CPU time   20.34

 eigenvalue-minimisations  :  3744
 total energy-change (2. order) : 0.5781749E-07  (-0.2784456E-09)
 number of electron   96.0000002 magnetization 
 augmentation part    -1.3636142 magnetization 

 Broyden mixing:
  rms(total) = 0.28678E-05    rms(broyden)= 0.28678E-05
  rms(prec ) = 0.44168E-05
  weight for this iteration     100.00

 eigenvalues of (default mixing * dielectric matrix)
  average eigenvalue GAMMA=   1.7284
  2.7226  2.7226  2.4878  1.7389  1.3530  1.0425  0.9479  0.8120

 Free energy of the ion-electron system (eV)
  ---------------------------------------------------
  alpha Z        PSCENC =        -5.64400003
  Ewald energy   TEWEN  =     -2242.72008056
  -1/2 Hartree   DENC   =        -3.30436448
  -V(xc)+E(xc)   XCENC  =      -845.22033699
  PAW double counting   =      1130.49878061     -107.75436838
  entropy T*S    EENTRO =        -0.00057952
  eigenvalues    EBANDS =       243.46585202
  atomic energy  EATOM  =      1713.22913220
  ---------------------------------------------------
  free energy    TOTEN  =      -117.44996514 eV

  energy without entropy =     -117.44938562  energy(sigma->0) =     -117.44967538


--------------------------------------------------------------------------------------------------------




----------------------------------------- Iteration    1(  14)  ---------------------------------------


    POTLOK:  VPU time    0.15: CPU time    0.16
    SETDIJ:  VPU time    0.01: CPU time    0.01
    EDDAV :  VPU time   18.25: CPU time   18.28
    DOS   :  VPU time    0.00: CPU time   -0.00
    CHARGE:  VPU time    1.67: CPU time    1.67
    MIXING:  VPU time    0.01: CPU time    0.01
    ------------------------------------------
      LOOP:  VPU time   20.09: CPU time   20.13

 eigenvalue-minimisations  :  3688
 total energy-change (2. order) :-0.1194985E-07  (-0.4218382E-10)
 number of electron   96.0000002 magnetization 
 augmentation part    -1.3636156 magnetization 

 Broyden mixing:
  rms(total) = 0.95609E-06    rms(broyden)= 0.95608E-06
  rms(prec ) = 0.12194E-05
  weight for this iteration     100.00

 eigenvalues of (default mixing * dielectric matrix)
  average eigenvalue GAMMA=   1.7049
  2.7484  2.7484  2.4935  2.0803  1.3514  1.2056  0.8187  0.9755  0.9222

 Free energy of the ion-electron system (eV)
  ---------------------------------------------------
  alpha Z        PSCENC =        -5.64400003
  Ewald energy   TEWEN  =     -2242.72008056
  -1/2 Hartree   DENC   =        -3.30437120
  -V(xc)+E(xc)   XCENC  =      -845.22033106
  PAW double counting   =      1130.49906181     -107.75466291
  entropy T*S    EENTRO =        -0.00057952
  eigenvalues    EBANDS =       243.46586612
  atomic energy  EATOM  =      1713.22913220
  ---------------------------------------------------
  free energy    TOTEN  =      -117.44996515 eV

  energy without entropy =     -117.44938563  energy(sigma->0) =     -117.44967539


--------------------------------------------------------------------------------------------------------




----------------------------------------- Iteration    1(  15)  ---------------------------------------


    POTLOK:  VPU time    0.16: CPU time    0.16
    SETDIJ:  VPU time    0.01: CPU time    0.01
    EDDAV :  VPU time   18.23: CPU time   18.26
    DOS   :  VPU time    0.00: CPU time   -0.00
    CHARGE:  VPU time    1.68: CPU time    1.68
    MIXING:  VPU time    0.01: CPU time    0.01
    ------------------------------------------
      LOOP:  VPU time   20.09: CPU time   20.12

 eigenvalue-minimisations  :  3680
 total energy-change (2. order) :-0.2096795E-07  (-0.1204131E-10)
 number of electron   96.0000002 magnetization 
 augmentation part    -1.3636155 magnetization 

 Broyden mixing:
  rms(total) = 0.45276E-06    rms(broyden)= 0.45275E-06
  rms(prec ) = 0.70338E-06
  weight for this iteration     100.00

 eigenvalues of (default mixing * dielectric matrix)
  average eigenvalue GAMMA=   1.6767
  2.7894  2.6306  2.5997  2.2771  1.6464  1.2484  1.0041  0.9133  0.8290  0.8290

 Free energy of the ion-electron system (eV)
  ---------------------------------------------------
  alpha Z        PSCENC =        -5.64400003
  Ewald energy   TEWEN  =     -2242.72008056
  -1/2 Hartree   DENC   =        -3.30437341
  -V(xc)+E(xc)   XCENC  =      -845.22033528
  PAW double counting   =      1130.49943639     -107.75505226
  entropy T*S    EENTRO =        -0.00057952
  eigenvalues    EBANDS =       243.46588729
  atomic energy  EATOM  =      1713.22913220
  ---------------------------------------------------
  free energy    TOTEN  =      -117.44996517 eV

  energy without entropy =     -117.44938565  energy(sigma->0) =     -117.44967541


--------------------------------------------------------------------------------------------------------




----------------------------------------- Iteration    1(  16)  ---------------------------------------


    POTLOK:  VPU time    0.19: CPU time    0.19
    SETDIJ:  VPU time    0.01: CPU time    0.01
    EDDAV :  VPU time   18.23: CPU time   18.26
    DOS   :  VPU time    0.00: CPU time   -0.00
    ------------------------------------------
      LOOP:  VPU time   18.43: CPU time   18.46

 eigenvalue-minimisations  :  3696
 total energy-change (2. order) :-0.4311687E-08  (-0.2642827E-11)
 number of electron   96.0000002 magnetization 
 augmentation part    -1.3636155 magnetization 

 Free energy of the ion-electron system (eV)
  ---------------------------------------------------
  alpha Z        PSCENC =        -5.64400003
  Ewald energy   TEWEN  =     -2242.72008056
  -1/2 Hartree   DENC   =        -3.30437218
  -V(xc)+E(xc)   XCENC  =      -845.22033563
  PAW double counting   =      1130.49956180     -107.75518203
  entropy T*S    EENTRO =        -0.00057952
  eigenvalues    EBANDS =       243.46589078
  atomic energy  EATOM  =      1713.22913220
  ---------------------------------------------------
  free energy    TOTEN  =      -117.44996518 eV

  energy without entropy =     -117.44938565  energy(sigma->0) =     -117.44967542


--------------------------------------------------------------------------------------------------------




 average (electrostatic) potential at core
  the test charge radii are     1.0406
  (the norm of the test charge is              1.0000)
       1 -74.2327       2 -74.2327       3 -74.2327       4 -74.2327       5 -74.2327
       6 -74.2327       7 -74.2327       8 -74.2327       9 -74.2327      10 -74.2327
      11 -74.2327      12 -74.2327      13 -74.2327      14 -74.2327      15 -74.2327
      16 -74.2327      17 -74.2331      18 -74.2323      19 -74.2328      20 -74.2327
      21 -74.2331      22 -74.2323      23 -74.2328      24 -74.2327      25 -74.2331
      26 -74.2323      27 -74.2331      28 -74.2323      29 -74.2328      30 -74.2327
      31 -74.2328      32 -74.2327
 
 
 
 E-fermi :   6.6023     XC(G=0):  -9.6884     alpha+bet :-12.8894
   add alpha+bet to get absolut eigen values

 k-point   1 :       0.0000    0.0000    0.0000
  band No.  band energies     occupation 
      1      -3.5980      2.00000
      2      -1.5551      2.00000
      3      -1.5516      2.00000
      4      -1.5516      2.00000
      5      -1.5516      2.00000
      6      -1.5516      2.00000
      7      -1.5482      2.00000
      8       0.4628      2.00000
      9       0.4671      2.00000
     10       0.4671      2.00000
     11       0.4686      2.00000
     12       0.4687      2.00000
     13       0.4687      2.00000
     14       0.4687      2.00000
     15       0.4687      2.00000
     16       0.4689      2.00000
     17       0.4703      2.00000
     18       0.4703      2.00000
     19       0.4747      2.00000
     20       2.3839      2.00000
     21       2.3839      2.00000
     22       2.3839      2.00000
     23       2.3839      2.00000
     24       2.5476      2.00000
     25       2.5476      2.00000
     26       2.5476      2.00000
     27       2.5477      2.00000
     28       4.0047      2.00000
     29       4.0047      2.00000
     30       4.0048      2.00000
     31       4.9692      2.00000
     32       4.9692      2.00000
     33       4.9692      2.00000
     34       5.9147      2.00000
     35       5.9147      2.00000
     36       5.9187      2.00000
     37       5.9187      2.00000
     38       5.9188      2.00000
     39       5.9188      2.00000
     40       5.9188      2.00000
     41       5.9188      2.00000
     42       5.9189      2.00000
     43       5.9189      2.00000
     44       5.9228      2.00000
     45       5.9228      2.00000
     46       6.9405      0.00000
     47       6.9413      0.00000
     48       6.9413      0.00000
     49       6.9413      0.00000
     50       6.9413      0.00000
     51       6.9421      0.00000
     52       6.9850      0.00000
     53       6.9888      0.00000
     54       6.9888      0.00000
     55       6.9888      0.00000
     56       6.9889      0.00000
     57       6.9925      0.00000
     58       7.8298      0.00000
     59       7.8298      0.00000
     60       7.8316      0.00000
     61       7.8335      0.00000
     62       7.8336      0.00000
     63       7.8336      0.00000
     64       7.8336      0.00000
     65       7.8337      0.00000
     66       7.8338      0.00000
     67       7.8357      0.00000
     68       7.8375      0.00000
     69       7.8375      0.00000
     70       8.9044      0.00000
     71       8.9064      0.00000
     72       8.9073      0.00000

 k-point   2 :       0.1667    0.0000    0.0000
  band No.  band energies     occupation 
      1      -3.5408      2.00000
      2      -2.1741      2.00000
      3      -1.4952      2.00000
      4      -1.4952      2.00000
      5      -1.4952      2.00000
      6      -1.4952      2.00000
      7      -0.8192      2.00000
      8      -0.1460      2.00000
      9      -0.1460      2.00000
     10      -0.1460      2.00000
     11      -0.1460      2.00000
     12       0.5244      2.00000
     13       0.5244      2.00000
     14       0.5244      2.00000
     15       0.5244      2.00000
     16       1.1921      2.00000
     17       1.1921      2.00000
     18       1.1921      2.00000
     19       1.1921      2.00000
     20       1.8533      2.00000
     21       1.8533      2.00000
     22       1.8533      2.00000
     23       1.8533      2.00000
     24       3.1345      2.00000
     25       3.1856      2.00000
     26       3.1856      2.00000
     27       3.1856      2.00000
     28       3.1856      2.00000
     29       4.0578      2.00000
     30       4.0578      2.00000
     31       5.0254      2.00000
     32       5.0255      2.00000
     33       5.0883      2.00000
     34       5.0883      2.00000
     35       5.0883      2.00000
     36       5.0884      2.00000
     37       5.3335      2.00000
     38       5.3335      2.00000
     39       5.9401      2.00000
     40       5.9720      2.00000
     41       5.9720      2.00000
     42       5.9720      2.00000
     43       5.9720      2.00000
     44       6.3619      2.00000
     45       6.3619      2.00000
     46       6.6108      0.22956
     47       6.6108      0.22956
     48       7.0193      0.00000
     49       7.0195      0.00000
     50       7.0195      0.00000
     51       7.0198      0.00000
     52       7.0267      0.00000
     53       7.0269      0.00000
     54       7.0269      0.00000
     55       7.0272      0.00000
     56       7.2485      0.00000
     57       7.2485      0.00000
     58       7.2485      0.00000
     59       7.2485      0.00000
     60       7.6684      0.00000
     61       7.6684      0.00000
     62       7.8934      0.00000
     63       7.8934      0.00000
     64       7.8934      0.00000
     65       7.8934      0.00000
     66       8.3207      0.00000
     67       8.3207      0.00000
     68       8.3207      0.00000
     69       8.3207      0.00000
     70       8.5251      0.00000
     71       8.5251      0.00000
     72       8.5252      0.00000

 k-point   3 :       0.3333    0.0000    0.0000
  band No.  band energies     occupation 
      1      -3.3694      2.00000
      2      -2.6853      2.00000
      3      -1.3260      2.00000
      4      -1.3259      2.00000
      5      -1.3259      2.00000
      6      -1.3259      2.00000
      7      -0.6507      2.00000
      8      -0.6507      2.00000
      9      -0.6507      2.00000
     10      -0.6507      2.00000
     11       0.0213      2.00000
     12       0.6914      2.00000
     13       0.6914      2.00000
     14       0.6914      2.00000
     15       0.6914      2.00000
     16       1.3572      2.00000
     17       1.3572      2.00000
     18       1.3572      2.00000
     19       1.3572      2.00000
     20       2.0119      2.00000
     21       2.0221      2.00000
     22       2.0221      2.00000
     23       2.0221      2.00000
     24       2.0223      2.00000
     25       3.9862      2.00000
     26       3.9862      2.00000
     27       3.9863      2.00000
     28       3.9863      2.00000
     29       4.0032      2.00000
     30       4.0033      2.00000
     31       4.0033      2.00000
     32       4.0033      2.00000
     33       4.2172      2.00000
     34       4.2172      2.00000
     35       4.8549      2.00000
     36       4.8549      2.00000
     37       5.1940      2.00000
     38       5.1940      2.00000
     39       5.8641      2.00000
     40       5.8641      2.00000
     41       5.9416      2.00000
     42       5.9416      2.00000
     43       5.9417      2.00000
     44       5.9417      2.00000
     45       6.1315      2.00000
     46       6.1315      2.00000
     47       6.1315      2.00000
     48       6.1315      2.00000
     49       6.7697      0.00000
     50       6.7697      0.00000
     51       6.7697      0.00000
     52       6.7697      0.00000
     53       7.1841      0.00000
     54       7.1841      0.00000
     55       7.1841      0.00000
     56       7.1841      0.00000
     57       7.3641      0.00000
     58       7.4098      0.00000
     59       7.4098      0.00000
     60       7.8361      0.00000
     61       7.8361      0.00000
     62       7.8361      0.00000
     63       7.8362      0.00000
     64       8.4637      0.00000
     65       8.4637      0.00000
     66       9.2870      0.00000
     67       9.2872      0.00000
     68       9.2874      0.00000
     69       9.2879      0.00000
     70       9.3225      0.00000
     71       9.3228      0.00000
     72       9.3249      0.00000

 k-point   4 :       0.5000    0.0000    0.0000
  band No.  band energies     occupation 
      1      -3.0853      2.00000
      2      -3.0827      2.00000
      3      -1.0480      2.00000
      4      -1.0450      2.00000
      5      -1.0450      2.00000
      6      -1.0443      2.00000
      7      -1.0442      2.00000
      8      -1.0435      2.00000
      9      -1.0435      2.00000
     10      -1.0406      2.00000
     11       0.9635      2.00000
     12       0.9670      2.00000
     13       0.9681      2.00000
     14       0.9681      2.00000
     15       0.9686      2.00000
     16       0.9689      2.00000
     17       0.9696      2.00000
     18       0.9704      2.00000
     19       0.9704      2.00000
     20       0.9733      2.00000
     21       2.9543      2.00000
     22       2.9551      2.00000
     23       2.9551      2.00000
     24       2.9556      2.00000
     25       2.9559      2.00000
     26       2.9565      2.00000
     27       2.9565      2.00000
     28       2.9573      2.00000
     29       4.4815      2.00000
     30       4.4815      2.00000
     31       4.4842      2.00000
     32       4.4842      2.00000
     33       4.9236      2.00000
     34       4.9236      2.00000
     35       4.9243      2.00000
     36       4.9244      2.00000
     37       4.9251      2.00000
     38       4.9251      2.00000
     39       4.9259      2.00000
     40       4.9259      2.00000
     41       5.4725      2.00000
     42       5.4732      2.00000
     43       5.4750      2.00000
     44       5.4757      2.00000
     45       6.3952      2.00000
     46       6.3952      2.00000
     47       6.3962      2.00000
     48       6.3973      2.00000
     49       6.3975      2.00000
     50       6.3986      2.00000
     51       6.3996      2.00000
     52       6.3996      2.00000
     53       7.4543      0.00000
     54       7.4557      0.00000
     55       7.4557      0.00000
     56       7.4557      0.00000
     57       7.4574      0.00000
     58       7.4575      0.00000
     59       7.4575      0.00000
     60       7.4589      0.00000
     61       8.3143      0.00000
     62       8.3143      0.00000
     63       8.3166      0.00000
     64       8.3166      0.00000
     65       8.9093      0.00000
     66       8.9109      0.00000
     67       9.3363      0.00000
     68       9.3370      0.00000
     69       9.3381      0.00000
     70       9.3387      0.00000
     71      10.2248      0.00000
     72      10.2269      0.00000

 k-point   5 :       0.0000    0.1667    0.0000
  band No.  band energies     occupation 
      1      -3.5408      2.00000
      2      -2.1741      2.00000
      3      -1.4979      2.00000
      4      -1.4952      2.00000
      5      -1.4952      2.00000
      6      -1.4925      2.00000
      7      -0.8192      2.00000
      8      -0.1487      2.00000
      9      -0.1460      2.00000
     10      -0.1460      2.00000
     11      -0.1433      2.00000
     12       0.5223      2.00000
     13       0.5234      2.00000
     14       0.5254      2.00000
     15       0.5265      2.00000
     16       1.1894      2.00000
     17       1.1921      2.00000
     18       1.1921      2.00000
     19       1.1948      2.00000
     20       1.8512      2.00000
     21       1.8523      2.00000
     22       1.8543      2.00000
     23       1.8554      2.00000
     24       3.1345      2.00000
     25       3.1835      2.00000
     26       3.1846      2.00000
     27       3.1866      2.00000
     28       3.1877      2.00000
     29       4.0578      2.00000
     30       4.0579      2.00000
     31       5.0255      2.00000
     32       5.0255      2.00000
     33       5.0855      2.00000
     34       5.0883      2.00000
     35       5.0883      2.00000
     36       5.0911      2.00000
     37       5.3335      2.00000
     38       5.3336      2.00000
     39       5.9401      2.00000
     40       5.9695      2.00000
     41       5.9720      2.00000
     42       5.9720      2.00000
     43       5.9745      2.00000
     44       6.3619      2.00000
     45       6.3619      2.00000
     46       6.6108      0.22928
     47       6.6109      0.22899
     48       7.0179      0.00000
     49       7.0197      0.00000
     50       7.0198      0.00000
     51       7.0216      0.00000
     52       7.0245      0.00000
     53       7.0257      0.00000
     54       7.0277      0.00000
     55       7.0291      0.00000
     56       7.2460      0.00000
     57       7.2485      0.00000
     58       7.2485      0.00000
     59       7.2510      0.00000
     60       7.6684      0.00000
     61       7.6684      0.00000
     62       7.8908      0.00000
     63       7.8934      0.00000
     64       7.8934      0.00000
     65       7.8960      0.00000
     66       8.3188      0.00000
     67       8.3207      0.00000
     68       8.3207      0.00000
     69       8.3225      0.00000
     70       8.5227      0.00000
     71       8.5252      0.00000
     72       8.5257      0.00000

 k-point   6 :       0.1667    0.1667    0.0000
  band No.  band energies     occupation 
      1      -3.4836      2.00000
      2      -2.1186      2.00000
      3      -2.1164      2.00000
      4      -1.4388      2.00000
      5      -1.4388      2.00000
      6      -0.7648      2.00000
      7      -0.7630      2.00000
      8      -0.7613      2.00000
      9      -0.0916      2.00000
     10      -0.0907      2.00000
     11      -0.0894      2.00000
     12      -0.0886      2.00000
     13       0.5795      2.00000
     14       0.5807      2.00000
     15       1.2446      2.00000
     16       1.2456      2.00000
     17       1.2470      2.00000
     18       1.2472      2.00000
     19       1.2484      2.00000
     20       1.2496      2.00000
     21       1.9122      2.00000
     22       2.4970      2.00000
     23       2.4970      2.00000
     24       2.6543      2.00000
     25       2.6543      2.00000
     26       3.1885      2.00000
     27       3.1895      2.00000
     28       3.8951      2.00000
     29       3.8951      2.00000
     30       4.1110      2.00000
     31       4.4921      2.00000
     32       4.4943      2.00000
     33       5.0817      2.00000
     34       5.1230      2.00000
     35       5.1230      2.00000
     36       5.1621      2.00000
     37       5.1622      2.00000
     38       5.3855      2.00000
     39       5.3879      2.00000
     40       5.7886      2.00000
     41       5.7895      2.00000
     42       5.9944      2.00000
     43       5.9955      2.00000
     44       6.4170      2.00000
     45       6.4190      2.00000
     46       6.4350      2.00000
     47       6.4357      2.00000
     48       6.4371      2.00000
     49       6.4381      2.00000
     50       6.6616      0.00000
     51       6.6637      0.00000
     52       6.6659      0.00000
     53       7.3005      0.00000
     54       7.3013      0.00000
     55       7.7202      0.00000
     56       7.7218      0.00000
     57       7.7219      0.00000
     58       7.7220      0.00000
     59       7.7228      0.00000
     60       7.7245      0.00000
     61       7.7296      0.00000
     62       7.9358      0.00000
     63       7.9360      0.00000
     64       7.9395      0.00000
     65       7.9413      0.00000
     66       7.9580      0.00000
     67       7.9581      0.00000
     68       8.5839      0.00000
     69       8.5860      0.00000
     70       9.0099      0.00000
     71       9.0100      0.00000
     72       9.2202      0.00000

 k-point   7 :       0.3333    0.1667    0.0000
  band No.  band energies     occupation 
      1      -3.3122      2.00000
      2      -2.6284      2.00000
      3      -1.9476      2.00000
      4      -1.2709      2.00000
      5      -1.2696      2.00000
      6      -1.2683      2.00000
      7      -0.5959      2.00000
      8      -0.5946      2.00000
      9      -0.5933      2.00000
     10       0.0755      2.00000
     11       0.0776      2.00000
     12       0.0776      2.00000
     13       0.0794      2.00000
     14       0.7465      2.00000
     15       0.7465      2.00000
     16       1.4128      2.00000
     17       1.4137      2.00000
     18       1.4141      2.00000
     19       2.0668      2.00000
     20       2.0742      2.00000
     21       2.0746      2.00000
     22       2.0775      2.00000
     23       2.0782      2.00000
     24       2.7386      2.00000
     25       3.3524      2.00000
     26       3.3854      2.00000
     27       3.4031      2.00000
     28       3.4031      2.00000
     29       4.0050      2.00000
     30       4.0405      2.00000
     31       4.0405      2.00000
     32       4.2703      2.00000
     33       4.6936      2.00000
     34       4.7111      2.00000
     35       4.7111      2.00000
     36       4.9081      2.00000
     37       5.2501      2.00000
     38       5.3052      2.00000
     39       5.3053      2.00000
     40       5.3469      2.00000
     41       5.3470      2.00000
     42       5.5462      2.00000
     43       5.9193      2.00000
     44       5.9523      2.00000
     45       5.9523      2.00000
     46       6.1593      2.00000
     47       6.1844      2.00000
     48       6.5833      1.99290
     49       6.5959      1.64122
     50       6.6418      0.00000
     51       6.6418      0.00000
     52       6.8137      0.00000
     53       6.8236      0.00000
     54       7.2408      0.00000
     55       7.4182      0.00000
     56       7.4607      0.00000
     57       7.4640      0.00000
     58       7.8845      0.00000
     59       8.1082      0.00000
     60       8.1082      0.00000
     61       8.5049      0.00000
     62       8.5172      0.00000
     63       8.5204      0.00000
     64       8.5204      0.00000
     65       8.5304      0.00000
     66       8.7055      0.00000
     67       8.7385      0.00000
     68       8.7503      0.00000
     69       8.7504      0.00000
     70       9.3401      0.00000
     71       9.3410      0.00000
     72       9.3705      0.00000

 k-point   8 :       0.5000    0.1667    0.0000
  band No.  band energies     occupation 
      1      -3.0283      2.00000
      2      -3.0256      2.00000
      3      -1.6661      2.00000
      4      -1.6635      2.00000
      5      -0.9899      2.00000
      6      -0.9888      2.00000
      7      -0.9873      2.00000
      8      -0.9861      2.00000
      9      -0.3154      2.00000
     10      -0.3128      2.00000
     11       0.3547      2.00000
     12       0.3559      2.00000
     13       0.3574      2.00000
     14       0.3585      2.00000
     15       1.0218      2.00000
     16       1.0233      2.00000
     17       1.6881      2.00000
     18       1.6892      2.00000
     19       1.6908      2.00000
     20       1.6919      2.00000
     21       2.3498      2.00000
     22       2.3513      2.00000
     23       3.0097      2.00000
     24       3.0098      2.00000
     25       3.0112      2.00000
     26       3.0113      2.00000
     27       3.6232      2.00000
     28       3.6259      2.00000
     29       3.6673      2.00000
     30       3.6688      2.00000
     31       4.3256      2.00000
     32       4.3257      2.00000
     33       4.3272      2.00000
     34       4.3272      2.00000
     35       4.5346      2.00000
     36       4.5374      2.00000
     37       5.5286      2.00000
     38       5.5311      2.00000
     39       5.5730      2.00000
     40       5.5743      2.00000
     41       5.5757      2.00000
     42       5.5770      2.00000
     43       5.6284      2.00000
     44       5.6284      2.00000
     45       5.6299      2.00000
     46       5.6299      2.00000
     47       5.8107      2.00000
     48       5.8135      2.00000
     49       6.4312      2.00000
     50       6.4338      2.00000
     51       6.8568      0.00000
     52       6.8593      0.00000
     53       7.0881      0.00000
     54       7.0909      0.00000
     55       7.5017      0.00000
     56       7.5034      0.00000
     57       8.1532      0.00000
     58       8.1557      0.00000
     59       8.3673      0.00000
     60       8.3695      0.00000
     61       8.3746      0.00000
     62       8.3757      0.00000
     63       8.3774      0.00000
     64       8.3781      0.00000
     65       8.9626      0.00000
     66       8.9642      0.00000
     67       9.3900      0.00000
     68       9.3906      0.00000
     69       9.4180      0.00000
     70       9.4183      0.00000
     71       9.4198      0.00000
     72       9.4201      0.00000

 k-point   9 :       0.0000    0.3333    0.0000
  band No.  band energies     occupation 
      1      -3.3693      2.00000
      2      -2.6853      2.00000
      3      -1.3286      2.00000
      4      -1.3259      2.00000
      5      -1.3259      2.00000
      6      -1.3233      2.00000
      7      -0.6534      2.00000
      8      -0.6507      2.00000
      9      -0.6507      2.00000
     10      -0.6480      2.00000
     11       0.0213      2.00000
     12       0.6893      2.00000
     13       0.6904      2.00000
     14       0.6924      2.00000
     15       0.6935      2.00000
     16       1.3551      2.00000
     17       1.3562      2.00000
     18       1.3582      2.00000
     19       1.3594      2.00000
     20       2.0120      2.00000
     21       2.0195      2.00000
     22       2.0221      2.00000
     23       2.0221      2.00000
     24       2.0248      2.00000
     25       3.9836      2.00000
     26       3.9863      2.00000
     27       3.9863      2.00000
     28       3.9890      2.00000
     29       4.0011      2.00000
     30       4.0022      2.00000
     31       4.0042      2.00000
     32       4.0054      2.00000
     33       4.2172      2.00000
     34       4.2172      2.00000
     35       4.8549      2.00000
     36       4.8549      2.00000
     37       5.1940      2.00000
     38       5.1940      2.00000
     39       5.8640      2.00000
     40       5.8641      2.00000
     41       5.9395      2.00000
     42       5.9407      2.00000
     43       5.9427      2.00000
     44       5.9439      2.00000
     45       6.1290      2.00000
     46       6.1315      2.00000
     47       6.1315      2.00000
[...]
      6      -1.1571      2.00000
      7      -1.1571      2.00000
      8      -1.1571      2.00000
      9       0.1892      2.00000
     10       0.1892      2.00000
     11       0.1892      2.00000
     12       0.1892      2.00000
     13       1.5217      2.00000
     14       1.5217      2.00000
     15       1.5217      2.00000
     16       1.5217      2.00000
     17       1.5217      2.00000
     18       1.5217      2.00000
     19       1.5217      2.00000
     20       1.5217      2.00000
     21       2.8440      2.00000
     22       2.8440      2.00000
     23       2.8441      2.00000
     24       2.8441      2.00000
     25       2.8441      2.00000
     26       2.8441      2.00000
     27       2.8442      2.00000
     28       2.8442      2.00000
     29       4.1131      2.00000
     30       4.1131      2.00000
     31       4.1132      2.00000
     32       4.1132      2.00000
     33       4.1626      2.00000
     34       4.1626      2.00000
     35       4.1627      2.00000
     36       4.1627      2.00000
     37       4.1627      2.00000
     38       4.1627      2.00000
     39       4.1628      2.00000
     40       4.1628      2.00000
     41       5.4599      2.00000
     42       5.4599      2.00000
     43       5.4599      2.00000
     44       5.4599      2.00000
     45       6.7559      0.00000
     46       6.7559      0.00000
     47       6.7559      0.00000
     48       6.7559      0.00000
     49       6.9230      0.00000
     50       6.9230      0.00000
     51       6.9230      0.00000
     52       6.9230      0.00000
     53       7.9832      0.00000
     54       7.9832      0.00000
     55       7.9833      0.00000
     56       7.9833      0.00000
     57       7.9833      0.00000
     58       7.9833      0.00000
     59       7.9833      0.00000
     60       7.9833      0.00000
     61       8.0417      0.00000
     62       8.0417      0.00000
     63       8.0417      0.00000
     64       8.0417      0.00000
     65       9.4416      0.00000
     66       9.4416      0.00000
     67       9.4416      0.00000
     68       9.4416      0.00000
     69       9.4416      0.00000
     70       9.4416      0.00000
     71       9.4417      0.00000
     72       9.4417      0.00000

 k-point  39 :       0.3333    0.5000    0.5000
  band No.  band energies     occupation 
      1      -2.3446      2.00000
      2      -2.3445      2.00000
      3      -2.3445      2.00000
      4      -2.3445      2.00000
      5      -1.6650      2.00000
      6      -1.6650      2.00000
      7      -1.6650      2.00000
      8      -1.6650      2.00000
      9       1.0244      2.00000
     10       1.0244      2.00000
     11       1.0244      2.00000
     12       1.0244      2.00000
     13       1.6876      2.00000
     14       1.6876      2.00000
     15       1.6876      2.00000
     16       1.6877      2.00000
     17       1.6877      2.00000
     18       1.6877      2.00000
     19       1.6877      2.00000
     20       1.6877      2.00000
     21       2.3498      2.00000
     22       2.3498      2.00000
     23       2.3498      2.00000
     24       2.3498      2.00000
     25       2.3498      2.00000
     26       2.3498      2.00000
     27       2.3499      2.00000
     28       2.3499      2.00000
     29       3.0015      2.00000
     30       3.0015      2.00000
     31       3.0015      2.00000
     32       3.0015      2.00000
     33       4.9767      2.00000
     34       4.9767      2.00000
     35       4.9767      2.00000
     36       4.9767      2.00000
     37       4.9767      2.00000
     38       4.9767      2.00000
     39       4.9768      2.00000
     40       4.9768      2.00000
     41       5.6225      2.00000
     42       5.6225      2.00000
     43       5.6225      2.00000
     44       5.6226      2.00000
     45       6.2711      2.00000
     46       6.2711      2.00000
     47       6.2711      2.00000
     48       6.2711      2.00000
     49       6.9040      0.00000
     50       6.9040      0.00000
     51       6.9040      0.00000
     52       6.9040      0.00000
     53       6.9040      0.00000
     54       6.9040      0.00000
     55       6.9041      0.00000
     56       6.9041      0.00000
     57       8.3328      0.00000
     58       8.3328      0.00000
     59       8.3328      0.00000
     60       8.3328      0.00000
     61       8.8390      0.00000
     62       8.8390      0.00000
     63       8.8390      0.00000
     64       8.8390      0.00000
     65       9.6007      0.00000
     66       9.6007      0.00000
     67       9.6007      0.00000
     68       9.6007      0.00000
     69       9.6007      0.00000
     70       9.6007      0.00000
     71       9.6007      0.00000
     72       9.6007      0.00000

 k-point  40 :       0.5000    0.5000    0.5000
  band No.  band energies     occupation 
      1      -2.0655      2.00000
      2      -2.0614      2.00000
      3      -2.0614      2.00000
      4      -2.0611      2.00000
      5      -2.0610      2.00000
      6      -2.0606      2.00000
      7      -2.0606      2.00000
      8      -2.0567      2.00000
      9       1.9539      2.00000
     10       1.9602      2.00000
     11       1.9602      2.00000
     12       1.9632      2.00000
     13       1.9634      2.00000
     14       1.9635      2.00000
     15       1.9638      2.00000
     16       1.9638      2.00000
     17       1.9639      2.00000
     18       1.9639      2.00000
     19       1.9639      2.00000
     20       1.9639      2.00000
     21       1.9639      2.00000
     22       1.9639      2.00000
     23       1.9639      2.00000
     24       1.9639      2.00000
     25       1.9640      2.00000
     26       1.9640      2.00000
     27       1.9644      2.00000
     28       1.9644      2.00000
     29       1.9646      2.00000
     30       1.9676      2.00000
     31       1.9676      2.00000
     32       1.9739      2.00000
     33       5.8875      2.00000
     34       5.8875      2.00000
     35       5.8890      2.00000
     36       5.8912      2.00000
     37       5.8924      2.00000
     38       5.8928      2.00000
     39       5.8928      2.00000
     40       5.8928      2.00000
     41       5.8930      2.00000
     42       5.8930      2.00000
     43       5.8930      2.00000
     44       5.8930      2.00000
     45       5.8931      2.00000
     46       5.8931      2.00000
     47       5.8931      2.00000
     48       5.8931      2.00000
     49       5.8933      2.00000
     50       5.8933      2.00000
     51       5.8933      2.00000
     52       5.8937      2.00000
     53       5.8949      2.00000
     54       5.8972      2.00000
     55       5.8986      2.00000
     56       5.8986      2.00000
     57       9.7338      0.00000
     58       9.7338      0.00000
     59       9.7341      0.00000
     60       9.7345      0.00000
     61       9.7357      0.00000
     62       9.7364      0.00000
     63       9.7366      0.00000
     64       9.7366      0.00000
     65       9.8621      0.00000
     66       9.8633      0.00000
     67       9.8639      0.00000
     68       9.8646      0.00000
     69       9.8647      0.00000
     70       9.8651      0.00000
     71       9.8658      0.00000
     72       9.8668      0.00000


--------------------------------------------------------------------------------------------------------


 soft charge-density along one line, spin component           1
         0         1         2         3         4         5         6         7         8         9
 total charge-density along one line
 
 pseudopotential strength for first ion, spin component:           1
  8.490  -0.004  -0.000  -0.000  -0.000  -0.000  -0.000  -0.000
 -0.004   0.000  -0.000  -0.000  -0.000   0.000   0.000   0.000
 -0.000  -0.000   1.982   0.000   0.000  -0.022  -0.000  -0.000
 -0.000  -0.000   0.000   1.982  -0.000  -0.000  -0.022   0.000
 -0.000  -0.000   0.000  -0.000   1.982  -0.000   0.000  -0.022
 -0.000   0.000  -0.022  -0.000  -0.000  -0.013  -0.000  -0.000
 -0.000   0.000  -0.000  -0.022   0.000  -0.000  -0.013   0.000
 -0.000   0.000  -0.000   0.000  -0.022  -0.000   0.000  -0.013
 total augmentation occupancy for first ion, spin component:           1
  1.401  -0.318   0.000   0.000   0.001   0.000  -0.000  -0.001
 -0.318   0.345   0.000   0.000  -0.003   0.000  -0.000   0.001
  0.000   0.000   0.624   0.003   0.009  -0.115  -0.001  -0.001
  0.000   0.000   0.003   0.628  -0.002  -0.001  -0.113  -0.000
  0.001  -0.003   0.009  -0.002   0.626  -0.001  -0.000  -0.114
  0.000   0.000  -0.115  -0.001  -0.001   0.025   0.000   0.000
 -0.000  -0.000  -0.001  -0.113  -0.000   0.000   0.024   0.000
 -0.001   0.001  -0.001  -0.000  -0.114   0.000   0.000   0.024


------------------------ aborting loop because EDIFF is reached ----------------------------------------




--------------------------------------------------------------------------------------------------------


    CHARGE:  VPU time    1.68: CPU time    1.68
    FORLOC:  VPU time    0.03: CPU time    0.03
    FORNL :  VPU time    6.24: CPU time    6.25
    STRESS:  VPU time   13.89: CPU time   13.91
    FORCOR:  VPU time    0.18: CPU time    0.18
    FORHAR:  VPU time    0.06: CPU time    0.06
    MIXING:  VPU time    0.01: CPU time    0.01


--------------------------------------------------------------------------------------------------------



  FREE ENERGIE OF THE ION-ELECTRON SYSTEM (eV)
  ---------------------------------------------------
  free  energy   TOTEN  =      -117.449965 eV

  energy  without entropy=     -117.449386  energy(sigma->0) =     -117.449675
 

  FORCE on cell =-STRESS in cart. coord.  units (eV/reduce length):
  Direction    X        Y        Z        XY       YZ       ZX
  --------------------------------------------------------------------------------------
  Alpha Z     -5.64     -5.64     -5.64
  Ewald     -747.58   -747.58   -747.58      0.00     -0.00     -0.00
  Hartree      1.10      1.10      1.10     -0.00     -0.00     -0.00
  E(xc)     -262.74   -262.74   -262.74      0.00     -0.00     -0.00
  Local      -10.70    -10.70    -10.70      0.00     -0.00     -0.00
  n-local    592.93    594.02    591.84     -0.40     -0.20     -0.01
  augment    -36.44    -36.44    -36.44      0.00      0.00      0.00
  Kinetic    439.43    434.23    444.62      7.28      2.88     -1.52
  -------------------------------------------------------------------------------------
  Total      -29.65    -29.65    -29.65      0.00      0.00      0.00
  in kB      -77.95    -77.95    -77.95      0.00      0.00      0.00
  external pressure =      -77.95 kB  Pullay stress =        0.00 kB


 VOLUME and BASIS-vectors are now :
 -----------------------------------------------------------------------------
  energy-cutoff  :      500.00
  volume of cell :      609.39
      direct lattice vectors                 reciprocal lattice vectors
     8.478119790  0.000000000  0.000000000     0.117950681  0.000000000  0.000000000
     0.000000000  8.478119790  0.000000000     0.000000000  0.117950681  0.000000000
     0.000000000  0.000000000  8.478119790     0.000000000  0.000000000  0.117950681

  length of vectors
     8.478119790  8.478119790  8.478119790     0.117950681  0.117950681  0.117950681


 FORCES acting on ions
    electron-ion (+dipol)            ewald-force                    non-local-force                 convergence-correction
 -----------------------------------------------------------------------------------------------
   0.327E+00 -.213E-13 -.131E-07   -.276E+00 -.133E-14 0.209E-14   -.756E-01 -.315E-19 -.581E-19   0.140E-06 -.674E-14 -.644E-14
   -.749E-01 -.739E-13 0.952E-13   0.729E-01 0.104E-13 0.228E-14   0.324E-02 -.156E-20 0.153E-20   -.913E-07 -.868E-14 -.535E-14
   0.237E-01 -.168E-13 -.203E-13   -.231E-01 0.140E-13 0.206E-14   -.100E-02 -.870E-20 -.863E-20   -.931E-06 0.681E-14 -.464E-14
   -.192E-01 -.161E-12 -.337E-12   0.181E-01 0.140E-13 0.206E-14   0.138E-02 0.391E-20 0.918E-20   0.114E-05 0.886E-14 -.335E-14
   0.237E-01 -.545E-13 0.130E-14   -.231E-01 0.888E-14 0.592E-14   -.100E-02 -.379E-19 0.160E-19   -.923E-06 -.331E-14 0.639E-14
   -.192E-01 -.400E-12 0.522E-13   0.181E-01 0.124E-13 0.592E-14   0.138E-02 0.335E-19 -.175E-20   0.114E-05 -.413E-14 0.535E-14
   0.719E-02 0.312E-13 0.587E-16   -.953E-02 0.124E-13 0.592E-14   0.242E-02 -.404E-19 0.252E-20   -.283E-06 0.337E-14 0.460E-14
   -.661E-02 0.301E-12 0.255E-13   0.891E-02 0.124E-13 0.592E-14   -.237E-02 0.962E-20 -.515E-20   0.462E-06 0.433E-14 0.335E-14
   0.423E-01 -.183E-03 0.183E-03   -.435E-01 0.161E-03 -.161E-03   0.102E-03 0.323E-04 -.323E-04   -.536E-06 -.580E-08 0.579E-08
   -.247E-01 0.617E-04 -.617E-04   0.245E-01 -.484E-04 0.484E-04   -.357E-03 -.109E-04 0.109E-04   0.707E-06 -.510E-08 0.511E-08
   0.423E-01 0.183E-03 0.183E-03   -.435E-01 -.161E-03 -.161E-03   0.102E-03 -.323E-04 -.323E-04   -.536E-06 0.580E-08 0.579E-08
   -.247E-01 -.617E-04 -.617E-04   0.245E-01 0.484E-04 0.484E-04   -.357E-03 0.109E-04 0.109E-04   0.707E-06 0.510E-08 0.511E-08
   0.423E-01 -.183E-03 -.183E-03   -.435E-01 0.161E-03 0.161E-03   0.102E-03 0.323E-04 0.323E-04   -.536E-06 -.580E-08 -.579E-08
   -.247E-01 0.617E-04 0.617E-04   0.245E-01 -.484E-04 -.484E-04   -.357E-03 -.109E-04 -.109E-04   0.707E-06 -.510E-08 -.511E-08
   0.423E-01 0.183E-03 -.183E-03   -.435E-01 -.161E-03 0.161E-03   0.102E-03 -.323E-04 0.323E-04   -.536E-06 0.580E-08 -.579E-08
   -.247E-01 -.617E-04 0.617E-04   0.245E-01 0.484E-04 -.484E-04   -.357E-03 0.109E-04 -.109E-04   0.707E-06 0.510E-08 -.511E-08
   -.405E-01 -.155E-13 0.722E-01   0.352E-01 -.377E-14 -.668E-01   0.922E-02 -.475E-20 -.947E-02   -.626E-07 -.551E-14 0.598E-06
   -.404E-01 0.230E-12 -.729E-01   0.350E-01 -.355E-14 0.673E-01   0.940E-02 0.226E-20 0.976E-02   -.764E-07 -.366E-14 -.554E-06
   -.114E-02 -.228E-13 0.653E-02   0.117E-02 -.666E-14 -.552E-02   -.238E-03 0.223E-20 -.433E-03   -.887E-07 0.569E-14 -.349E-06
   -.103E-02 0.512E-13 -.653E-02   0.107E-02 -.711E-14 0.553E-02   -.241E-03 -.147E-20 0.431E-03   -.107E-06 0.371E-14 0.316E-06
   -.405E-01 -.154E-13 -.722E-01   0.352E-01 -.511E-14 0.668E-01   0.922E-02 0.451E-20 0.947E-02   -.626E-07 -.737E-14 -.598E-06
   -.404E-01 -.732E-13 0.729E-01   0.350E-01 -.533E-14 -.673E-01   0.940E-02 0.396E-20 -.976E-02   -.764E-07 -.638E-14 0.554E-06
   -.114E-02 -.261E-13 -.653E-02   0.117E-02 -.511E-14 0.552E-02   -.238E-03 -.664E-20 0.433E-03   -.887E-07 0.753E-14 0.349E-06
   -.103E-02 -.233E-12 0.653E-02   0.107E-02 -.533E-14 -.553E-02   -.241E-03 0.351E-20 -.431E-03   -.107E-06 0.647E-14 -.316E-06
   -.405E-01 -.722E-01 0.864E-14   0.352E-01 0.668E-01 -.385E-14   0.922E-02 0.947E-02 0.123E-20   -.616E-07 -.602E-06 -.520E-14
   -.404E-01 0.729E-01 -.420E-12   0.350E-01 -.673E-01 -.729E-16   0.940E-02 -.976E-02 0.535E-20   -.755E-07 0.557E-06 -.699E-14
   -.405E-01 0.722E-01 0.590E-15   0.352E-01 -.668E-01 -.340E-14   0.922E-02 -.947E-02 0.991E-21   -.616E-07 0.602E-06 -.335E-14
   -.404E-01 -.729E-01 -.666E-14   0.350E-01 0.673E-01 -.754E-16   0.940E-02 0.976E-02 0.371E-20   -.755E-07 -.557E-06 -.425E-14
   -.114E-02 -.653E-02 -.296E-14   0.117E-02 0.552E-02 -.726E-14   -.238E-03 0.433E-03 0.865E-21   -.894E-07 0.346E-06 0.520E-14
   -.103E-02 0.653E-02 0.166E-12   0.107E-02 -.553E-02 -.349E-14   -.241E-03 -.431E-03 0.135E-20   -.108E-06 -.313E-06 0.695E-14
   -.114E-02 0.653E-02 0.126E-14   0.117E-02 -.552E-02 -.726E-14   -.238E-03 -.433E-03 0.627E-20   -.894E-07 -.346E-06 0.335E-14
   -.103E-02 -.653E-02 -.365E-14   0.107E-02 0.553E-02 -.349E-14   -.241E-03 0.431E-03 0.664E-20   -.108E-06 0.313E-06 0.420E-14
 -----------------------------------------------------------------------------------------------
   0.114E-05 -.975E-12 -.131E-07   -.624E-14 -.146E-13 0.417E-14   -.312E-05 -.108E-18 -.820E-19   -.340E-08 0.491E-16 0.400E-16
 
 
 POSITION                                       TOTAL-FORCE (eV/Angst)
 -----------------------------------------------------------------------------------
      2.12953      2.11953      0.00000        -0.024939      0.000000      0.000000
      6.35859      2.11953      0.00000         0.001262     -0.000000     -0.000000
      2.11953      6.35859      0.00000        -0.000401     -0.000000     -0.000000
      6.35859      6.35859      0.00000         0.000338      0.000000     -0.000000
      2.11953      2.11953      4.23906        -0.000401     -0.000000     -0.000000
      6.35859      2.11953      4.23906         0.000338      0.000000      0.000000
      2.11953      6.35859      4.23906         0.000083      0.000000      0.000000
      6.35859      6.35859      4.23906        -0.000074     -0.000000      0.000000
      2.11953      0.00000      2.11953        -0.001108      0.000011     -0.000011
      6.35859      0.00000      2.11953        -0.000559      0.000002     -0.000002
      2.11953      4.23906      2.11953        -0.001108     -0.000011     -0.000011
      6.35859      4.23906      2.11953        -0.000559     -0.000002     -0.000002
      2.11953      0.00000      6.35859        -0.001108      0.000011      0.000011
      6.35859      0.00000      6.35859        -0.000559      0.000002      0.000002
      2.11953      4.23906      6.35859        -0.001108     -0.000011      0.000011
      6.35859      4.23906      6.35859        -0.000559     -0.000002      0.000002
      0.00000      2.11953      2.11953         0.003967     -0.000000     -0.004023
      4.23906      2.11953      2.11953         0.004060     -0.000000      0.004151
      0.00000      6.35859      2.11953        -0.000205     -0.000000      0.000574
      4.23906      6.35859      2.11953        -0.000207      0.000000     -0.000572
      0.00000      2.11953      6.35859         0.003967      0.000000      0.004023
      4.23906      2.11953      6.35859         0.004060      0.000000     -0.004151
      0.00000      6.35859      6.35859        -0.000205     -0.000000     -0.000574
      4.23906      6.35859      6.35859        -0.000207     -0.000000      0.000572
      0.00000      0.00000      0.00000         0.003967      0.004023     -0.000000
      4.23906      0.00000      0.00000         0.004060     -0.004151     -0.000000
      0.00000      4.23906      0.00000         0.003967     -0.004023      0.000000
      4.23906      4.23906      0.00000         0.004060      0.004151     -0.000000
      0.00000      0.00000      4.23906        -0.000205     -0.000574     -0.000000
      4.23906      0.00000      4.23906        -0.000207      0.000572      0.000000
      0.00000      4.23906      4.23906        -0.000205      0.000574      0.000000
      4.23906      4.23906      4.23906        -0.000207     -0.000572     -0.000000
 -----------------------------------------------------------------------------------
    total drift:                               -0.000002     -0.000000     -0.000000


--------------------------------------------------------------------------------------------------------



 mean value of Nose-termostat <S>:     1.000 mean value of <T> :     0.000
 mean temperature <T/S>/<1/S>  :     0.000

     LOOP+:  VPU time  431.19: CPU time  431.98
  
  
 General timing and accounting informations for this job:
 ========================================================
  
                  Total CPU time used (sec):      437.436
                            User time (sec):      418.114
                          System time (sec):       19.322
                         Elapsed time (sec):      438.230
  
                   Maximum memory used (kb):     1076152.
                   Average memory used (kb):           0.
  
                          Minor page faults:       254160
                          Major page faults:            0
                 Voluntary context switches:          939
