    4    4    1    1
  0.1455556E+02  0.3875814E-09  0.3875814E-09  0.3875814E-09  0.5000000E-15
  1.000000000000000E-004
  CAR 
 unknown system                          
   12   84   16
 
  0.0000000E+00  0.0000000E+00  0.0000000E+00  0.4551661E-03
   1       -2.6572
   2        6.1455
   3        6.1455
   4        6.1455
   5        7.7203
   6        7.7203
   7        7.7203
   8       14.6541
   9       14.6541
  10       14.6541
  11       15.5905
  12       15.5905
  13       15.5905
  14       15.5905
  15       15.5905
  16       15.5905
 
  0.7692308E-01  0.0000000E+00  0.0000000E+00  0.2730997E-02
   1       -2.5990
   2        5.3510
   3        6.1980
   4        6.1980
   5        7.7739
   6        7.7739
   7        8.6127
   8       13.7106
   9       13.7106
  10       14.7117
  11       15.2213
  12       15.2213
  13       15.6384
  14       15.6384
  15       16.6420
  16       16.6420
 
  0.1538462E+00  0.0000000E+00  0.0000000E+00  0.2730997E-02
   1       -2.4243
   2        4.1680
   3        6.3554
   4        6.3554
   5        7.9332
   6        7.9332
   7       10.0893
   8       12.5217
   9       12.5217
  10       14.4058
  11       14.4058
  12       14.8845
  13       15.7824
  14       15.7824
  15       18.1547
  16       18.1547
 
  0.2307692E+00  0.0000000E+00  0.0000000E+00  0.2730997E-02
   1       -2.1338
   2        3.0260
   3        6.6179
   4        6.6179
   5        8.1925
   6        8.1925
   7       11.4166
   8       11.4166
   9       11.7202
  10       13.4789
  11       13.4789
  12       15.1722
  13       16.0224
  14       16.0224
  15       19.7980
  16       19.7980
 
  0.3076923E+00  0.0000000E+00  0.0000000E+00  0.2730997E-02
   1       -1.7283
   2        1.9713
   3        6.9856
   4        6.9856
   5        8.5377
   6        8.5377
   7       10.4133
   8       10.4133
   9       12.5858
  10       12.5858
  11       13.4581
  12       15.5742
  13       16.3586
  14       16.3586
  15       19.2351
  16       19.4708
 
  0.3846154E+00  0.0000000E+00  0.0000000E+00  0.2730997E-02
   1       -1.2088
   2        1.0160
   3        7.4590
   4        7.4590
   5        8.9309
   6        8.9309
   7        9.5153
   8        9.5153
   9       11.8121
  10       11.8121
  11       15.2891
  12       16.0896
  13       16.7911
  14       16.7911
  15       18.2961
  16       18.6623
 
  0.4615385E+00  0.0000000E+00  0.0000000E+00  0.2730997E-02
   1       -0.5770
   2        0.1654
   3        8.0382
   4        8.0382
   5        8.7236
   6        8.7236
   7        9.2544
   8        9.2544
   9       11.2948
  10       11.2948
  11       16.7170
  12       17.2041
  13       17.3198
  14       17.3198
  15       17.4540
  16       17.9440
 
  0.7692308E-01  0.7692308E-01  0.0000000E+00  0.5461994E-02
   1       -2.5407
   2        5.4048
   3        5.4048
   4        6.2505
   5        7.8267
   6        8.6645
   7        8.6645
   8       12.9754
   9       13.7650
  10       13.7650
  11       15.2712
  12       15.2712
  13       15.6876
  14       16.6159
  15       16.6932
  16       16.6932
 
  0.1538462E+00  0.7692308E-01  0.0000000E+00  0.1092399E-01
   1       -2.3662
   2        4.2228
   3        5.5658
   4        6.4079
   5        7.9825
   6        8.8182
   7       10.1381
   8       11.8615
   9       12.5753
  10       13.9279
  11       14.4598
  12       15.1173
  13       15.4211
  14       16.8467
  15       17.7653
  16       18.2064
 
  0.2307692E+00  0.7692308E-01  0.0000000E+00  0.1092399E-01
   1       -2.0758
   2        3.0814
   3        5.8335
   4        6.6704
   5        8.2305
   6        9.0673
   7       10.7964
   8       11.4699
   9       11.7638
  10       13.5395
  11       14.1990
  12       14.1992
  13       15.6721
  14       17.1027
  15       19.0277
  16       19.3384
 
  0.3076923E+00  0.7692308E-01  0.0000000E+00  0.1092399E-01
   1       -1.6705
   2        2.0273
   3        6.2071
   4        7.0382
   5        8.5253
   6        9.3933
   7        9.8672
   8       10.4664
   9       12.6609
  10       13.2921
  11       13.4898
  12       14.5782
  13       16.0282
  14       17.4613
  15       18.0426
  16       19.1056
 
  0.3846154E+00  0.7692308E-01  0.0000000E+00  0.1092399E-01
   1       -1.1513
   2        1.0725
   3        6.6843
   4        7.5117
   5        8.5289
   6        9.4036
   7        9.5683
   8        9.7379
   9       11.9327
  10       12.4771
  11       15.0641
  12       15.2780
  13       16.5133
  14       17.1481
  15       17.9224
  16       18.2869
 
  0.4615385E+00  0.7692308E-01  0.0000000E+00  0.1092399E-01
   1       -0.5197
   2        0.2224
   3        7.2602
   4        7.9170
   5        8.0910
   6        8.7765
   7        9.6734
   8        9.9027
   9       11.5776
  10       11.8352
  11       15.6557
  12       16.3512
  13       16.7738
  14       17.4728
  15       17.5399
  16       18.4852
 
  0.1538462E+00  0.1538462E+00  0.0000000E+00  0.5461994E-02
   1       -2.1919
   2        4.3868
   3        4.3868
   4        6.5654
   5        8.1226
   6       10.2815
   7       10.2815
   8       10.7978
   9       12.7361
  10       12.7361
  11       14.6231
  12       14.6231
  13       15.9791
  14       17.3958
  15       18.3615
  16       18.3615
 
  0.2307692E+00  0.1538462E+00  0.0000000E+00  0.1092399E-01
   1       -1.9020
   2        3.2477
   3        4.6596
   4        6.8280
   5        8.3058
   6        9.8115
   7       10.5059
   8       11.6299
   9       11.8864
  10       13.0041
  11       13.7272
  12       14.9027
  13       15.4820
  14       17.8314
  15       18.5030
  16       18.6197
 
  0.3076923E+00  0.1538462E+00  0.0000000E+00  0.1092399E-01
   1       -1.4972
   2        2.1953
   3        5.0401
   4        7.1961
   5        8.2188
   6        9.2764
   7       10.6259
   8       10.7637
   9       12.9132
  10       13.3788
  11       13.5539
  12       14.6228
  13       15.3287
  14       16.8344
  15       18.3052
  16       18.9806
 
  0.3846154E+00  0.1538462E+00  0.0000000E+00  0.1092399E-01
   1       -0.9787
   2        1.2419
   3        5.5264
   4        7.5507
   5        7.6697
   6        9.5116
   7        9.7273
   8       10.8704
   9       12.4156
  10       13.7975
  11       13.8601
  12       15.0687
  13       15.9361
  14       16.1014
  15       17.4747
  16       19.4430
 
  0.4615385E+00  0.1538462E+00  0.0000000E+00  0.1092399E-01
   1       -0.3480
   2        0.3930
   3        6.1152
   4        6.7986
   5        8.2493
   6        8.9351
   7       10.0056
   8       10.5435
   9       12.5397
  10       13.0773
  11       14.4473
  12       15.1397
  13       15.9855
  14       16.7108
  15       17.6557
  16       19.5730
 
  0.2307692E+00  0.2307692E+00  0.0000000E+00  0.5461994E-02
   1       -1.6127
   2        3.5242
   3        3.5242
   4        7.0909
   5        8.1127
   6        9.2051
   7       11.8964
   8       11.8964
   9       12.0458
  10       12.0458
  11       14.0755
  12       14.0755
  13       16.4659
  14       16.7284
  15       18.1112
  16       18.2868
 
  0.3076923E+00  0.2307692E+00  0.0000000E+00  0.1092399E-01
   1       -1.2089
   2        2.4747
   3        3.9100
   4        7.3509
   5        7.4593
   6        9.3471
   7       10.8916
   8       12.0616
   9       12.2696
  10       13.4663
  11       13.5030
  12       14.7551
  13       15.7247
  14       16.0805
  15       17.3923
  16       19.2631
 
  0.3846154E+00  0.2307692E+00  0.0000000E+00  0.1092399E-01
   1       -0.6916
   2        1.5237
   3        4.4036
   4        6.4954
   5        7.9333
   6        9.7768
   7        9.9924
   8       11.6324
   9       12.7492
  10       13.5362
  11       14.3920
  12       14.8235
  13       15.3201
  14       16.1247
  15       16.5533
  16       21.0022
 
  0.4615385E+00  0.2307692E+00  0.0000000E+00  0.1092399E-01
   1       -0.0624
   2        0.6769
   3        5.0027
   4        5.7031
   5        8.5133
   6        9.1996
   7       10.3359
   8       10.9783
   9       13.3350
  10       13.9762
  11       14.0266
  12       14.5950
  13       15.0797
  14       15.7838
  15       17.9145
  16       19.8530
 
  0.3076923E+00  0.3076923E+00  0.0000000E+00  0.5461994E-02
   1       -0.8064
   2        2.8647
   3        2.8647
   4        6.3922
   5        7.8280
   6        9.6853
   7       11.2637
   8       11.2637
   9       12.9226
  10       12.9226
  11       14.7176
  12       14.7431
  13       14.7431
  14       16.4905
  15       17.1490
  16       18.9591
 
  0.3846154E+00  0.3076923E+00  0.0000000E+00  0.1092399E-01
   1       -0.2908
   2        1.9171
   3        3.3639
   4        5.4924
   5        8.3025
   6       10.1597
   7       10.3637
   8       11.7422
   9       12.1666
  10       13.5442
  11       13.8151
  12       15.0984
  13       15.6439
  14       16.4171
  15       16.8867
  16       20.1723
 
  0.4615385E+00  0.3076923E+00  0.0000000E+00  0.1092399E-01
   1        0.3363
   2        1.0732
   3        3.9706
   4        4.6817
   5        8.8832
   6        9.5701
   7       10.7432
   8       11.4198
   9       12.3270
  10       13.0180
  11       14.1738
  12       14.8702
  13       15.6175
  14       16.2375
  15       18.2592
  16       20.1794
 
  0.3846154E+00  0.3846154E+00  0.0000000E+00  0.5461994E-02
   1        0.2226
   2        2.4209
   3        2.4209
   4        4.5740
   5        8.7777
   6       10.6512
   7       10.8412
   8       10.8412
   9       12.7077
  10       12.7077
  11       12.9122
  12       14.7908
  13       16.8432
  14       16.8432
  15       18.0298
  16       19.9821
 
  0.4615385E+00  0.3846154E+00  0.0000000E+00  0.1092399E-01
   1        0.8471
   2        1.5807
   3        3.0334
   4        3.7523
   5        9.3590
   6       10.0468
   7       11.2451
   8       11.4251
   9       11.9343
  10       12.1155
  11       13.3185
  12       14.0130
  13       17.3592
  14       17.8937
  15       18.6759
  16       20.4939
 
  0.4615385E+00  0.4615385E+00  0.0000000E+00  0.5461994E-02
   1        1.4683
   2        2.1980
   3        2.1980
   4        2.9229
   5        9.9412
   6       10.6299
   7       10.6299
   8       11.3194
   9       11.8444
  10       12.5378
  11       12.5378
  12       13.2322
  13       19.0974
  14       19.0974
  15       19.1094
  16       20.3878
 
  0.7692308E-01  0.7692308E-01  0.7692308E-01  0.3641329E-02
   1       -2.4825
   2        5.4584
   3        5.4584
   4        5.4584
   5        8.7152
   6        8.7152
   7        8.7152
   8       13.0303
   9       13.0303
  10       13.0303
  11       15.7355
  12       15.7355
  13       15.7355
  14       16.6704
  15       16.6704
  16       16.6704
 
  0.1538462E+00  0.7692308E-01  0.7692308E-01  0.1092399E-01
   1       -2.3081
   2        4.2775
   3        5.6192
   4        5.6192
   5        8.8639
   6        8.8639
   7       10.1843
   8       11.9191
   9       11.9191
  10       13.1958
  11       15.1689
  12       15.1689
  13       15.8795
  14       16.8339
  15       17.8186
  16       17.8186
 
  0.2307692E+00  0.7692308E-01  0.7692308E-01  0.1092399E-01
   1       -2.0178
   2        3.1369
   3        5.8866
   4        5.8866
   5        9.0933
   6        9.0933
   7       10.8654
   8       10.8654
   9       11.7972
  10       13.4783
  11       14.2550
  12       14.2550
  13       16.1197
  14       17.1065
  15       18.2132
  16       19.3906
 
  0.3076923E+00  0.7692308E-01  0.7692308E-01  0.1092399E-01
   1       -1.6127
   2        2.0833
   3        6.2590
   4        6.2590
   5        9.2733
   6        9.2733
   7       10.0398
   8       10.0398
   9       13.3558
  10       13.3558
  11       13.4216
  12       13.9607
  13       16.4561
  14       17.2352
  15       17.4886
  16       19.5711
 
  0.3846154E+00  0.7692308E-01  0.7692308E-01  0.1092399E-01
   1       -1.0937
   2        1.1290
   3        6.7323
   4        6.7323
   5        8.7816
   6        8.7816
   7       10.0511
   8       10.0511
   9       12.5619
  10       12.5619
  11       14.2476
  12       15.4337
  13       16.3470
  14       16.8889
  15       17.9838
  16       18.7616
 
  0.4615385E+00  0.7692308E-01  0.7692308E-01  0.1092399E-01
   1       -0.4624
   2        0.2793
   3        7.2814
   4        7.2814
   5        8.0700
   6        8.0700
   7       10.3672
   8       10.3672
   9       12.0037
  10       12.0037
  11       14.8585
  12       15.5544
  13       17.2799
  14       17.4179
  15       18.0427
  16       18.6136
 
  0.1538462E+00  0.1538462E+00  0.7692308E-01  0.1092399E-01
   1       -2.1339
   2        4.4414
   3        4.4414
   4        5.7794
   5        8.9867
   6       10.3125
   7       10.3125
   8       10.8709
   9       12.0989
  10       12.0989
  11       15.3242
  12       15.3242
  13       16.0272
  14       17.4526
  15       17.9781
  16       17.9782
 
  0.2307692E+00  0.1538462E+00  0.7692308E-01  0.2184797E-01
   1       -1.8441
   2        3.3030
   3        4.7139
   4        6.0449
   5        9.0564
   6        9.9947
   7       10.4180
   8       11.1543
   9       11.8087
  10       12.4885
  11       14.4253
  12       15.5338
  13       15.5851
  14       17.0888
  15       18.2438
  16       18.5569
 
  0.3076923E+00  0.1538462E+00  0.7692308E-01  0.2184797E-01
   1       -1.4395
   2        2.2512
   3        5.0937
   4        6.4118
   5        8.5244
   6        9.8494
   7        9.9036
   8       11.0416
   9       12.6053
  10       13.5576
  11       13.7777
  12       14.6786
  13       15.9594
  14       16.1041
  15       18.6150
  16       19.0526
 
  0.3846154E+00  0.1538462E+00  0.7692308E-01  0.2184797E-01
   1       -0.9212
   2        1.2983
   3        5.5784
   4        6.8531
   5        7.7359
   6        9.0018
   7       10.2853
   8       11.2894
   9       12.8736
  10       13.1274
  11       13.8604
  12       15.2124
  13       15.4712
  14       16.5003
  15       18.2239
  16       19.0915
 
  0.4615385E+00  0.1538462E+00  0.7692308E-01  0.2184797E-01
   1       -0.2908
   2        0.4498
   3        6.1616
   4        6.8049
   5        7.5873
   6        8.2263
   7       10.7830
   8       11.2352
   9       12.7154
  10       13.1611
  11       13.7244
  12       14.4186
  13       16.7209
  14       17.4651
  15       17.6896
  16       19.5134
 
  0.2307692E+00  0.2307692E+00  0.7692308E-01  0.1092399E-01
   1       -1.5549
   2        3.5793
   3        3.5793
   4        6.3047
   5        8.4288
   6        9.8268
   7       11.1269
   8       11.1269
   9       12.3005
  10       12.3005
  11       14.7221
  12       14.7221
  13       16.0133
  14       16.5140
  15       18.1679
  16       19.0545
 
  0.3076923E+00  0.2307692E+00  0.7692308E-01  0.2184797E-01
   1       -1.1513
   2        2.5305
   3        3.9647
   4        6.6388
   5        7.5444
   6       10.1252
   7       10.1720
   8       11.5514
   9       12.4616
  10       13.8583
  11       13.9661
  12       15.0226
  13       15.2092
  14       16.1319
  15       18.1597
  16       19.3164
 
  0.3846154E+00  0.2307692E+00  0.7692308E-01  0.2184797E-01
   1       -0.6343
   2        1.5800
   3        4.4576
   4        6.4978
   5        7.2787
   6        9.2843
   7       10.5782
   8       12.0459
   9       12.3174
  10       13.7077
  11       14.1273
  12       15.0942
  13       15.3751
  14       16.2483
  15       17.3207
  16       20.6290
 
  0.4615385E+00  0.2307692E+00  0.7692308E-01  0.2184797E-01
   1       -0.0053
   2        0.7336
   3        5.0549
   4        5.7492
   5        7.8120
   6        8.4939
   7       11.1342
   8       11.7551
   9       12.6380
  10       13.3318
  11       14.0571
  12       14.6565
  13       15.8447
  14       16.5525
  15       17.9613
  16       19.8804
 
  0.3076923E+00  0.3076923E+00  0.7692308E-01  0.1092399E-01
   1       -0.7490
   2        2.9202
   3        2.9202
   4        6.3938
   5        7.1742
   6       10.4895
   7       10.5616
   8       10.5616
   9       13.6084
  10       13.6084
  11       14.0278
  12       14.9004
  13       14.9004
  14       17.1972
  15       17.2586
  16       19.0143
 
  0.3846154E+00  0.3076923E+00  0.7692308E-01  0.2184797E-01
   1       -0.2336
   2        1.9732
   3        3.4190
   4        5.5386
   5        7.6014
   6        9.6649
   7       10.9661
   8       11.0490
   9       12.9357
  10       13.1299
  11       14.3086
  12       15.1742
  13       16.4128
  14       16.4836
  15       16.9376
  16       20.2240
 
  0.4615385E+00  0.3076923E+00  0.7692308E-01  0.2184797E-01
   1        0.3932
   2        1.1297
   3        4.0249
   4        4.7342
   5        8.1794
   6        8.8693
   7       11.5439
   8       11.6392
   9       12.2100
  10       12.3330
  11       14.9463
  12       15.6412
  13       15.6768
  14       16.2914
  15       18.3081
  16       20.2214
 
  0.3846154E+00  0.3846154E+00  0.7692308E-01  0.1092399E-01
   1        0.2795
   2        2.4767
   3        2.4767
   4        4.6265
   5        8.0738
   6       10.1492
   7       10.1492
   8       11.4546
   9       12.2303
  10       13.4875
  11       13.4875
  12       15.5616
  13       16.8989
  14       16.8989
  15       18.0780
  16       20.0346
 
  0.4615385E+00  0.3846154E+00  0.7692308E-01  0.2184797E-01
   1        0.9037
   2        1.6370
   3        3.0887
   4        3.8068
   5        8.6590
   6        9.3516
   7       10.7385
   8       11.4325
   9       12.0422
  10       12.7234
  11       14.0966
  12       14.7872
  13       17.4113
  14       17.9438
  15       18.7250
  16       20.5399
 
  0.4615385E+00  0.4615385E+00  0.7692308E-01  0.1092399E-01
   1        1.5246
   2        2.2539
   3        2.2539
   4        2.9782
   5        9.2464
   6        9.9401
   7        9.9401
   8       10.6342
   9       12.6353
  10       13.3221
  11       13.3221
  12       14.0110
  13       19.1461
  14       19.1461
  15       19.1574
  16       20.4353
 
  0.1538462E+00  0.1538462E+00  0.1538462E+00  0.3641329E-02
   1       -1.9599
   2        4.6048
   3        4.6048
   4        4.6048
   5       10.3099
   6       10.3099
   7       10.3099
   8       11.1753
   9       11.1753
  10       11.1753
  11       16.1713
  12       16.1713
  13       16.1713
  14       17.0501
  15       17.6228
  16       17.6228
 
  0.2307692E+00  0.1538462E+00  0.1538462E+00  0.1092399E-01
   1       -1.6705
   2        3.4688
   3        4.8761
   4        4.8761
   5        9.6993
   6        9.6993
   7       10.9717
   8       10.9717
   9       11.0743
  10       12.3002
  11       15.6893
  12       15.6893
  13       15.9836
  14       16.4118
  15       17.9059
  16       18.7184
 
  0.3076923E+00  0.1538462E+00  0.1538462E+00  0.1092399E-01
   1       -1.2665
   2        2.4188
   3        5.2533
   4        5.2533
   5        8.7741
   6        8.7741
   7       11.2550
   8       11.2550
   9       11.5187
  10       13.9557
  11       14.8482
  12       14.8482
  13       14.9976
  14       16.7487
  15       18.3015
  16       19.8717
 
  0.3846154E+00  0.1538462E+00  0.1538462E+00  0.1092399E-01
   1       -0.7490
   2        1.4674
   3        5.7301
   4        5.7301
   5        7.8998
   6        7.8998
   7       11.6592
   8       11.6592
   9       12.0195
  10       14.0601
  11       14.0601
  12       14.1044
  13       15.7442
  14       17.1822
  15       18.8114
  16       19.0593
 
  0.4615385E+00  0.1538462E+00  0.1538462E+00  0.1092399E-01
   1       -0.1195
   2        0.6201
   3        6.2667
   4        6.2667
   5        7.1603
   6        7.1603
   7       12.0469
   8       12.0469
   9       12.6144
  10       13.3093
  11       13.4773
  12       13.4773
  13       17.5943
  14       17.7123
  15       18.3384
  16       19.3459
 
  0.2307692E+00  0.2307692E+00  0.1538462E+00  0.1092399E-01
   1       -1.3818
   2        3.7444
   3        3.7444
   4        5.1446
   5        8.6848
   6       10.0492
   7       10.0492
   8       11.1849
   9       12.5016
  10       12.5016
  11       14.9130
  12       15.9506
  13       15.9506
  14       16.6584
  15       18.3374
  16       18.9866
 
  0.3076923E+00  0.2307692E+00  0.1538462E+00  0.2184797E-01
   1       -0.9787
   2        2.6976
   3        4.1285
   4        5.5135
   5        7.7106
   6        9.0664
   7       10.4479
   8       11.5366
   9       12.8098
  10       13.9230
  11       14.1831
  12       15.1440
  13       16.2866
  14       16.3256
  15       19.3607
  16       19.4146
 
  0.3846154E+00  0.2307692E+00  0.1538462E+00  0.2184797E-01
   1       -0.4624
   2        1.7486
   3        4.6185
   4        5.9434
   5        6.8651
   6        8.1712
   7       10.9402
   8       11.9903
   9       13.0267
  10       13.1085
  11       14.4723
  12       15.5425
  13       15.8954
  14       16.8706
  15       18.5942
  16       19.8357
 
  0.4615385E+00  0.2307692E+00  0.1538462E+00  0.2184797E-01
   1        0.1656
   2        0.9035
   3        5.2074
   4        5.8514
   5        6.7439
   6        7.3815
   7       11.5335
   8       12.2293
   9       12.5178
  10       13.0182
  11       14.3645
  12       14.8514
  13       17.1060
  14       17.8392
  15       18.0901
  16       19.9053
 
  0.3076923E+00  0.3076923E+00  0.1538462E+00  0.1092399E-01
   1       -0.5769
   2        3.0865
   3        3.0865
   4        5.8356
   5        6.7634
   6        9.4524
   7        9.4524
   8       11.9135
   9       12.9294
  10       14.3942
  11       14.3942
  12       15.6356
  13       15.6356
  14       17.3418
  15       18.5767
  16       19.1790
 
  0.3846154E+00  0.3076923E+00  0.1538462E+00  0.2184797E-01
   1       -0.0623
   2        2.1412
   3        3.5839
   4        5.6406
   5        6.5311
   6        8.5504
   7        9.9410
   8       12.0302
   9       12.3876
  10       14.1985
  11       15.4603
  12       15.5763
  13       16.7249
  14       17.0906
  15       17.7525
  16       20.3780
 
  0.4615385E+00  0.3076923E+00  0.1538462E+00  0.2184797E-01
   1        0.5637
   2        1.2990
   3        4.1867
   4        4.8874
   5        7.0627
   6        7.7507
   7       10.5338
   8       11.2307
   9       12.9524
  10       13.5869
  11       15.8635
  12       16.2936
  13       16.4550
  14       16.9916
  15       18.4525
  16       20.3377
 
  0.3846154E+00  0.3846154E+00  0.1538462E+00  0.1092399E-01
   1        0.4501
   2        2.6437
   3        2.6437
   4        4.7800
   5        6.9556
   6        9.0367
   7        9.0367
   8       11.1285
   9       12.8743
  10       14.8532
  11       14.8532
  12       16.9239
  13       17.0718
  14       17.0718
  15       18.2226
  16       20.1903
 
  0.4615385E+00  0.3846154E+00  0.1538462E+00  0.2184797E-01
   1        1.0734
   2        1.8056
   3        3.2542
   4        3.9691
   5        7.5378
   6        8.2340
   7        9.6294
   8       10.3273
   9       13.4535
  10       14.1195
  11       15.4753
  12       16.1613
  13       17.5688
  14       18.0940
  15       18.8714
  16       20.6756
 
  0.4615385E+00  0.4615385E+00  0.1538462E+00  0.1092399E-01
   1        1.6934
   2        2.4214
   3        2.4214
   4        3.1439
   5        8.1279
   6        8.8262
   7        8.8262
   8        9.5247
   9       14.0413
  10       14.7176
  11       14.7176
  12       15.3986
  13       19.2918
  14       19.2918
  15       19.3014
  16       20.5772
 
  0.2307692E+00  0.2307692E+00  0.2307692E+00  0.3641329E-02
   1       -1.0937
   2        4.0185
   3        4.0185
   4        4.0185
   5        8.9793
   6        8.9793
   7        8.9793
   8       12.7709
   9       12.7709
  10       12.7709
  11       13.8404
  12       16.8993
  13       16.8993
  14       16.8993
  15       18.6186
  16       18.6186
 
  0.3076923E+00  0.2307692E+00  0.2307692E+00  0.1092399E-01
   1       -0.6916
   2        2.9754
   3        4.3995
   4        4.3995
   5        7.9833
   6        7.9833
   7        9.3667
   8       12.8473
   9       13.1274
  10       13.1274
  11       14.4771
  12       16.5461
  13       16.5461
  14       17.2369
  15       19.0094
  16       19.7396
 
  0.3846154E+00  0.2307692E+00  0.2307692E+00  0.1092399E-01
   1       -0.1765
   2        2.0291
   3        4.8807
   4        4.8807
   5        7.0866
   6        7.0866
   7        9.8563
   8       11.9479
   9       13.5565
  10       13.5565
  11       15.8334
  12       15.8334
  13       16.2697
  14       17.6713
  15       19.5083
  16       19.5545
 
  0.4615385E+00  0.2307692E+00  0.2307692E+00  0.1092399E-01
   1        0.4501
   2        1.1862
   3        5.4197
   4        5.4197
   5        6.3386
   6        6.3386
   7       10.4502
   8       11.1479
   9       13.9686
  10       13.9686
  11       15.2536
  12       15.2536
  13       18.1125
  14       18.2027
  15       18.8308
  16       19.8686
 
  0.3076923E+00  0.3076923E+00  0.2307692E+00  0.1092399E-01
   1       -0.2907
   2        3.3626
   3        3.3626
   4        4.7715
   5        6.9852
   6        8.3639
   7        8.3639
   8       11.8508
   9       13.5110
  10       14.8184
  11       14.8184
  12       16.9178
  13       16.9178
  14       17.5831
  15       19.4509
  16       19.9462
 
  0.3846154E+00  0.3076923E+00  0.2307692E+00  0.2184797E-01
   1        0.2227
   2        2.4205
   3        3.8567
   4        5.2036
   5        6.1288
   6        7.4571
   7        8.8517
   8       10.9482
   9       13.9769
  10       15.1417
  11       16.3159
  12       16.5285
  13       17.3469
  14       17.4565
  15       19.1736
  16       20.5633
 
  0.4615385E+00  0.3076923E+00  0.2307692E+00  0.2184797E-01
   1        0.8472
   2        1.5807
   3        4.4507
   4        5.1011
   5        6.0149
   6        6.6590
   7        9.4461
   8       10.1456
   9       14.5130
  10       15.0367
  11       16.2437
  12       16.7377
  13       17.7150
  14       18.4334
  15       18.6784
  16       20.4658
 
  0.3846154E+00  0.3846154E+00  0.2307692E+00  0.1092399E-01
   1        0.7339
   2        2.9212
   3        2.9212
   4        4.9944
   5        5.9060
   6        7.9424
   7        7.9424
   8       10.0428
   9       14.4638
  10       16.3009
  11       16.3009
  12       17.4072
  13       17.4072
  14       18.4174
  15       18.4637
  16       20.4448
 
  0.4615385E+00  0.3846154E+00  0.2307692E+00  0.2184797E-01
   1        1.3557
   2        2.0858
   3        3.5282
   4        4.2340
   5        6.4431
   6        7.1365
   7        8.5369
   8        9.2379
   9       15.0310
  10       15.6670
  11       16.9961
  12       17.6793
  13       17.8373
  14       18.3450
  15       19.1115
  16       20.8887
 
  0.4615385E+00  0.4615385E+00  0.2307692E+00  0.1092399E-01
   1        1.9739
   2        2.6995
   3        2.6995
   4        3.4183
   5        7.0290
   6        7.7296
   7        7.7296
   8        8.4312
   9       15.6145
  10       16.2744
  11       16.2744
  12       16.9444
  13       19.5328
  14       19.5328
  15       19.5411
  16       20.8110
 
  0.3076923E+00  0.3076923E+00  0.3076923E+00  0.3641329E-02
   1        0.1088
   2        3.7464
   3        3.7464
   4        3.7464
   5        7.3561
   6        7.3561
   7        7.3561
   8       10.8507
   9       15.2151
  10       15.2151
  11       15.2151
  12       17.9212
  13       17.9212
  14       17.9212
  15       19.8251
  16       19.8251
 
  0.3846154E+00  0.3076923E+00  0.3076923E+00  0.1092399E-01
   1        0.6205
   2        2.8100
   3        4.2316
   4        4.2316
   5        6.4507
   6        6.4507
   7        7.8420
   8        9.9446
   9       15.6610
  10       15.6610
  11       16.9980
  12       17.7126
  13       17.7126
  14       18.3563
  15       20.2437
  16       20.2940
 
  0.4615385E+00  0.3076923E+00  0.3076923E+00  0.1092399E-01
   1        1.2429
   2        1.9737
   3        4.7768
   4        4.7768
   5        5.6944
   6        5.6944
   7        8.4372
   8        9.1389
   9       16.0948
  10       16.0948
  11       17.1994
  12       17.1994
  13       18.8215
  14       18.8887
  15       19.5181
  16       20.5332
 
  0.3846154E+00  0.3846154E+00  0.3076923E+00  0.1092399E-01
   1        1.1300
   2        3.3070
   3        3.3070
   4        4.6686
   5        5.5863
   6        6.9294
   7        6.9294
   8        9.0353
   9       16.1548
  10       17.3621
  11       17.3621
  12       18.2359
  13       18.2359
  14       18.8015
  15       19.9037
  16       20.7875
 
  0.4615385E+00  0.3846154E+00  0.3076923E+00  0.2184797E-01
   1        1.7495
   2        2.4766
   3        3.9050
   4        4.5623
   5        5.4747
   6        6.1258
   7        7.5239
   8        8.2271
   9       16.6983
  10       17.2395
  11       18.2574
  12       18.5255
  13       18.6999
  14       19.2175
  15       19.4325
  16       21.1194
 
  0.4615385E+00  0.4615385E+00  0.3076923E+00  0.1092399E-01
   1        2.3651
   2        3.0863
   3        3.0863
   4        3.7957
   5        6.0170
   6        6.7141
   7        6.7141
   8        7.4172
   9       17.2799
  10       17.9063
  11       17.9063
  12       18.5574
  13       19.8651
  14       19.8651
  15       19.8758
  16       21.1273
 
  0.3846154E+00  0.3846154E+00  0.3846154E+00  0.3641329E-02
   1        1.6372
   2        3.7951
   3        3.7951
   4        3.7951
   5        6.0189
   6        6.0189
   7        6.0189
   8        8.1226
   9       17.9146
  10       17.9146
  11       17.9146
  12       19.2359
  13       19.2359
  14       19.2359
  15       21.1063
  16       21.1067
 
  0.4615385E+00  0.3846154E+00  0.3846154E+00  0.1092399E-01
   1        2.2534