       N       E                     dE             d eps       ncg     rms          rms(c)
DAV:   1     0.124302514619E+03    0.12430E+03   -0.32852E+04  5760   0.104E+03
DAV:   2    -0.107230369657E+03   -0.23153E+03   -0.21515E+03  6784   0.141E+02
DAV:   3    -0.120147319969E+03   -0.12917E+02   -0.12337E+02  7168   0.266E+01
DAV:   4    -0.120383279623E+03   -0.23596E+00   -0.23419E+00  6728   0.382E+00
DAV:   5    -0.120386134030E+03   -0.28544E-02   -0.28525E-02  6816   0.483E-01    0.537E+00
DAV:   6    -0.119952692840E+03    0.43344E+00   -0.46615E-02  6520   0.668E-01    0.334E+00
DAV:   7    -0.119636860327E+03    0.31583E+00   -0.14114E-01  6344   0.108E+00    0.135E-01
DAV:   8    -0.119637014454E+03   -0.15413E-03   -0.12174E-03  6784   0.130E-01    0.469E-02
DAV:   9    -0.119637047612E+03   -0.33158E-04   -0.53237E-05  6688   0.200E-02    0.411E-03
DAV:  10    -0.119637049191E+03   -0.15791E-05   -0.33350E-06  6800   0.555E-03    0.205E-03
DAV:  11    -0.119637046525E+03    0.26667E-05   -0.22234E-07  6720   0.138E-03    0.785E-04
DAV:  12    -0.119637045457E+03    0.10674E-05   -0.21256E-08  4584   0.451E-04    0.125E-04
DAV:  13    -0.119637045314E+03    0.14351E-06   -0.28919E-09  3744   0.190E-04    0.338E-05
DAV:  14    -0.119637045305E+03    0.92814E-08   -0.48201E-10  3656   0.717E-05
   1 F= -.11963705E+03 E0= -.11963688E+03  d E =-.323392E-03
