<?xml version="1.0" encoding="ISO-8859-1"?>
<modeling>
 <generator>
  <i name="program" type="string">vasp</i>
  <i name="version" type="string">4.6.28 </i>
  <i name="subversion" type="string">25Jul05 complex  parallel</i>
  <i name="platform" type="string">LinuxIFC</i>
  <i name="date" type="string">2016 10 19</i>
  <i name="time" type="string">17:37:43</i>
 </generator>
 <incar>
  <i type="string" name="PREC">accurate</i>
  <i type="int" name="IALGO">    38</i>
  <i name="EDIFF">      0.00000001</i>
  <i type="int" name="IBRION">    -1</i>
  <i name="ENCUT">    500.00000000</i>
  <i type="logical" name="LREAL"> F  </i>
  <i type="int" name="ISMEAR">     0</i>
  <i name="SIGMA">      0.01000000</i>
  <i type="logical" name="LWAVE"> F  </i>
  <i type="logical" name="LCHARG"> F  </i>
 </incar>
 <kpoints>
  <generation param="Auto">
   <i name="subdivisionlength">     50.00000000</i>
   <v type="int" name="divisions">       6       6       6</v>
   <v name="usershift">      0.00000000      0.00000000      0.00000000</v>
   <v name="genvec1">      0.16666667      0.00000000      0.00000000</v>
   <v name="genvec2">      0.00000000      0.16666667      0.00000000</v>
   <v name="genvec3">      0.00000000      0.00000000      0.16666667</v>
   <v name="shift">      0.00000000      0.00000000      0.00000000</v>
  </generation>
  <varray name="kpointlist" >
   <v>       0.00000000      0.00000000      0.00000000</v>
   <v>       0.16666667      0.00000000      0.00000000</v>
   <v>       0.33333333      0.00000000      0.00000000</v>
   <v>       0.50000000      0.00000000      0.00000000</v>
   <v>       0.00000000      0.16666667      0.00000000</v>
   <v>       0.16666667      0.16666667      0.00000000</v>
   <v>       0.33333333      0.16666667      0.00000000</v>
   <v>       0.50000000      0.16666667      0.00000000</v>
   <v>       0.00000000      0.33333333      0.00000000</v>
   <v>       0.16666667      0.33333333      0.00000000</v>
   <v>       0.33333333      0.33333333      0.00000000</v>
   <v>       0.50000000      0.33333333      0.00000000</v>
   <v>       0.00000000      0.50000000      0.00000000</v>
   <v>       0.16666667      0.50000000      0.00000000</v>
   <v>       0.33333333      0.50000000      0.00000000</v>
   <v>       0.50000000      0.50000000      0.00000000</v>
   <v>       0.00000000      0.16666667      0.16666667</v>
   <v>       0.16666667      0.16666667      0.16666667</v>
   <v>       0.33333333      0.16666667      0.16666667</v>
   <v>       0.50000000      0.16666667      0.16666667</v>
   <v>       0.00000000      0.33333333      0.16666667</v>
   <v>       0.16666667      0.33333333      0.16666667</v>
   <v>       0.33333333      0.33333333      0.16666667</v>
   <v>       0.50000000      0.33333333      0.16666667</v>
   <v>       0.00000000      0.50000000      0.16666667</v>
   <v>       0.16666667      0.50000000      0.16666667</v>
   <v>       0.33333333      0.50000000      0.16666667</v>
   <v>       0.50000000      0.50000000      0.16666667</v>
   <v>       0.00000000      0.33333333      0.33333333</v>
   <v>       0.16666667      0.33333333      0.33333333</v>
   <v>       0.33333333      0.33333333      0.33333333</v>
   <v>       0.50000000      0.33333333      0.33333333</v>
   <v>       0.00000000      0.50000000      0.33333333</v>
   <v>       0.16666667      0.50000000      0.33333333</v>
   <v>       0.33333333      0.50000000      0.33333333</v>
   <v>       0.50000000      0.50000000      0.33333333</v>
   <v>       0.00000000      0.50000000      0.50000000</v>
   <v>       0.16666667      0.50000000      0.50000000</v>
   <v>       0.33333333      0.50000000      0.50000000</v>
   <v>       0.50000000      0.50000000      0.50000000</v>
  </varray>
  <varray name="weights" >
   <v>       0.00462963</v>
   <v>       0.00925926</v>
   <v>       0.00925926</v>
   <v>       0.00462963</v>
   <v>       0.01851852</v>
   <v>       0.03703704</v>
   <v>       0.03703704</v>
   <v>       0.01851852</v>
   <v>       0.01851852</v>
   <v>       0.03703704</v>
   <v>       0.03703704</v>
   <v>       0.01851852</v>
   <v>       0.00925926</v>
   <v>       0.01851852</v>
   <v>       0.01851852</v>
   <v>       0.00925926</v>
   <v>       0.01851852</v>
   <v>       0.03703704</v>
   <v>       0.03703704</v>
   <v>       0.01851852</v>
   <v>       0.03703704</v>
   <v>       0.07407407</v>
   <v>       0.07407407</v>
   <v>       0.03703704</v>
   <v>       0.01851852</v>
   <v>       0.03703704</v>
   <v>       0.03703704</v>
   <v>       0.01851852</v>
   <v>       0.01851852</v>
   <v>       0.03703704</v>
   <v>       0.03703704</v>
   <v>       0.01851852</v>
   <v>       0.01851852</v>
   <v>       0.03703704</v>
   <v>       0.03703704</v>
   <v>       0.01851852</v>
   <v>       0.00462963</v>
   <v>       0.00925926</v>
   <v>       0.00925926</v>
   <v>       0.00462963</v>
  </varray>
 </kpoints>
 <parameters>
  <separator name="general" >
   <i type="string" name="SYSTEM">unknown system</i>
   <i type="logical" name="LCOMPAT"> F  </i>
  </separator>
  <separator name="electronic" >
   <i type="string" name="PREC">accura</i>
   <i name="ENMAX">    500.00000000</i>
   <i name="ENAUG">    291.05200000</i>
   <i name="EDIFF">      0.00000001</i>
   <i type="int" name="IALGO">    38</i>
   <i type="int" name="IWAVPR">    10</i>
   <i type="int" name="NBANDS">    65</i>
   <i name="NELECT">     96.00000000</i>
   <separator name="electronic smearing" >
    <i type="int" name="ISMEAR">     0</i>
    <i name="SIGMA">      0.01000000</i>
   </separator>
   <separator name="electronic projectors" >
    <i type="logical" name="LREAL"> F  </i>
    <v name="ROPT">      0.00000000</v>
    <i type="int" name="LMAXPAW">  -100</i>
    <i type="int" name="LMAXMIX">     2</i>
   </separator>
   <separator name="electronic startup" >
    <i type="int" name="ISTART">     0</i>
    <i type="int" name="ICHARG">     2</i>
    <i type="int" name="INIWAV">     1</i>
   </separator>
   <separator name="electronic spin" >
    <i type="int" name="ISPIN">     1</i>
    <i type="logical" name="LNONCOLLINEAR"> F  </i>
    <v name="MAGMOM">      1.00000000      1.00000000      1.00000000      1.00000000      1.00000000      1.00000000      1.00000000      1.00000000      1.00000000      1.00000000      1.00000000      1.00000000      1.00000000      1.00000000      1.00000000      1.00000000      1.00000000      1.00000000      1.00000000      1.00000000
      1.00000000      1.00000000      1.00000000      1.00000000      1.00000000      1.00000000      1.00000000      1.00000000      1.00000000      1.00000000      1.00000000      1.00000000</v>
    <i name="NUPDOWN">     -1.00000000</i>
    <i type="logical" name="LSORBIT"> F  </i>
    <v name="SAXIS">      0.00000000      0.00000000      1.00000000</v>
    <i type="logical" name="LSPIRAL"> F  </i>
    <v name="QSPIRAL">      0.00000000      0.00000000      0.00000000</v>
    <i type="logical" name="LZEROZ"> F  </i>
   </separator>
   <separator name="electronic exchange-correlation" >
    <i type="string" name="GGA">--</i>
    <i type="int" name="VOSKOWN">     0</i>
    <i type="logical" name="LASPH"> F  </i>
    <i type="logical" name="LMETAGGA"> F  </i>
    <i type="string" name="GGA2">--</i>
   </separator>
   <separator name="electronic convergence" >
    <i type="int" name="NELM">    60</i>
    <i type="int" name="NELMDL">     0</i>
    <i type="int" name="NELMIN">     2</i>
    <i name="ENINI">    500.00000000</i>
    <separator name="electronic convergence detail" >
     <i type="logical" name="LDIAG"> T  </i>
     <i name="WEIMIN">      0.00000000</i>
     <i name="EBREAK">      0.00000000</i>
     <i name="DEPER">      0.30000000</i>
     <i type="int" name="NRMM">     4</i>
     <i name="TIME">      0.10000000</i>
    </separator>
   </separator>
   <separator name="electronic mixer" >
    <i name="AMIX">      0.40000000</i>
    <i name="BMIX">      1.00000000</i>
    <i name="AMIN">      0.10000000</i>
    <i name="AMIX_MAG">      1.60000000</i>
    <i name="BMIX_MAG">      1.00000000</i>
    <separator name="electronic mixer details" >
     <i type="int" name="IMIX">     4</i>
     <i type="int" name="MAXMIX">   -45</i>
     <i name="WC">    100.00000000</i>
     <i type="int" name="INIMIX">     1</i>
     <i type="int" name="MIXPRE">     1</i>
     <i type="int" name="MREMOVE">     5</i>
    </separator>
   </separator>
   <separator name="electronic dipolcorrection" >
    <i type="int" name="IDIPOL">     0</i>
    <i type="logical" name="LDIPOL"> F  </i>
    <v name="DIPOL">   -100.00000000</v>
    <i name="EFIELD">      0.00000000</i>
   </separator>
  </separator>
  <separator name="grids" >
   <i type="int" name="NGX">    60</i>
   <i type="int" name="NGY">    60</i>
   <i type="int" name="NGZ">    60</i>
   <i type="int" name="NGXF">   120</i>
   <i type="int" name="NGYF">   120</i>
   <i type="int" name="NGZF">   120</i>
   <i type="logical" name="ADDGRID"> F  </i>
  </separator>
  <separator name="ionic" >
   <i type="int" name="NSW">     0</i>
   <i type="int" name="IBRION">    -1</i>
   <i type="int" name="ISIF">     2</i>
   <i name="PSTRESS">      0.00000000</i>
   <i name="EDIFFG">      0.00000010</i>
   <i type="int" name="NFREE">     0</i>
   <i name="POTIM">      0.50000000</i>
   <i name="SMASS">     -3.00000000</i>
  </separator>
  <separator name="ionic md" >
   <i name="TEBEG">      0.00010000</i>
   <i name="TEEND">      0.00010000</i>
   <i type="int" name="NBLOCK">     1</i>
   <i type="int" name="KBLOCK">     1</i>
   <i type="int" name="NPACO">   256</i>
   <i name="APACO">     16.00000000</i>
  </separator>
  <separator name="symmetry" >
   <i type="int" name="ISYM">     2</i>
   <i name="SYMPREC">      0.00001000</i>
  </separator>
  <separator name="dos" >
   <i type="logical" name="LORBIT"> F  </i>
   <v name="RWIGS">     -1.00000000</v>
   <i type="int" name="NEDOS">   301</i>
   <i name="EMIN">     10.00000000</i>
   <i name="EMAX">    -10.00000000</i>
  </separator>
  <separator name="writing" >
   <i type="int" name="NWRITE">     2</i>
   <i type="logical" name="LWAVE"> F  </i>
   <i type="logical" name="LCHARG"> F  </i>
   <i type="logical" name="LPARD"> F  </i>
   <i type="logical" name="LVTOT"> F  </i>
   <i type="logical" name="LELF"> F  </i>
   <i type="logical" name="LOPTICS"> F  </i>
   <i name="STM">      0.00000000</i>
  </separator>
  <separator name="performance" >
   <i type="int" name="NPAR">     8</i>
   <i type="int" name="NSIM">     4</i>
   <i type="int" name="NBLK">   256</i>
   <i type="logical" name="LPLANE"> T  </i>
   <i type="logical" name="LCRITICAL_MEM"> F  </i>
   <i type="logical" name="LSCALAPACK"> F  </i>
   <i type="logical" name="LSCALU"> F  </i>
   <i type="logical" name="LASYNC"> F  </i>
  </separator>
  <separator name="miscellaneous" >
   <i type="int" name="IDIOT">     3</i>
   <i type="logical" name="LMUSIC"> F  </i>
   <v name="POMASS">     26.98200000</v>
   <i type="logical" name="LCORR"> T  </i>
  </separator>
  <i type="logical" name="LREAL_COMPAT"> F  </i>
  <i type="logical" name="GGA_COMPAT"> T  </i>
  <i type="logical" name="LBERRY"> F  </i>
  <i type="int" name="ICORELEVEL">     0</i>
  <i type="logical" name="LDAU"> F  </i>
  <i type="int" name="I_CONSTRAINED_M">     0</i>
 </parameters>
 <atominfo>
  <atoms>      32</atoms>
  <types>       1</types>
  <array name="atoms" >
   <dimension dim="1">ion</dimension>
   <field type="string">element</field>
   <field type="int">atomtype</field>
   <set>
    <rc><c>Al</c><c>   1</c></rc>
    <rc><c>Al</c><c>   1</c></rc>
    <rc><c>Al</c><c>   1</c></rc>
    <rc><c>Al</c><c>   1</c></rc>
    <rc><c>Al</c><c>   1</c></rc>
    <rc><c>Al</c><c>   1</c></rc>
    <rc><c>Al</c><c>   1</c></rc>
    <rc><c>Al</c><c>   1</c></rc>
    <rc><c>Al</c><c>   1</c></rc>
    <rc><c>Al</c><c>   1</c></rc>
    <rc><c>Al</c><c>   1</c></rc>
    <rc><c>Al</c><c>   1</c></rc>
    <rc><c>Al</c><c>   1</c></rc>
    <rc><c>Al</c><c>   1</c></rc>
    <rc><c>Al</c><c>   1</c></rc>
    <rc><c>Al</c><c>   1</c></rc>
    <rc><c>Al</c><c>   1</c></rc>
    <rc><c>Al</c><c>   1</c></rc>
    <rc><c>Al</c><c>   1</c></rc>
    <rc><c>Al</c><c>   1</c></rc>
    <rc><c>Al</c><c>   1</c></rc>
    <rc><c>Al</c><c>   1</c></rc>
    <rc><c>Al</c><c>   1</c></rc>
    <rc><c>Al</c><c>   1</c></rc>
    <rc><c>Al</c><c>   1</c></rc>
    <rc><c>Al</c><c>   1</c></rc>
    <rc><c>Al</c><c>   1</c></rc>
    <rc><c>Al</c><c>   1</c></rc>
    <rc><c>Al</c><c>   1</c></rc>
    <rc><c>Al</c><c>   1</c></rc>
    <rc><c>Al</c><c>   1</c></rc>
    <rc><c>Al</c><c>   1</c></rc>
   </set>
  </array>
  <array name="atomtypes" >
   <dimension dim="1">type</dimension>
   <field type="int">atomspertype</field>
   <field type="string">element</field>
   <field>mass</field>
   <field>valence</field>
   <field type="string">pseudopotential</field>
   <set>
    <rc><c>  32</c><c>Al</c><c>     26.98200000</c><c>      3.00000000</c><c> PAW_PBE Al 04Jan2001                   </c></rc>
   </set>
  </array>
 </atominfo>
 <structure name="initialpos" >
  <crystal>
   <varray name="basis" >
    <v>       7.99386661      0.00000000      0.00000000</v>
    <v>       0.00000000      7.99386661      0.00000000</v>
    <v>       0.00000000      0.00000000      7.99386661</v>
   </varray>
   <i name="volume">    510.82329211</i>
   <varray name="rec_basis" >
    <v>       0.12509591      0.00000000      0.00000000</v>
    <v>       0.00000000      0.12509591      0.00000000</v>
    <v>       0.00000000      0.00000000      0.12509591</v>
   </varray>
  </crystal>
  <varray name="positions" >
   <v>       0.25125096      0.25000000      0.00000000</v>
   <v>       0.75000000      0.25000000      0.00000000</v>
   <v>       0.25000000      0.75000000      0.00000000</v>
   <v>       0.75000000      0.75000000      0.00000000</v>
   <v>       0.25000000      0.25000000      0.50000000</v>
   <v>       0.75000000      0.25000000      0.50000000</v>
   <v>       0.25000000      0.75000000      0.50000000</v>
   <v>       0.75000000      0.75000000      0.50000000</v>
   <v>       0.25000000      0.00000000      0.25000000</v>
   <v>       0.75000000      0.00000000      0.25000000</v>
   <v>       0.25000000      0.50000000      0.25000000</v>
   <v>       0.75000000      0.50000000      0.25000000</v>
   <v>       0.25000000      0.00000000      0.75000000</v>
   <v>       0.75000000      0.00000000      0.75000000</v>
   <v>       0.25000000      0.50000000      0.75000000</v>
   <v>       0.75000000      0.50000000      0.75000000</v>
   <v>       0.00000000      0.25000000      0.25000000</v>
   <v>       0.50000000      0.25000000      0.25000000</v>
   <v>       0.00000000      0.75000000      0.25000000</v>
   <v>       0.50000000      0.75000000      0.25000000</v>
   <v>       0.00000000      0.25000000      0.75000000</v>
   <v>       0.50000000      0.25000000      0.75000000</v>
   <v>       0.00000000      0.75000000      0.75000000</v>
   <v>       0.50000000      0.75000000      0.75000000</v>
   <v>       0.00000000      0.00000000      0.00000000</v>
   <v>       0.50000000      0.00000000      0.00000000</v>
   <v>       0.00000000      0.50000000      0.00000000</v>
   <v>       0.50000000      0.50000000      0.00000000</v>
   <v>       0.00000000      0.00000000      0.50000000</v>
   <v>       0.50000000      0.00000000      0.50000000</v>
   <v>       0.00000000      0.50000000      0.50000000</v>
   <v>       0.50000000      0.50000000      0.50000000</v>
  </varray>
 </structure>
 <calculation>
  <scstep>
   <time name="dav">   27.19   27.25</time>
   <time name="total">   27.50   27.56</time>
   <energy>
    <i name="alphaZ">     -6.73309839</i>
    <i name="ewald">  -2378.57959861</i>
    <i name="hartreedc">     -2.88597594</i>
    <i name="XCdc">   -837.75442371</i>
    <i name="pawpsdc">   1137.73615723</i>
    <i name="pawaedc">   -115.16745734</i>
    <i name="eentropy">     -0.00097587</i>
    <i name="bandstr">    614.45875506</i>
    <i name="atom">   1713.22913220</i>
    <i name="e_fr_energy">    124.30251462</i>
    <i name="e_wo_entrp">    124.30349049</i>
    <i name="e_0_energy">    124.30300255</i>
   </energy>
  </scstep>
  <scstep>
   <time name="dav">   31.50   31.55</time>
   <time name="total">   31.50   31.55</time>
   <energy>
    <i name="e_fr_energy">   -107.23036966</i>
    <i name="e_wo_entrp">   -107.22968228</i>
    <i name="e_0_energy">   -107.23002597</i>
   </energy>
  </scstep>
  <scstep>
   <time name="dav">   25.38   25.38</time>
   <time name="total">   25.39   25.38</time>
   <energy>
    <i name="e_fr_energy">   -120.14731997</i>
    <i name="e_wo_entrp">   -120.14705724</i>
    <i name="e_0_energy">   -120.14718861</i>
   </energy>
  </scstep>
  <scstep>
   <time name="dav">   31.96   31.95</time>
   <time name="total">   31.97   31.97</time>
   <energy>
    <i name="e_fr_energy">   -120.38327962</i>
    <i name="e_wo_entrp">   -120.38295554</i>
    <i name="e_0_energy">   -120.38311758</i>
   </energy>
  </scstep>
  <scstep>
   <time name="dav">   30.76   30.75</time>
   <time name="total">   31.81   31.81</time>
   <energy>
    <i name="e_fr_energy">   -120.38613403</i>
    <i name="e_wo_entrp">   -120.38580988</i>
    <i name="e_0_energy">   -120.38597196</i>
   </energy>
  </scstep>
  <scstep>
   <time name="dav">   29.98   29.97</time>
   <time name="total">   31.72   31.72</time>
   <energy>
    <i name="e_fr_energy">   -119.95269284</i>
    <i name="e_wo_entrp">   -119.95236969</i>
    <i name="e_0_energy">   -119.95253127</i>
   </energy>
  </scstep>
  <scstep>
   <time name="dav">   23.41   23.40</time>
   <time name="total">   24.96   24.95</time>
   <energy>
    <i name="e_fr_energy">   -119.63686033</i>
    <i name="e_wo_entrp">   -119.63653692</i>
    <i name="e_0_energy">   -119.63669862</i>
   </energy>
  </scstep>
  <scstep>
   <time name="dav">   19.58   19.57</time>
   <time name="total">   20.65   20.65</time>
   <energy>
    <i name="e_fr_energy">   -119.63701445</i>
    <i name="e_wo_entrp">   -119.63669108</i>
    <i name="e_0_energy">   -119.63685276</i>
   </energy>
  </scstep>
  <scstep>
   <time name="dav">   22.08   22.08</time>
   <time name="total">   23.03   23.03</time>
   <energy>
    <i name="e_fr_energy">   -119.63704761</i>
    <i name="e_wo_entrp">   -119.63672422</i>
    <i name="e_0_energy">   -119.63688592</i>
   </energy>
  </scstep>
  <scstep>
   <time name="dav">   20.14   20.13</time>
   <time name="total">   21.34   21.33</time>
   <energy>
    <i name="e_fr_energy">   -119.63704919</i>
    <i name="e_wo_entrp">   -119.63672580</i>
    <i name="e_0_energy">   -119.63688750</i>
   </energy>
  </scstep>
  <scstep>
   <time name="dav">   19.53   19.53</time>
   <time name="total">   20.55   20.55</time>
   <energy>
    <i name="e_fr_energy">   -119.63704652</i>
    <i name="e_wo_entrp">   -119.63672313</i>
    <i name="e_0_energy">   -119.63688483</i>
   </energy>
  </scstep>
  <scstep>
   <time name="dav">   14.99   14.99</time>
   <time name="total">   16.05   16.05</time>
   <energy>
    <i name="e_fr_energy">   -119.63704546</i>
    <i name="e_wo_entrp">   -119.63672206</i>
    <i name="e_0_energy">   -119.63688376</i>
   </energy>
  </scstep>
  <scstep>
   <time name="dav">   13.17   13.16</time>
   <time name="total">   14.19   14.19</time>
   <energy>
    <i name="e_fr_energy">   -119.63704531</i>
    <i name="e_wo_entrp">   -119.63672192</i>
    <i name="e_0_energy">   -119.63688362</i>
   </energy>
  </scstep>
  <scstep>
   <time name="dav">   13.02   13.02</time>
   <time name="total">   13.19   13.19</time>
   <energy>
    <i name="alphaZ">     -6.73309839</i>
    <i name="ewald">  -2378.57959861</i>
    <i name="hartreedc">     -3.48743501</i>
    <i name="XCdc">   -834.01879244</i>
    <i name="pawpsdc">   1144.56670330</i>
    <i name="pawaedc">   -122.57167543</i>
    <i name="eentropy">     -0.00032339</i>
    <i name="bandstr">    367.95804247</i>
    <i name="atom">   1713.22913220</i>
    <i name="e_fr_energy">   -119.63704530</i>
    <i name="e_wo_entrp">   -119.63672191</i>
    <i name="e_0_energy">   -119.63688361</i>
   </energy>
  </scstep>
  <structure>
   <crystal>
    <varray name="basis" >
     <v>       7.99386661      0.00000000      0.00000000</v>
     <v>       0.00000000      7.99386661      0.00000000</v>
     <v>       0.00000000      0.00000000      7.99386661</v>
    </varray>
    <i name="volume">    510.82329211</i>
    <varray name="rec_basis" >
     <v>       0.12509591      0.00000000      0.00000000</v>
     <v>       0.00000000      0.12509591      0.00000000</v>
     <v>       0.00000000      0.00000000      0.12509591</v>
    </varray>
   </crystal>
   <varray name="positions" >
    <v>       0.25125096      0.25000000      0.00000000</v>
    <v>       0.75000000      0.25000000      0.00000000</v>
    <v>       0.25000000      0.75000000      0.00000000</v>
    <v>       0.75000000      0.75000000      0.00000000</v>
    <v>       0.25000000      0.25000000      0.50000000</v>
    <v>       0.75000000      0.25000000      0.50000000</v>
    <v>       0.25000000      0.75000000      0.50000000</v>
    <v>       0.75000000      0.75000000      0.50000000</v>
    <v>       0.25000000      0.00000000      0.25000000</v>
    <v>       0.75000000      0.00000000      0.25000000</v>
    <v>       0.25000000      0.50000000      0.25000000</v>
    <v>       0.75000000      0.50000000      0.25000000</v>
    <v>       0.25000000      0.00000000      0.75000000</v>
    <v>       0.75000000      0.00000000      0.75000000</v>
    <v>       0.25000000      0.50000000      0.75000000</v>
    <v>       0.75000000      0.50000000      0.75000000</v>
    <v>       0.00000000      0.25000000      0.25000000</v>
    <v>       0.50000000      0.25000000      0.25000000</v>
    <v>       0.00000000      0.75000000      0.25000000</v>
    <v>       0.50000000      0.75000000      0.25000000</v>
    <v>       0.00000000      0.25000000      0.75000000</v>
    <v>       0.50000000      0.25000000      0.75000000</v>
    <v>       0.00000000      0.75000000      0.75000000</v>
    <v>       0.50000000      0.75000000      0.75000000</v>
    <v>       0.00000000      0.00000000      0.00000000</v>
    <v>       0.50000000      0.00000000      0.00000000</v>
    <v>       0.00000000      0.50000000      0.00000000</v>
    <v>       0.50000000      0.50000000      0.00000000</v>
    <v>       0.00000000      0.00000000      0.50000000</v>
    <v>       0.50000000      0.00000000      0.50000000</v>
    <v>       0.00000000      0.50000000      0.50000000</v>
    <v>       0.50000000      0.50000000      0.50000000</v>
   </varray>
  </structure>
  <varray name="forces" >
   <v>      -0.05302754      0.00000000     -0.00000000</v>
   <v>       0.00339962     -0.00000000     -0.00000000</v>
   <v>      -0.00016453      0.00000000     -0.00000000</v>
   <v>      -0.00022629     -0.00000000      0.00000000</v>
   <v>      -0.00016453     -0.00000000     -0.00000000</v>
   <v>      -0.00022629     -0.00000000     -0.00000000</v>
   <v>       0.00020855     -0.00000000     -0.00000000</v>
   <v>      -0.00122711     -0.00000000     -0.00000000</v>
   <v>      -0.00153188      0.00002323     -0.00002323</v>
   <v>      -0.00043121      0.00000130     -0.00000130</v>
   <v>      -0.00153188     -0.00002323     -0.00002323</v>
   <v>      -0.00043121     -0.00000130     -0.00000130</v>
   <v>      -0.00153188      0.00002323      0.00002323</v>
   <v>      -0.00043121      0.00000130      0.00000130</v>
   <v>      -0.00153188     -0.00002323      0.00002323</v>
   <v>      -0.00043121     -0.00000130      0.00000130</v>
   <v>       0.00700020      0.00000000     -0.00793772</v>
   <v>       0.00716920     -0.00000000      0.00817407</v>
   <v>       0.00032407     -0.00000000      0.00019668</v>
   <v>       0.00032665     -0.00000000     -0.00019664</v>
   <v>       0.00700020      0.00000000      0.00793772</v>
   <v>       0.00716920     -0.00000000     -0.00817407</v>
   <v>       0.00032407      0.00000000     -0.00019668</v>
   <v>       0.00032665      0.00000000      0.00019664</v>
   <v>       0.00700020      0.00793772      0.00000000</v>
   <v>       0.00716920     -0.00817407     -0.00000000</v>
   <v>       0.00700020     -0.00793772      0.00000000</v>
   <v>       0.00716920      0.00817407     -0.00000000</v>
   <v>       0.00032407     -0.00019668      0.00000000</v>
   <v>       0.00032665      0.00019664      0.00000000</v>
   <v>       0.00032407      0.00019668      0.00000000</v>
   <v>       0.00032665     -0.00019664     -0.00000000</v>
  </varray>
  <varray name="stress" >
   <v>      25.78203549     -0.00000000      0.00000000</v>
   <v>      -0.00000000     25.78176839      0.00000000</v>
   <v>       0.00000000      0.00000000     25.78176839</v>
  </varray>
  <energy>
   <i name="e_fr_energy">   -119.63704530</i>
   <i name="e_wo_entrp">   -119.63688361</i>
   <i name="e_0_energy">     -0.00032339</i>
  </energy>
  <eigenvalues>
   <array>
    <dimension dim="1">band</dimension>
    <dimension dim="2">kpoint</dimension>
    <dimension dim="3">spin</dimension>
    <field>eigene</field>
    <field>occ</field>
    <set>
     <set comment="spin 1">
      <set comment="kpoint 1">
       <r>  -3.0158  1.0000</r>
       <r>  -0.7226  1.0000</r>
       <r>  -0.7188  1.0000</r>
       <r>  -0.7188  1.0000</r>
       <r>  -0.7188  1.0000</r>
       <r>  -0.7188  1.0000</r>
       <r>  -0.7149  1.0000</r>
       <r>   1.5338  1.0000</r>
       <r>   1.5383  1.0000</r>
       <r>   1.5383  1.0000</r>
       <r>   1.5400  1.0000</r>
       <r>   1.5402  1.0000</r>
       <r>   1.5402  1.0000</r>
       <r>   1.5402  1.0000</r>
       <r>   1.5402  1.0000</r>
       <r>   1.5404  1.0000</r>
       <r>   1.5421  1.0000</r>
       <r>   1.5421  1.0000</r>
       <r>   1.5466  1.0000</r>
       <r>   3.6236  1.0000</r>
       <r>   3.6236  1.0000</r>
       <r>   3.6236  1.0000</r>
       <r>   3.6236  1.0000</r>
       <r>   3.9241  1.0000</r>
       <r>   3.9241  1.0000</r>
       <r>   3.9242  1.0000</r>
       <r>   3.9242  1.0000</r>
       <r>   5.3453  1.0000</r>
       <r>   5.3453  1.0000</r>
       <r>   5.3453  1.0000</r>
       <r>   6.7410  1.0000</r>
       <r>   6.7411  1.0000</r>
       <r>   6.7411  1.0000</r>
       <r>   7.4565  1.0000</r>
       <r>   7.4565  1.0000</r>
       <r>   7.4609  1.0000</r>
       <r>   7.4609  1.0000</r>
       <r>   7.4611  1.0000</r>
       <r>   7.4611  1.0000</r>
       <r>   7.4611  1.0000</r>
       <r>   7.4611  1.0000</r>
       <r>   7.4613  1.0000</r>
       <r>   7.4613  1.0000</r>
       <r>   7.4657  1.0000</r>
       <r>   7.4657  1.0000</r>
       <r>   8.4561  0.0000</r>
       <r>   8.4604  0.0000</r>
       <r>   8.4604  0.0000</r>
       <r>   8.4604  0.0000</r>
       <r>   8.4604  0.0000</r>
       <r>   8.4647  0.0000</r>
       <r>   9.5807  0.0000</r>
       <r>   9.5807  0.0000</r>
       <r>   9.5823  0.0000</r>
       <r>   9.5848  0.0000</r>
       <r>   9.5849  0.0000</r>
       <r>   9.5849  0.0000</r>
       <r>   9.5849  0.0000</r>
       <r>   9.5849  0.0000</r>
       <r>   9.5851  0.0000</r>
       <r>   9.5875  0.0000</r>
       <r>   9.5891  0.0000</r>
       <r>   9.5891  0.0000</r>
       <r>   9.6414  0.0000</r>
       <r>   9.6426  0.0000</r>
       <r>   9.6426  0.0000</r>
       <r>   9.6427  0.0000</r>
       <r>   9.6427  0.0000</r>
       <r>   9.6437  0.0000</r>
       <r>  11.2023  0.0000</r>
       <r>  11.2037  0.0000</r>
       <r>  11.2053  0.0000</r>
      </set>
      <set comment="kpoint 2">
       <r>  -2.9514  1.0000</r>
       <r>  -1.4165  1.0000</r>
       <r>  -0.6555  1.0000</r>
       <r>  -0.6555  1.0000</r>
       <r>  -0.6555  1.0000</r>
       <r>  -0.6555  1.0000</r>
       <r>   0.1008  1.0000</r>
       <r>   0.8540  1.0000</r>
       <r>   0.8540  1.0000</r>
       <r>   0.8540  1.0000</r>
       <r>   0.8541  1.0000</r>
       <r>   1.6024  1.0000</r>
       <r>   1.6024  1.0000</r>
       <r>   1.6024  1.0000</r>
       <r>   1.6024  1.0000</r>
       <r>   2.3461  1.0000</r>
       <r>   2.3461  1.0000</r>
       <r>   2.3461  1.0000</r>
       <r>   2.3461  1.0000</r>
       <r>   3.0808  1.0000</r>
       <r>   3.0808  1.0000</r>
       <r>   3.0808  1.0000</r>
       <r>   3.0808  1.0000</r>
       <r>   4.4732  1.0000</r>
       <r>   4.5858  1.0000</r>
       <r>   4.5858  1.0000</r>
       <r>   4.5858  1.0000</r>
       <r>   4.5858  1.0000</r>
       <r>   5.4039  1.0000</r>
       <r>   5.4039  1.0000</r>
       <r>   6.6183  1.0000</r>
       <r>   6.6183  1.0000</r>
       <r>   6.6183  1.0000</r>
       <r>   6.6183  1.0000</r>
       <r>   6.8026  1.0000</r>
       <r>   6.8027  1.0000</r>
       <r>   6.8136  1.0000</r>
       <r>   6.8136  1.0000</r>
       <r>   7.5200  1.0000</r>
       <r>   7.5200  1.0000</r>
       <r>   7.5200  1.0000</r>
       <r>   7.5200  1.0000</r>
       <r>   7.7238  1.0000</r>
       <r>   8.1638  1.0000</r>
       <r>   8.1638  1.0000</r>
       <r>   8.2271  1.0000</r>
       <r>   8.2271  1.0000</r>
       <r>   8.8010  0.0000</r>
       <r>   8.8010  0.0000</r>
       <r>   8.8010  0.0000</r>
       <r>   8.8011  0.0000</r>
       <r>   8.9023  0.0000</r>
       <r>   8.9023  0.0000</r>
       <r>   8.9024  0.0000</r>
       <r>   8.9025  0.0000</r>
       <r>   8.9354  0.0000</r>
       <r>   8.9354  0.0000</r>
       <r>   8.9355  0.0000</r>
       <r>   8.9355  0.0000</r>
       <r>  10.0487  0.0000</r>
       <r>  10.0487  0.0000</r>
       <r>  10.2135  0.0000</r>
       <r>  10.2135  0.0000</r>
       <r>  10.2135  0.0000</r>
       <r>  10.2135  0.0000</r>
       <r>  10.3531  0.0000</r>
       <r>  10.3531  0.0000</r>
       <r>  10.3531  0.0000</r>
       <r>  10.3531  0.0000</r>
       <r>  10.5476  0.0000</r>
       <r>  10.5476  0.0000</r>
       <r>  10.5476  0.0000</r>
      </set>
      <set comment="kpoint 3">
       <r>  -2.7586  1.0000</r>
       <r>  -1.9900  1.0000</r>
       <r>  -0.4660  1.0000</r>
       <r>  -0.4659  1.0000</r>
       <r>  -0.4659  1.0000</r>
       <r>  -0.4659  1.0000</r>
       <r>   0.2899  1.0000</r>
       <r>   0.2899  1.0000</r>
       <r>   0.2899  1.0000</r>
       <r>   0.2899  1.0000</r>
       <r>   1.0393  1.0000</r>
       <r>   1.7889  1.0000</r>
       <r>   1.7889  1.0000</r>
       <r>   1.7889  1.0000</r>
       <r>   1.7889  1.0000</r>
       <r>   2.5312  1.0000</r>
       <r>   2.5312  1.0000</r>
       <r>   2.5312  1.0000</r>
       <r>   2.5312  1.0000</r>
       <r>   3.2494  1.0000</r>
       <r>   3.2683  1.0000</r>
       <r>   3.2683  1.0000</r>
       <r>   3.2683  1.0000</r>
       <r>   3.2684  1.0000</r>
       <r>   5.4322  1.0000</r>
       <r>   5.4322  1.0000</r>
       <r>   5.4322  1.0000</r>
       <r>   5.4322  1.0000</r>
       <r>   5.4909  1.0000</r>
       <r>   5.4909  1.0000</r>
       <r>   5.4909  1.0000</r>
       <r>   5.4909  1.0000</r>
       <r>   5.5799  1.0000</r>
       <r>   5.5799  1.0000</r>
       <r>   6.2845  1.0000</r>
       <r>   6.2845  1.0000</r>
       <r>   6.9861  1.0000</r>
       <r>   6.9861  1.0000</r>
       <r>   7.6313  1.0000</r>
       <r>   7.6313  1.0000</r>
       <r>   7.6313  1.0000</r>
       <r>   7.6313  1.0000</r>
       <r>   7.6940  1.0000</r>
       <r>   7.6940  1.0000</r>
       <r>   7.6968  1.0000</r>
       <r>   7.6968  1.0000</r>
       <r>   7.6968  1.0000</r>
       <r>   7.6968  1.0000</r>
       <r>   8.4043  0.0000</r>
       <r>   8.4043  0.0000</r>
       <r>   8.4043  0.0000</r>
       <r>   8.4043  0.0000</r>
       <r>   9.1121  0.0000</r>
       <r>   9.1121  0.0000</r>
       <r>   9.2241  0.0000</r>
       <r>   9.2241  0.0000</r>
       <r>   9.2241  0.0000</r>
       <r>   9.2241  0.0000</r>
       <r>   9.2794  0.0000</r>
       <r>  10.0003  0.0000</r>
       <r>  10.0003  0.0000</r>
       <r>  10.0003  0.0000</r>
       <r>  10.0003  0.0000</r>
       <r>  10.8435  0.0000</r>
       <r>  10.8435  0.0000</r>
       <r>  11.2370  0.0000</r>
       <r>  11.2370  0.0000</r>
       <r>  11.2399  0.0000</r>
       <r>  11.2399  0.0000</r>
       <r>  11.2405  0.0000</r>
       <r>  11.2405  0.0000</r>
       <r>  11.5867  0.0000</r>
      </set>
      <set comment="kpoint 4">
       <r>  -2.4393  1.0000</r>
       <r>  -2.4363  1.0000</r>
       <r>  -0.1546  1.0000</r>
       <r>  -0.1514  1.0000</r>
       <r>  -0.1514  1.0000</r>
       <r>  -0.1505  1.0000</r>
       <r>  -0.1504  1.0000</r>
       <r>  -0.1496  1.0000</r>
       <r>  -0.1496  1.0000</r>
       <r>  -0.1464  1.0000</r>
       <r>   2.0900  1.0000</r>
       <r>   2.0923  1.0000</r>
       <r>   2.0973  1.0000</r>
       <r>   2.0977  1.0000</r>
       <r>   2.0977  1.0000</r>
       <r>   2.0986  1.0000</r>
       <r>   2.0995  1.0000</r>
       <r>   2.1003  1.0000</r>
       <r>   2.1003  1.0000</r>
       <r>   2.1028  1.0000</r>
       <r>   4.3003  1.0000</r>
       <r>   4.3003  1.0000</r>
       <r>   4.3005  1.0000</r>
       <r>   4.3010  1.0000</r>
       <r>   4.3014  1.0000</r>
       <r>   4.3019  1.0000</r>
       <r>   4.3020  1.0000</r>
       <r>   4.3020  1.0000</r>
       <r>   5.8717  1.0000</r>
       <r>   5.8717  1.0000</r>
       <r>   5.8749  1.0000</r>
       <r>   5.8749  1.0000</r>
       <r>   6.5105  1.0000</r>
       <r>   6.5105  1.0000</r>
       <r>   6.5109  1.0000</r>
       <r>   6.5114  1.0000</r>
       <r>   6.5116  1.0000</r>
       <r>   6.5121  1.0000</r>
       <r>   6.5125  1.0000</r>
       <r>   6.5125  1.0000</r>
       <r>   7.2852  1.0000</r>
       <r>   7.2863  1.0000</r>
       <r>   7.2881  1.0000</r>
       <r>   7.2892  1.0000</r>
       <r>   7.9891  1.0000</r>
       <r>   7.9891  1.0000</r>
       <r>   7.9900  1.0000</r>
       <r>   7.9914  1.0000</r>
       <r>   7.9916  1.0000</r>
       <r>   7.9930  1.0000</r>
       <r>   7.9939  1.0000</r>
       <r>   7.9939  1.0000</r>
       <r>   9.5608  0.0000</r>
       <r>   9.5618  0.0000</r>
       <r>   9.5618  0.0000</r>
       <r>   9.5619  0.0000</r>
       <r>   9.5642  0.0000</r>
       <r>   9.5644  0.0000</r>
       <r>   9.5644  0.0000</r>
       <r>   9.5653  0.0000</r>
       <r>  10.1147  0.0000</r>
       <r>  10.1147  0.0000</r>
       <r>  10.1169  0.0000</r>
       <r>  10.1169  0.0000</r>
       <r>  10.9884  0.0000</r>
       <r>  10.9897  0.0000</r>
       <r>  11.7745  0.0000</r>
       <r>  11.7749  0.0000</r>
       <r>  11.7763  0.0000</r>
       <r>  11.7767  0.0000</r>
       <r>  12.2439  0.0000</r>
       <r>  12.2457  0.0000</r>
      </set>
      <set comment="kpoint 5">
       <r>  -2.9514  1.0000</r>
       <r>  -1.4165  1.0000</r>
       <r>  -0.6585  1.0000</r>
       <r>  -0.6555  1.0000</r>
       <r>  -0.6555  1.0000</r>
       <r>  -0.6525  1.0000</r>
       <r>   0.1008  1.0000</r>
       <r>   0.8511  1.0000</r>
       <r>   0.8540  1.0000</r>
       <r>   0.8541  1.0000</r>
       <r>   0.8570  1.0000</r>
       <r>   1.6003  1.0000</r>
       <r>   1.6013  1.0000</r>
       <r>   1.6036  1.0000</r>
       <r>   1.6046  1.0000</r>
       <r>   2.3431  1.0000</r>
       <r>   2.3461  1.0000</r>
       <r>   2.3461  1.0000</r>
       <r>   2.3491  1.0000</r>
       <r>   3.0787  1.0000</r>
       <r>   3.0796  1.0000</r>
       <r>   3.0820  1.0000</r>
       <r>   3.0830  1.0000</r>
       <r>   4.4732  1.0000</r>
       <r>   4.5837  1.0000</r>
       <r>   4.5846  1.0000</r>
       <r>   4.5870  1.0000</r>
       <r>   4.5880  1.0000</r>
       <r>   5.4039  1.0000</r>
       <r>   5.4039  1.0000</r>
       <r>   6.6150  1.0000</r>
       <r>   6.6183  1.0000</r>
       <r>   6.6183  1.0000</r>
       <r>   6.6215  1.0000</r>
       <r>   6.8025  1.0000</r>
       <r>   6.8026  1.0000</r>
       <r>   6.8136  1.0000</r>
       <r>   6.8138  1.0000</r>
       <r>   7.5172  1.0000</r>
       <r>   7.5200  1.0000</r>
       <r>   7.5200  1.0000</r>
       <r>   7.5228  1.0000</r>
       <r>   7.7238  1.0000</r>
       <r>   8.1638  1.0000</r>
       <r>   8.1638  1.0000</r>
       <r>   8.2271  1.0000</r>
       <r>   8.2272  1.0000</r>
       <r>   8.7985  0.0000</r>
       <r>   8.7999  0.0000</r>
       <r>   8.8022  0.0000</r>
       <r>   8.8036  0.0000</r>
       <r>   8.8997  0.0000</r>
       <r>   8.9024  0.0000</r>
       <r>   8.9024  0.0000</r>
       <r>   8.9050  0.0000</r>
       <r>   8.9326  0.0000</r>
       <r>   8.9354  0.0000</r>
       <r>   8.9355  0.0000</r>
       <r>   8.9383  0.0000</r>
       <r>  10.0487  0.0000</r>
       <r>  10.0487  0.0000</r>
       <r>  10.2118  0.0000</r>
       <r>  10.2135  0.0000</r>
       <r>  10.2135  0.0000</r>
       <r>  10.2153  0.0000</r>
       <r>  10.3502  0.0000</r>
       <r>  10.3531  0.0000</r>
       <r>  10.3531  0.0000</r>
       <r>  10.3560  0.0000</r>
       <r>  10.5454  0.0000</r>
       <r>  10.5476  0.0000</r>
       <r>  10.5489  0.0000</r>
      </set>
      <set comment="kpoint 6">
       <r>  -2.8871  1.0000</r>
       <r>  -1.3541  1.0000</r>
       <r>  -1.3516  1.0000</r>
       <r>  -0.5923  1.0000</r>
       <r>  -0.5923  1.0000</r>
       <r>   0.1620  1.0000</r>
       <r>   0.1640  1.0000</r>
       <r>   0.1658  1.0000</r>
       <r>   0.9149  1.0000</r>
       <r>   0.9158  1.0000</r>
       <r>   0.9174  1.0000</r>
       <r>   0.9183  1.0000</r>
       <r>   1.6636  1.0000</r>
       <r>   1.6646  1.0000</r>
       <r>   2.4054  1.0000</r>
       <r>   2.4066  1.0000</r>
       <r>   2.4079  1.0000</r>
       <r>   2.4079  1.0000</r>
       <r>   2.4092  1.0000</r>
       <r>   2.4104  1.0000</r>
       <r>   3.1468  1.0000</r>
       <r>   3.7424  1.0000</r>
       <r>   3.7424  1.0000</r>
       <r>   4.0495  1.0000</r>
       <r>   4.0495  1.0000</r>
       <r>   4.5330  1.0000</r>
       <r>   4.5339  1.0000</r>
       <r>   5.3711  1.0000</r>
       <r>   5.3711  1.0000</r>
       <r>   5.4626  1.0000</r>
       <r>   5.9689  1.0000</r>
       <r>   5.9714  1.0000</r>
       <r>   6.5555  1.0000</r>
       <r>   6.5555  1.0000</r>
       <r>   6.8309  1.0000</r>
       <r>   6.8309  1.0000</r>
       <r>   6.8637  1.0000</r>
       <r>   6.8711  1.0000</r>
       <r>   6.8739  1.0000</r>
       <r>   7.3486  1.0000</r>
       <r>   7.3506  1.0000</r>
       <r>   7.7829  1.0000</r>
       <r>   7.7838  1.0000</r>
       <r>   8.1438  1.0000</r>
       <r>   8.1448  1.0000</r>
       <r>   8.1463  1.0000</r>
       <r>   8.1473  1.0000</r>
       <r>   8.2839  1.0000</r>
       <r>   8.2862  1.0000</r>
       <r>   8.2885  1.0000</r>
       <r>   8.4034  0.0000</r>
       <r>   8.4050  0.0000</r>
       <r>   9.0163  0.0000</r>
       <r>   9.0189  0.0000</r>
       <r>   9.5723  0.0000</r>
       <r>   9.5734  0.0000</r>
       <r>   9.5737  0.0000</r>
       <r>   9.5747  0.0000</r>
       <r>   9.6064  0.0000</r>
       <r>   9.6065  0.0000</r>
       <r>   9.7022  0.0000</r>
       <r>   9.7041  0.0000</r>
       <r>   9.8886  0.0000</r>
       <r>  10.2086  0.0000</r>
       <r>  10.2093  0.0000</r>
       <r>  10.4904  0.0000</r>
       <r>  10.4904  0.0000</r>
       <r>  10.8538  0.0000</r>
       <r>  10.8560  0.0000</r>
       <r>  11.1215  0.0000</r>
       <r>  11.3122  0.0000</r>
       <r>  11.3124  0.0000</r>
      </set>
      <set comment="kpoint 7">
       <r>  -2.6944  1.0000</r>
       <r>  -1.9262  1.0000</r>
       <r>  -1.1623  1.0000</r>
       <r>  -0.4041  1.0000</r>
       <r>  -0.4028  1.0000</r>
       <r>  -0.4013  1.0000</r>
       <r>   0.3510  1.0000</r>
       <r>   0.3527  1.0000</r>
       <r>   0.3539  1.0000</r>
       <r>   1.1006  1.0000</r>
       <r>   1.1035  1.0000</r>
       <r>   1.1041  1.0000</r>
       <r>   1.1052  1.0000</r>
       <r>   1.8512  1.0000</r>
       <r>   1.8512  1.0000</r>
       <r>   2.5912  1.0000</r>
       <r>   2.5930  1.0000</r>
       <r>   2.5932  1.0000</r>
       <r>   3.3105  1.0000</r>
       <r>   3.3246  1.0000</r>
       <r>   3.3248  1.0000</r>
       <r>   3.3296  1.0000</r>
       <r>   3.3300  1.0000</r>
       <r>   4.0625  1.0000</r>
       <r>   4.7139  1.0000</r>
       <r>   4.7708  1.0000</r>
       <r>   4.8286  1.0000</r>
       <r>   4.8286  1.0000</r>
       <r>   5.4338  1.0000</r>
       <r>   5.4861  1.0000</r>
       <r>   5.4861  1.0000</r>
       <r>   5.6386  1.0000</r>
       <r>   6.2019  1.0000</r>
       <r>   6.2769  1.0000</r>
       <r>   6.2769  1.0000</r>
       <r>   6.3433  1.0000</r>
       <r>   6.8971  1.0000</r>
       <r>   6.8971  1.0000</r>
       <r>   6.9708  1.0000</r>
       <r>   6.9709  1.0000</r>
       <r>   7.0449  1.0000</r>
       <r>   7.0490  1.0000</r>
       <r>   7.6084  1.0000</r>
       <r>   7.6084  1.0000</r>
       <r>   7.6786  1.0000</r>
       <r>   7.7558  1.0000</r>
       <r>   7.9608  1.0000</r>
       <r>   8.4093  0.0000</r>
       <r>   8.4093  0.0000</r>
       <r>   8.4464  0.0000</r>
       <r>   8.4632  0.0000</r>
       <r>   8.6017  0.0000</r>
       <r>   8.6358  0.0000</r>
       <r>   9.1696  0.0000</r>
       <r>   9.1730  0.0000</r>
       <r>   9.3366  0.0000</r>
       <r>   9.3423  0.0000</r>
       <r>   9.8711  0.0000</r>
       <r>  10.1117  0.0000</r>
       <r>  10.1117  0.0000</r>
       <r>  10.4603  0.0000</r>
       <r>  10.4611  0.0000</r>
       <r>  10.4623  0.0000</r>
       <r>  10.5897  0.0000</r>
       <r>  10.7625  0.0000</r>
       <r>  10.9032  0.0000</r>
       <r>  10.9032  0.0000</r>
       <r>  10.9225  0.0000</r>
       <r>  11.0649  0.0000</r>
       <r>  11.2969  0.0000</r>
       <r>  11.6733  0.0000</r>
       <r>  11.6870  0.0000</r>
      </set>
      <set comment="kpoint 8">
       <r>  -2.3752  1.0000</r>
       <r>  -2.3723  1.0000</r>
       <r>  -0.8467  1.0000</r>
       <r>  -0.8438  1.0000</r>
       <r>  -0.0896  1.0000</r>
       <r>  -0.0884  1.0000</r>
       <r>  -0.0866  1.0000</r>
       <r>  -0.0854  1.0000</r>
       <r>   0.6642  1.0000</r>
       <r>   0.6672  1.0000</r>
       <r>   1.4139  1.0000</r>
       <r>   1.4151  1.0000</r>
       <r>   1.4169  1.0000</r>
       <r>   1.4180  1.0000</r>
       <r>   2.1534  1.0000</r>
       <r>   2.1547  1.0000</r>
       <r>   2.8981  1.0000</r>
       <r>   2.8993  1.0000</r>
       <r>   2.9011  1.0000</r>
       <r>   2.9023  1.0000</r>
       <r>   3.6302  1.0000</r>
       <r>   3.6315  1.0000</r>
       <r>   4.3599  1.0000</r>
       <r>   4.3604  1.0000</r>
       <r>   4.3612  1.0000</r>
       <r>   4.3616  1.0000</r>
       <r>   5.0129  1.0000</r>
       <r>   5.0160  1.0000</r>
       <r>   5.0857  1.0000</r>
       <r>   5.0869  1.0000</r>
       <r>   5.8471  1.0000</r>
       <r>   5.8473  1.0000</r>
       <r>   5.8485  1.0000</r>
       <r>   5.8486  1.0000</r>
       <r>   5.9305  1.0000</r>
       <r>   5.9337  1.0000</r>
       <r>   7.1888  1.0000</r>
       <r>   7.1901  1.0000</r>
       <r>   7.1919  1.0000</r>
       <r>   7.1931  1.0000</r>
       <r>   7.2932  1.0000</r>
       <r>   7.2935  1.0000</r>
       <r>   7.2946  1.0000</r>
       <r>   7.2949  1.0000</r>
       <r>   7.3360  1.0000</r>
       <r>   7.3389  1.0000</r>
       <r>   7.3418  1.0000</r>
       <r>   7.3450  1.0000</r>
       <r>   8.2495  1.0000</r>
       <r>   8.2524  1.0000</r>
       <r>   8.7566  0.0000</r>
       <r>   8.7599  0.0000</r>
       <r>   8.9111  0.0000</r>
       <r>   8.9140  0.0000</r>
       <r>   9.3684  0.0000</r>
       <r>   9.3702  0.0000</r>
       <r>  10.1738  0.0000</r>
       <r>  10.1761  0.0000</r>
       <r>  10.3060  0.0000</r>
       <r>  10.3092  0.0000</r>
       <r>  10.4659  0.0000</r>
       <r>  10.4667  0.0000</r>
       <r>  10.4691  0.0000</r>
       <r>  10.4698  0.0000</r>
       <r>  11.0415  0.0000</r>
       <r>  11.0427  0.0000</r>
       <r>  11.4591  0.0000</r>
       <r>  11.4592  0.0000</r>
       <r>  11.4609  0.0000</r>
       <r>  11.4610  0.0000</r>
       <r>  11.5938  0.0000</r>
       <r>  11.5962  0.0000</r>
      </set>
      <set comment="kpoint 9">
       <r>  -2.7586  1.0000</r>
       <r>  -1.9900  1.0000</r>
       <r>  -0.4689  1.0000</r>
       <r>  -0.4659  1.0000</r>
       <r>  -0.4659  1.0000</r>
       <r>  -0.4630  1.0000</r>
       <r>   0.2869  1.0000</r>
       <r>   0.2899  1.0000</r>
       <r>   0.2899  1.0000</r>
       <r>   0.2929  1.0000</r>
       <r>   1.0393  1.0000</r>
       <r>   1.7868  1.0000</r>
       <r>   1.7877  1.0000</r>
       <r>   1.7901  1.0000</r>
       <r>   1.7911  1.0000</r>
       <r>   2.5291  1.0000</r>
       <r>   2.5301  1.0000</r>
       <r>   2.5324  1.0000</r>
       <r>   2.5334  1.0000</r>
       <r>   3.2494  1.0000</r>
       <r>   3.2653  1.0000</r>
       <r>   3.2683  1.0000</r>
       <r>   3.2683  1.0000</r>
       <r>   3.2714  1.0000</r>
       <r>   5.4290  1.0000</r>
       <r>   5.4322  1.0000</r>
       <r>   5.4322  1.0000</r>
       <r>   5.4353  1.0000</r>
       <r>   5.4887  1.0000</r>
       <r>   5.4897  1.0000</r>
       <r>   5.4921  1.0000</r>
       <r>   5.4932  1.0000</r>
       <r>   5.5799  1.0000</r>
       <r>   5.5799  1.0000</r>
       <r>   6.2845  1.0000</r>
       <r>   6.2845  1.0000</r>
       <r>   6.9861  1.0000</r>
       <r>   6.9861  1.0000</r>
       <r>   7.6289  1.0000</r>
       <r>   7.6301  1.0000</r>
       <r>   7.6326  1.0000</r>
       <r>   7.6337  1.0000</r>
       <r>   7.6932  1.0000</r>
       <r>   7.6940  1.0000</r>
       <r>   7.6940  1.0000</r>
       <r>   7.6968  1.0000</r>
       <r>   7.6976  1.0000</r>
       <r>   7.6996  1.0000</r>
       <r>   8.4015  0.0000</r>
       <r>   8.4043  0.0000</r>
       <r>   8.4043  0.0000</r>
       <r>   8.4072  0.0000</r>
       <r>   9.1120  0.0000</r>
       <r>   9.1120  0.0000</r>
       <r>   9.2217  0.0000</r>
       <r>   9.2241  0.0000</r>
       <r>   9.2241  0.0000</r>
       <r>   9.2265  0.0000</r>
       <r>   9.2794  0.0000</r>
       <r>   9.9980  0.0000</r>
       <r>  10.0003  0.0000</r>
       <r>  10.0003  0.0000</r>
       <r>  10.0027  0.0000</r>
       <r>  10.8434  0.0000</r>
       <r>  10.8435  0.0000</r>
       <r>  11.2368  0.0000</r>
       <r>  11.2376  0.0000</r>
       <r>  11.2377  0.0000</r>
       <r>  11.2399  0.0000</r>
       <r>  11.2399  0.0000</r>
       <r>  11.2428  0.0000</r>
       <r>  11.5873  0.0000</r>
      </set>
      <set comment="kpoint 10">
       <r>  -2.6944  1.0000</r>
       <r>  -1.9262  1.0000</r>
       <r>  -1.1623  1.0000</r>
       <r>  -0.4041  1.0000</r>
       <r>  -0.4028  1.0000</r>
       <r>  -0.4013  1.0000</r>
       <r>   0.3510  1.0000</r>
       <r>   0.3527  1.0000</r>
       <r>   0.3539  1.0000</r>
       <r>   1.1008  1.0000</r>
       <r>   1.1029  1.0000</r>
       <r>   1.1041  1.0000</r>
       <r>   1.1056  1.0000</r>
       <r>   1.8512  1.0000</r>
       <r>   1.8512  1.0000</r>
       <r>   2.5906  1.0000</r>
       <r>   2.5930  1.0000</r>
       <r>   2.5938  1.0000</r>
       <r>   3.3105  1.0000</r>
       <r>   3.3250  1.0000</r>
       <r>   3.3250  1.0000</r>
       <r>   3.3295  1.0000</r>
       <r>   3.3296  1.0000</r>
       <r>   4.0625  1.0000</r>
       <r>   4.7140  1.0000</r>
       <r>   4.7708  1.0000</r>
       <r>   4.8286  1.0000</r>
       <r>   4.8286  1.0000</r>
       <r>   5.4337  1.0000</r>
       <r>   5.4861  1.0000</r>
       <r>   5.4861  1.0000</r>
       <r>   5.6386  1.0000</r>
       <r>   6.2019  1.0000</r>
       <r>   6.2769  1.0000</r>
       <r>   6.2769  1.0000</r>
       <r>   6.3433  1.0000</r>
       <r>   6.8971  1.0000</r>
       <r>   6.8971  1.0000</r>
       <r>   6.9708  1.0000</r>
       <r>   6.9708  1.0000</r>
       <r>   7.0449  1.0000</r>
       <r>   7.0490  1.0000</r>
       <r>   7.6084  1.0000</r>
       <r>   7.6084  1.0000</r>
       <r>   7.6786  1.0000</r>
       <r>   7.7558  1.0000</r>
       <r>   7.9608  1.0000</r>
       <r>   8.4093  0.0000</r>
       <r>   8.4093  0.0000</r>
       <r>   8.4464  0.0000</r>
       <r>   8.4632  0.0000</r>
       <r>   8.6017  0.0000</r>
       <r>   8.6358  0.0000</r>
       <r>   9.1705  0.0000</r>
       <r>   9.1722  0.0000</r>
       <r>   9.3366  0.0000</r>
       <r>   9.3422  0.0000</r>
       <r>   9.8711  0.0000</r>
       <r>  10.1117  0.0000</r>
       <r>  10.1118  0.0000</r>
       <r>  10.4611  0.0000</r>
       <r>  10.4611  0.0000</r>
       <r>  10.4615  0.0000</r>
       <r>  10.5897  0.0000</r>
       <r>  10.7625  0.0000</r>
       <r>  10.9032  0.0000</r>
       <r>  10.9032  0.0000</r>
       <r>  10.9225  0.0000</r>
       <r>  11.0649  0.0000</r>
       <r>  11.2969  0.0000</r>
       <r>  11.6733  0.0000</r>
       <r>  11.6826  0.0000</r>
      </set>
      <set comment="kpoint 11">
       <r>  -2.5019  1.0000</r>
       <r>  -1.7360  1.0000</r>
       <r>  -1.7336  1.0000</r>
       <r>  -0.9719  1.0000</r>
       <r>  -0.2135  1.0000</r>
       <r>  -0.2135  1.0000</r>
       <r>   0.5393  1.0000</r>
       <r>   0.5402  1.0000</r>
       <r>   0.5418  1.0000</r>
       <r>   0.5427  1.0000</r>
       <r>   1.2873  1.0000</r>
       <r>   1.2896  1.0000</r>
       <r>   1.2914  1.0000</r>
       <r>   1.2922  1.0000</r>
       <r>   2.0343  1.0000</r>
       <r>   2.0353  1.0000</r>
       <r>   3.4936  1.0000</r>
       <r>   3.4945  1.0000</r>
       <r>   3.5104  1.0000</r>
       <r>   3.5112  1.0000</r>
       <r>   3.5128  1.0000</r>
       <r>   3.5138  1.0000</r>
       <r>   4.0985  1.0000</r>
       <r>   4.0985  1.0000</r>
       <r>   4.2243  1.0000</r>
       <r>   4.2268  1.0000</r>
       <r>   4.4229  1.0000</r>
       <r>   4.4229  1.0000</r>
       <r>   4.9691  1.0000</r>
       <r>   5.5164  1.0000</r>
       <r>   5.5164  1.0000</r>
       <r>   5.8146  1.0000</r>
       <r>   5.8644  1.0000</r>
       <r>   5.8644  1.0000</r>
       <r>   6.4287  1.0000</r>
       <r>   6.4297  1.0000</r>
       <r>   6.4312  1.0000</r>
       <r>   6.4323  1.0000</r>
       <r>   6.5183  1.0000</r>
       <r>   6.5210  1.0000</r>
       <r>   7.0379  1.0000</r>
       <r>   7.0399  1.0000</r>
       <r>   7.1792  1.0000</r>
       <r>   7.1792  1.0000</r>
       <r>   7.2147  1.0000</r>
       <r>   7.2257  1.0000</r>
       <r>   8.1214  1.0000</r>
       <r>   8.1227  1.0000</r>
       <r>   8.7987  0.0000</r>
       <r>   9.3005  0.0000</r>
       <r>   9.3016  0.0000</r>
       <r>   9.3018  0.0000</r>
       <r>   9.3029  0.0000</r>
       <r>   9.3225  0.0000</r>
       <r>   9.3470  0.0000</r>
       <r>   9.3499  0.0000</r>
       <r>   9.5050  0.0000</r>
       <r>   9.5062  0.0000</r>
       <r>  10.0567  0.0000</r>
       <r>  10.0571  0.0000</r>
       <r>  10.0586  0.0000</r>
       <r>  10.0597  0.0000</r>
       <r>  11.2173  0.0000</r>
       <r>  11.2180  0.0000</r>
       <r>  11.3644  0.0000</r>
       <r>  11.3644  0.0000</r>
       <r>  11.4043  0.0000</r>
       <r>  11.4043  0.0000</r>
       <r>  11.4739  0.0000</r>
       <r>  11.4759  0.0000</r>
       <r>  11.6093  0.0000</r>
       <r>  11.6097  0.0000</r>
      </set>
      <set comment="kpoint 12">
       <r>  -2.1832  1.0000</r>
       <r>  -2.1803  1.0000</r>
       <r>  -1.4179  1.0000</r>
       <r>  -1.4150  1.0000</r>
       <r>   0.0993  1.0000</r>
       <r>   0.1005  1.0000</r>
       <r>   0.1022  1.0000</r>
       <r>   0.1034  1.0000</r>
       <r>   0.8521  1.0000</r>
       <r>   0.8533  1.0000</r>
       <r>   0.8551  1.0000</r>
       <r>   0.8562  1.0000</r>
       <r>   1.5987  1.0000</r>
       <r>   1.6017  1.0000</r>
       <r>   2.3390  1.0000</r>
       <r>   2.3402  1.0000</r>
       <r>   3.0785  1.0000</r>
       <r>   3.0798  1.0000</r>
       <r>   3.7979  1.0000</r>
       <r>   3.8009  1.0000</r>
       <r>   3.8093  1.0000</r>
       <r>   3.8107  1.0000</r>
       <r>   3.8123  1.0000</r>
       <r>   3.8137  1.0000</r>
       <r>   4.5347  1.0000</r>
       <r>   4.5353  1.0000</r>
       <r>   4.5359  1.0000</r>
       <r>   4.5364  1.0000</r>
       <r>   5.3092  1.0000</r>
       <r>   5.3093  1.0000</r>
       <r>   5.3105  1.0000</r>
       <r>   5.3106  1.0000</r>
       <r>   5.9763  1.0000</r>
       <r>   5.9774  1.0000</r>
       <r>   6.0144  1.0000</r>
       <r>   6.0154  1.0000</r>
       <r>   6.0174  1.0000</r>
       <r>   6.0184  1.0000</r>
       <r>   6.1067  1.0000</r>
       <r>   6.1098  1.0000</r>
       <r>   6.8121  1.0000</r>
       <r>   6.8153  1.0000</r>
       <r>   7.4312  1.0000</r>
       <r>   7.4336  1.0000</r>
       <r>   8.1909  1.0000</r>
       <r>   8.1911  1.0000</r>
       <r>   8.1923  1.0000</r>
       <r>   8.1926  1.0000</r>
       <r>   8.3077  0.8900</r>
       <r>   8.3088  0.8593</r>
       <r>   8.3788  0.0000</r>
       <r>   8.3815  0.0000</r>
       <r>   9.6423  0.0000</r>
       <r>   9.6455  0.0000</r>
       <r>   9.7712  0.0000</r>
       <r>   9.7742  0.0000</r>
       <r>  10.3029  0.0000</r>
       <r>  10.3030  0.0000</r>
       <r>  10.3046  0.0000</r>
       <r>  10.3047  0.0000</r>
       <r>  10.3514  0.0000</r>
       <r>  10.3537  0.0000</r>
       <r>  11.0615  0.0000</r>
       <r>  11.0638  0.0000</r>
       <r>  11.0662  0.0000</r>
       <r>  11.0694  0.0000</r>
       <r>  11.1920  0.0000</r>
       <r>  11.1929  0.0000</r>
       <r>  11.7699  0.0000</r>
       <r>  11.7730  0.0000</r>
       <r>  11.9448  0.0000</r>
       <r>  11.9483  0.0000</r>
      </set>
      <set comment="kpoint 13">
       <r>  -2.4378  1.0000</r>
       <r>  -2.4378  1.0000</r>
       <r>  -0.1559  1.0000</r>
       <r>  -0.1511  1.0000</r>
       <r>  -0.1505  1.0000</r>
       <r>  -0.1505  1.0000</r>
       <r>  -0.1505  1.0000</r>
       <r>  -0.1505  1.0000</r>
       <r>  -0.1499  1.0000</r>
       <r>  -0.1451  1.0000</r>
       <r>   2.0908  1.0000</r>
       <r>   2.0920  1.0000</r>
       <r>   2.0962  1.0000</r>
       <r>   2.0969  1.0000</r>
       <r>   2.0985  1.0000</r>
       <r>   2.0988  1.0000</r>
       <r>   2.0993  1.0000</r>
       <r>   2.0997  1.0000</r>
       <r>   2.1012  1.0000</r>
       <r>   2.1032  1.0000</r>
       <r>   4.2978  1.0000</r>
       <r>   4.2984  1.0000</r>
       <r>   4.3012  1.0000</r>
       <r>   4.3012  1.0000</r>
       <r>   4.3012  1.0000</r>
       <r>   4.3012  1.0000</r>
       <r>   4.3040  1.0000</r>
       <r>   4.3045  1.0000</r>
       <r>   5.8733  1.0000</r>
       <r>   5.8733  1.0000</r>
       <r>   5.8733  1.0000</r>
       <r>   5.8734  1.0000</r>
       <r>   6.5084  1.0000</r>
       <r>   6.5100  1.0000</r>
       <r>   6.5102  1.0000</r>
       <r>   6.5104  1.0000</r>
       <r>   6.5126  1.0000</r>
       <r>   6.5129  1.0000</r>
       <r>   6.5130  1.0000</r>
       <r>   6.5146  1.0000</r>
       <r>   7.2871  1.0000</r>
       <r>   7.2872  1.0000</r>
       <r>   7.2872  1.0000</r>
       <r>   7.2872  1.0000</r>
       <r>   7.9864  1.0000</r>
       <r>   7.9910  1.0000</r>
       <r>   7.9915  1.0000</r>
       <r>   7.9915  1.0000</r>
       <r>   7.9915  1.0000</r>
       <r>   7.9916  1.0000</r>
       <r>   7.9920  1.0000</r>
       <r>   7.9966  1.0000</r>
       <r>   9.5588  0.0000</r>
       <r>   9.5625  0.0000</r>
       <r>   9.5630  0.0000</r>
       <r>   9.5631  0.0000</r>
       <r>   9.5631  0.0000</r>
       <r>   9.5631  0.0000</r>
       <r>   9.5636  0.0000</r>
       <r>   9.5672  0.0000</r>
       <r>  10.1158  0.0000</r>
       <r>  10.1158  0.0000</r>
       <r>  10.1158  0.0000</r>
       <r>  10.1158  0.0000</r>
       <r>  10.9891  0.0000</r>
       <r>  10.9891  0.0000</r>
       <r>  11.7755  0.0000</r>
       <r>  11.7756  0.0000</r>
       <r>  11.7756  0.0000</r>
       <r>  11.7756  0.0000</r>
       <r>  12.2444  0.0000</r>
       <r>  12.2455  0.0000</r>
      </set>
      <set comment="kpoint 14">
       <r>  -2.3738  1.0000</r>
       <r>  -2.3738  1.0000</r>
       <r>  -0.8453  1.0000</r>
       <r>  -0.8452  1.0000</r>
       <r>  -0.0875  1.0000</r>
       <r>  -0.0875  1.0000</r>
       <r>  -0.0875  1.0000</r>
       <r>  -0.0875  1.0000</r>
       <r>   0.6657  1.0000</r>
       <r>   0.6657  1.0000</r>
       <r>   1.4160  1.0000</r>
       <r>   1.4160  1.0000</r>
       <r>   1.4160  1.0000</r>
       <r>   1.4160  1.0000</r>
       <r>   2.1541  1.0000</r>
       <r>   2.1541  1.0000</r>
       <r>   2.9002  1.0000</r>
       <r>   2.9002  1.0000</r>
       <r>   2.9002  1.0000</r>
       <r>   2.9002  1.0000</r>
       <r>   3.6308  1.0000</r>
       <r>   3.6308  1.0000</r>
       <r>   4.3608  1.0000</r>
       <r>   4.3608  1.0000</r>
       <r>   4.3608  1.0000</r>
       <r>   4.3608  1.0000</r>
       <r>   5.0144  1.0000</r>
       <r>   5.0144  1.0000</r>
       <r>   5.0863  1.0000</r>
       <r>   5.0863  1.0000</r>
       <r>   5.8478  1.0000</r>
       <r>   5.8479  1.0000</r>
       <r>   5.8479  1.0000</r>
       <r>   5.8479  1.0000</r>
       <r>   5.9321  1.0000</r>
       <r>   5.9321  1.0000</r>
       <r>   7.1909  1.0000</r>
       <r>   7.1910  1.0000</r>
       <r>   7.1910  1.0000</r>
       <r>   7.1910  1.0000</r>
       <r>   7.2940  1.0000</r>
       <r>   7.2940  1.0000</r>
       <r>   7.2941  1.0000</r>
       <r>   7.2941  1.0000</r>
       <r>   7.3374  1.0000</r>
       <r>   7.3375  1.0000</r>
       <r>   7.3434  1.0000</r>
       <r>   7.3435  1.0000</r>
       <r>   8.2509  1.0000</r>
       <r>   8.2509  1.0000</r>
       <r>   8.7582  0.0000</r>
       <r>   8.7583  0.0000</r>
       <r>   8.9125  0.0000</r>
       <r>   8.9125  0.0000</r>
       <r>   9.3693  0.0000</r>
       <r>   9.3693  0.0000</r>
       <r>  10.1750  0.0000</r>
       <r>  10.1750  0.0000</r>
       <r>  10.3075  0.0000</r>
       <r>  10.3076  0.0000</r>
       <r>  10.4679  0.0000</r>
       <r>  10.4679  0.0000</r>
       <r>  10.4679  0.0000</r>
       <r>  10.4679  0.0000</r>
       <r>  11.0421  0.0000</r>
       <r>  11.0421  0.0000</r>
       <r>  11.4600  0.0000</r>
       <r>  11.4600  0.0000</r>
       <r>  11.4600  0.0000</r>
       <r>  11.4601  0.0000</r>
       <r>  11.5950  0.0000</r>
       <r>  11.5950  0.0000</r>
      </set>
      <set comment="kpoint 15">
       <r>  -2.1818  1.0000</r>
       <r>  -2.1818  1.0000</r>
       <r>  -1.4164  1.0000</r>
       <r>  -1.4164  1.0000</r>
       <r>   0.1013  1.0000</r>
       <r>   0.1014  1.0000</r>
       <r>   0.1014  1.0000</r>
       <r>   0.1014  1.0000</r>
       <r>   0.8542  1.0000</r>
       <r>   0.8542  1.0000</r>
       <r>   0.8542  1.0000</r>
       <r>   0.8542  1.0000</r>
       <r>   1.6002  1.0000</r>
       <r>   1.6002  1.0000</r>
       <r>   2.3396  1.0000</r>
       <r>   2.3396  1.0000</r>
       <r>   3.0791  1.0000</r>
       <r>   3.0791  1.0000</r>
       <r>   3.7994  1.0000</r>
       <r>   3.7994  1.0000</r>
       <r>   3.8115  1.0000</r>
       <r>   3.8115  1.0000</r>
       <r>   3.8115  1.0000</r>
       <r>   3.8115  1.0000</r>
       <r>   4.5355  1.0000</r>
       <r>   4.5356  1.0000</r>
       <r>   4.5356  1.0000</r>
       <r>   4.5356  1.0000</r>
       <r>   5.3099  1.0000</r>
       <r>   5.3099  1.0000</r>
       <r>   5.3099  1.0000</r>
       <r>   5.3099  1.0000</r>
       <r>   5.9769  1.0000</r>
       <r>   5.9769  1.0000</r>
       <r>   6.0163  1.0000</r>
       <r>   6.0164  1.0000</r>
       <r>   6.0164  1.0000</r>
       <r>   6.0164  1.0000</r>
       <r>   6.1083  1.0000</r>
       <r>   6.1083  1.0000</r>
       <r>   6.8137  1.0000</r>
       <r>   6.8137  1.0000</r>
       <r>   7.4324  1.0000</r>
       <r>   7.4324  1.0000</r>
       <r>   8.1917  1.0000</r>
       <r>   8.1917  1.0000</r>
       <r>   8.1917  1.0000</r>
       <r>   8.1917  1.0000</r>
       <r>   8.3083  0.8752</r>
       <r>   8.3083  0.8752</r>
       <r>   8.3802  0.0000</r>
       <r>   8.3802  0.0000</r>
       <r>   9.6439  0.0000</r>
       <r>   9.6439  0.0000</r>
       <r>   9.7727  0.0000</r>
       <r>   9.7727  0.0000</r>
       <r>  10.3037  0.0000</r>
       <r>  10.3038  0.0000</r>
       <r>  10.3038  0.0000</r>
       <r>  10.3038  0.0000</r>
       <r>  10.3526  0.0000</r>
       <r>  10.3526  0.0000</r>
       <r>  11.0627  0.0000</r>
       <r>  11.0627  0.0000</r>
       <r>  11.0678  0.0000</r>
       <r>  11.0678  0.0000</r>
       <r>  11.1925  0.0000</r>
       <r>  11.1925  0.0000</r>
       <r>  11.7714  0.0000</r>
       <r>  11.7714  0.0000</r>
       <r>  11.9461  0.0000</r>
       <r>  11.9463  0.0000</r>
      </set>
      <set comment="kpoint 16">
       <r>  -1.8650  1.0000</r>
       <r>  -1.8626  1.0000</r>
       <r>  -1.8621  1.0000</r>
       <r>  -1.8597  1.0000</r>
       <r>   0.4118  1.0000</r>
       <r>   0.4139  1.0000</r>
       <r>   0.4152  1.0000</r>
       <r>   0.4154  1.0000</r>
       <r>   0.4157  1.0000</r>
       <r>   0.4159  1.0000</r>
       <r>   0.4172  1.0000</r>
       <r>   0.4193  1.0000</r>
       <r>   2.6443  1.0000</r>
       <r>   2.6461  1.0000</r>
       <r>   2.6478  1.0000</r>
       <r>   2.6482  1.0000</r>
       <r>   2.6483  1.0000</r>
       <r>   2.6486  1.0000</r>
       <r>   2.6504  1.0000</r>
       <r>   2.6522  1.0000</r>
       <r>   4.6880  1.0000</r>
       <r>   4.6896  1.0000</r>
       <r>   4.6904  1.0000</r>
       <r>   4.6910  1.0000</r>
       <r>   4.6910  1.0000</r>
       <r>   4.6916  1.0000</r>
       <r>   4.6924  1.0000</r>
       <r>   4.6939  1.0000</r>
       <r>   5.0332  1.0000</r>
       <r>   5.0336  1.0000</r>
       <r>   5.0344  1.0000</r>
       <r>   5.0354  1.0000</r>
       <r>   5.0354  1.0000</r>
       <r>   5.0364  1.0000</r>
       <r>   5.0373  1.0000</r>
       <r>   5.0376  1.0000</r>
       <r>   6.3991  1.0000</r>
       <r>   6.4018  1.0000</r>
       <r>   6.4023  1.0000</r>
       <r>   6.4050  1.0000</r>
       <r>   6.9265  1.0000</r>
       <r>   6.9272  1.0000</r>
       <r>   6.9285  1.0000</r>
       <r>   6.9293  1.0000</r>
       <r>   8.0111  1.0000</r>
       <r>   8.0124  1.0000</r>
       <r>   8.0133  1.0000</r>
       <r>   8.0146  1.0000</r>
       <r>   9.1972  0.0000</r>
       <r>   9.1981  0.0000</r>
       <r>   9.1983  0.0000</r>
       <r>   9.1985  0.0000</r>
       <r>   9.1995  0.0000</r>
       <r>   9.1998  0.0000</r>
       <r>   9.2000  0.0000</r>
       <r>   9.2009  0.0000</r>
       <r>  10.6427  0.0000</r>
       <r>  10.6465  0.0000</r>
       <r>  10.6481  0.0000</r>
       <r>  10.6484  0.0000</r>
       <r>  10.6485  0.0000</r>
       <r>  10.6488  0.0000</r>
       <r>  10.6504  0.0000</r>
       <r>  10.6542  0.0000</r>
       <r>  11.3632  0.0000</r>
       <r>  11.3650  0.0000</r>
       <r>  11.3666  0.0000</r>
       <r>  11.3667  0.0000</r>
       <r>  11.3670  0.0000</r>
       <r>  11.3671  0.0000</r>
       <r>  11.3688  0.0000</r>
       <r>  11.3705  0.0000</r>
      </set>
      <set comment="kpoint 17">
       <r>  -2.8871  1.0000</r>
       <r>  -1.3529  1.0000</r>
       <r>  -1.3529  1.0000</r>
       <r>  -0.5940  1.0000</r>
       <r>  -0.5906  1.0000</r>
       <r>   0.1637  1.0000</r>
       <r>   0.1637  1.0000</r>
       <r>   0.1644  1.0000</r>
       <r>   0.9139  1.0000</r>
       <r>   0.9159  1.0000</r>
       <r>   0.9173  1.0000</r>
       <r>   0.9193  1.0000</r>
       <r>   1.6641  1.0000</r>
       <r>   1.6641  1.0000</r>
       <r>   2.4050  1.0000</r>
       <r>   2.4064  1.0000</r>
       <r>   2.4072  1.0000</r>
       <r>   2.4086  1.0000</r>
       <r>   2.4095  1.0000</r>
       <r>   2.4108  1.0000</r>
       <r>   3.1468  1.0000</r>
       <r>   3.7424  1.0000</r>
       <r>   3.7424  1.0000</r>
       <r>   4.0495  1.0000</r>
       <r>   4.0495  1.0000</r>
       <r>   4.5334  1.0000</r>
       <r>   4.5334  1.0000</r>
       <r>   5.3693  1.0000</r>
       <r>   5.3728  1.0000</r>
       <r>   5.4626  1.0000</r>
       <r>   5.9701  1.0000</r>
       <r>   5.9701  1.0000</r>
       <r>   6.5555  1.0000</r>
       <r>   6.5555  1.0000</r>
       <r>   6.8309  1.0000</r>
       <r>   6.8309  1.0000</r>
       <r>   6.8635  1.0000</r>
       <r>   6.8725  1.0000</r>
       <r>   6.8727  1.0000</r>
       <r>   7.3496  1.0000</r>
       <r>   7.3496  1.0000</r>
       <r>   7.7833  1.0000</r>
       <r>   7.7834  1.0000</r>
       <r>   8.1426  1.0000</r>
       <r>   8.1447  1.0000</r>
       <r>   8.1464  1.0000</r>
       <r>   8.1484  1.0000</r>
       <r>   8.2861  1.0000</r>
       <r>   8.2861  1.0000</r>
       <r>   8.2864  1.0000</r>
       <r>   8.4042  0.0000</r>
       <r>   8.4042  0.0000</r>
       <r>   9.0176  0.0000</r>
       <r>   9.0176  0.0000</r>
       <r>   9.5713  0.0000</r>
       <r>   9.5720  0.0000</r>
       <r>   9.5751  0.0000</r>
       <r>   9.5758  0.0000</r>
       <r>   9.6063  0.0000</r>
       <r>   9.6063  0.0000</r>
       <r>   9.7031  0.0000</r>
       <r>   9.7032  0.0000</r>
       <r>   9.8886  0.0000</r>
       <r>  10.2089  0.0000</r>
       <r>  10.2089  0.0000</r>
       <r>  10.4904  0.0000</r>
       <r>  10.4905  0.0000</r>
       <r>  10.8549  0.0000</r>
       <r>  10.8549  0.0000</r>
       <r>  11.1215  0.0000</r>
       <r>  11.3122  0.0000</r>
       <r>  11.3122  0.0000</r>
      </set>
      <set comment="kpoint 18">
       <r>  -2.8228  1.0000</r>
       <r>  -1.2911  1.0000</r>
       <r>  -1.2893  1.0000</r>
       <r>  -1.2876  1.0000</r>
       <r>   0.2233  1.0000</r>
       <r>   0.2263  1.0000</r>
       <r>   0.2265  1.0000</r>
       <r>   0.2273  1.0000</r>
       <r>   0.2274  1.0000</r>
       <r>   0.2305  1.0000</r>
       <r>   1.7230  1.0000</r>
       <r>   1.7251  1.0000</r>
       <r>   1.7260  1.0000</r>
       <r>   1.7263  1.0000</r>
       <r>   1.7272  1.0000</r>
       <r>   1.7275  1.0000</r>
       <r>   1.7299  1.0000</r>
       <r>   3.2017  1.0000</r>
       <r>   3.2026  1.0000</r>
       <r>   3.2032  1.0000</r>
       <r>   3.2066  1.0000</r>
       <r>   3.2082  1.0000</r>
       <r>   3.2100  1.0000</r>
       <r>   4.5930  1.0000</r>
       <r>   4.5936  1.0000</r>
       <r>   4.5943  1.0000</r>
       <r>   4.7071  1.0000</r>
       <r>   4.7078  1.0000</r>
       <r>   4.7085  1.0000</r>
       <r>   6.0221  1.0000</r>
       <r>   6.0236  1.0000</r>
       <r>   6.0250  1.0000</r>
       <r>   6.0250  1.0000</r>
       <r>   6.0265  1.0000</r>
       <r>   6.0280  1.0000</r>
       <r>   6.1579  1.0000</r>
       <r>   7.4682  1.0000</r>
       <r>   7.4686  1.0000</r>
       <r>   7.4702  1.0000</r>
       <r>   7.4702  1.0000</r>
       <r>   7.4717  1.0000</r>
       <r>   7.4721  1.0000</r>
       <r>   7.4881  1.0000</r>
       <r>   7.4899  1.0000</r>
       <r>   7.4917  1.0000</r>
       <r>   7.8415  1.0000</r>
       <r>   7.8422  1.0000</r>
       <r>   7.8429  1.0000</r>
       <r>   8.9167  0.0000</r>
       <r>   8.9176  0.0000</r>
       <r>   8.9188  0.0000</r>
       <r>   8.9188  0.0000</r>
       <r>   8.9200  0.0000</r>
       <r>   8.9209  0.0000</r>
       <r>   9.2697  0.0000</r>
       <r>   9.2708  0.0000</r>
       <r>   9.2719  0.0000</r>
       <r>   9.2719  0.0000</r>
       <r>   9.2730  0.0000</r>
       <r>   9.2741  0.0000</r>
       <r>  10.3439  0.0000</r>
       <r>  10.3448  0.0000</r>
       <r>  10.3458  0.0000</r>
       <r>  10.7930  0.0000</r>
       <r>  10.7939  0.0000</r>
       <r>  10.7948  0.0000</r>
       <r>  10.9415  0.0000</r>
       <r>  10.9422  0.0000</r>
       <r>  10.9433  0.0000</r>
       <r>  10.9433  0.0000</r>
       <r>  10.9444  0.0000</r>
       <r>  10.9451  0.0000</r>
      </set>
      <set comment="kpoint 19">
       <r>  -2.6302  1.0000</r>
       <r>  -1.8623  1.0000</r>
       <r>  -1.0988  1.0000</r>
       <r>  -1.0988  1.0000</r>
       <r>  -0.3395  1.0000</r>
       <r>  -0.3395  1.0000</r>
       <r>   0.4149  1.0000</r>
       <r>   0.4149  1.0000</r>
       <r>   0.4157  1.0000</r>
       <r>   1.1628  1.0000</r>
       <r>   1.1659  1.0000</r>
       <r>   1.1665  1.0000</r>
       <r>   1.1675  1.0000</r>
       <r>   1.9126  1.0000</r>
       <r>   1.9126  1.0000</r>
       <r>   2.6519  1.0000</r>
       <r>   2.6525  1.0000</r>
       <r>   2.6547  1.0000</r>
       <r>   2.6553  1.0000</r>
       <r>   3.3718  1.0000</r>
       <r>   3.3909  1.0000</r>
       <r>   3.9798  1.0000</r>
       <r>   4.1223  1.0000</r>
       <r>   4.1223  1.0000</r>
       <r>   4.2989  1.0000</r>
       <r>   4.7740  1.0000</r>
       <r>   4.7740  1.0000</r>
       <r>   4.8300  1.0000</r>
       <r>   4.8301  1.0000</r>
       <r>   5.4926  1.0000</r>
       <r>   5.4926  1.0000</r>
       <r>   5.6117  1.0000</r>
       <r>   5.6117  1.0000</r>
       <r>   6.0935  1.0000</r>
       <r>   6.0935  1.0000</r>
       <r>   6.3104  1.0000</r>
       <r>   6.4111  1.0000</r>
       <r>   6.4111  1.0000</r>
       <r>   6.9535  1.0000</r>
       <r>   6.9536  1.0000</r>
       <r>   7.0611  1.0000</r>
       <r>   7.6608  1.0000</r>
       <r>   7.6609  1.0000</r>
       <r>   7.7500  1.0000</r>
       <r>   7.7500  1.0000</r>
       <r>   8.0160  1.0000</r>
       <r>   8.0160  1.0000</r>
       <r>   8.2679  1.0000</r>
       <r>   8.2679  1.0000</r>
       <r>   8.3816  0.0000</r>
       <r>   8.3816  0.0000</r>
       <r>   8.8706  0.0000</r>
       <r>   8.8706  0.0000</r>
       <r>   9.1853  0.0000</r>
       <r>   9.3917  0.0000</r>
       <r>   9.5116  0.0000</r>
       <r>   9.5116  0.0000</r>
       <r>   9.8073  0.0000</r>
       <r>   9.8073  0.0000</r>
       <r>  10.2544  0.0000</r>
       <r>  10.2545  0.0000</r>
       <r>  10.5242  0.0000</r>
       <r>  10.5242  0.0000</r>
       <r>  10.5450  0.0000</r>
       <r>  10.5450  0.0000</r>
       <r>  11.2307  0.0000</r>
       <r>  11.2307  0.0000</r>
       <r>  11.3613  0.0000</r>
       <r>  11.3613  0.0000</r>
       <r>  11.6541  0.0000</r>
       <r>  11.6543  0.0000</r>
       <r>  11.7563  0.0000</r>
      </set>
      <set comment="kpoint 20">
       <r>  -2.3112  1.0000</r>
       <r>  -2.3083  1.0000</r>
       <r>  -0.7844  1.0000</r>
       <r>  -0.7824  1.0000</r>
       <r>  -0.7815  1.0000</r>
       <r>  -0.7795  1.0000</r>
       <r>   0.7256  1.0000</r>
       <r>   0.7278  1.0000</r>
       <r>   0.7279  1.0000</r>
       <r>   0.7288  1.0000</r>
       <r>   0.7300  1.0000</r>
       <r>   0.7314  1.0000</r>
       <r>   2.2146  1.0000</r>
       <r>   2.2162  1.0000</r>
       <r>   2.2211  1.0000</r>
       <r>   2.2213  1.0000</r>
       <r>   2.2237  1.0000</r>
       <r>   2.2246  1.0000</r>
       <r>   3.6892  1.0000</r>
       <r>   3.6908  1.0000</r>
       <r>   3.6912  1.0000</r>
       <r>   3.6921  1.0000</r>
       <r>   3.6922  1.0000</r>
       <r>   3.6930  1.0000</r>
       <r>   5.0724  1.0000</r>
       <r>   5.0728  1.0000</r>
       <r>   5.0755  1.0000</r>
       <r>   5.0758  1.0000</r>
       <r>   5.1396  1.0000</r>
       <r>   5.1398  1.0000</r>
       <r>   5.1408  1.0000</r>
       <r>   5.1410  1.0000</r>
       <r>   5.1877  1.0000</r>
       <r>   5.1891  1.0000</r>
       <r>   6.5397  1.0000</r>
       <r>   6.5417  1.0000</r>
       <r>   6.5427  1.0000</r>
       <r>   6.5447  1.0000</r>
       <r>   6.6302  1.0000</r>
       <r>   6.6309  1.0000</r>
       <r>   6.6316  1.0000</r>
       <r>   6.6323  1.0000</r>
       <r>   7.9606  1.0000</r>
       <r>   7.9613  1.0000</r>
       <r>   7.9637  1.0000</r>
       <r>   7.9644  1.0000</r>
       <r>   8.0737  1.0000</r>
       <r>   8.0752  1.0000</r>
       <r>   8.2843  1.0000</r>
       <r>   8.2850  1.0000</r>
       <r>   8.2872  1.0000</r>
       <r>   8.2879  1.0000</r>
       <r>   9.4452  0.0000</r>
       <r>   9.4458  0.0000</r>
       <r>   9.4469  0.0000</r>
       <r>   9.4474  0.0000</r>
       <r>   9.8263  0.0000</r>
       <r>   9.8272  0.0000</r>
       <r>   9.8293  0.0000</r>
       <r>   9.8302  0.0000</r>
       <r>  10.8061  0.0000</r>
       <r>  10.8067  0.0000</r>
       <r>  10.8079  0.0000</r>
       <r>  10.8085  0.0000</r>
       <r>  11.0832  0.0000</r>
       <r>  11.0842  0.0000</r>
       <r>  11.1833  0.0000</r>
       <r>  11.1855  0.0000</r>
       <r>  11.1865  0.0000</r>
       <r>  11.1888  0.0000</r>
       <r>  12.1863  0.0000</r>
       <r>  12.2254  0.0000</r>
      </set>
      <set comment="kpoint 21">
       <r>  -2.6944  1.0000</r>
       <r>  -1.9262  1.0000</r>
       <r>  -1.1623  1.0000</r>
       <r>  -0.4049  1.0000</r>
       <r>  -0.4027  1.0000</r>
       <r>  -0.4005  1.0000</r>
       <r>   0.3504  1.0000</r>
       <r>   0.3524  1.0000</r>
       <r>   0.3548  1.0000</r>
       <r>   1.1008  1.0000</r>
       <r>   1.1029  1.0000</r>
       <r>   1.1036  1.0000</r>
       <r>   1.1061  1.0000</r>
       <r>   1.8495  1.0000</r>
       <r>   1.8529  1.0000</r>
       <r>   2.5909  1.0000</r>
       <r>   2.5918  1.0000</r>
       <r>   2.5947  1.0000</r>
       <r>   3.3105  1.0000</r>
       <r>   3.3234  1.0000</r>
       <r>   3.3267  1.0000</r>
       <r>   3.3278  1.0000</r>
       <r>   3.3311  1.0000</r>
       <r>   4.0625  1.0000</r>
       <r>   4.7140  1.0000</r>
       <r>   4.7708  1.0000</r>
       <r>   4.8269  1.0000</r>
       <r>   4.8303  1.0000</r>
       <r>   5.4338  1.0000</r>
       <r>   5.4844  1.0000</r>
       <r>   5.4878  1.0000</r>
       <r>   5.6386  1.0000</r>
       <r>   6.2019  1.0000</r>
       <r>   6.2751  1.0000</r>
       <r>   6.2787  1.0000</r>
       <r>   6.3433  1.0000</r>
       <r>   6.8953  1.0000</r>
       <r>   6.8989  1.0000</r>
       <r>   6.9690  1.0000</r>
       <r>   6.9726  1.0000</r>
       <r>   7.0447  1.0000</r>
       <r>   7.0492  1.0000</r>
       <r>   7.6065  1.0000</r>
       <r>   7.6102  1.0000</r>
       <r>   7.6786  1.0000</r>
       <r>   7.7558  1.0000</r>
       <r>   7.9608  1.0000</r>
       <r>   8.4075  0.0000</r>
       <r>   8.4111  0.0000</r>
       <r>   8.4464  0.0000</r>
       <r>   8.4632  0.0000</r>
       <r>   8.6017  0.0000</r>
       <r>   8.6358  0.0000</r>
       <r>   9.1711  0.0000</r>
       <r>   9.1715  0.0000</r>
       <r>   9.3366  0.0000</r>
       <r>   9.3422  0.0000</r>
       <r>   9.8711  0.0000</r>
       <r>  10.1104  0.0000</r>
       <r>  10.1131  0.0000</r>
       <r>  10.4592  0.0000</r>
       <r>  10.4615  0.0000</r>
       <r>  10.4631  0.0000</r>
       <r>  10.5897  0.0000</r>
       <r>  10.7625  0.0000</r>
       <r>  10.9017  0.0000</r>
       <r>  10.9048  0.0000</r>
       <r>  10.9225  0.0000</r>
       <r>  11.0649  0.0000</r>
       <r>  11.2969  0.0000</r>
       <r>  11.6741  0.0000</r>
       <r>  11.6792  0.0000</r>
      </set>
      <set comment="kpoint 22">
       <r>  -2.6302  1.0000</r>
       <r>  -1.8623  1.0000</r>
       <r>  -1.1001  1.0000</r>
       <r>  -1.0976  1.0000</r>
       <r>  -0.3407  1.0000</r>
       <r>  -0.3383  1.0000</r>
       <r>   0.4132  1.0000</r>
       <r>   0.4152  1.0000</r>
       <r>   0.4171  1.0000</r>
       <r>   1.1636  1.0000</r>
       <r>   1.1646  1.0000</r>
       <r>   1.1663  1.0000</r>
       <r>   1.1682  1.0000</r>
       <r>   1.9121  1.0000</r>
       <r>   1.9131  1.0000</r>
       <r>   2.6518  1.0000</r>
       <r>   2.6535  1.0000</r>
       <r>   2.6542  1.0000</r>
       <r>   2.6549  1.0000</r>
       <r>   3.3718  1.0000</r>
       <r>   3.3909  1.0000</r>
       <r>   3.9798  1.0000</r>
       <r>   4.1210  1.0000</r>
       <r>   4.1236  1.0000</r>
       <r>   4.2989  1.0000</r>
       <r>   4.7736  1.0000</r>
       <r>   4.7745  1.0000</r>
       <r>   4.8287  1.0000</r>
       <r>   4.8313  1.0000</r>
       <r>   5.4922  1.0000</r>
       <r>   5.4931  1.0000</r>
       <r>   5.6112  1.0000</r>
       <r>   5.6122  1.0000</r>
       <r>   6.0923  1.0000</r>
       <r>   6.0948  1.0000</r>
       <r>   6.3104  1.0000</r>
       <r>   6.4098  1.0000</r>
       <r>   6.4125  1.0000</r>
       <r>   6.9523  1.0000</r>
       <r>   6.9548  1.0000</r>
       <r>   7.0611  1.0000</r>
       <r>   7.6602  1.0000</r>
       <r>   7.6616  1.0000</r>
       <r>   7.7494  1.0000</r>
       <r>   7.7506  1.0000</r>
       <r>   8.0155  1.0000</r>
       <r>   8.0166  1.0000</r>
       <r>   8.2671  1.0000</r>
       <r>   8.2687  1.0000</r>
       <r>   8.3809  0.0000</r>
       <r>   8.3823  0.0000</r>
       <r>   8.8706  0.0000</r>
       <r>   8.8707  0.0000</r>
       <r>   9.1853  0.0000</r>
       <r>   9.3917  0.0000</r>
       <r>   9.5108  0.0000</r>
       <r>   9.5123  0.0000</r>
       <r>   9.8060  0.0000</r>
       <r>   9.8086  0.0000</r>
       <r>  10.2538  0.0000</r>
       <r>  10.2551  0.0000</r>
       <r>  10.5237  0.0000</r>
       <r>  10.5246  0.0000</r>
       <r>  10.5436  0.0000</r>
       <r>  10.5464  0.0000</r>
       <r>  11.2300  0.0000</r>
       <r>  11.2313  0.0000</r>
       <r>  11.3603  0.0000</r>
       <r>  11.3622  0.0000</r>
       <r>  11.6529  0.0000</r>
       <r>  11.6558  0.0000</r>
       <r>  11.7559  0.0000</r>
      </set>
      <set comment="kpoint 23">
       <r>  -2.4378  1.0000</r>
       <r>  -1.6723  1.0000</r>
       <r>  -1.6698  1.0000</r>
       <r>  -0.9096  1.0000</r>
       <r>  -0.9076  1.0000</r>
       <r>  -0.1515  1.0000</r>
       <r>  -0.1491  1.0000</r>
       <r>   0.6028  1.0000</r>
       <r>   0.6042  1.0000</r>
       <r>   1.3492  1.0000</r>
       <r>   1.3517  1.0000</r>
       <r>   1.3525  1.0000</r>
       <r>   1.3549  1.0000</r>
       <r>   2.0959  1.0000</r>
       <r>   2.0970  1.0000</r>
       <r>   2.0993  1.0000</r>
       <r>   2.8365  1.0000</r>
       <r>   2.8390  1.0000</r>
       <r>   3.5547  1.0000</r>
       <r>   3.5556  1.0000</r>
       <r>   3.5672  1.0000</r>
       <r>   3.5681  1.0000</r>
       <r>   4.2847  1.0000</r>
       <r>   4.2872  1.0000</r>
       <r>   4.2966  1.0000</r>
       <r>   4.2991  1.0000</r>
       <r>   4.9539  1.0000</r>
       <r>   5.0032  1.0000</r>
       <r>   5.0042  1.0000</r>
       <r>   5.0232  1.0000</r>
       <r>   5.0717  1.0000</r>
       <r>   5.0727  1.0000</r>
       <r>   5.6647  1.0000</r>
       <r>   5.6674  1.0000</r>
       <r>   5.7744  1.0000</r>
       <r>   5.7769  1.0000</r>
       <r>   6.4231  1.0000</r>
       <r>   6.4929  1.0000</r>
       <r>   6.4939  1.0000</r>
       <r>   6.5157  1.0000</r>
       <r>   7.1797  1.0000</r>
       <r>   7.1811  1.0000</r>
       <r>   7.2080  1.0000</r>
       <r>   7.2106  1.0000</r>
       <r>   7.9603  1.0000</r>
       <r>   8.1653  1.0000</r>
       <r>   8.5368  0.0000</r>
       <r>   8.5396  0.0000</r>
       <r>   8.6436  0.0000</r>
       <r>   8.6448  0.0000</r>
       <r>   9.0014  0.0000</r>
       <r>   9.0034  0.0000</r>
       <r>   9.2694  0.0000</r>
       <r>   9.2708  0.0000</r>
       <r>   9.4025  0.0000</r>
       <r>   9.5441  0.0000</r>
       <r>   9.5455  0.0000</r>
       <r>   9.7175  0.0000</r>
       <r>  10.0746  0.0000</r>
       <r>  10.0758  0.0000</r>
       <r>  10.2808  0.0000</r>
       <r>  10.2825  0.0000</r>
       <r>  10.7211  0.0000</r>
       <r>  10.7223  0.0000</r>
       <r>  10.7507  0.0000</r>
       <r>  10.9956  0.0000</r>
       <r>  10.9964  0.0000</r>
       <r>  11.3658  0.0000</r>
       <r>  11.3686  0.0000</r>
       <r>  11.7644  0.0000</r>
       <r>  11.7655  0.0000</r>
       <r>  11.9675  0.0000</r>
      </set>
      <set comment="kpoint 24">
       <r>  -2.1193  1.0000</r>
       <r>  -2.1164  1.0000</r>
       <r>  -1.3543  1.0000</r>
       <r>  -1.3514  1.0000</r>
       <r>  -0.5936  1.0000</r>
       <r>  -0.5907  1.0000</r>
       <r>   0.1630  1.0000</r>
       <r>   0.1660  1.0000</r>
       <r>   0.9145  1.0000</r>
       <r>   0.9175  1.0000</r>
       <r>   1.6608  1.0000</r>
       <r>   1.6629  1.0000</r>
       <r>   1.6637  1.0000</r>
       <r>   1.6658  1.0000</r>
       <r>   2.4007  1.0000</r>
       <r>   2.4020  1.0000</r>
[...]
       <r>   7.4324  1.0000</r>
       <r>   8.1896  1.0000</r>
       <r>   8.1902  1.0000</r>
       <r>   8.1932  1.0000</r>
       <r>   8.1939  1.0000</r>
       <r>   8.3083  0.8755</r>
       <r>   8.3083  0.8750</r>
       <r>   8.3802  0.0000</r>
       <r>   8.3802  0.0000</r>
       <r>   9.6438  0.0000</r>
       <r>   9.6439  0.0000</r>
       <r>   9.7727  0.0000</r>
       <r>   9.7728  0.0000</r>
       <r>  10.3017  0.0000</r>
       <r>  10.3022  0.0000</r>
       <r>  10.3055  0.0000</r>
       <r>  10.3059  0.0000</r>
       <r>  10.3526  0.0000</r>
       <r>  10.3526  0.0000</r>
       <r>  11.0620  0.0000</r>
       <r>  11.0624  0.0000</r>
       <r>  11.0680  0.0000</r>
       <r>  11.0685  0.0000</r>
       <r>  11.1925  0.0000</r>
       <r>  11.1925  0.0000</r>
       <r>  11.7714  0.0000</r>
       <r>  11.7715  0.0000</r>
       <r>  11.9458  0.0000</r>
       <r>  11.9476  0.0000</r>
      </set>
      <set comment="kpoint 34">
       <r>  -2.1178  1.0000</r>
       <r>  -2.1178  1.0000</r>
       <r>  -1.3529  1.0000</r>
       <r>  -1.3528  1.0000</r>
       <r>  -0.5921  1.0000</r>
       <r>  -0.5921  1.0000</r>
       <r>   0.1645  1.0000</r>
       <r>   0.1645  1.0000</r>
       <r>   0.9160  1.0000</r>
       <r>   0.9160  1.0000</r>
       <r>   1.6619  1.0000</r>
       <r>   1.6624  1.0000</r>
       <r>   1.6642  1.0000</r>
       <r>   1.6647  1.0000</r>
       <r>   2.4014  1.0000</r>
       <r>   2.4014  1.0000</r>
       <r>   3.1403  1.0000</r>
       <r>   3.1404  1.0000</r>
       <r>   3.1442  1.0000</r>
       <r>   3.1443  1.0000</r>
       <r>   3.8602  1.0000</r>
       <r>   3.8603  1.0000</r>
       <r>   3.8735  1.0000</r>
       <r>   3.8735  1.0000</r>
       <r>   4.4541  1.0000</r>
       <r>   4.4541  1.0000</r>
       <r>   4.7919  1.0000</r>
       <r>   4.7919  1.0000</r>
       <r>   5.1630  1.0000</r>
       <r>   5.1630  1.0000</r>
       <r>   5.2528  1.0000</r>
       <r>   5.2528  1.0000</r>
       <r>   5.5129  1.0000</r>
       <r>   5.5129  1.0000</r>
       <r>   5.8582  1.0000</r>
       <r>   5.8582  1.0000</r>
       <r>   6.0888  1.0000</r>
       <r>   6.0888  1.0000</r>
       <r>   6.1845  1.0000</r>
       <r>   6.1846  1.0000</r>
       <r>   6.7889  1.0000</r>
       <r>   6.7889  1.0000</r>
       <r>   7.5309  1.0000</r>
       <r>   7.5309  1.0000</r>
       <r>   8.0617  1.0000</r>
       <r>   8.0617  1.0000</r>
       <r>   8.7041  0.0000</r>
       <r>   8.7042  0.0000</r>
       <r>   8.8490  0.0000</r>
       <r>   8.8490  0.0000</r>
       <r>   8.9692  0.0000</r>
       <r>   8.9692  0.0000</r>
       <r>   9.2979  0.0000</r>
       <r>   9.2979  0.0000</r>
       <r>   9.4525  0.0000</r>
       <r>   9.4525  0.0000</r>
       <r>   9.6482  0.0000</r>
       <r>   9.6482  0.0000</r>
       <r>   9.9948  0.0000</r>
       <r>   9.9948  0.0000</r>
       <r>  10.2693  0.0000</r>
       <r>  10.2693  0.0000</r>
       <r>  10.8723  0.0000</r>
       <r>  10.8723  0.0000</r>
       <r>  11.0743  0.0000</r>
       <r>  11.0744  0.0000</r>
       <r>  11.3376  0.0000</r>
       <r>  11.3377  0.0000</r>
       <r>  11.3906  0.0000</r>
       <r>  11.3906  0.0000</r>
       <r>  11.7358  0.0000</r>
       <r>  11.7358  0.0000</r>
      </set>
      <set comment="kpoint 35">
       <r>  -1.9262  1.0000</r>
       <r>  -1.9262  1.0000</r>
       <r>  -1.1645  1.0000</r>
       <r>  -1.1625  1.0000</r>
       <r>  -1.1620  1.0000</r>
       <r>  -1.1600  1.0000</r>
       <r>  -0.4025  1.0000</r>
       <r>  -0.4025  1.0000</r>
       <r>   1.8465  1.0000</r>
       <r>   1.8485  1.0000</r>
       <r>   1.8490  1.0000</r>
       <r>   1.8510  1.0000</r>
       <r>   2.5857  1.0000</r>
       <r>   2.5864  1.0000</r>
       <r>   2.5908  1.0000</r>
       <r>   2.5911  1.0000</r>
       <r>   2.5914  1.0000</r>
       <r>   2.5925  1.0000</r>
       <r>   3.3229  1.0000</r>
       <r>   3.3230  1.0000</r>
       <r>   3.3254  1.0000</r>
       <r>   3.3255  1.0000</r>
       <r>   4.0415  1.0000</r>
       <r>   4.0424  1.0000</r>
       <r>   4.0427  1.0000</r>
       <r>   4.0431  1.0000</r>
       <r>   4.0497  1.0000</r>
       <r>   4.0502  1.0000</r>
       <r>   4.7596  1.0000</r>
       <r>   4.7615  1.0000</r>
       <r>   4.7621  1.0000</r>
       <r>   4.7640  1.0000</r>
       <r>   5.5560  1.0000</r>
       <r>   5.5560  1.0000</r>
       <r>   6.2695  1.0000</r>
       <r>   6.2695  1.0000</r>
       <r>   6.2721  1.0000</r>
       <r>   6.2722  1.0000</r>
       <r>   6.9877  1.0000</r>
       <r>   6.9886  1.0000</r>
       <r>   6.9888  1.0000</r>
       <r>   6.9897  1.0000</r>
       <r>   7.6808  1.0000</r>
       <r>   7.6819  1.0000</r>
       <r>   7.6821  1.0000</r>
       <r>   7.6832  1.0000</r>
       <r>   8.3662  0.0000</r>
       <r>   8.3669  0.0000</r>
       <r>   8.3675  0.0000</r>
       <r>   8.3682  0.0000</r>
       <r>   9.1073  0.0000</r>
       <r>   9.1074  0.0000</r>
       <r>   9.1099  0.0000</r>
       <r>   9.1100  0.0000</r>
       <r>   9.7780  0.0000</r>
       <r>   9.7781  0.0000</r>
       <r>   9.8605  0.0000</r>
       <r>   9.8605  0.0000</r>
       <r>  10.1167  0.0000</r>
       <r>  10.1170  0.0000</r>
       <r>  10.1174  0.0000</r>
       <r>  10.1178  0.0000</r>
       <r>  10.8158  0.0000</r>
       <r>  10.8169  0.0000</r>
       <r>  10.8171  0.0000</r>
       <r>  10.8182  0.0000</r>
       <r>  11.5138  0.0000</r>
       <r>  11.5138  0.0000</r>
       <r>  11.9563  0.0000</r>
       <r>  11.9572  0.0000</r>
       <r>  11.9576  0.0000</r>
       <r>  11.9585  0.0000</r>
      </set>
      <set comment="kpoint 36">
       <r>  -1.6101  1.0000</r>
       <r>  -1.6076  1.0000</r>
       <r>  -1.6071  1.0000</r>
       <r>  -1.6047  1.0000</r>
       <r>  -0.8479  1.0000</r>
       <r>  -0.8454  1.0000</r>
       <r>  -0.8450  1.0000</r>
       <r>  -0.8425  1.0000</r>
       <r>   2.1559  1.0000</r>
       <r>   2.1585  1.0000</r>
       <r>   2.1589  1.0000</r>
       <r>   2.1614  1.0000</r>
       <r>   2.8905  1.0000</r>
       <r>   2.8924  1.0000</r>
       <r>   2.8941  1.0000</r>
       <r>   2.8944  1.0000</r>
       <r>   2.8946  1.0000</r>
       <r>   2.8949  1.0000</r>
       <r>   2.8967  1.0000</r>
       <r>   2.8985  1.0000</r>
       <r>   3.6250  1.0000</r>
       <r>   3.6269  1.0000</r>
       <r>   3.6286  1.0000</r>
       <r>   3.6289  1.0000</r>
       <r>   3.6291  1.0000</r>
       <r>   3.6294  1.0000</r>
       <r>   3.6312  1.0000</r>
       <r>   3.6330  1.0000</r>
       <r>   4.3421  1.0000</r>
       <r>   4.3447  1.0000</r>
       <r>   4.3451  1.0000</r>
       <r>   4.3477  1.0000</r>
       <r>   6.5631  1.0000</r>
       <r>   6.5649  1.0000</r>
       <r>   6.5669  1.0000</r>
       <r>   6.5671  1.0000</r>
       <r>   6.5673  1.0000</r>
       <r>   6.5676  1.0000</r>
       <r>   6.5695  1.0000</r>
       <r>   6.5713  1.0000</r>
       <r>   7.2702  1.0000</r>
       <r>   7.2715  1.0000</r>
       <r>   7.2716  1.0000</r>
       <r>   7.2729  1.0000</r>
       <r>   7.9984  1.0000</r>
       <r>   7.9997  1.0000</r>
       <r>   7.9998  1.0000</r>
       <r>   8.0011  1.0000</r>
       <r>   8.6798  0.0000</r>
       <r>   8.6820  0.0000</r>
       <r>   8.6840  0.0000</r>
       <r>   8.6842  0.0000</r>
       <r>   8.6844  0.0000</r>
       <r>   8.6846  0.0000</r>
       <r>   8.6866  0.0000</r>
       <r>   8.6888  0.0000</r>
       <r>  10.4042  0.0000</r>
       <r>  10.4065  0.0000</r>
       <r>  10.4072  0.0000</r>
       <r>  10.4094  0.0000</r>
       <r>  10.8591  0.0000</r>
       <r>  10.8603  0.0000</r>
       <r>  10.8606  0.0000</r>
       <r>  10.8619  0.0000</r>
       <r>  11.7893  0.0000</r>
       <r>  11.7903  0.0000</r>
       <r>  11.7905  0.0000</r>
       <r>  11.7917  0.0000</r>
       <r>  11.7920  0.0000</r>
       <r>  11.7932  0.0000</r>
       <r>  11.7934  0.0000</r>
       <r>  11.7943  0.0000</r>
      </set>
      <set comment="kpoint 37">
       <r>  -1.8624  1.0000</r>
       <r>  -1.8623  1.0000</r>
       <r>  -1.8623  1.0000</r>
       <r>  -1.8623  1.0000</r>
       <r>   0.4103  1.0000</r>
       <r>   0.4149  1.0000</r>
       <r>   0.4149  1.0000</r>
       <r>   0.4154  1.0000</r>
       <r>   0.4157  1.0000</r>
       <r>   0.4162  1.0000</r>
       <r>   0.4162  1.0000</r>
       <r>   0.4208  1.0000</r>
       <r>   2.6482  1.0000</r>
       <r>   2.6482  1.0000</r>
       <r>   2.6482  1.0000</r>
       <r>   2.6482  1.0000</r>
       <r>   2.6482  1.0000</r>
       <r>   2.6482  1.0000</r>
       <r>   2.6482  1.0000</r>
       <r>   2.6482  1.0000</r>
       <r>   4.6895  1.0000</r>
       <r>   4.6895  1.0000</r>
       <r>   4.6909  1.0000</r>
       <r>   4.6910  1.0000</r>
       <r>   4.6910  1.0000</r>
       <r>   4.6910  1.0000</r>
       <r>   4.6925  1.0000</r>
       <r>   4.6925  1.0000</r>
       <r>   5.0337  1.0000</r>
       <r>   5.0337  1.0000</r>
       <r>   5.0354  1.0000</r>
       <r>   5.0354  1.0000</r>
       <r>   5.0354  1.0000</r>
       <r>   5.0355  1.0000</r>
       <r>   5.0372  1.0000</r>
       <r>   5.0372  1.0000</r>
       <r>   6.4021  1.0000</r>
       <r>   6.4021  1.0000</r>
       <r>   6.4021  1.0000</r>
       <r>   6.4021  1.0000</r>
       <r>   6.9279  1.0000</r>
       <r>   6.9279  1.0000</r>
       <r>   6.9279  1.0000</r>
       <r>   6.9279  1.0000</r>
       <r>   8.0128  1.0000</r>
       <r>   8.0129  1.0000</r>
       <r>   8.0129  1.0000</r>
       <r>   8.0129  1.0000</r>
       <r>   9.1967  0.0000</r>
       <r>   9.1967  0.0000</r>
       <r>   9.1971  0.0000</r>
       <r>   9.1983  0.0000</r>
       <r>   9.1998  0.0000</r>
       <r>   9.2010  0.0000</r>
       <r>   9.2014  0.0000</r>
       <r>   9.2014  0.0000</r>
       <r>  10.6485  0.0000</r>
       <r>  10.6485  0.0000</r>
       <r>  10.6485  0.0000</r>
       <r>  10.6485  0.0000</r>
       <r>  10.6485  0.0000</r>
       <r>  10.6485  0.0000</r>
       <r>  10.6485  0.0000</r>
       <r>  10.6485  0.0000</r>
       <r>  11.3669  0.0000</r>
       <r>  11.3669  0.0000</r>
       <r>  11.3669  0.0000</r>
       <r>  11.3669  0.0000</r>
       <r>  11.3669  0.0000</r>
       <r>  11.3669  0.0000</r>
       <r>  11.3669  0.0000</r>
       <r>  11.3669  0.0000</r>
      </set>
      <set comment="kpoint 38">
       <r>  -1.7986  1.0000</r>
       <r>  -1.7985  1.0000</r>
       <r>  -1.7985  1.0000</r>
       <r>  -1.7985  1.0000</r>
       <r>  -0.2764  1.0000</r>
       <r>  -0.2764  1.0000</r>
       <r>  -0.2764  1.0000</r>
       <r>  -0.2764  1.0000</r>
       <r>   1.2283  1.0000</r>
       <r>   1.2283  1.0000</r>
       <r>   1.2283  1.0000</r>
       <r>   1.2283  1.0000</r>
       <r>   2.7098  1.0000</r>
       <r>   2.7098  1.0000</r>
       <r>   2.7099  1.0000</r>
       <r>   2.7099  1.0000</r>
       <r>   2.7099  1.0000</r>
       <r>   2.7099  1.0000</r>
       <r>   2.7099  1.0000</r>
       <r>   2.7099  1.0000</r>
       <r>   4.1710  1.0000</r>
       <r>   4.1710  1.0000</r>
       <r>   4.1713  1.0000</r>
       <r>   4.1713  1.0000</r>
       <r>   4.1713  1.0000</r>
       <r>   4.1713  1.0000</r>
       <r>   4.1715  1.0000</r>
       <r>   4.1715  1.0000</r>
       <r>   5.5462  1.0000</r>
       <r>   5.5462  1.0000</r>
       <r>   5.5462  1.0000</r>
       <r>   5.5462  1.0000</r>
       <r>   5.6724  1.0000</r>
       <r>   5.6724  1.0000</r>
       <r>   5.6729  1.0000</r>
       <r>   5.6729  1.0000</r>
       <r>   5.6729  1.0000</r>
       <r>   5.6729  1.0000</r>
       <r>   5.6734  1.0000</r>
       <r>   5.6734  1.0000</r>
       <r>   7.0735  1.0000</r>
       <r>   7.0735  1.0000</r>
       <r>   7.0735  1.0000</r>
       <r>   7.0735  1.0000</r>
       <r>   8.5407  0.0000</r>
       <r>   8.5407  0.0000</r>
       <r>   8.5407  0.0000</r>
       <r>   8.5407  0.0000</r>
       <r>   8.8934  0.0000</r>
       <r>   8.8934  0.0000</r>
       <r>   8.8934  0.0000</r>
       <r>   8.8934  0.0000</r>
       <r>   9.8407  0.0000</r>
       <r>   9.8407  0.0000</r>
       <r>   9.8412  0.0000</r>
       <r>   9.8412  0.0000</r>
       <r>   9.8412  0.0000</r>
       <r>   9.8413  0.0000</r>
       <r>   9.8418  0.0000</r>
       <r>   9.8418  0.0000</r>
       <r>   9.9732  0.0000</r>
       <r>   9.9732  0.0000</r>
       <r>   9.9732  0.0000</r>
       <r>   9.9732  0.0000</r>
       <r>  11.5743  0.0000</r>
       <r>  11.5743  0.0000</r>
       <r>  11.5753  0.0000</r>
       <r>  11.5753  0.0000</r>
       <r>  11.5753  0.0000</r>
       <r>  11.5753  0.0000</r>
       <r>  11.5763  0.0000</r>
       <r>  11.5763  0.0000</r>
      </set>
      <set comment="kpoint 39">
       <r>  -1.6074  1.0000</r>
       <r>  -1.6074  1.0000</r>
       <r>  -1.6074  1.0000</r>
       <r>  -1.6074  1.0000</r>
       <r>  -0.8452  1.0000</r>
       <r>  -0.8452  1.0000</r>
       <r>  -0.8452  1.0000</r>
       <r>  -0.8452  1.0000</r>
       <r>   2.1587  1.0000</r>
       <r>   2.1587  1.0000</r>
       <r>   2.1587  1.0000</r>
       <r>   2.1587  1.0000</r>
       <r>   2.8945  1.0000</r>
       <r>   2.8945  1.0000</r>
       <r>   2.8945  1.0000</r>
       <r>   2.8945  1.0000</r>
       <r>   2.8945  1.0000</r>
       <r>   2.8945  1.0000</r>
       <r>   2.8945  1.0000</r>
       <r>   2.8945  1.0000</r>
       <r>   3.6289  1.0000</r>
       <r>   3.6289  1.0000</r>
       <r>   3.6290  1.0000</r>
       <r>   3.6290  1.0000</r>
       <r>   3.6290  1.0000</r>
       <r>   3.6290  1.0000</r>
       <r>   3.6291  1.0000</r>
       <r>   3.6291  1.0000</r>
       <r>   4.3449  1.0000</r>
       <r>   4.3449  1.0000</r>
       <r>   4.3449  1.0000</r>
       <r>   4.3450  1.0000</r>
       <r>   6.5668  1.0000</r>
       <r>   6.5668  1.0000</r>
       <r>   6.5672  1.0000</r>
       <r>   6.5672  1.0000</r>
       <r>   6.5672  1.0000</r>
       <r>   6.5672  1.0000</r>
       <r>   6.5676  1.0000</r>
       <r>   6.5676  1.0000</r>
       <r>   7.2716  1.0000</r>
       <r>   7.2716  1.0000</r>
       <r>   7.2716  1.0000</r>
       <r>   7.2716  1.0000</r>
       <r>   7.9998  1.0000</r>
       <r>   7.9998  1.0000</r>
       <r>   7.9998  1.0000</r>
       <r>   7.9998  1.0000</r>
       <r>   8.6839  0.0000</r>
       <r>   8.6839  0.0000</r>
       <r>   8.6843  0.0000</r>
       <r>   8.6843  0.0000</r>
       <r>   8.6843  0.0000</r>
       <r>   8.6843  0.0000</r>
       <r>   8.6847  0.0000</r>
       <r>   8.6847  0.0000</r>
       <r>  10.4068  0.0000</r>
       <r>  10.4068  0.0000</r>
       <r>  10.4068  0.0000</r>
       <r>  10.4068  0.0000</r>
       <r>  10.8605  0.0000</r>
       <r>  10.8605  0.0000</r>
       <r>  10.8605  0.0000</r>
       <r>  10.8605  0.0000</r>
       <r>  11.7911  0.0000</r>
       <r>  11.7911  0.0000</r>
       <r>  11.7918  0.0000</r>
       <r>  11.7918  0.0000</r>
       <r>  11.7918  0.0000</r>
       <r>  11.7918  0.0000</r>
       <r>  11.7925  0.0000</r>
       <r>  11.7925  0.0000</r>
      </set>
      <set comment="kpoint 40">
       <r>  -1.2942  1.0000</r>
       <r>  -1.2898  1.0000</r>
       <r>  -1.2898  1.0000</r>
       <r>  -1.2893  1.0000</r>
       <r>  -1.2893  1.0000</r>
       <r>  -1.2888  1.0000</r>
       <r>  -1.2888  1.0000</r>
       <r>  -1.2844  1.0000</r>
       <r>   3.1911  1.0000</r>
       <r>   3.1972  1.0000</r>
       <r>   3.1972  1.0000</r>
       <r>   3.2005  1.0000</r>
       <r>   3.2009  1.0000</r>
       <r>   3.2010  1.0000</r>
       <r>   3.2013  1.0000</r>
       <r>   3.2013  1.0000</r>
       <r>   3.2014  1.0000</r>
       <r>   3.2014  1.0000</r>
       <r>   3.2014  1.0000</r>
       <r>   3.2015  1.0000</r>
       <r>   3.2015  1.0000</r>
       <r>   3.2015  1.0000</r>
       <r>   3.2015  1.0000</r>
       <r>   3.2015  1.0000</r>
       <r>   3.2016  1.0000</r>
       <r>   3.2016  1.0000</r>
       <r>   3.2020  1.0000</r>
       <r>   3.2020  1.0000</r>
       <r>   3.2024  1.0000</r>
       <r>   3.2057  1.0000</r>
       <r>   3.2057  1.0000</r>
       <r>   3.2118  1.0000</r>
       <r>   7.5708  1.0000</r>
       <r>   7.5708  1.0000</r>
       <r>   7.5730  1.0000</r>
       <r>   7.5747  1.0000</r>
       <r>   7.5762  1.0000</r>
       <r>   7.5766  1.0000</r>
       <r>   7.5767  1.0000</r>
       <r>   7.5767  1.0000</r>
       <r>   7.5769  1.0000</r>
       <r>   7.5770  1.0000</r>
       <r>   7.5770  1.0000</r>
       <r>   7.5770  1.0000</r>
       <r>   7.5770  1.0000</r>
       <r>   7.5771  1.0000</r>
       <r>   7.5771  1.0000</r>
       <r>   7.5771  1.0000</r>
       <r>   7.5773  1.0000</r>
       <r>   7.5773  1.0000</r>
       <r>   7.5774  1.0000</r>
       <r>   7.5778  1.0000</r>
       <r>   7.5794  1.0000</r>
       <r>   7.5811  1.0000</r>
       <r>   7.5832  1.0000</r>
       <r>   7.5832  1.0000</r>
       <r>  11.8543  0.0000</r>
       <r>  11.8546  0.0000</r>
       <r>  11.8546  0.0000</r>
       <r>  11.8550  0.0000</r>
       <r>  11.8567  0.0000</r>
       <r>  11.8572  0.0000</r>
       <r>  11.8572  0.0000</r>
       <r>  11.8576  0.0000</r>
       <r>  12.0897  0.0000</r>
       <r>  12.0907  0.0000</r>
       <r>  12.0913  0.0000</r>
       <r>  12.0919  0.0000</r>
       <r>  12.0926  0.0000</r>
       <r>  12.0927  0.0000</r>
       <r>  12.0932  0.0000</r>
       <r>  12.0940  0.0000</r>
      </set>
     </set>
    </set>
   </array>
  </eigenvalues>
 </calculation>
 <structure name="finalpos" >
  <crystal>
   <varray name="basis" >
    <v>       7.99386661      0.00000000      0.00000000</v>
    <v>       0.00000000      7.99386661      0.00000000</v>
    <v>       0.00000000      0.00000000      7.99386661</v>
   </varray>
   <i name="volume">    510.82329211</i>
   <varray name="rec_basis" >
    <v>       0.12509591      0.00000000      0.00000000</v>
    <v>       0.00000000      0.12509591      0.00000000</v>
    <v>       0.00000000      0.00000000      0.12509591</v>
   </varray>
  </crystal>
  <varray name="positions" >
   <v>       0.25125096      0.25000000      0.00000000</v>
   <v>       0.75000000      0.25000000      0.00000000</v>
   <v>       0.25000000      0.75000000      0.00000000</v>
   <v>       0.75000000      0.75000000      0.00000000</v>
   <v>       0.25000000      0.25000000      0.50000000</v>
   <v>       0.75000000      0.25000000      0.50000000</v>
   <v>       0.25000000      0.75000000      0.50000000</v>
   <v>       0.75000000      0.75000000      0.50000000</v>
   <v>       0.25000000      0.00000000      0.25000000</v>
   <v>       0.75000000      0.00000000      0.25000000</v>
   <v>       0.25000000      0.50000000      0.25000000</v>
   <v>       0.75000000      0.50000000      0.25000000</v>
   <v>       0.25000000      0.00000000      0.75000000</v>
   <v>       0.75000000      0.00000000      0.75000000</v>
   <v>       0.25000000      0.50000000      0.75000000</v>
   <v>       0.75000000      0.50000000      0.75000000</v>
   <v>       0.00000000      0.25000000      0.25000000</v>
   <v>       0.50000000      0.25000000      0.25000000</v>
   <v>       0.00000000      0.75000000      0.25000000</v>
   <v>       0.50000000      0.75000000      0.25000000</v>
   <v>       0.00000000      0.25000000      0.75000000</v>
   <v>       0.50000000      0.25000000      0.75000000</v>
   <v>       0.00000000      0.75000000      0.75000000</v>
   <v>       0.50000000      0.75000000      0.75000000</v>
   <v>       0.00000000      0.00000000      0.00000000</v>
   <v>       0.50000000      0.00000000      0.00000000</v>
   <v>       0.00000000      0.50000000      0.00000000</v>
   <v>       0.50000000      0.50000000      0.00000000</v>
   <v>       0.00000000      0.00000000      0.50000000</v>
   <v>       0.50000000      0.00000000      0.50000000</v>
   <v>       0.00000000      0.50000000      0.50000000</v>
   <v>       0.50000000      0.50000000      0.50000000</v>
  </varray>
 </structure>
</modeling>
