 running on    8 nodes
 distr:  one band on    1 nodes,    8 groups
 vasp.4.6.28 25Jul05 complex 
 POSCAR found :  1 types and    4 ions
 LDA part: xc-table for Pade appr. of Perdew
 generate k-points for:  12  12  12
 POSCAR, INCAR and KPOINTS ok, starting setup
 FFT: planning ...           1
 reading WAVECAR
 entering main loop
       N       E                     dE             d eps       ncg     rms          rms(c)
DAV:   1     0.425784063015E+01    0.42578E+01   -0.38375E+03  2696   0.547E+02
DAV:   2    -0.142662593811E+02   -0.18524E+02   -0.17343E+02  3552   0.783E+01
DAV:   3    -0.148594723349E+02   -0.59321E+00   -0.58720E+00  3560   0.109E+01
DAV:   4    -0.148636205091E+02   -0.41482E-02   -0.41480E-02  3320   0.120E+00
DAV:   5    -0.148636760210E+02   -0.55512E-04   -0.55511E-04  3584   0.138E-01    0.177E+00
DAV:   6    -0.148145320644E+02    0.49144E-01   -0.80516E-03  3208   0.443E-01    0.109E+00
DAV:   7    -0.147791228129E+02    0.35409E-01   -0.24096E-02  3080   0.722E-01    0.493E-02
DAV:   8    -0.147791138895E+02    0.89233E-05   -0.16340E-04  3496   0.789E-02    0.127E-02
DAV:   9    -0.147791162189E+02   -0.23294E-05   -0.45490E-06  3376   0.999E-03    0.125E-03
DAV:  10    -0.147791149621E+02    0.12568E-05   -0.62796E-08  3544   0.155E-03    0.283E-04
DAV:  11    -0.147791148145E+02    0.14764E-06   -0.14109E-09  2360   0.201E-04    0.306E-05
DAV:  12    -0.147791148504E+02   -0.35887E-07   -0.24940E-10  2080   0.946E-05    0.778E-06
DAV:  13    -0.147791148501E+02    0.27421E-09   -0.45321E-11  1680   0.332E-05
   1 F= -.14779115E+02 E0= -.14779067E+02  d E =-.958963E-04
