   4   4   0   0
  0.1850611E+02  0.4198799E-09  0.4198799E-09  0.4198799E-09  0.5000000E-15
  1.000000000000000E-004
  CAR 
 unknown system                          
     18.13107732     -4.54237497  301      6.89068359      1.00000000
     -4.542  0.0000E+00  0.0000E+00
     -4.467  0.0000E+00  0.0000E+00
     -4.391  0.0000E+00  0.0000E+00
     -4.316  0.0000E+00  0.0000E+00
     -4.240  0.0000E+00  0.0000E+00
     -4.164  0.0000E+00  0.0000E+00
     -4.089  0.0000E+00  0.0000E+00
     -4.013  0.0000E+00  0.0000E+00
     -3.938  0.0000E+00  0.0000E+00
     -3.862  0.0000E+00  0.0000E+00
     -3.787  0.0000E+00  0.0000E+00
     -3.711  0.0000E+00  0.0000E+00
     -3.635  0.0000E+00  0.0000E+00
     -3.560  0.7917E-13  0.5984E-14
     -3.484  0.1531E-01  0.1157E-02
     -3.409  0.9706E-01  0.8493E-02
     -3.333  0.2651E+00  0.2853E-01
     -3.258  0.1278E+00  0.3818E-01
     -3.182  0.3685E+00  0.6605E-01
     -3.106  0.3665E+00  0.9375E-01
     -3.031  0.1808E+00  0.1074E+00
     -2.955  0.4595E+00  0.1424E+00
     -2.880  0.4146E+00  0.1737E+00
     -2.804  0.4320E+00  0.2064E+00
     -2.728  0.3675E+00  0.2350E+00
     -2.653  0.7351E+00  0.2905E+00
     -2.577  0.6624E-01  0.2955E+00
     -2.502  0.7600E+00  0.3530E+00
     -2.426  0.5530E+00  0.3948E+00
     -2.351  0.5330E+00  0.4351E+00
     -2.275  0.9294E+00  0.5053E+00
     -2.199  0.3675E+00  0.5336E+00
     -2.124  0.8202E-01  0.5398E+00
     -2.048  0.7265E+00  0.5947E+00
     -1.973  0.1103E+01  0.6794E+00
     -1.897  0.4900E+00  0.7164E+00
     -1.822  0.9669E+00  0.7895E+00
     -1.746  0.7350E+00  0.8553E+00
     -1.670  0.4938E-02  0.8557E+00
     -1.595  0.7152E+00  0.9098E+00
     -1.519  0.9332E+00  0.9803E+00
     -1.444  0.7385E+00  0.1036E+01
     -1.368  0.6538E+00  0.1086E+01
     -1.293  0.1268E+01  0.1181E+01
     -1.217  0.6536E-03  0.1182E+01
     -1.141  0.9056E+00  0.1250E+01
     -1.066  0.1657E+01  0.1375E+01
     -0.990  0.3677E+00  0.1404E+01
     -0.915  0.6201E+00  0.1451E+01
     -0.839  0.1560E+01  0.1569E+01
     -0.763  0.1510E-04  0.1571E+01
     -0.688  0.2354E+00  0.1588E+01
     -0.612  0.1915E+01  0.1733E+01
     -0.537  0.7351E+00  0.1795E+01
     -0.461  0.4554E+00  0.1830E+01
     -0.386  0.2317E+01  0.2005E+01
     -0.310  0.6869E-05  0.2017E+01
     -0.234  0.7713E+00  0.2076E+01
     -0.159  0.1004E+01  0.2152E+01
     -0.083  0.1102E+01  0.2240E+01
     -0.008  0.3262E-01  0.2242E+01
      0.068  0.2204E+01  0.2409E+01
      0.143  0.2249E-06  0.2434E+01
      0.219  0.1235E+00  0.2443E+01
      0.295  0.2516E+01  0.2634E+01
      0.370  0.6715E+00  0.2691E+01
      0.446  0.7614E+00  0.2749E+01
      0.521  0.1944E+01  0.2895E+01
      0.597  0.2345E+00  0.2913E+01
      0.673  0.5617E+00  0.2956E+01
      0.748  0.1976E+01  0.3105E+01
      0.824  0.1443E+01  0.3214E+01
      0.899  0.3877E+00  0.3243E+01
      0.975  0.1930E+01  0.3389E+01
      1.050  0.2551E+00  0.3409E+01
      1.126  0.3919E+00  0.3438E+01
      1.202  0.2103E+01  0.3597E+01
      1.277  0.1208E+01  0.3693E+01
      1.353  0.7572E+00  0.3751E+01
      1.428  0.2089E+01  0.3908E+01
      1.504  0.3501E+00  0.3943E+01
      1.579  0.4292E+00  0.3976E+01
      1.655  0.3566E+01  0.4245E+01
      1.731  0.9312E+00  0.4332E+01
      1.806  0.2464E-01  0.4334E+01
      1.882  0.1949E+01  0.4481E+01
      1.957  0.2631E-05  0.4499E+01
      2.033  0.4271E+00  0.4531E+01
      2.109  0.2153E+01  0.4694E+01
      2.184  0.1103E+01  0.4791E+01
      2.260  0.9286E+00  0.4861E+01
      2.335  0.2796E+01  0.5072E+01
      2.411  0.6936E-02  0.5076E+01
      2.486  0.1754E+01  0.5208E+01
      2.562  0.1713E+01  0.5352E+01
      2.638  0.1179E+01  0.5442E+01
      2.713  0.8695E+00  0.5508E+01
      2.789  0.2425E+01  0.5695E+01
      2.864  0.3675E+00  0.5723E+01
      2.940  0.9999E+00  0.5799E+01
      3.015  0.1515E+01  0.5917E+01
      3.091  0.1522E+01  0.6033E+01
      3.167  0.1989E+01  0.6185E+01
      3.242  0.1595E+01  0.6307E+01
      3.318  0.2592E+00  0.6326E+01
      3.393  0.1490E+01  0.6439E+01
      3.469  0.1905E+01  0.6593E+01
      3.544  0.7163E+00  0.6647E+01
      3.620  0.2510E+01  0.6837E+01
      3.696  0.1680E+01  0.6979E+01
      3.771  0.3972E-01  0.6983E+01
      3.847  0.2580E+01  0.7178E+01
      3.922  0.1104E+01  0.7272E+01
      3.998  0.1486E+01  0.7384E+01
      4.074  0.1793E+01  0.7520E+01
      4.149  0.1837E+01  0.7661E+01
      4.225  0.6942E+00  0.7713E+01
      4.300  0.2467E+01  0.7901E+01
      4.376  0.1303E+01  0.7999E+01
      4.451  0.2198E+01  0.8165E+01
      4.527  0.1103E+01  0.8262E+01
      4.603  0.7351E+00  0.8317E+01
      4.678  0.5094E+00  0.8356E+01
      4.754  0.2694E+01  0.8563E+01
      4.829  0.2213E+01  0.8734E+01
      4.905  0.2174E+00  0.8751E+01
      4.980  0.3041E+01  0.8981E+01
      5.056  0.9007E+00  0.9049E+01
      5.132  0.1585E+01  0.9169E+01
      5.207  0.1742E+01  0.9305E+01
      5.283  0.2127E+01  0.9466E+01
      5.358  0.8760E+00  0.9542E+01
      5.434  0.1447E+01  0.9652E+01
      5.510  0.1838E+00  0.9677E+01
      5.585  0.1727E+01  0.9808E+01
      5.661  0.2712E+01  0.1001E+02
      5.736  0.8556E+00  0.1008E+02
      5.812  0.2020E+01  0.1023E+02
      5.887  0.2714E+01  0.1044E+02
      5.963  0.4076E+00  0.1047E+02
      6.039  0.1317E+01  0.1057E+02
      6.114  0.2308E+01  0.1074E+02
      6.190  0.7722E+00  0.1080E+02
      6.265  0.3228E+01  0.1105E+02
      6.341  0.1579E+01  0.1118E+02
      6.416  0.7963E+00  0.1124E+02
      6.492  0.1056E+01  0.1132E+02
      6.568  0.1823E+01  0.1146E+02
      6.643  0.1218E+01  0.1155E+02
      6.719  0.3082E+01  0.1180E+02
      6.794  0.1968E+01  0.1195E+02
      6.870  0.4953E+00  0.1199E+02
      6.946  0.4151E+01  0.1230E+02
      7.021  0.7141E+00  0.1236E+02
      7.097  0.1771E+01  0.1249E+02
      7.172  0.1913E+01  0.1264E+02
      7.248  0.1288E+01  0.1275E+02
      7.323  0.6063E+00  0.1279E+02
      7.399  0.2253E+01  0.1296E+02
      7.475  0.1393E+01  0.1307E+02
      7.550  0.7826E+00  0.1313E+02
      7.626  0.2478E+01  0.1331E+02
      7.701  0.1439E+01  0.1342E+02
      7.777  0.3453E+01  0.1368E+02
      7.852  0.2178E+01  0.1385E+02
      7.928  0.1081E+01  0.1393E+02
      8.004  0.1950E+01  0.1409E+02
      8.079  0.1879E+01  0.1424E+02
      8.155  0.1573E+01  0.1436E+02
      8.230  0.4100E+01  0.1467E+02
      8.306  0.9950E+00  0.1476E+02
      8.381  0.1222E+01  0.1485E+02
      8.457  0.1700E+01  0.1498E+02
      8.533  0.1374E+01  0.1508E+02
      8.608  0.1726E+01  0.1521E+02
      8.684  0.2578E+01  0.1541E+02
      8.759  0.1458E+01  0.1552E+02
      8.835  0.2384E+01  0.1570E+02
      8.911  0.1554E+01  0.1582E+02
      8.986  0.1354E+01  0.1592E+02
      9.062  0.3259E+01  0.1617E+02
      9.137  0.1668E+01  0.1630E+02
      9.213  0.1583E+01  0.1642E+02
      9.288  0.1994E+01  0.1657E+02
      9.364  0.2042E+01  0.1673E+02
      9.440  0.1345E+01  0.1683E+02
      9.515  0.1724E+01  0.1696E+02
      9.591  0.2090E+01  0.1712E+02
      9.666  0.1612E+01  0.1725E+02
      9.742  0.3803E+01  0.1753E+02
      9.817  0.2925E+01  0.1776E+02
      9.893  0.9800E+00  0.1784E+02
      9.969  0.3567E+01  0.1811E+02
     10.044  0.6352E-03  0.1811E+02
     10.120  0.1876E+01  0.1825E+02
     10.195  0.3237E+01  0.1851E+02
     10.271  0.1726E+01  0.1864E+02
     10.347  0.1839E+01  0.1879E+02
     10.422  0.1865E+01  0.1893E+02
     10.498  0.1768E+01  0.1906E+02
     10.573  0.2029E+01  0.1922E+02
     10.649  0.3212E+01  0.1946E+02
     10.724  0.4420E+00  0.1951E+02
     10.800  0.2645E+01  0.1971E+02
     10.876  0.2682E+01  0.1991E+02
     10.951  0.1870E+00  0.1993E+02
     11.027  0.2554E+01  0.2012E+02
     11.102  0.3270E+01  0.2037E+02
     11.178  0.3354E+01  0.2062E+02
     11.253  0.2855E+01  0.2084E+02
     11.329  0.7811E+00  0.2091E+02
     11.405  0.1442E+01  0.2102E+02
     11.480  0.3594E+01  0.2129E+02
     11.556  0.2261E+01  0.2147E+02
     11.631  0.3396E+01  0.2173E+02
     11.707  0.2153E+01  0.2189E+02
     11.783  0.6248E+00  0.2195E+02
     11.858  0.1524E+01  0.2206E+02
     11.934  0.3206E+01  0.2230E+02
     12.009  0.3577E+01  0.2258E+02
     12.085  0.2018E+01  0.2274E+02
     12.160  0.2057E+01  0.2289E+02
     12.236  0.2136E+01  0.2305E+02
     12.312  0.3752E+01  0.2334E+02
     12.387  0.2309E+01  0.2352E+02
     12.463  0.1978E+01  0.2367E+02
     12.538  0.2951E+01  0.2389E+02
     12.614  0.1532E+01  0.2400E+02
     12.689  0.1111E+01  0.2409E+02
     12.765  0.2901E+01  0.2431E+02
     12.841  0.2898E+01  0.2453E+02
     12.916  0.1612E+01  0.2465E+02
     12.992  0.2981E+01  0.2488E+02
     13.067  0.2230E+01  0.2506E+02
     13.143  0.2507E+01  0.2525E+02
     13.218  0.3190E+01  0.2550E+02
     13.294  0.9463E+00  0.2557E+02
     13.370  0.4487E+01  0.2591E+02
     13.445  0.1536E+01  0.2603E+02
     13.521  0.1085E+01  0.2611E+02
     13.596  0.2556E+01  0.2630E+02
     13.672  0.2433E+01  0.2649E+02
     13.748  0.1629E+01  0.2662E+02
     13.823  0.2905E+01  0.2684E+02
     13.899  0.1104E+01  0.2692E+02
     13.974  0.3076E+01  0.2716E+02
     14.050  0.2112E+01  0.2732E+02
     14.125  0.1629E+01  0.2744E+02
     14.201  0.2814E+01  0.2767E+02
     14.277  0.3678E+00  0.2770E+02
     14.352  0.1529E+01  0.2781E+02
     14.428  0.4250E+01  0.2814E+02
     14.503  0.1013E+01  0.2821E+02
     14.579  0.1890E+01  0.2836E+02
     14.654  0.2375E+01  0.2854E+02
     14.730  0.2020E+01  0.2869E+02
     14.806  0.4343E+01  0.2902E+02
     14.881  0.2044E+01  0.2917E+02
     14.957  0.2059E+01  0.2933E+02
     15.032  0.2030E+01  0.2948E+02
     15.108  0.9043E+00  0.2955E+02
     15.184  0.3548E+01  0.2982E+02
     15.259  0.1036E+01  0.2990E+02
     15.335  0.2276E+01  0.3007E+02
     15.410  0.1947E+01  0.3022E+02
     15.486  0.7167E+00  0.3028E+02
     15.561  0.3892E+00  0.3031E+02
     15.637  0.3453E+01  0.3057E+02
     15.713  0.2552E+01  0.3077E+02
     15.788  0.2418E+01  0.3096E+02
     15.864  0.1466E+01  0.3107E+02
     15.939  0.0000E+00  0.3107E+02
     16.015  0.2626E+00  0.3109E+02
     16.090  0.2039E+01  0.3125E+02
     16.166  0.8483E+00  0.3131E+02
     16.242  0.8621E+00  0.3138E+02
     16.317  0.5513E+00  0.3142E+02
     16.393  0.1463E+01  0.3153E+02
     16.468  0.3646E+00  0.3156E+02
     16.544  0.1458E+01  0.3167E+02
     16.620  0.3656E-05  0.3167E+02
     16.695  0.7903E+00  0.3173E+02
     16.771  0.6806E+00  0.3178E+02
     16.846  0.2187E+01  0.3194E+02
     16.922  0.2450E+00  0.3196E+02
     16.997  0.6006E-06  0.3196E+02
     17.073  0.3675E+00  0.3199E+02
     17.149  0.1225E+00  0.3200E+02
     17.224  0.0000E+00  0.3200E+02
     17.300  0.0000E+00  0.3200E+02
     17.375  0.0000E+00  0.3200E+02
     17.451  0.0000E+00  0.3200E+02
     17.526  0.0000E+00  0.3200E+02
     17.602  0.0000E+00  0.3200E+02
     17.678  0.0000E+00  0.3200E+02
     17.753  0.0000E+00  0.3200E+02
     17.829  0.0000E+00  0.3200E+02
     17.904  0.0000E+00  0.3200E+02
     17.980  0.0000E+00  0.3200E+02
     18.055  0.0000E+00  0.3200E+02
     18.131  0.0000E+00  0.3200E+02
