    4    4    1    1
  0.1850611E+02  0.4198799E-09  0.4198799E-09  0.4198799E-09  0.5000000E-15
  1.000000000000000E-004
  CAR 
 unknown system                          
   12   84   16
 
  0.0000000E+00  0.0000000E+00  0.0000000E+00  0.5787037E-03
   1       -3.5118
   2        4.2067
   3        4.2067
   4        4.2067
   5        5.2482
   6        5.2482
   7        5.2482
   8       11.9409
   9       11.9409
  10       11.9409
  11       11.9409
  12       11.9409
  13       11.9409
  14       12.0802
  15       12.0802
  16       12.0802
 
  0.8333333E-01  0.0000000E+00  0.0000000E+00  0.3472222E-02
   1       -3.4535
   2        3.3395
   3        4.2607
   4        4.2607
   5        5.3056
   6        5.3056
   7        6.2178
   8       10.7607
   9       10.7607
  10       11.5050
  11       11.5050
  12       11.9914
  13       11.9914
  14       12.1377
  15       13.3680
  16       13.3680
 
  0.1666667E+00  0.0000000E+00  0.0000000E+00  0.3472222E-02
   1       -3.2787
   2        2.2011
   3        4.4227
   4        4.4227
   5        5.4775
   6        5.4775
   7        7.6632
   8        9.6221
   9        9.6221
  10       10.6337
  11       10.6337
  12       12.1430
  13       12.1430
  14       12.3099
  15       14.8291
  16       14.8291
 
  0.2500000E+00  0.0000000E+00  0.0000000E+00  0.3472222E-02
   1       -2.9878
   2        1.1384
   3        4.6928
   4        4.6928
   5        5.7629
   6        5.7629
   7        8.5916
   8        8.5916
   9        9.2365
  10        9.7005
  11        9.7005
  12       12.3956
  13       12.3956
  14       12.5965
  15       15.4053
  16       16.0269
 
  0.3333333E+00  0.0000000E+00  0.0000000E+00  0.3472222E-02
   1       -2.5815
   2        0.1758
   3        5.0712
   4        5.0712
   5        6.1602
   6        6.1602
   7        7.6699
   8        7.6699
   9        8.8121
  10        8.8121
  11       10.9105
  12       12.7494
  13       12.7494
  14       12.9967
  15       15.1728
  16       15.1728
 
  0.4166667E+00  0.0000000E+00  0.0000000E+00  0.3472222E-02
   1       -2.0606
   2       -0.6802
   3        5.5579
   4        5.5579
   5        6.6662
   6        6.6662
   7        6.8571
   8        6.8571
   9        8.0040
  10        8.0040
  11       12.6735
  12       13.2043
  13       13.2043
  14       13.5094
  15       14.4166
  16       14.4166
 
  0.5000000E+00  0.0000000E+00  0.0000000E+00  0.1736111E-02
   1       -1.4263
   2       -1.4263
   3        6.1531
   4        6.1531
   5        6.1531
   6        6.1531
   7        7.2149
   8        7.2149
   9        7.3536
  10        7.3536
  11       13.7602
  12       13.7602
  13       13.7602
  14       13.7602
  15       14.1323
  16       14.1323
 
  0.8333333E-01  0.8333333E-01  0.0000000E+00  0.6944444E-02
   1       -3.3952
   2        3.3950
   3        3.3950
   4        4.3147
   5        5.3630
   6        6.2737
   7        6.2737
   8        9.8979
   9       10.8146
  10       10.8146
  11       11.5564
  12       11.5564
  13       12.0422
  14       13.2794
  15       13.4220
  16       13.4220
 
  0.1666667E+00  0.8333333E-01  0.0000000E+00  0.1388889E-01
   1       -3.2205
   2        2.2572
   3        3.5613
   4        4.4767
   5        5.5347
   6        6.4411
   7        7.7183
   8        8.8040
   9        9.6762
  10       10.6865
  11       10.9762
  12       11.4904
  13       11.7106
  14       13.5840
  15       14.2995
  16       14.8827
 
  0.2500000E+00  0.8333333E-01  0.0000000E+00  0.1388889E-01
   1       -2.9297
   2        1.1949
   3        3.8381
   4        4.7468
   5        5.8198
   6        6.7194
   7        7.7842
   8        8.6457
   9        9.2907
  10        9.7543
  11       10.5902
  12       11.2453
  13       11.9674
  14       13.8538
  15       15.0698
  16       15.5999
 
  0.3333333E+00  0.8333333E-01  0.0000000E+00  0.1388889E-01
   1       -2.5235
   2        0.2327
   3        4.2252
   4        5.1252
   5        6.2162
   6        6.8621
   7        7.1072
   8        7.7240
   9        8.8671
  10        9.7140
  11       10.9638
  12       11.6213
  13       12.3262
  14       14.1776
  15       14.2312
  16       14.7584
 
  0.4166667E+00  0.8333333E-01  0.0000000E+00  0.1388889E-01
   1       -2.0028
   2       -0.6229
   3        4.7218
   4        5.6120
   5        6.0398
   6        6.7256
   7        6.9112
   8        7.5981
   9        8.0641
  10        8.9158
  11       12.1038
  12       12.7256
  13       12.7864
  14       13.3837
  15       14.0050
  16       14.7153
 
  0.5000000E+00  0.8333333E-01  0.0000000E+00  0.6944444E-02
   1       -1.3688
   2       -1.3688
   3        5.3273
   4        5.3273
   5        6.2072
   6        6.2072
   7        7.3360
   8        7.3360
   9        8.2138
  10        8.2138
  11       12.6917
  12       12.6917
  13       13.3466
  14       13.3466
  15       14.5604
  16       14.5604
 
  0.1666667E+00  0.1666667E+00  0.0000000E+00  0.6944444E-02
   1       -3.0460
   2        2.4255
   3        2.4255
   4        4.6388
   5        5.7059
   6        7.7118
   7        7.8831
   8        7.8831
   9        9.8382
  10        9.8382
  11       10.8444
  12       10.8444
  13       12.3464
  14       13.8620
  15       14.9693
  16       15.0436
 
  0.2500000E+00  0.1666667E+00  0.0000000E+00  0.1388889E-01
   1       -2.7555
   2        1.3645
   3        2.7057
   4        4.9090
   5        5.9898
   6        6.6881
   7        8.1568
   8        8.8080
   9        9.4529
  10        9.9156
  11       10.1082
  12       11.1072
  13       11.8941
  14       13.9677
  15       14.7663
  16       14.8785
 
  0.3333333E+00  0.1666667E+00  0.0000000E+00  0.1388889E-01
   1       -2.3498
   2        0.4034
   3        3.0971
   4        5.2874
   5        5.7561
   6        6.3890
   7        7.8864
   8        8.5345
   9        9.0350
  10       10.4859
  11       11.0879
  12       11.1219
  13       11.4746
  14       13.0631
  15       13.9309
  16       15.6851
 
  0.4166667E+00  0.1666667E+00  0.0000000E+00  0.1388889E-01
   1       -1.8297
   2       -0.4513
   3        3.5992
   4        4.9308
   5        5.7742
   6        6.8939
   7        7.0735
   8        8.2165
   9        9.0351
  10       10.3146
  11       10.9710
  12       11.9412
  13       12.2607
  14       12.8815
  15       13.1751
  16       16.1633
 
  0.5000000E+00  0.1666667E+00  0.0000000E+00  0.6944444E-02
   1       -1.1963
   2       -1.1963
   3        4.2109
   4        4.2109
   5        6.3695
   6        6.3695
   7        7.5055
   8        7.5055
   9        9.6251
  10        9.6251
  11       11.5629
  12       11.5629
  13       12.5100
  14       12.5100
  15       14.7109
  16       14.7109
 
  0.2500000E+00  0.2500000E+00  0.0000000E+00  0.6944444E-02
   1       -2.4657
   2        1.6469
   3        1.6469
   4        5.1792
   5        5.6546
   6        6.2761
   7        9.0783
   8        9.0783
   9        9.7195
  10        9.7195
  11       10.1862
  12       10.1862
  13       12.8532
  14       12.9554
  15       13.8822
  16       14.4875
 
  0.3333333E+00  0.2500000E+00  0.0000000E+00  0.1388889E-01
   1       -2.0607
   2        0.6875
   3        2.0414
   4        4.7203
   5        5.5577
   6        6.6701
   7        8.1569
   8        9.2959
   9        9.4567
  10       10.1047
  11       10.5523
  12       11.3907
  13       12.0441
  14       12.5179
  15       13.0433
  16       15.5735
 
  0.4166667E+00  0.2500000E+00  0.0000000E+00  0.1388889E-01
   1       -1.5415
   2       -0.1656
   3        2.5472
   4        3.8885
   5        6.0446
   6        7.1739
   7        7.3441
   8        8.4940
   9        9.9429
  10       10.5830
  11       11.0299
  12       11.2373
  13       11.8233
  14       12.2804
  15       13.1388
  16       16.7925
 
  0.5000000E+00  0.2500000E+00  0.0000000E+00  0.6944444E-02
   1       -0.9093
   2       -0.9093
   3        3.1634
   4        3.1634
   5        6.6400
   6        6.6400
   7        7.7836
   8        7.7836
   9       10.5366
  10       10.5366
  11       11.1608
  12       11.1608
  13       11.6070
  14       11.6070
  15       14.9543
  16       14.9543
 
  0.3333333E+00  0.3333333E+00  0.0000000E+00  0.6944444E-02
   1       -1.6568
   2        1.0845
   3        1.0845
   4        3.7798
   5        5.9363
   6        7.0628
   7        8.5355
   8        8.5355
   9        9.6764
  10        9.6764
  11       11.1287
  12       11.7582
  13       11.7582
  14       12.1972
  15       13.5622
  16       15.2925
 
  0.4166667E+00  0.3333333E+00  0.0000000E+00  0.1388889E-01
   1       -1.1389
   2        0.2335
   3        1.5935
   4        2.9429
   5        6.4233
   6        7.5640
   7        7.7229
   8        8.8774
   9        9.0223
  10       10.1598
  11       10.3193
  12       11.4262
  13       12.2237
  14       13.3498
  15       13.4923
  16       16.4520
 
  0.5000000E+00  0.3333333E+00  0.0000000E+00  0.6944444E-02
   1       -0.5083
   2       -0.5083
   3        2.2135
   4        2.2135
   5        7.0188
   6        7.0188
   7        8.1705
   8        8.1705
   9        9.6170
  10        9.6170
  11       10.7445
  12       10.7445
  13       12.7727
  14       12.7727
  15       15.2754
  16       15.2754
 
  0.4166667E+00  0.4166667E+00  0.0000000E+00  0.6944444E-02
   1       -0.6228
   2        0.7452
   3        0.7452
   4        2.1018
   5        6.9104
   6        8.0619
   7        8.2099
   8        8.2099
   9        9.3662
  10        9.3662
  11        9.5084
  12       10.6469
  13       13.9269
  14       13.9269
  15       14.4718
  16       16.2926
 
  0.5000000E+00  0.4166667E+00  0.0000000E+00  0.6944444E-02
   1        0.0058
   2        0.0058
   3        1.3685
   4        1.3685
   5        7.5059
   6        7.5059
   7        8.6643
   8        8.6643
   9        8.8051
  10        8.8051
  11        9.9576
  12        9.9576
  13       14.3840
  14       14.3840
  15       15.6123
  16       15.6123
 
  0.5000000E+00  0.5000000E+00  0.0000000E+00  0.1736111E-02
   1        0.6319
   2        0.6319
   3        0.6319
   4        0.6319
   5        8.1013
   6        8.1013
   7        8.1013
   8        8.1013
   9        9.2615
  10        9.2615
  11        9.2615
  12        9.2615
  13       15.5772
  14       15.5772
  15       15.5772
  16       15.5772
 
  0.8333333E-01  0.8333333E-01  0.8333333E-01  0.4629630E-02
   1       -3.3370
   2        3.4504
   3        3.4504
   4        3.4504
   5        6.3296
   6        6.3296
   7        6.3296
   8        9.9518
   9        9.9518
  10        9.9518
  11       12.0928
  12       12.0928
  13       12.0928
  14       13.3349
  15       13.3349
  16       13.3349
 
  0.1666667E+00  0.8333333E-01  0.8333333E-01  0.1388889E-01
   1       -3.1623
   2        2.3134
   3        3.6167
   4        3.6167
   5        6.4968
   6        6.4968
   7        7.7732
   8        8.8582
   9        8.8582
  10       10.1133
  11       11.5425
  12       11.5425
  13       12.2444
  14       13.5009
  15       14.3536
  16       14.3536
 
  0.2500000E+00  0.8333333E-01  0.8333333E-01  0.1388889E-01
   1       -2.8716
   2        1.2515
   3        3.8935
   4        3.8935
   5        6.7747
   6        6.7747
   7        7.8390
   8        7.8390
   9        9.3447
  10       10.3824
  11       10.6434
  12       10.6434
  13       12.4972
  14       13.7768
  15       14.1952
  16       15.8309
 
  0.3333333E+00  0.8333333E-01  0.8333333E-01  0.1388889E-01
   1       -2.4656
   2        0.2896
   3        4.2804
   4        4.2804
   5        6.9119
   6        6.9119
   7        7.1672
   8        7.1672
   9        9.7680
  10        9.7680
  11       10.7565
  12       11.0185
  13       12.8511
  14       13.3081
  15       14.1610
  16       15.2748
 
  0.4166667E+00  0.8333333E-01  0.8333333E-01  0.1388889E-01
   1       -1.9451
   2       -0.5657
   3        4.7770
   4        4.7770
   5        6.0954
   6        6.0954
   7        7.6600
   8        7.6600
   9        8.9708
  10        8.9708
  11       11.2395
  12       12.5170
  13       12.7778
  14       13.3061
  15       14.5186
  16       14.6515
 
  0.5000000E+00  0.8333333E-01  0.8333333E-01  0.6944444E-02
   1       -1.3113
   2       -1.3113
   3        5.3741
   4        5.3741
   5        5.3906
   6        5.3906
   7        8.2109
   8        8.2109
   9        8.3181
  10        8.3181
  11       11.8266
  12       11.8266
  13       13.8621
  14       13.8621
  15       14.6063
  16       14.6063
 
  0.1666667E+00  0.1666667E+00  0.8333333E-01  0.1388889E-01
   1       -2.9878
   2        2.4816
   3        2.4816
   4        3.7828
   5        6.6636
   6        7.7667
   7        7.9377
   8        7.9377
   9        9.0211
  10        9.0211
  11       11.6988
  12       11.6988
  13       12.3969
  14       13.9174
  15       14.1171
  16       14.5155
 
  0.2500000E+00  0.1666667E+00  0.8333333E-01  0.2777778E-01
   1       -2.6975
   2        1.4210
   3        2.7616
   4        4.0594
   5        6.7367
   6        6.9474
   7        7.9968
   8        8.2171
   9        9.2871
  10        9.5114
  11       10.8029
  12       11.9462
  13       11.9588
  14       13.1325
  15       14.7843
  16       14.9320
 
  0.3333333E+00  0.1666667E+00  0.8333333E-01  0.2777778E-01
   1       -2.2919
   2        0.4603
   3        3.1530
   4        4.4461
   5        5.8120
   6        7.0785
   7        7.3308
   8        8.5950
   9        9.6683
  10        9.9299
  11       11.1409
  12       11.1774
  13       12.2373
  14       12.3220
  15       14.7753
  16       15.1585
 
  0.4166667E+00  0.1666667E+00  0.8333333E-01  0.2777778E-01
   1       -1.7720
   2       -0.3941
   3        3.6549
   4        4.9419
   5        4.9866
   6        6.2600
   7        7.8262
   8        9.0542
   9        9.1627
  10       10.1536
  11       10.3683
  12       11.4399
  13       12.7873
  14       12.9336
  15       14.0175
  16       15.6355
 
  0.5000000E+00  0.1666667E+00  0.8333333E-01  0.1388889E-01
   1       -1.1389
   2       -1.1389
   3        4.2664
   4        4.2664
   5        5.5473
   6        5.5473
   7        8.4266
   8        8.4266
   9        9.6796
  10        9.6796
  11       10.7446
  12       10.7446
  13       13.3533
  14       13.3533
  15       14.7597
  16       14.7597
 
  0.2500000E+00  0.2500000E+00  0.8333333E-01  0.1388889E-01
   1       -2.4077
   2        1.7033
   3        1.7033
   4        4.3357
   5        5.7104
   6        7.2205
   7        8.2724
   8        8.2724
   9        9.7782
  10        9.7782
  11       11.0681
  12       11.0681
  13       12.1389
  14       12.9038
  15       14.5419
  16       14.7561
 
  0.3333333E+00  0.2500000E+00  0.8333333E-01  0.2777778E-01
   1       -2.0029
   2        0.7443
   3        2.0976
   4        4.7219
   5        4.7758
   6        7.3517
   7        7.6069
   8        8.6527
   9       10.1310
  10       10.2211
  11       11.2369
  12       11.4173
  13       11.4623
  14       12.5698
  15       13.9185
  16       15.6258
 
  0.4166667E+00  0.2500000E+00  0.8333333E-01  0.2777778E-01
   1       -1.4840
   2       -0.1086
   3        2.6033
   4        3.9442
   5        5.2176
   6        6.5338
   7        8.1013
   8        9.1404
   9        9.4009
  10       10.4342
  11       10.6369
  12       11.8760
  13       11.9102
  14       13.1562
  15       13.1907
  16       16.8318
 
  0.5000000E+00  0.2500000E+00  0.8333333E-01  0.1388889E-01
   1       -0.8520
   2       -0.8520
   3        3.2193
   4        3.2193
   5        5.8219
   6        5.8219
   7        8.7008
   8        8.7008
   9        9.7347
  10        9.7347
  11       11.2141
  12       11.2141
  13       12.4846
  14       12.4846
  15       15.0038
  16       15.0038
 
  0.3333333E+00  0.3333333E+00  0.8333333E-01  0.1388889E-01
   1       -1.5992
   2        1.1411
   3        1.1411
   4        3.8355
   5        5.1076
   6        7.7333
   7        7.7333
   8        7.9921
   9       10.3295
  10       10.5702
  11       10.5702
  12       11.8112
  13       11.8112
  14       13.0771
  15       13.6129
  16       15.3451
 
  0.4166667E+00  0.3333333E+00  0.8333333E-01  0.2777778E-01
   1       -1.0815
   2        0.2904
   3        1.6499
   4        2.9989
   5        5.6025
   6        6.9167
   7        8.2229
   8        8.4847
   9        9.5227
  10        9.7798
  11       11.0496
  12       12.2764
  13       12.3087
  14       13.4014
  15       13.5440
  16       16.5020
 
  0.5000000E+00  0.3333333E+00  0.8333333E-01  0.1388889E-01
   1       -0.4512
   2       -0.4512
   3        2.2697
   4        2.2697
   5        6.2058
   6        6.2058
   7        8.8198
   8        8.8198
   9        9.0820
  10        9.0820
  11       11.6303
  12       11.6303
  13       12.8249
  14       12.8249
  15       15.3251
  16       15.3251
 
  0.4166667E+00  0.4166667E+00  0.8333333E-01  0.1388889E-01
   1       -0.5656
   2        0.8020
   3        0.8020
   4        2.1580
   5        6.0964
   6        7.4080
   7        7.4080
   8        8.7125
   9        8.9749
  10       10.2634
  11       10.2634
  12       11.5338
  13       13.9784
  14       13.9784
  15       14.5225
  16       16.3421
 
  0.5000000E+00  0.4166667E+00  0.8333333E-01  0.1388889E-01
   1        0.0628
   2        0.0628
   3        1.4250
   4        1.4250
   5        6.6986
   6        6.6986
   7        8.0070
   8        8.0070
   9        9.5692
  10        9.5692
  11       10.8495
  12       10.8495
  13       14.4351
  14       14.4351
  15       15.6621
  16       15.6621
 
  0.5000000E+00  0.5000000E+00  0.8333333E-01  0.3472222E-02
   1        0.6887
   2        0.6887
   3        0.6887
   4        0.6887
   5        7.2993
   6        7.2993
   7        7.2993
   8        7.2993
   9       10.1598
  10       10.1598
  11       10.1598
  12       10.1598
  13       15.6276
  14       15.6276
  15       15.6276
  16       15.6276
 
  0.1666667E+00  0.1666667E+00  0.1666667E+00  0.4629630E-02
   1       -2.8136
   2        2.6496
   3        2.6496
   4        2.6496
   5        7.9228
   6        7.9228
   7        7.9228
   8        8.1098
   9        8.1098
  10        8.1098
  11       12.5487
  12       12.5487
  13       12.5487
  14       13.0571
  15       14.0830
  16       14.0830
 
  0.2500000E+00  0.1666667E+00  0.1666667E+00  0.1388889E-01
   1       -2.5236
   2        1.5904
   3        2.9294
   4        2.9294
   5        6.9050
   6        6.9050
   7        8.2005
   8        8.3781
   9        8.3781
  10        9.6712
  11       12.0656
  12       12.1023
  13       12.1023
  14       12.8017
  15       14.3572
  16       15.0919
 
  0.3333333E+00  0.1666667E+00  0.1666667E+00  0.1388889E-01
   1       -2.1185
   2        0.6307
   3        3.3204
   4        3.3204
   5        5.9773
   6        5.9773
   7        8.5812
   8        8.7595
   9        8.7595
  10       11.1650
  11       11.2999
  12       11.2999
  13       11.3372
  14       13.1559
  15       14.7372
  16       15.5800
 
  0.4166667E+00  0.1666667E+00  0.1666667E+00  0.1388889E-01
   1       -1.5991
   2       -0.2227
   3        3.8219
   4        3.8219
   5        5.1520
   6        5.1520
   7        9.0692
   8        9.2469
   9        9.2469
  10       10.3630
  11       10.5294
  12       10.5294
  13       13.0889
  14       13.6112
  15       14.8241
  16       15.2188
 
  0.5000000E+00  0.1666667E+00  0.1666667E+00  0.6944444E-02
   1       -0.9667
   2       -0.9667
   3        4.4298
   4        4.4298
   5        4.4360
   6        4.4360
   7        9.6637
   8        9.6637
   9        9.7972
  10        9.7972
  11        9.8820
  12        9.8820
  13       14.1675
  14       14.1675
  15       14.9016
  16       14.9016
 
  0.2500000E+00  0.2500000E+00  0.1666667E+00  0.1388889E-01
   1       -2.2342
   2        1.8724
   3        1.8724
   4        3.2088
   5        5.8759
   6        7.1790
   7        7.1790
   8        8.6511
   9        9.9408
  10        9.9408
  11       11.0671
  12       12.3621
  13       12.3621
  14       13.0558
  15       14.7043
  16       15.3566
 
  0.3333333E+00  0.2500000E+00  0.1666667E+00  0.2777778E-01
   1       -1.8298
   2        0.9144
   3        2.2663
   4        3.5992
   5        4.9420
   6        6.2523
   7        7.5616
   8        9.0320
   9       10.1605
  10       10.3162
  11       11.5644
  12       11.6018
  13       12.7248
  14       12.7253
  15       15.1595
  16       15.7236
 
  0.4166667E+00  0.2500000E+00  0.1666667E+00  0.2777778E-01
   1       -1.3114
   2        0.0625
   3        2.7715
   4        4.0949
   5        4.1162
   6        5.4282
   7        8.0523
   8        9.3536
   9        9.5187
  10       10.7636
  11       10.8276
  12       12.0340
  13       13.1889
  14       13.3463
  15       14.4132
  16       16.1861
 
  0.5000000E+00  0.2500000E+00  0.1666667E+00  0.1388889E-01
   1       -0.6801
   2       -0.6801
   3        3.3869
   4        3.3869
   5        4.7102
   6        4.7102
   7        8.6502
   8        8.6502
   9       10.1079
  10       10.1079
  11       11.3737
  12       11.3737
  13       13.7533
  14       13.7533
  15       15.1498
  16       15.1498
 
  0.3333333E+00  0.3333333E+00  0.1666667E+00  0.1388889E-01
   1       -1.4265
   2        1.3108
   3        1.3108
   4        3.9825
   5        4.0089
   6        6.6368
   7        6.6368
   8        9.2489
   9        9.4116
  10       11.9276
  11       11.9276
  12       11.9740
  13       11.9740
  14       13.7651
  15       14.3852
  16       15.5017
 
  0.4166667E+00  0.3333333E+00  0.1666667E+00  0.2777778E-01
   1       -0.9094
   2        0.4610
   3        1.8191
   4        3.1667
   5        4.4887
   6        5.8143
   7        7.1299
   8        8.4377
   9        9.8967
  10       11.1674
  11       12.4039
  12       12.4339
  13       13.5560
  14       13.6400
  15       13.6985
  16       16.6508
 
  0.5000000E+00  0.3333333E+00  0.1666667E+00  0.1388889E-01
   1       -0.2797
   2       -0.2797
   3        2.4383
   4        2.4383
   5        5.0976
   6        5.0976
   7        7.7307
   8        7.7307
   9       10.4841
  10       10.4841
  11       12.9750
  12       12.9750
  13       12.9813
  14       12.9813
  15       15.4727
  16       15.4727
 
  0.4166667E+00  0.4166667E+00  0.1666667E+00  0.1388889E-01
   1       -0.3940
   2        0.9721
   3        0.9721
   4        2.3267
   5        4.9872
   6        6.3095
   7        6.3095
   8        7.6229
   9       10.3796
  10       11.6438
  11       11.6438
  12       12.8906
  13       14.1321
  14       14.1321
  15       14.6746
  16       16.4885
 
  0.5000000E+00  0.4166667E+00  0.1666667E+00  0.1388889E-01
   1        0.2336
   2        0.2336
   3        1.5944
   4        1.5944
   5        5.5946
   6        5.5946
   7        6.9128
   8        6.9128
   9       10.9640
  10       10.9640
  11       12.2202
  12       12.2202
  13       14.5880
  14       14.5880
  15       15.8108
  16       15.8108
 
  0.5000000E+00  0.5000000E+00  0.1666667E+00  0.3472222E-02
   1        0.8589
   2        0.8589
   3        0.8589
   4        0.8589
   5        6.2001
   6        6.2001
   7        6.2001
   8        6.2001
   9       11.5448
  10       11.5448
  11       11.5448
  12       11.5448
  13       15.7783
  14       15.7783
  15       15.7783
  16       15.7783
 
  0.2500000E+00  0.2500000E+00  0.2500000E+00  0.4629630E-02
   1       -1.9453
   2        2.1538
   3        2.1538
   4        2.1538
   5        6.1513
   6        6.1513
   7        6.1513
   8       10.0623
   9       10.2101
  10       10.2101
  11       10.2101
  12       13.3091
  13       13.3091
  14       13.3091
  15       14.9724
  16       14.9724
 
  0.3333333E+00  0.2500000E+00  0.2500000E+00  0.1388889E-01
   1       -1.5417
   2        1.1976
   3        2.5471
   4        2.5471
   5        5.2188
   6        5.2188
   7        6.5362
   8        9.1503
   9       10.5849
  10       10.5849
  11       11.8659
  12       12.9841
  13       12.9841
  14       13.6636
  15       15.3416
  16       16.0399
 
  0.4166667E+00  0.2500000E+00  0.2500000E+00  0.1388889E-01
   1       -1.0242
   2        0.3472
   3        3.0514
   4        3.0514
   5        4.3894
   6        4.3894
   7        7.0297
   8        8.3386
   9       11.0625
  10       11.0625
  11       12.2965
  12       12.2965
  13       13.6013
  14       14.1193
  15       15.3318
  16       15.8044
 
  0.5000000E+00  0.2500000E+00  0.2500000E+00  0.6944444E-02
   1       -0.3941
   2       -0.3941
   3        3.6477
   4        3.6477
   5        3.6845
   6        3.6845
   7        7.6311
   8        7.6311
   9       11.6178
  10       11.6178
  11       11.6580
  12       11.6580
  13       14.6757
  14       14.6757
  15       15.3805
  16       15.3805
 
  0.3333333E+00  0.3333333E+00  0.2500000E+00  0.1388889E-01
   1       -1.1391
   2        1.5933
   3        1.5933
   4        2.9393
   5        4.2811
   6        5.6057
   7        5.6057
   8        8.2333
   9       10.9585
  10       12.2322
  11       12.2322
  12       13.3452
  13       13.3452
  14       14.0185
  15       15.7075
  16       15.7585
 
  0.4166667E+00  0.3333333E+00  0.2500000E+00  0.2777778E-01
   1       -0.6230
   2        0.7450
   3        2.1007
   4        3.4211
   5        3.4684
   6        4.7779
   7        6.1018
   8        7.4174
   9       11.4344
  10       12.6621
  11       12.6954
  12       13.8043
  13       13.8129
  14       13.9560
  15       15.0105
  16       16.8268
 
  0.5000000E+00  0.3333333E+00  0.2500000E+00  0.1388889E-01
   1        0.0056
   2        0.0056
   3        2.7186
   4        2.7186
   5        4.0566
   6        4.0566
   7        6.7062
   8        6.7062
   9       12.0070
  10       12.0070
  11       13.2409
  12       13.2409
  13       14.3644
  14       14.3644
  15       15.7105
  16       15.7105
 
  0.4166667E+00  0.4166667E+00  0.2500000E+00  0.1388889E-01
   1       -0.1085
   2        1.2551
   3        1.2551
   4        2.6072
   5        3.9455
   6        5.2762
   7        5.2762
   8        6.5978
   9       11.9079
  10       13.1287
  11       13.1287
  12       14.3348
  13       14.3865
  14       14.3865
  15       14.9278
  16       16.7242
 
  0.5000000E+00  0.4166667E+00  0.2500000E+00  0.1388889E-01
   1        0.5180
   2        0.5180
   3        1.8764
   4        1.8764
   5        4.5568
   6        4.5568
   7        5.8833
   8        5.8833
   9       12.4775
  10       12.4775
  11       13.6906
  12       13.6906
  13       14.8413
  14       14.8413
  15       16.0540
  16       16.0540
 
  0.5000000E+00  0.5000000E+00  0.2500000E+00  0.3472222E-02
   1        1.1421
   2        1.1421
   3        1.1421
   4        1.1421
   5        5.1662
   6        5.1662
   7        5.1662
   8        5.1662
   9       13.0434
  10       13.0434
  11       13.0434
  12       13.0434
  13       16.0282
  14       16.0282
  15       16.0282
  16       16.0282
 
  0.3333333E+00  0.3333333E+00  0.3333333E+00  0.4629630E-02
   1       -0.7375
   2        1.9880
   3        1.9880
   4        1.9880
   5        4.6700
   6        4.6700
   7        4.6700
   8        7.3115
   9       12.5969
  10       12.5969
  11       12.5969
  12       14.3732
  13       14.3732
  14       14.3732
  15       16.1071
  16       16.1071
 
  0.4166667E+00  0.3333333E+00  0.3333333E+00  0.1388889E-01
   1       -0.2227
   2        1.1419
   3        2.4939
   4        2.4939
   5        3.8379
   6        3.8379
   7        5.1687
   8        6.4913
   9       13.0580
  10       13.0580
  11       14.1709
  12       14.1709
  13       14.3024
  14       14.8287
  15       16.0361
  16       16.5306
 
  0.5000000E+00  0.3333333E+00  0.3333333E+00  0.6944444E-02
   1        0.4042
   2        0.4042
   3        3.0794
   4        3.0794
   5        3.1435
   6        3.1435
   7        5.7763
   8        5.7763
   9       13.5853
  10       13.5853
  11       13.6178
  12       13.6178
  13       15.3839
  14       15.3839
  15       16.0117
  16       16.0117
 
  0.4166667E+00  0.4166667E+00  0.3333333E+00  0.1388889E-01
   1        0.2904
   2        1.6506
   3        1.6506
   4        2.9649
   5        3.0351
   6        4.3387
   7        4.3387
   8        5.6673
   9       13.5167
  10       14.6153
  11       14.6153
  12       14.7456
  13       14.7456
  14       15.2814
  15       15.7605
  16       17.0303
 
  0.5000000E+00  0.4166667E+00  0.3333333E+00  0.1388889E-01
   1        0.9154
   2        0.9154
   3        2.2700
   4        2.2700
   5        3.6156
   6        3.6156
   7        4.9491
   8        4.9491
   9       14.0570
  10       14.0570
  11       15.1666
  12       15.1666
  13       15.1925
  14       15.1925
  15       16.3758
  16       16.3758
 
  0.5000000E+00  0.5000000E+00  0.3333333E+00  0.3472222E-02
   1        1.5379
   2        1.5379
   3        1.5379
   4        1.5379
   5        4.2280
   6        4.2280
   7        4.2280
   8        4.2280
   9       14.5963
  10       14.5963
  11       14.5963
  12       14.5963
  13       16.3728
  14       16.3728
  15       16.3728
  16       16.3728
 
  0.4166667E+00  0.4166667E+00  0.4166667E+00  0.4629630E-02
   1        0.8019
   2        2.1574
   3        2.1574
   4        2.1574
   5        3.5051
   6        3.5051
   7        3.5051
   8        4.8395
   9       15.1635
  10       15.1635
  11       15.1635
  12       15.7338
  13       15.7338
  14       15.7338
  15       16.8949
  16       16.8949
 
  0.5000000E+00  0.4166667E+00  0.4166667E+00  0.6944444E-02
   1        1.4248