 running on    8 nodes
 distr:  one band on    1 nodes,    8 groups
 vasp.4.6.28 25Jul05 complex 
 POSCAR found :  1 types and    4 ions
 LDA part: xc-table for Pade appr. of Perdew
 generate k-points for:  13  13  13
 POSCAR, INCAR and KPOINTS ok, starting setup
 FFT: planning ...           1
 reading WAVECAR
 WARNING: random wavefunctions but no delay for mixing, default for NELMDL
 entering main loop
       N       E                     dE             d eps       ncg     rms          rms(c)
DAV:   1     0.634484147064E+01    0.63448E+01   -0.40607E+03  2688   0.559E+02
DAV:   2    -0.143075296981E+02   -0.20652E+02   -0.19547E+02  3624   0.868E+01
DAV:   3    -0.149313061638E+02   -0.62378E+00   -0.62167E+00  3464   0.116E+01
DAV:   4    -0.149351212526E+02   -0.38151E-02   -0.38149E-02  3352   0.116E+00
DAV:   5    -0.149351675340E+02   -0.46281E-04   -0.46281E-04  3480   0.128E-01    0.195E+00
DAV:   6    -0.148777372773E+02    0.57430E-01   -0.44942E-03  3168   0.336E-01    0.121E+00
DAV:   7    -0.148360658905E+02    0.41671E-01   -0.14444E-02  2944   0.558E-01    0.490E-02
DAV:   8    -0.148361029904E+02   -0.37100E-04   -0.12658E-04  3752   0.749E-02    0.129E-02
DAV:   9    -0.148361066763E+02   -0.36859E-05   -0.40883E-06  3440   0.889E-03    0.126E-03
DAV:  10    -0.148361060666E+02    0.60961E-06   -0.48655E-08  3736   0.176E-03    0.390E-04
DAV:  11    -0.148361059402E+02    0.12645E-06   -0.12418E-09  2440   0.185E-04    0.275E-05
DAV:  12    -0.148361059497E+02   -0.94844E-08   -0.11621E-10  2136   0.670E-05
   1 F= -.14836106E+02 E0= -.14836050E+02  d E =-.111523E-03
