   4   4   0   0
  0.1501517E+02  0.3916187E-09  0.3916187E-09  0.3916187E-09  0.5000000E-15
  1.000000000000000E-004
  CAR 
 unknown system                          
     22.11356509     -3.96802658  301      9.00350044      1.00000000
     -3.968  0.0000E+00  0.0000E+00
     -3.881  0.0000E+00  0.0000E+00
     -3.794  0.0000E+00  0.0000E+00
     -3.707  0.0000E+00  0.0000E+00
     -3.620  0.0000E+00  0.0000E+00
     -3.533  0.0000E+00  0.0000E+00
     -3.446  0.0000E+00  0.0000E+00
     -3.359  0.0000E+00  0.0000E+00
     -3.273  0.0000E+00  0.0000E+00
     -3.186  0.0000E+00  0.0000E+00
     -3.099  0.0000E+00  0.0000E+00
     -3.012  0.0000E+00  0.0000E+00
     -2.925  0.0000E+00  0.0000E+00
     -2.838  0.2674E-16  0.2325E-17
     -2.751  0.1048E-01  0.9112E-03
     -2.664  0.1552E+00  0.1441E-01
     -2.577  0.8381E-01  0.2458E-01
     -2.490  0.2764E+00  0.4861E-01
     -2.403  0.2513E+00  0.7374E-01
     -2.316  0.1168E+00  0.8389E-01
     -2.229  0.3167E+00  0.1122E+00
     -2.142  0.4935E+00  0.1551E+00
     -2.055  0.9232E-01  0.1637E+00
     -1.968  0.7417E+00  0.2282E+00
     -1.881  0.6045E-02  0.2290E+00
     -1.795  0.5587E+00  0.2776E+00
     -1.708  0.4342E+00  0.3154E+00
     -1.621  0.2513E+00  0.3541E+00
     -1.534  0.6123E+00  0.4074E+00
     -1.447  0.1485E-04  0.4197E+00
     -1.360  0.4638E+00  0.4600E+00
     -1.273  0.7541E+00  0.5344E+00
     -1.186  0.3348E+00  0.5635E+00
     -1.099  0.7567E+00  0.6293E+00
     -1.012  0.4998E+00  0.6727E+00
     -0.925  0.1425E+00  0.6851E+00
     -0.838  0.9853E+00  0.7708E+00
     -0.751  0.5454E+00  0.8185E+00
     -0.664  0.5225E+00  0.8639E+00
     -0.577  0.7539E+00  0.9294E+00
     -0.490  0.2513E+00  0.9513E+00
     -0.404  0.1347E+01  0.1068E+01
     -0.317  0.2516E+00  0.1104E+01
     -0.230  0.9319E+00  0.1185E+01
     -0.143  0.5026E+00  0.1235E+01
     -0.056  0.8244E-01  0.1242E+01
      0.031  0.6450E+00  0.1299E+01
      0.118  0.1302E+01  0.1412E+01
      0.205  0.5081E+00  0.1456E+01
      0.292  0.1005E+01  0.1587E+01
      0.379  0.3508E+00  0.1617E+01
      0.466  0.5031E+00  0.1674E+01
      0.553  0.9560E+00  0.1757E+01
      0.640  0.1982E-01  0.1763E+01
      0.727  0.1733E+01  0.1914E+01
      0.814  0.1414E-01  0.1916E+01
      0.901  0.1005E+01  0.2007E+01
      0.987  0.1150E+01  0.2107E+01
      1.074  0.5035E+00  0.2160E+01
      1.161  0.1453E+01  0.2287E+01
      1.248  0.8822E-02  0.2292E+01
      1.335  0.8672E+00  0.2367E+01
      1.422  0.1361E+01  0.2486E+01
      1.509  0.2513E+00  0.2550E+01
      1.596  0.1309E+01  0.2664E+01
      1.683  0.4531E-03  0.2681E+01
      1.770  0.1254E+01  0.2790E+01
      1.857  0.5424E+00  0.2843E+01
      1.944  0.1216E+01  0.2948E+01
      2.031  0.9596E+00  0.3032E+01
      2.118  0.2333E-04  0.3102E+01
      2.205  0.1484E+01  0.3231E+01
      2.292  0.1268E+01  0.3365E+01
      2.378  0.4915E+00  0.3407E+01
      2.465  0.7123E+00  0.3469E+01
      2.552  0.4234E+00  0.3538E+01
      2.639  0.6217E+00  0.3593E+01
      2.726  0.1135E+01  0.3703E+01
      2.813  0.1056E+01  0.3794E+01
      2.900  0.1893E+01  0.3960E+01
      2.987  0.2262E+00  0.3992E+01
      3.074  0.1564E+01  0.4128E+01
      3.161  0.7576E+00  0.4211E+01
      3.248  0.1084E+01  0.4305E+01
      3.335  0.1249E+01  0.4414E+01
      3.422  0.0000E+00  0.4502E+01
      3.509  0.8235E+00  0.4573E+01
      3.596  0.1014E+01  0.4677E+01
      3.683  0.1247E+01  0.4786E+01
      3.770  0.1509E+01  0.4917E+01
      3.856  0.1117E-02  0.4960E+01
      3.943  0.1260E+01  0.5070E+01
      4.030  0.1726E+01  0.5225E+01
      4.117  0.4851E+00  0.5270E+01
      4.204  0.2280E+01  0.5471E+01
      4.291  0.6401E-04  0.5490E+01
      4.378  0.1615E+01  0.5631E+01
      4.465  0.1301E+01  0.5745E+01
      4.552  0.1447E+01  0.5873E+01
      4.639  0.1486E+01  0.6002E+01
      4.726  0.2441E-01  0.6006E+01
      4.813  0.1500E+01  0.6136E+01
      4.900  0.1491E+01  0.6266E+01
      4.987  0.1842E+01  0.6426E+01
      5.074  0.1207E-01  0.6442E+01
      5.161  0.4986E+00  0.6489E+01
      5.247  0.1430E+01  0.6639E+01
      5.334  0.1552E+01  0.6800E+01
      5.421  0.1597E+01  0.6938E+01
      5.508  0.1565E+01  0.7092E+01
      5.595  0.1091E+01  0.7204E+01
      5.682  0.8867E+00  0.7297E+01
      5.769  0.1397E+01  0.7427E+01
      5.856  0.1258E+01  0.7546E+01
      5.943  0.9087E+00  0.7625E+01
      6.030  0.1784E+01  0.7780E+01
      6.117  0.3894E+00  0.7823E+01
      6.204  0.2012E+01  0.8014E+01
      6.291  0.1091E+01  0.8128E+01
      6.378  0.1406E+01  0.8252E+01
      6.465  0.2007E+01  0.8444E+01
      6.552  0.1427E+01  0.8568E+01
      6.638  0.1077E+01  0.8669E+01
      6.725  0.6122E+00  0.8738E+01
      6.812  0.1439E+01  0.8864E+01
      6.899  0.1291E+01  0.8977E+01
      6.986  0.9694E+00  0.9075E+01
      7.073  0.9609E+00  0.9205E+01
      7.160  0.9375E+00  0.9290E+01
      7.247  0.1780E+01  0.9462E+01
      7.334  0.1234E+01  0.9569E+01
      7.421  0.1748E+01  0.9721E+01
      7.508  0.7874E+00  0.9837E+01
      7.595  0.8769E+00  0.9914E+01
      7.682  0.1757E+01  0.1007E+02
      7.769  0.8849E+00  0.1015E+02
      7.856  0.1642E+01  0.1029E+02
      7.943  0.2180E+01  0.1051E+02
      8.030  0.7466E+00  0.1058E+02
      8.116  0.5913E+00  0.1066E+02
      8.203  0.1311E+01  0.1079E+02
      8.290  0.1241E+01  0.1093E+02
      8.377  0.1183E+01  0.1103E+02
      8.464  0.1241E+01  0.1115E+02
      8.551  0.2266E+01  0.1137E+02
      8.638  0.7250E+00  0.1143E+02
      8.725  0.1850E+01  0.1160E+02
      8.812  0.1381E+01  0.1176E+02
      8.899  0.1035E+01  0.1185E+02
      8.986  0.1383E+01  0.1199E+02
      9.073  0.1506E+01  0.1212E+02
      9.160  0.1268E+01  0.1223E+02
      9.247  0.8337E+00  0.1230E+02
      9.334  0.1330E+01  0.1242E+02
      9.421  0.1457E+01  0.1255E+02
      9.507  0.9039E+00  0.1266E+02
      9.594  0.1814E+01  0.1287E+02
      9.681  0.1327E+01  0.1301E+02
      9.768  0.1630E+01  0.1319E+02
      9.855  0.1940E+01  0.1336E+02
      9.942  0.9862E+00  0.1344E+02
     10.029  0.1622E+01  0.1359E+02
     10.116  0.1719E+01  0.1377E+02
     10.203  0.1832E+01  0.1394E+02
     10.290  0.8619E+00  0.1403E+02
     10.377  0.6442E+00  0.1409E+02
     10.464  0.1155E+01  0.1420E+02
     10.551  0.1630E+01  0.1434E+02
     10.638  0.2184E+01  0.1454E+02
     10.725  0.1254E+01  0.1464E+02
     10.812  0.2641E+01  0.1488E+02
     10.898  0.1795E+01  0.1503E+02
     10.985  0.6333E+00  0.1510E+02
     11.072  0.1616E+01  0.1524E+02
     11.159  0.1992E+01  0.1542E+02
     11.246  0.6253E+00  0.1547E+02
     11.333  0.1595E+01  0.1563E+02
     11.420  0.1581E+01  0.1577E+02
     11.507  0.2118E+01  0.1596E+02
     11.594  0.1486E+01  0.1610E+02
     11.681  0.2290E+01  0.1630E+02
     11.768  0.1254E+01  0.1643E+02
     11.855  0.1256E+01  0.1654E+02
     11.942  0.1839E+01  0.1670E+02
     12.029  0.8568E+00  0.1683E+02
     12.116  0.2756E+01  0.1709E+02
     12.203  0.1262E+01  0.1721E+02
     12.289  0.1754E+01  0.1737E+02
     12.376  0.1302E+01  0.1751E+02
     12.463  0.1004E+01  0.1761E+02
     12.550  0.1633E+01  0.1775E+02
     12.637  0.2020E+01  0.1793E+02
     12.724  0.1990E+01  0.1811E+02
     12.811  0.6215E+00  0.1821E+02
     12.898  0.1450E+01  0.1834E+02
     12.985  0.1773E+01  0.1850E+02
     13.072  0.2701E+01  0.1874E+02
     13.159  0.1426E+01  0.1890E+02
     13.246  0.1250E+01  0.1904E+02
     13.333  0.8782E+00  0.1911E+02
     13.420  0.1599E+01  0.1925E+02
     13.507  0.1978E+01  0.1943E+02
     13.594  0.3736E+01  0.1975E+02
     13.681  0.1666E+01  0.1990E+02
     13.767  0.2000E+01  0.2008E+02
     13.854  0.1585E+01  0.2022E+02
     13.941  0.1621E+01  0.2036E+02
     14.028  0.1414E+01  0.2052E+02
     14.115  0.1039E+01  0.2064E+02
     14.202  0.1992E+01  0.2081E+02
     14.289  0.7841E+00  0.2090E+02
     14.376  0.2863E+01  0.2116E+02
     14.463  0.1131E+01  0.2129E+02
     14.550  0.6627E+00  0.2136E+02
     14.637  0.2812E+01  0.2162E+02
     14.724  0.3785E+01  0.2195E+02
     14.811  0.1670E+01  0.2210E+02
     14.898  0.9106E+00  0.2221E+02
     14.985  0.1152E+01  0.2233E+02
     15.072  0.2569E+01  0.2256E+02
     15.158  0.3068E+01  0.2285E+02
     15.245  0.2188E+01  0.2307E+02
     15.332  0.1547E+01  0.2320E+02
     15.419  0.8298E+00  0.2330E+02
     15.506  0.2474E+01  0.2352E+02
     15.593  0.1255E+01  0.2365E+02
     15.680  0.2478E+01  0.2388E+02
     15.767  0.2264E+01  0.2409E+02
     15.854  0.2366E+01  0.2434E+02
     15.941  0.2408E+01  0.2455E+02
     16.028  0.2078E+01  0.2474E+02
     16.115  0.1009E+01  0.2484E+02
     16.202  0.1899E+01  0.2501E+02
     16.289  0.1627E+01  0.2518E+02
     16.376  0.2826E+01  0.2544E+02
     16.463  0.1006E+01  0.2557E+02
     16.549  0.1851E+01  0.2573E+02
     16.636  0.2037E+01  0.2594E+02
     16.723  0.1005E+01  0.2605E+02
     16.810  0.2530E+01  0.2627E+02
     16.897  0.2657E+01  0.2653E+02
     16.984  0.1601E+01  0.2669E+02
     17.071  0.1068E+01  0.2680E+02
     17.158  0.1500E+01  0.2693E+02
     17.245  0.1267E+01  0.2712E+02
     17.332  0.1736E+01  0.2727E+02
     17.419  0.2865E+01  0.2752E+02
     17.506  0.1094E+01  0.2766E+02
     17.593  0.1633E+01  0.2780E+02
     17.680  0.2274E+01  0.2800E+02
     17.767  0.2930E+01  0.2829E+02
     17.854  0.1357E+01  0.2842E+02
     17.941  0.2066E+01  0.2862E+02
     18.027  0.1630E+01  0.2876E+02
     18.114  0.1951E+01  0.2894E+02
     18.201  0.1785E+01  0.2912E+02
     18.288  0.9577E+00  0.2920E+02
     18.375  0.1005E+01  0.2929E+02
     18.462  0.1073E+01  0.2938E+02
     18.549  0.2051E+01  0.2959E+02
     18.636  0.1980E+01  0.2983E+02
     18.723  0.1179E+01  0.2994E+02
     18.810  0.1511E+01  0.3010E+02
     18.897  0.1710E+01  0.3025E+02
     18.984  0.1764E+01  0.3041E+02
     19.071  0.1178E+01  0.3055E+02
     19.158  0.4792E-01  0.3055E+02
     19.245  0.8527E+00  0.3063E+02
     19.332  0.2358E+01  0.3083E+02
     19.418  0.1376E+01  0.3095E+02
     19.505  0.2513E+00  0.3098E+02
     19.592  0.4424E+00  0.3102E+02
     19.679  0.1677E+01  0.3117E+02
     19.766  0.1152E+01  0.3128E+02
     19.853  0.1220E+01  0.3141E+02
     19.940  0.7469E+00  0.3149E+02
     20.027  0.1251E+01  0.3160E+02
     20.114  0.1504E+01  0.3173E+02
     20.201  0.2511E+00  0.3175E+02
     20.288  0.5027E+00  0.3180E+02
     20.375  0.5526E+00  0.3184E+02
     20.462  0.0000E+00  0.3186E+02
     20.549  0.1651E+00  0.3188E+02
     20.636  0.5023E+00  0.3194E+02
     20.723  0.2308E+00  0.3196E+02
     20.809  0.1286E-01  0.3196E+02
     20.896  0.1547E+00  0.3198E+02
     20.983  0.2513E+00  0.3200E+02
     21.070  0.0000E+00  0.3200E+02
     21.157  0.0000E+00  0.3200E+02
     21.244  0.0000E+00  0.3200E+02
     21.331  0.0000E+00  0.3200E+02
     21.418  0.0000E+00  0.3200E+02
     21.505  0.0000E+00  0.3200E+02
     21.592  0.0000E+00  0.3200E+02
     21.679  0.0000E+00  0.3200E+02
     21.766  0.0000E+00  0.3200E+02
     21.853  0.0000E+00  0.3200E+02
     21.940  0.0000E+00  0.3200E+02
     22.027  0.0000E+00  0.3200E+02
     22.114  0.0000E+00  0.3200E+02
