32   
1    

1    
  0.0100000000000000   0.0000000000000000   0.0000000000000000
  -0.0903649700    0.0000000000    0.0000000000
   0.0056317900   -0.0000000000   -0.0000000000
  -0.0008921900   -0.0000000000   -0.0000000000
  -0.0017013100   -0.0000000000   -0.0000000000
  -0.0008921900   -0.0000000000    0.0000000000
  -0.0017013100    0.0000000000    0.0000000000
   0.0003457500   -0.0000000000    0.0000000000
   0.0004103500   -0.0000000000   -0.0000000000
   0.0132729600    0.0165651700    0.0000000000
   0.0128936800   -0.0160201300   -0.0000000000
   0.0132729600   -0.0165651700    0.0000000000
   0.0128936800    0.0160201300    0.0000000000
  -0.0001030800    0.0001592600   -0.0000000000
  -0.0001050500   -0.0001534900    0.0000000000
  -0.0001030800   -0.0001592600   -0.0000000000
  -0.0001050500    0.0001534900    0.0000000000
   0.0132729600   -0.0000000000    0.0165651700
   0.0128936800   -0.0000000000   -0.0160201300
  -0.0001030800   -0.0000000000    0.0001592600
  -0.0001050500    0.0000000000   -0.0001534900
   0.0132729600    0.0000000000   -0.0165651700
   0.0128936800    0.0000000000    0.0160201300
  -0.0001030800    0.0000000000   -0.0001592600
  -0.0001050500    0.0000000000    0.0001534900
  -0.0044899300   -0.0000244100   -0.0000244100
   0.0008224400    0.0000009800    0.0000009800
  -0.0044899300    0.0000244100   -0.0000244100
   0.0008224400   -0.0000009800    0.0000009800
  -0.0044899300   -0.0000244100    0.0000244100
   0.0008224400    0.0000009800   -0.0000009800
  -0.0044899300    0.0000244100    0.0000244100
   0.0008224400   -0.0000009800   -0.0000009800
