mesh: [    48,    48,    48 ]
nqpoint: 2600   
reciprocal_lattice:
- [   0.24705594,   0.00000000,   0.00000000 ] # a*
- [   0.00000000,   0.24705594,   0.00000000 ] # b*
- [   0.00000000,   0.00000000,   0.24705594 ] # c*
natom:   4      
lattice:
- [     4.047666345245422,     0.000000000000000,     0.000000000000000 ] # a
- [     0.000000000000000,     4.047666345245422,     0.000000000000000 ] # b
- [     0.000000000000000,     0.000000000000000,     4.047666345245422 ] # c
points:
- symbol: Au # 1
  coordinates: [  0.000000000000000,  0.000000000000000,  0.000000000000000 ]
  mass: 196.966569
- symbol: Au # 2
  coordinates: [  0.500000000000000,  0.500000000000000,  0.000000000000000 ]
  mass: 196.966569
- symbol: Au # 3
  coordinates: [  0.500000000000000,  0.000000000000000,  0.500000000000000 ]
  mass: 196.966569
- symbol: Au # 4
  coordinates: [  0.000000000000000,  0.500000000000000,  0.500000000000000 ]
  mass: 196.966569
phonon:
- q-position: [    0.0104167,    0.0104167,    0.0104167 ]
  weight: 8    
  band:
  - # 1
    frequency:     0.0590115670
  - # 2
    frequency:     0.0590115670
  - # 3
    frequency:     0.1723421739
  - # 4
    frequency:     3.0389873852
  - # 5
    frequency:     3.0389873852
  - # 6
    frequency:     3.0389873852
  - # 7
    frequency:     3.0418604025
  - # 8
    frequency:     3.0418604025
  - # 9
    frequency:     3.0418604025
  - # 10
    frequency:     5.0747381444
  - # 11
    frequency:     5.0747381444
  - # 12
    frequency:     5.0747381444

- q-position: [    0.0312500,    0.0104167,    0.0104167 ]
  weight: 24   
  band:
  - # 1
    frequency:     0.1219535427
  - # 2
    frequency:     0.1359376517
  - # 3
    frequency:     0.3177796155
  - # 4
    frequency:     3.0349478297
  - # 5
    frequency:     3.0378120335
  - # 6
    frequency:     3.0378475611
  - # 7
    frequency:     3.0378475611
  - # 8
    frequency:     3.0480785936
  - # 9
    frequency:     3.0480785936
  - # 10
    frequency:     5.0705516358
  - # 11
    frequency:     5.0709612978
  - # 12
    frequency:     5.0709612978

- q-position: [    0.0520833,    0.0104167,    0.0104167 ]
  weight: 24   
  band:
  - # 1
    frequency:     0.2092791958
  - # 2
    frequency:     0.2201576095
  - # 3
    frequency:     0.4867745916
  - # 4
    frequency:     3.0268800083
  - # 5
    frequency:     3.0297266408
  - # 6
    frequency:     3.0370843021
  - # 7
    frequency:     3.0370843021
  - # 8
    frequency:     3.0589585039
  - # 9
    frequency:     3.0589585039
  - # 10
    frequency:     5.0621702288
  - # 11
    frequency:     5.0634191707
  - # 12
    frequency:     5.0634191707

- q-position: [    0.0729167,    0.0104167,    0.0104167 ]
  weight: 24   
  band:
  - # 1
    frequency:     0.2974014503
  - # 2
    frequency:     0.3056897940
  - # 3
    frequency:     0.6621966858
  - # 4
    frequency:     3.0148064352
  - # 5
    frequency:     3.0176268487
  - # 6
    frequency:     3.0362989049
  - # 7
    frequency:     3.0362989049
  - # 8
    frequency:     3.0748196998
  - # 9
    frequency:     3.0748196998
  - # 10
    frequency:     5.0495773051
  - # 11
    frequency:     5.0521348729
  - # 12
    frequency:     5.0521348729

- q-position: [    0.0937500,    0.0104167,    0.0104167 ]
  weight: 24   
  band:
  - # 1
    frequency:     0.3851333842
  - # 2
    frequency:     0.3916586094
  - # 3
    frequency:     0.8395211760
  - # 4
    frequency:     2.9987607187
  - # 5
    frequency:     3.0015464269
  - # 6
    frequency:     3.0353808260
  - # 7
    frequency:     3.0353808260
  - # 8
    frequency:     3.0956565207
  - # 9
    frequency:     3.0956565207
  - # 10
    frequency:     5.0327483386
  - # 11
    frequency:     5.0371430152
  - # 12
    frequency:     5.0371430152

- q-position: [    0.1145833,    0.0104167,    0.0104167 ]
  weight: 24   
  band:
  - # 1
    frequency:     0.4725245386
  - # 2
    frequency:     0.4778050717
  - # 3
    frequency:     1.0169574917
  - # 4
    frequency:     2.9787873670
  - # 5
    frequency:     2.9815300921
  - # 6
    frequency:     3.0343052119
  - # 7
    frequency:     3.0343052119
  - # 8
    frequency:     3.1213433614
  - # 9
    frequency:     3.1213433614
  - # 10
    frequency:     5.0116513695
  - # 11
    frequency:     5.0184896448
  - # 12
    frequency:     5.0184896448

- q-position: [    0.1354167,    0.0104167,    0.0104167 ]
  weight: 24   
  band:
  - # 1
    frequency:     0.5596603334
  - # 2
    frequency:     0.5640164333
  - # 3
    frequency:     1.1935702562
  - # 4
    frequency:     2.9549415306
  - # 5
    frequency:     2.9576332443
  - # 6
    frequency:     3.0330748421
  - # 7
    frequency:     3.0330748421
  - # 8
    frequency:     3.1516961910
  - # 9
    frequency:     3.1516961910
  - # 10
    frequency:     4.9862476251
  - # 11
    frequency:     4.9962321620
  - # 12
    frequency:     4.9962321620

- q-position: [    0.1562500,    0.0104167,    0.0104167 ]
  weight: 24   
  band:
  - # 1
    frequency:     0.6465876869
  - # 2
    frequency:     0.6502260170
  - # 3
    frequency:     1.3687557805
  - # 4
    frequency:     2.9272886824
  - # 5
    frequency:     2.9299216408
  - # 6
    frequency:     3.0317037868
  - # 7
    frequency:     3.0317037868
  - # 8
    frequency:     3.1864927987
  - # 9
    frequency:     3.1864927987
  - # 10
    frequency:     4.9564922763
  - # 11
    frequency:     4.9704392185
  - # 12
    frequency:     4.9704392185

- q-position: [    0.1770833,    0.0104167,    0.0104167 ]
  weight: 24   
  band:
  - # 1
    frequency:     0.7333224174
  - # 2
    frequency:     0.7363826019
  - # 3
    frequency:     1.5420624232
  - # 4
    frequency:     2.8959042373
  - # 5
    frequency:     2.8984710087
  - # 6
    frequency:     3.0302119784
  - # 7
    frequency:     3.0302119784
  - # 8
    frequency:     3.2254823568
  - # 9
    frequency:     3.2254823568
  - # 10
    frequency:     4.9223353196
  - # 11
    frequency:     4.9411905993
  - # 12
    frequency:     4.9411905993

- q-position: [    0.1979167,    0.0104167,    0.0104167 ]
  weight: 24   
  band:
  - # 1
    frequency:     0.8198584208
  - # 2
    frequency:     0.8224386404
  - # 3
    frequency:     1.7131189669
  - # 4
    frequency:     2.8608731131
  - # 5
    frequency:     2.8633665977
  - # 6
    frequency:     3.0286229784
  - # 7
    frequency:     3.0286229784
  - # 8
    frequency:     3.2683918171
  - # 9
    frequency:     3.2683918171
  - # 10
    frequency:     4.8837225692
  - # 11
    frequency:     4.9085770912
  - # 12
    frequency:     4.9085770912

- q-position: [    0.2187500,    0.0104167,    0.0104167 ]
  weight: 24   
  band:
  - # 1
    frequency:     0.9061732504
  - # 2
    frequency:     0.9083449026
  - # 3
    frequency:     1.8816027581
  - # 4
    frequency:     2.8222892358
  - # 5
    frequency:     2.8247026769
  - # 6
    frequency:     3.0269628001
  - # 7
    frequency:     3.0269628001
  - # 8
    frequency:     3.3149311078
  - # 9
    frequency:     3.3149311078
  - # 10
    frequency:     4.8405967470
  - # 11
    frequency:     4.8727003395
  - # 12
    frequency:     4.8727003395

- q-position: [    0.2395833,    0.0104167,    0.0104167 ]
  weight: 24   
  band:
  - # 1
    frequency:     0.9922312335
  - # 2
    frequency:     0.9940477193
  - # 3
    frequency:     2.0472243684
  - # 4
    frequency:     2.7802549898
  - # 5
    frequency:     2.7825819780
  - # 6
    frequency:     3.0252591167
  - # 7
    frequency:     3.0252591167
  - # 8
    frequency:     3.3647976625
  - # 9
    frequency:     3.3647976625
  - # 10
    frequency:     4.7928986512
  - # 11
    frequency:     4.8336726957
  - # 12
    frequency:     4.8336726957

- q-position: [    0.2604167,    0.0104167,    0.0104167 ]
  weight: 24   
  band:
  - # 1
    frequency:     1.0779852184
  - # 2
    frequency:     1.0794874356
  - # 3
    frequency:     2.2097197935
  - # 4
    frequency:     2.7348806185
  - # 5
    frequency:     2.7371150864
  - # 6
    frequency:     3.0235406191
  - # 7
    frequency:     3.0235406191
  - # 8
    frequency:     3.4176804189
  - # 9
    frequency:     3.4176804189
  - # 10
    frequency:     4.7405683906
  - # 11
    frequency:     4.7916170606
  - # 12
    frequency:     4.7916170606

- q-position: [    0.2812500,    0.0104167,    0.0104167 ]
  weight: 24   
  band:
  - # 1
    frequency:     1.1633775987
  - # 2
    frequency:     1.1645975076
  - # 3
    frequency:     2.3688463477
  - # 4
    frequency:     2.6862835760
  - # 5
    frequency:     2.6884197860
  - # 6
    frequency:     3.0218364364
  - # 7
    frequency:     3.0218364364
  - # 8
    frequency:     3.4732633156
  - # 9
    frequency:     3.4732633156
  - # 10
    frequency:     4.6835466644
  - # 11
    frequency:     4.7466667240
  - # 12
    frequency:     4.7466667240

- q-position: [    0.3020833,    0.0104167,    0.0104167 ]
  weight: 24   
  band:
  - # 1
    frequency:     1.2483409694
  - # 2
    frequency:     1.2493039850
  - # 3
    frequency:     2.5243804669
  - # 4
    frequency:     2.6345878358
  - # 5
    frequency:     2.6366203603
  - # 6
    frequency:     3.0201755866
  - # 7
    frequency:     3.0201755866
  - # 8
    frequency:     3.5312282958
  - # 9
    frequency:     3.5312282958
  - # 10
    frequency:     4.6217760727
  - # 11
    frequency:     4.6989652064
  - # 12
    frequency:     4.6989652064

- q-position: [    0.3229167,    0.0104167,    0.0104167 ]
  weight: 24   
  band:
  - # 1
    frequency:     1.3327986099
  - # 2
    frequency:     1.3335252548
  - # 3
    frequency:     2.5799231587
  - # 4
    frequency:     2.5818468526
  - # 5
    frequency:     2.6761165326
  - # 6
    frequency:     3.0185864472
  - # 7
    frequency:     3.0185864472
  - # 8
    frequency:     3.5912578353
  - # 9
    frequency:     3.5912578353
  - # 10
    frequency:     4.5552024397
  - # 11
    frequency:     4.6486661047
  - # 12
    frequency:     4.6486661047

- q-position: [    0.3437500,    0.0104167,    0.0104167 ]
  weight: 24   
  band:
  - # 1
    frequency:     1.4166649029
  - # 2
    frequency:     1.4171719782
  - # 3
    frequency:     2.5224243256
  - # 4
    frequency:     2.5242342922
  - # 5
    frequency:     2.8238662475
  - # 6
    frequency:     3.0170962453
  - # 7
    frequency:     3.0170962453
  - # 8
    frequency:     3.6530370240
  - # 9
    frequency:     3.6530370240
  - # 10
    frequency:     4.4837761335
  - # 11
    frequency:     4.5959329471
  - # 12
    frequency:     4.5959329471

- q-position: [    0.3645833,    0.0104167,    0.0104167 ]
  weight: 24   
  band:
  - # 1
    frequency:     1.4998457472
  - # 2
    frequency:     1.5001471836
  - # 3
    frequency:     2.4622303383
  - # 4
    frequency:     2.4639218888
  - # 5
    frequency:     2.9674583028
  - # 6
    frequency:     3.0157305717
  - # 7
    frequency:     3.0157305717
  - # 8
    frequency:     3.7162552383
  - # 9
    frequency:     3.7162552383
  - # 10
    frequency:     4.4074533677
  - # 11
    frequency:     4.5409390621
  - # 12
    frequency:     4.5409390621

- q-position: [    0.3854167,    0.0104167,    0.0104167 ]
  weight: 24   
  band:
  - # 1
    frequency:     1.5822389998
  - # 2
    frequency:     1.5823464882
  - # 3
    frequency:     2.3994835954
  - # 4
    frequency:     2.4010522017
  - # 5
    frequency:     3.0145129241
  - # 6
    frequency:     3.0145129241
  - # 7
    frequency:     3.1067381852
  - # 8
    frequency:     3.7806074485
  - # 9
    frequency:     3.7806074485
  - # 10
    frequency:     4.3261974690
  - # 11
    frequency:     4.4838674686
  - # 12
    frequency:     4.4838674686

- q-position: [    0.4062500,    0.0104167,    0.0104167 ]
  weight: 24   
  band:
  - # 1
    frequency:     1.6636584334
  - # 2
    frequency:     1.6637349640
  - # 3
    frequency:     2.3343290472
  - # 4
    frequency:     2.3357702881
  - # 5
    frequency:     3.0134642877
  - # 6
    frequency:     3.0134642877
  - # 7
    frequency:     3.2415680339
  - # 8
    frequency:     3.8457951976
  - # 9
    frequency:     3.8457951976
  - # 10
    frequency:     4.2399800979
  - # 11
    frequency:     4.4249108030
  - # 12
    frequency:     4.4249108030

- q-position: [    0.4270833,    0.0104167,    0.0104167 ]
  weight: 24   
  band:
  - # 1
    frequency:     1.7439649171
  - # 2
    frequency:     1.7442169312
  - # 3
    frequency:     2.2669133361
  - # 4
    frequency:     2.2682228371
  - # 5
    frequency:     3.0126027602
  - # 6
    frequency:     3.0126027602
  - # 7
    frequency:     3.3718264892
  - # 8
    frequency:     3.9115272558
  - # 9
    frequency:     3.9115272558
  - # 10
    frequency:     4.1487824107
  - # 11
    frequency:     4.3642713336
  - # 12
    frequency:     4.3642713336

- q-position: [    0.4479167,    0.0104167,    0.0104167 ]
  weight: 24   
  band:
  - # 1
    frequency:     1.8231417137
  - # 2
    frequency:     1.8235617793
  - # 3
    frequency:     2.1973839290
  - # 4
    frequency:     2.1985572945
  - # 5
    frequency:     3.0119432269
  - # 6
    frequency:     3.0119432269
  - # 7
    frequency:     3.4974084981
  - # 8
    frequency:     3.9775197989
  - # 9
    frequency:     3.9775197989
  - # 10
    frequency:     4.0525961515
  - # 11
    frequency:     4.3021612592
  - # 12
    frequency:     4.3021612592

- q-position: [    0.4687500,    0.0104167,    0.0104167 ]
  weight: 24   
  band:
  - # 1
    frequency:     1.9010590684
  - # 2
    frequency:     1.9016406252
  - # 3
    frequency:     2.1258882478
  - # 4
    frequency:     2.1269209848
  - # 5
    frequency:     3.0114970931
  - # 6
    frequency:     3.0114970931
  - # 7
    frequency:     3.6182250518
  - # 8
    frequency:     3.9514246642
  - # 9
    frequency:     4.0434948887
  - # 10
    frequency:     4.0434948887
  - # 11
    frequency:     4.2388045578
  - # 12
    frequency:     4.2388045578

- q-position: [    0.4895833,    0.0104167,    0.0104167 ]
  weight: 24   
  band:
  - # 1
    frequency:     1.9775823577
  - # 2
    frequency:     1.9783195281
  - # 3
    frequency:     2.0525728060
  - # 4
    frequency:     2.0534602384
  - # 5
    frequency:     3.0112720786
  - # 6
    frequency:     3.0112720786
  - # 7
    frequency:     3.7342028409
  - # 8
    frequency:     3.8452838183
  - # 9
    frequency:     4.1091558207
  - # 10
    frequency:     4.1091558207
  - # 11
    frequency:     4.1744618549
  - # 12
    frequency:     4.1744618549

- q-position: [    0.0312500,    0.0312500,    0.0104167 ]
  weight: 24   
  band:
  - # 1
    frequency:     0.1279244385
  - # 2
    frequency:     0.1802453808
  - # 3
    frequency:     0.4277505524
  - # 4
    frequency:     3.0326034779
  - # 5
    frequency:     3.0338015060
  - # 6
    frequency:     3.0338015060
  - # 7
    frequency:     3.0440174828
  - # 8
    frequency:     3.0440174828
  - # 9
    frequency:     3.0583439743
  - # 10
    frequency:     5.0668137986
  - # 11
    frequency:     5.0668137986
  - # 12
    frequency:     5.0671815483

- q-position: [    0.0520833,    0.0312500,    0.0104167 ]
  weight: 48   
  band:
  - # 1
    frequency:     0.1904610936
  - # 2
    frequency:     0.2498809620
  - # 3
    frequency:     0.5723869858
  - # 4
    frequency:     3.0257206670
  - # 5
    frequency:     3.0284199464
  - # 6
    frequency:     3.0330107198
  - # 7
    frequency:     3.0359068179
  - # 8
    frequency:     3.0548863954
  - # 9
    frequency:     3.0725312524
  - # 10
    frequency:     5.0585102082
  - # 11
    frequency:     5.0593496547
  - # 12
    frequency:     5.0596336523

- q-position: [    0.0729167,    0.0312500,    0.0104167 ]
  weight: 48   
  band:
  - # 1
    frequency:     0.2747591593
  - # 2
    frequency:     0.3277771671
  - # 3
    frequency:     0.7307884208
  - # 4
    frequency:     3.0136275187
  - # 5
    frequency:     3.0237696422
  - # 6
    frequency:     3.0252114496
  - # 7
    frequency:     3.0321786019
  - # 8
    frequency:     3.0707364199
  - # 9
    frequency:     3.0906492106
  - # 10
    frequency:     5.0460335109
  - # 11
    frequency:     5.0481822427
  - # 12
    frequency:     5.0483407941

- q-position: [    0.0937500,    0.0312500,    0.0104167 ]
  weight: 48   
  band:
  - # 1
    frequency:     0.3635925877
  - # 2
    frequency:     0.4091851544
  - # 3
    frequency:     0.8959630587
  - # 4
    frequency:     2.9975556052
  - # 5
    frequency:     3.0076403450
  - # 6
    frequency:     3.0226549950
  - # 7
    frequency:     3.0311956984
  - # 8
    frequency:     3.0915606832
  - # 9
    frequency:     3.1129080813
  - # 10
    frequency:     5.0293586012
  - # 11
    frequency:     5.0333376946
  - # 12
    frequency:     5.0333460665

- q-position: [    0.1145833,    0.0312500,    0.0104167 ]
  weight: 48   
  band:
  - # 1
    frequency:     0.4530657051
  - # 2
    frequency:     0.4923386098
  - # 3
    frequency:     1.0644599172
  - # 4
    frequency:     2.9775493386
  - # 5
    frequency:     2.9875644538
  - # 6
    frequency:     3.0205059993
  - # 7
    frequency:     3.0300373334
  - # 8
    frequency:     3.1172332442
  - # 9
    frequency:     3.1394063001
  - # 10
    frequency:     5.0084527772
  - # 11
    frequency:     5.0146705475
  - # 12
    frequency:     5.0148870297

- q-position: [    0.1354167,    0.0312500,    0.0104167 ]
  weight: 48   
  band:
  - # 1
    frequency:     0.5422896754
  - # 2
    frequency:     0.5764522639
  - # 3
    frequency:     1.2342818286
  - # 4
    frequency:     2.9536637330
  - # 5
    frequency:     2.9635983583
  - # 6
    frequency:     3.0186026126
  - # 7
    frequency:     3.0287060260
  - # 8
    frequency:     3.1475701433
  - # 9
    frequency:     3.1701294346
  - # 10
    frequency:     4.9832763859
  - # 11
    frequency:     4.9923969337
  - # 12
    frequency:     4.9928623523

- q-position: [    0.1562500,    0.0312500,    0.0104167 ]
  weight: 48   
  band:
  - # 1
    frequency:     0.6310802966
  - # 2
    frequency:     0.6611209738
  - # 3
    frequency:     1.4041534987
  - # 4
    frequency:     2.9259640736
  - # 5
    frequency:     2.9358089710
  - # 6
    frequency:     3.0168448229
  - # 7
    frequency:     3.0272153782
  - # 8
    frequency:     3.1823494251
  - # 9
    frequency:     3.2049747587
  - # 10
    frequency:     4.9537836093
  - # 11
    frequency:     4.9665857189
  - # 12
    frequency:     4.9673404677

- q-position: [    0.1770833,    0.0312500,    0.0104167 ]
  weight: 48   
  band:
  - # 1
    frequency:     0.7194239593
  - # 2
    frequency:     0.7461064732
  - # 3
    frequency:     1.5731916591
  - # 4
    frequency:     2.8945255241
  - # 5
    frequency:     2.9042733259
  - # 6
    frequency:     3.0151749726
  - # 7
    frequency:     3.0255847494
  - # 8
    frequency:     3.2213206066
  - # 9
    frequency:     3.2437746443
  - # 10
    frequency:     4.9199233786
  - # 11
    frequency:     4.9373169348
  - # 12
    frequency:     4.9384009041

- q-position: [    0.1979167,    0.0312500,    0.0104167 ]
  weight: 48   
  band:
  - # 1
    frequency:     0.8073387825
  - # 2
    frequency:     0.8312501134
  - # 3
    frequency:     1.7407404027
  - # 4
    frequency:     2.8594326731
  - # 5
    frequency:     2.8690781180
  - # 6
    frequency:     3.0135635372
  - # 7
    frequency:     3.0238370807
  - # 8
    frequency:     3.2642110274
  - # 9
    frequency:     3.2863147344
  - # 10
    frequency:     4.8816404030
  - # 11
    frequency:     4.9046816460
  - # 12
    frequency:     4.9061341515

- q-position: [    0.2187500,    0.0312500,    0.0104167 ]
  weight: 48   
  band:
  - # 1
    frequency:     0.8948368717
  - # 2
    frequency:     0.9164328435
  - # 3
    frequency:     1.9062839379
  - # 4
    frequency:     2.8207790224
  - # 5
    frequency:     2.8303191874
  - # 6
    frequency:     3.0119995159
  - # 7
    frequency:     3.0219977588
  - # 8
    frequency:     3.3107310185
  - # 9
    frequency:     3.3323473857
  - # 10
    frequency:     4.8388762955
  - # 11
    frequency:     4.8687818057
  - # 12
    frequency:     4.8706415176

- q-position: [    0.2395833,    0.0312500,    0.0104167 ]
  weight: 48   
  band:
  - # 1
    frequency:     0.9819149039
  - # 2
    frequency:     1.0015551075
  - # 3
    frequency:     2.0693981967
  - # 4
    frequency:     2.7786664213
  - # 5
    frequency:     2.7881009514
  - # 6
    frequency:     3.0104840784
  - # 7
    frequency:     3.0200938589
  - # 8
    frequency:     3.3605784101
  - # 9
    frequency:     3.3816016027
  - # 10
    frequency:     4.7915707816
  - # 11
    frequency:     4.8297301043
  - # 12
    frequency:     4.8320349744

- q-position: [    0.2604167,    0.0312500,    0.0104167 ]
  weight: 48   
  band:
  - # 1
    frequency:     1.0685528929
  - # 2
    frequency:     1.0865259898
  - # 3
    frequency:     2.2297229374
  - # 4
    frequency:     2.7332044480
  - # 5
    frequency:     2.7425357878
  - # 6
    frequency:     3.0090263388
  - # 7
    frequency:     3.0181535357
  - # 8
    frequency:     3.4134425123
  - # 9
    frequency:     3.4337905016
  - # 10
    frequency:     4.7396629715
  - # 11
    frequency:     4.7876498129
  - # 12
    frequency:     4.7904370006

- q-position: [    0.2812500,    0.0312500,    0.0104167 ]
  weight: 48   
  band:
  - # 1
    frequency:     1.1547151766
  - # 2
    frequency:     1.1712570177
  - # 3
    frequency:     2.3869451182
  - # 4
    frequency:     2.6845097435
  - # 5
    frequency:     2.6937433724
  - # 6
    frequency:     3.0076404746
  - # 7
    frequency:     3.0162054762
  - # 8
    frequency:     3.4690075939
  - # 9
    frequency:     3.4886170220
  - # 10
    frequency:     4.6830926793
  - # 11
    frequency:     4.7426746272
  - # 12
    frequency:     4.7459804226

- q-position: [    0.3020833,    0.0312500,    0.0104167 ]
  weight: 48   
  band:
  - # 1
    frequency:     1.2403518379
  - # 2
    frequency:     1.2556584825
  - # 3
    frequency:     2.5407886979
  - # 4
    frequency:     2.6327053022
  - # 5
    frequency:     2.6418499751
  - # 6
    frequency:     3.0063436954
  - # 7
    frequency:     3.0142783824
  - # 8
    frequency:     3.5269558663
  - # 9
    frequency:     3.5457783587
  - # 10
    frequency:     4.6218017729
  - # 11
    frequency:     4.6949485171
  - # 12
    frequency:     4.6988082594

- q-position: [    0.3229167,    0.0312500,    0.0104167 ]
  weight: 48   
  band:
  - # 1
    frequency:     1.3254000592
  - # 2
    frequency:     1.3396372113
  - # 3
    frequency:     2.5779197238
  - # 4
    frequency:     2.5869877172
  - # 5
    frequency:     2.6910082173
  - # 6
    frequency:     3.0051547517
  - # 7
    frequency:     3.0124004729
  - # 8
    frequency:     3.5869699863
  - # 9
    frequency:     3.6049694194
  - # 10
    frequency:     4.5557355357
  - # 11
    frequency:     4.6446255892
  - # 12
    frequency:     4.6490735786

- q-position: [    0.3437500,    0.0312500,    0.0104167 ]
  weight: 48   
  band:
  - # 1
    frequency:     1.4097853124
  - # 2
    frequency:     1.4230952269
  - # 3
    frequency:     2.5202864314
  - # 4
    frequency:     2.5292937939
  - # 5
    frequency:     2.8373846581
  - # 6
    frequency:     3.0040927966
  - # 7
    frequency:     3.0105990033
  - # 8
    frequency:     3.6487350973
  - # 9
    frequency:     3.6658855113
  - # 10
    frequency:     4.4848440263
  - # 11
    frequency:     4.5918699749
  - # 12
    frequency:     4.5969393741

- q-position: [    0.3645833,    0.0312500,    0.0104167 ]
  weight: 48   
  band:
  - # 1
    frequency:     1.4934224057
  - # 2
    frequency:     1.5059289813
  - # 3
    frequency:     2.4599428625
  - # 4
    frequency:     2.4689096649
  - # 5
    frequency:     2.9797227010
  - # 6
    frequency:     3.0031764864
  - # 7
    frequency:     3.0088998080
  - # 8
    frequency:     3.7119404348
  - # 9
    frequency:     3.7282243906
  - # 10
    frequency:     4.4090834205
  - # 11
    frequency:     4.5368557669
  - # 12
    frequency:     4.5425784852

- q-position: [    0.3854167,    0.0312500,    0.0104167 ]
  weight: 48   
  band:
  - # 1
    frequency:     1.5762164291
  - # 2
    frequency:     1.5880289813
  - # 3
    frequency:     2.3970296379
  - # 4
    frequency:     2.4059802181
  - # 5
    frequency:     3.0024232516
  - # 6
    frequency:     3.0073268704
  - # 7
    frequency:     3.1178488495
  - # 8
    frequency:     3.7762804989
  - # 9
    frequency:     3.7916877409
  - # 10
    frequency:     4.3284173215
  - # 11
    frequency:     4.4797670577
  - # 12
    frequency:     4.4861736036

- q-position: [    0.4062500,    0.0312500,    0.0104167 ]
  weight: 48   
  band:
  - # 1
    frequency:     1.6580636413
  - # 2
    frequency:     1.6692796936
  - # 3
    frequency:     2.3316897148
  - # 4
    frequency:     2.3406529105
  - # 5
    frequency:     3.0018486976
  - # 6
    frequency:     3.0059019280
  - # 7
    frequency:     3.2516100879
  - # 8
    frequency:     3.8414557273
  - # 9
    frequency:     3.8559820340
  - # 10
    frequency:     4.2428180269
  - # 11
    frequency:     4.4207982225
  - # 12
    frequency:     4.4279174865

- q-position: [    0.4270833,    0.0312500,    0.0104167 ]
  weight: 48   
  band:
  - # 1
    frequency:     1.7388523263
  - # 2
    frequency:     1.7495596610
  - # 3
    frequency:     2.2640675293
  - # 4
    frequency:     2.2730768922
  - # 5
    frequency:     3.0014661109
  - # 6
    frequency:     3.0046441181
  - # 7
    frequency:     3.3808728653
  - # 8
    frequency:     3.9071723381
  - # 9
    frequency:     3.9208183769
  - # 10
    frequency:     4.1522677420
  - # 11
    frequency:     4.3601549217
  - # 12
    frequency:     4.3680137596

- q-position: [    0.4479167,    0.0312500,    0.0104167 ]
  weight: 48   
  band:
  - # 1
    frequency:     1.8184636396
  - # 2
    frequency:     1.8287417832
  - # 3
    frequency:     2.1943081325
  - # 4
    frequency:     2.2034021211
  - # 5
    frequency:     3.0012860571
  - # 6
    frequency:     3.0035696719
  - # 7
    frequency:     3.5055222645
  - # 8
    frequency:     3.9731398233
  - # 9
    frequency:     3.9859093740
  - # 10
    frequency:     4.0567597303
  - # 11
    frequency:     4.2980578592
  - # 12
    frequency:     4.3066798753

- q-position: [    0.4687500,    0.0312500,    0.0104167 ]
  weight: 48   
  band:
  - # 1
    frequency:     1.8967724548
  - # 2
    frequency:     1.9066937306
  - # 3
    frequency:     2.1225563244
  - # 4
    frequency:     2.1317784768
  - # 5
    frequency:     3.0013160632
  - # 6
    frequency:     3.0026916631
  - # 7
    frequency:     3.6254612670
  - # 8
    frequency:     3.9562993955
  - # 9
    frequency:     4.0390566771
  - # 10
    frequency:     4.0509495718
  - # 11
    frequency:     4.2347627824
  - # 12
    frequency:     4.2441616843

- q-position: [    0.4895833,    0.0312500,    0.0104167 ]
  weight: 48   
  band:
  - # 1
    frequency:     1.9736482143
  - # 2
    frequency:     1.9832784704
  - # 3
    frequency:     2.0489557862
  - # 4
    frequency:     2.0583548862
  - # 5
    frequency:     3.0015603790
  - # 6
    frequency:     3.0020198163
  - # 7
    frequency:     3.7406100526
  - # 8
    frequency:     3.8509052904
  - # 9
    frequency:     4.1044468906
  - # 10
    frequency:     4.1153142921
  - # 11
    frequency:     4.1708619582
  - # 12
    frequency:     4.1808971224

- q-position: [    0.0520833,    0.0520833,    0.0104167 ]
  weight: 24   
  band:
  - # 1
    frequency:     0.2056301614
  - # 2
    frequency:     0.3040346447
  - # 3
    frequency:     0.6967193415
  - # 4
    frequency:     3.0199344266
  - # 5
    frequency:     3.0248749407
  - # 6
    frequency:     3.0248749407
  - # 7
    frequency:     3.0467540236
  - # 8
    frequency:     3.0467540236
  - # 9
    frequency:     3.0907971048
  - # 10
    frequency:     5.0512016103
  - # 11
    frequency:     5.0512016103
  - # 12
    frequency:     5.0520742927

- q-position: [    0.0729167,    0.0520833,    0.0104167 ]
  weight: 48   
  band:
  - # 1
    frequency:     0.2628832129
  - # 2
    frequency:     0.3708315983
  - # 3
    frequency:     0.8384930298
  - # 4
    frequency:     3.0126996657
  - # 5
    frequency:     3.0127015259
  - # 6
    frequency:     3.0239497473
  - # 7
    frequency:     3.0345849997
  - # 8
    frequency:     3.0625819879
  - # 9
    frequency:     3.1126102082
  - # 10
    frequency:     5.0389571957
  - # 11
    frequency:     5.0402672993
  - # 12
    frequency:     5.0407644235

- q-position: [    0.0937500,    0.0520833,    0.0104167 ]
  weight: 48   
  band:
  - # 1
    frequency:     0.3410056566
  - # 2
    frequency:     0.4445500101
  - # 3
    frequency:     0.9898188315
  - # 4
    frequency:     2.9965187704
  - # 5
    frequency:     3.0066688151
  - # 6
    frequency:     3.0184145425
  - # 7
    frequency:     3.0228378540
  - # 8
    frequency:     3.0833814254
  - # 9
    frequency:     3.1379169266
  - # 10
    frequency:     5.0225901001
  - # 11
    frequency:     5.0257389855
  - # 12
    frequency:     5.0257415145

- q-position: [    0.1145833,    0.0520833,    0.0104167 ]
  weight: 48   
  band:
  - # 1
    frequency:     0.4270651770
  - # 2
    frequency:     0.5222418835
  - # 3
    frequency:     1.1467729837
  - # 4
    frequency:     2.9763770960
  - # 5
    frequency:     2.9982892449
  - # 6
    frequency:     3.0016534283
  - # 7
    frequency:     3.0215149974
  - # 8
    frequency:     3.1090257398
  - # 9
    frequency:     3.1667623702
  - # 10
    frequency:     5.0020660779
  - # 11
    frequency:     5.0070444631
  - # 12
    frequency:     5.0076698047

- q-position: [    0.1354167,    0.0520833,    0.0104167 ]
  weight: 48   
  band:
  - # 1
    frequency:     0.5159342355