  32  32   0   0
  0.1548436E+02  0.7913121E-09  0.7913121E-09  0.7913121E-09  0.5000000E-15
  1.000000000000000E-004
  CAR 
 unknown system                          
     13.39684690     -3.67820676  301      8.68035010      1.00000000
     -3.678  0.0000E+00  0.0000E+00
     -3.621  0.0000E+00  0.0000E+00
     -3.564  0.0000E+00  0.0000E+00
     -3.507  0.0000E+00  0.0000E+00
     -3.451  0.0000E+00  0.0000E+00
     -3.394  0.0000E+00  0.0000E+00
     -3.337  0.0000E+00  0.0000E+00
     -3.280  0.0000E+00  0.0000E+00
     -3.223  0.0000E+00  0.0000E+00
     -3.166  0.0000E+00  0.0000E+00
     -3.109  0.0000E+00  0.0000E+00
     -3.052  0.0000E+00  0.0000E+00
     -2.995  0.0000E+00  0.0000E+00
     -2.938  0.2456E-07  0.1398E-08
     -2.881  0.1624E+00  0.9243E-02
     -2.824  0.9322E+00  0.6230E-01
     -2.768  0.1367E+01  0.1401E+00
     -2.711  0.9187E+00  0.1924E+00
     -2.654  0.1036E+01  0.2513E+00
     -2.597  0.9557E+00  0.3057E+00
     -2.540  0.3902E+01  0.5278E+00
     -2.483  0.3904E+01  0.7500E+00
     -2.426  0.8823E-11  0.7500E+00
     -2.369  0.1738E+01  0.8489E+00
     -2.312  0.2713E+01  0.1003E+01
     -2.255  0.2867E+01  0.1166E+01
     -2.198  0.3458E+01  0.1363E+01
     -2.141  0.3866E+01  0.1583E+01
     -2.085  0.1301E+01  0.1657E+01
     -2.028  0.3903E+01  0.1880E+01
     -1.971  0.7685E+01  0.2317E+01
     -1.914  0.1238E+00  0.2324E+01
     -1.857  0.4208E+00  0.2348E+01
     -1.800  0.1275E+01  0.2421E+01
     -1.743  0.7128E+01  0.2826E+01
     -1.686  0.5818E+01  0.3157E+01
     -1.629  0.3904E+01  0.3380E+01
     -1.572  0.3902E+01  0.3602E+01
     -1.515  0.7670E+01  0.4038E+01
     -1.458  0.3385E+01  0.4231E+01
     -1.402  0.6597E+00  0.4269E+01
     -1.345  0.4093E+00  0.4292E+01
     -1.288  0.3536E+01  0.4493E+01
     -1.231  0.4842E+01  0.4769E+01
     -1.174  0.1171E+02  0.5435E+01
     -1.117  0.5203E+01  0.5731E+01
     -1.060  0.1581E-02  0.5731E+01
     -1.003  0.1030E+02  0.6317E+01
     -0.946  0.5606E+01  0.6637E+01
     -0.889  0.3620E+01  0.6843E+01
     -0.832  0.3468E-01  0.6845E+01
     -0.775  0.1924E+01  0.6954E+01
     -0.719  0.7803E+01  0.7398E+01
     -0.662  0.7808E+01  0.7843E+01
     -0.605  0.7775E+01  0.8285E+01
     -0.548  0.4634E+01  0.8549E+01
     -0.491  0.3054E+01  0.8723E+01
     -0.434  0.4722E+01  0.8991E+01
     -0.377  0.8121E+01  0.9454E+01
     -0.320  0.2197E-01  0.9455E+01
     -0.263  0.3885E+01  0.9676E+01
     -0.206  0.1561E+02  0.1056E+02
     -0.149  0.7805E+01  0.1101E+02
     -0.092  0.3853E+01  0.1123E+02
     -0.036  0.3538E+01  0.1143E+02
      0.021  0.7175E+01  0.1184E+02
      0.078  0.6624E+01  0.1222E+02
      0.135  0.6141E+01  0.1256E+02
      0.192  0.2404E-02  0.1256E+02
      0.249  0.1300E+01  0.1264E+02
      0.306  0.8784E+01  0.1314E+02
      0.363  0.1365E+02  0.1392E+02
      0.420  0.7675E+01  0.1435E+02
      0.477  0.3528E+01  0.1455E+02
      0.534  0.7151E+01  0.1496E+02
      0.591  0.8395E+01  0.1544E+02
      0.647  0.1231E+02  0.1614E+02
      0.704  0.2187E-01  0.1614E+02
      0.761  0.7787E+01  0.1658E+02
      0.818  0.7808E+01  0.1703E+02
      0.875  0.3903E+01  0.1725E+02
      0.932  0.1157E+02  0.1791E+02
      0.989  0.1441E+00  0.1792E+02
      1.046  0.7403E+01  0.1834E+02
      1.103  0.8838E+01  0.1884E+02
      1.160  0.1109E+02  0.1947E+02
      1.217  0.1384E-01  0.1947E+02
      1.274  0.9712E+00  0.1953E+02
      1.330  0.1561E+02  0.2042E+02
      1.387  0.1562E+02  0.2131E+02
      1.444  0.3892E+01  0.2153E+02
      1.501  0.7584E+01  0.2196E+02
      1.558  0.1347E+02  0.2273E+02
      1.615  0.6063E+01  0.2307E+02
      1.672  0.4130E+01  0.2331E+02
      1.729  0.3235E+00  0.2332E+02
      1.786  0.5572E+01  0.2364E+02
      1.843  0.7775E+01  0.2408E+02
      1.900  0.1952E+02  0.2519E+02
      1.957  0.9107E+01  0.2571E+02
      2.013  0.3883E+01  0.2593E+02
      2.070  0.1506E+02  0.2679E+02
      2.127  0.6855E+01  0.2718E+02
      2.184  0.1539E+01  0.2727E+02
      2.241  0.9908E+00  0.2732E+02
      2.298  0.3959E+01  0.2755E+02
      2.355  0.1575E+02  0.2845E+02
      2.412  0.7632E+01  0.2888E+02
      2.469  0.1169E+02  0.2955E+02
      2.526  0.7808E+01  0.2999E+02
      2.583  0.7797E+01  0.3043E+02
      2.640  0.1924E+02  0.3153E+02
      2.696  0.2932E+00  0.3155E+02
      2.753  0.2677E+01  0.3170E+02
      2.810  0.1116E+02  0.3233E+02
      2.867  0.1703E+02  0.3330E+02
      2.924  0.1690E+02  0.3426E+02
      2.981  0.6898E+01  0.3466E+02
      3.038  0.2189E-02  0.3466E+02
      3.095  0.7808E+01  0.3510E+02
      3.152  0.1561E+02  0.3599E+02
      3.209  0.3827E-07  0.3599E+02
      3.266  0.3873E+01  0.3621E+02
      3.323  0.7708E+01  0.3665E+02
      3.379  0.1450E+02  0.3748E+02
      3.436  0.1044E+02  0.3807E+02
      3.493  0.5990E+01  0.3841E+02
      3.550  0.1039E+02  0.3900E+02
      3.607  0.2251E+02  0.4028E+02
      3.664  0.5599E+01  0.4060E+02
      3.721  0.3530E+00  0.4062E+02
      3.778  0.1152E+02  0.4128E+02
      3.835  0.1596E+02  0.4219E+02
      3.892  0.1186E+02  0.4286E+02
      3.949  0.1321E+02  0.4361E+02
      4.006  0.6315E+01  0.4397E+02
      4.062  0.1149E+02  0.4463E+02
      4.119  0.1359E+02  0.4540E+02
      4.176  0.2298E+01  0.4553E+02
      4.233  0.4505E+01  0.4579E+02
      4.290  0.6764E+01  0.4617E+02
      4.347  0.1624E+02  0.4710E+02
      4.404  0.8848E+01  0.4760E+02
      4.461  0.7327E+01  0.4802E+02
      4.518  0.3834E+01  0.4823E+02
      4.575  0.1950E+02  0.4934E+02
      4.632  0.1556E+02  0.5023E+02
      4.689  0.7599E+01  0.5066E+02
      4.745  0.1291E+02  0.5140E+02
      4.802  0.1163E+02  0.5206E+02
      4.859  0.6563E+01  0.5243E+02
      4.916  0.3257E+01  0.5262E+02
      4.973  0.5518E+01  0.5293E+02
      5.030  0.1846E+02  0.5398E+02
      5.087  0.1090E+02  0.5460E+02
      5.144  0.1785E+02  0.5562E+02
      5.201  0.2042E+00  0.5563E+02
      5.258  0.8480E+01  0.5611E+02
      5.315  0.1672E+02  0.5707E+02
      5.372  0.2339E+02  0.5840E+02
      5.428  0.1563E+02  0.5929E+02
      5.485  0.3870E+01  0.5951E+02
      5.542  0.7843E+01  0.5995E+02
      5.599  0.6744E+01  0.6034E+02
      5.656  0.5022E+01  0.6062E+02
      5.713  0.1399E+02  0.6142E+02
      5.770  0.2227E+02  0.6269E+02
      5.827  0.1307E+02  0.6343E+02
      5.884  0.8119E+01  0.6389E+02
      5.941  0.1812E+02  0.6492E+02
      5.998  0.8805E+01  0.6543E+02
      6.055  0.6491E+00  0.6546E+02
      6.111  0.1485E+02  0.6631E+02
      6.168  0.1227E+02  0.6701E+02
      6.225  0.7387E+01  0.6743E+02
      6.282  0.1182E+02  0.6810E+02
      6.339  0.1662E+02  0.6905E+02
      6.396  0.1826E+02  0.7009E+02
      6.453  0.9266E+00  0.7014E+02
      6.510  0.1212E+02  0.7083E+02
      6.567  0.7786E+01  0.7127E+02
      6.624  0.1718E+02  0.7225E+02
      6.681  0.1994E+01  0.7236E+02
      6.738  0.1933E+02  0.7346E+02
      6.794  0.7722E+01  0.7390E+02
      6.851  0.2413E+02  0.7528E+02
      6.908  0.1134E+02  0.7592E+02
      6.965  0.8212E+01  0.7639E+02
      7.022  0.2225E-07  0.7639E+02
      7.079  0.1061E+01  0.7645E+02
      7.136  0.1575E+02  0.7735E+02
      7.193  0.1176E+02  0.7802E+02
      7.250  0.9721E+01  0.7857E+02
      7.307  0.2235E+02  0.7984E+02
      7.364  0.1136E+02  0.8049E+02
      7.421  0.8521E+01  0.8097E+02
      7.477  0.3899E+01  0.8119E+02
      7.534  0.2664E+02  0.8271E+02
      7.591  0.4650E+01  0.8298E+02
      7.648  0.1806E+02  0.8400E+02
      7.705  0.1117E+02  0.8464E+02
      7.762  0.6584E+01  0.8501E+02
      7.819  0.1423E+02  0.8582E+02
      7.876  0.8563E+01  0.8631E+02
      7.933  0.1156E+02  0.8697E+02
      7.990  0.1848E+02  0.8802E+02
      8.047  0.1211E+02  0.8871E+02
      8.104  0.1228E+02  0.8941E+02
      8.160  0.3607E+01  0.8962E+02
      8.217  0.3346E+01  0.8981E+02
      8.274  0.3368E+01  0.9000E+02
      8.331  0.2034E+02  0.9116E+02
      8.388  0.1561E+02  0.9204E+02
      8.445  0.1337E+02  0.9281E+02
      8.502  0.1499E+02  0.9366E+02
      8.559  0.1537E+02  0.9453E+02
      8.616  0.2193E+02  0.9578E+02
      8.673  0.1029E+01  0.9584E+02
      8.730  0.2385E+02  0.9720E+02
      8.787  0.1941E+02  0.9830E+02
      8.843  0.4263E+01  0.9855E+02
      8.900  0.1140E+02  0.9919E+02
      8.957  0.2265E+01  0.9932E+02
      9.014  0.1765E+02  0.1003E+03
      9.071  0.5443E+01  0.1006E+03
      9.128  0.1112E+02  0.1013E+03
      9.185  0.1103E+02  0.1019E+03
      9.242  0.1227E+02  0.1026E+03
      9.299  0.2128E+02  0.1038E+03
      9.356  0.1212E+02  0.1045E+03
      9.413  0.7699E+01  0.1049E+03
      9.470  0.9752E+01  0.1055E+03
      9.527  0.9337E+01  0.1060E+03
      9.583  0.7162E+01  0.1064E+03
      9.640  0.2104E+02  0.1076E+03
      9.697  0.2764E+02  0.1092E+03
      9.754  0.1212E+02  0.1099E+03
      9.811  0.1735E+02  0.1109E+03
      9.868  0.6650E+01  0.1113E+03
      9.925  0.2709E+02  0.1128E+03
      9.982  0.9005E+01  0.1133E+03
     10.039  0.1116E+02  0.1139E+03
     10.096  0.2483E+01  0.1141E+03
     10.153  0.1387E+02  0.1149E+03
     10.210  0.2074E+02  0.1161E+03
     10.266  0.7609E+01  0.1165E+03
     10.323  0.2724E+01  0.1166E+03
     10.380  0.1321E+02  0.1174E+03
     10.437  0.1853E+02  0.1185E+03
     10.494  0.1421E+02  0.1193E+03
     10.551  0.1192E+02  0.1199E+03
     10.608  0.4018E+01  0.1202E+03
     10.665  0.2667E+02  0.1217E+03
     10.722  0.2777E+02  0.1233E+03
     10.779  0.1715E+00  0.1233E+03
     10.836  0.1511E+02  0.1241E+03
     10.893  0.2644E+02  0.1256E+03
     10.949  0.9312E+01  0.1262E+03
     11.006  0.1032E+02  0.1268E+03
     11.063  0.1700E+00  0.1268E+03
     11.120  0.1027E+02  0.1274E+03
     11.177  0.1102E+02  0.1280E+03
     11.234  0.2333E+02  0.1293E+03
     11.291  0.2978E+01  0.1295E+03
     11.348  0.1658E+02  0.1304E+03
     11.405  0.1732E+02  0.1314E+03
     11.462  0.2594E+02  0.1329E+03
     11.519  0.2843E+01  0.1330E+03
     11.576  0.1516E+02  0.1339E+03
     11.632  0.1616E+02  0.1348E+03
     11.689  0.6284E+01  0.1352E+03
     11.746  0.3030E+02  0.1369E+03
     11.803  0.1106E+02  0.1375E+03
     11.860  0.1925E+02  0.1386E+03
     11.917  0.4175E+01  0.1389E+03
     11.974  0.1314E+02  0.1396E+03
     12.031  0.3816E+01  0.1398E+03
     12.088  0.1349E+02  0.1406E+03
     12.145  0.1367E+02  0.1414E+03
     12.202  0.1635E+02  0.1423E+03
     12.259  0.7616E+01  0.1427E+03
     12.315  0.1813E+00  0.1428E+03
     12.372  0.1170E+02  0.1434E+03
     12.429  0.3501E+00  0.1434E+03
     12.486  0.3596E+01  0.1437E+03
     12.543  0.1265E+01  0.1437E+03
     12.600  0.2912E+01  0.1439E+03
     12.657  0.1969E+01  0.1440E+03
     12.714  0.0000E+00  0.1440E+03
     12.771  0.0000E+00  0.1440E+03
     12.828  0.0000E+00  0.1440E+03
     12.885  0.0000E+00  0.1440E+03
     12.942  0.0000E+00  0.1440E+03
     12.998  0.0000E+00  0.1440E+03
     13.055  0.0000E+00  0.1440E+03
     13.112  0.0000E+00  0.1440E+03
     13.169  0.0000E+00  0.1440E+03
     13.226  0.0000E+00  0.1440E+03
     13.283  0.0000E+00  0.1440E+03
     13.340  0.0000E+00  0.1440E+03
     13.397  0.0000E+00  0.1440E+03
