 vasp.4.6.28 25Jul05 complex 
 executed on             LinuxIFC date 2016.10.19  17:38:55
 running on    8 nodes
 distr:  one band on    1 nodes,    8 groups


--------------------------------------------------------------------------------------------------------


 INCAR:
 POTCAR:   PAW_PBE Al 04Jan2001                   
 POTCAR:   PAW_PBE Al 04Jan2001                   
   VRHFIN =Al: s2p1                                                             
   LEXCH  = PE                                                                  
   EATOM  =    53.5387 eV,    3.9350 Ry                                         
                                                                                
   TITEL  = PAW_PBE Al 04Jan2001                                                
   LULTRA =        F    use ultrasoft PP ?                                      
   IUNSCR =        1    unscreen: 0-lin 1-nonlin 2-no                           
   RPACOR =    1.500    partial core radius                                     
   POMASS =   26.982; ZVAL   =    3.000    mass and valenz                      
   RCORE  =    1.900    outmost cutoff radius                                   
   RWIGS  =    2.650; RWIGS  =    1.402    wigner-seitz radius (au A)           
   ENMAX  =  240.300; ENMIN  =  180.225 eV                                      
   ICORE  =        2    local potential                                         
   LCOR   =        T    correct aug charges                                     
   LPAW   =        T    paw PP                                                  
   EAUG   =  291.052                                                            
   DEXC   =    -.041                                                            
   RMAX   =    2.974    core radius for proj-oper                               
   RAUG   =    1.300    factor for augmentation sphere                          
   RDEP   =    1.966    radius for radial grids                                 
   QCUT   =   -4.203; QGAM   =    8.405    optimization parameters              
                                                                                
   Description                                                                  
     l     E      TYP  RCUT    TYP  RCUT                                        
     0   .000     23  1.900                                                     
     0   .000     23  1.900                                                     
     1   .000     23  1.900                                                     
     1  1.000     23  1.900                                                     
     2   .000      7  1.900                                                     
  local pseudopotential read in
  partial core-charges read in
  atomic valenz-charges read in
  non local Contribution for L=           0  read in
    real space projection operators read in
  non local Contribution for L=           0  read in
    real space projection operators read in
  non local Contribution for L=           1  read in
    real space projection operators read in
  non local Contribution for L=           1  read in
    real space projection operators read in
    PAW grid and wavefunctions read in
 
   number of l-projection  operators is LMAX  =           4
   number of lm-projection operators is LMMAX =           8
 

 ----------------------------------------------------------------------------- 
|                                                                             |
|  ADVICE TO THIS USER RUNNING 'VASP/VAMP'   (HEAR YOUR MASTER'S VOICE ...):  |
|                                                                             |
|      You have a (more or less) 'large supercell' and for larger cells       |
|      it might be more efficient to use real space projection operators      |
|      So try LREAL= Auto  in the INCAR   file.                               |
|      Mind: If you want to do an extremely accurate calculations keep the    |
|      reciprocal projection scheme          (i.e. LREAL=.FALSE.)             |
|                                                                             |
 ----------------------------------------------------------------------------- 

 PAW_PBE Al 04Jan2001                   :
 energy of atom  1       EATOM=  -53.5387
 kinetic energy error for atom=    0.0003 (will be added to EATOM!!)
 
 EXHCAR: internal setup
 exchange correlation table for  LEXCH =        8
   RHO(1)=    0.500       N(1)  =     2000
   RHO(2)=  100.500       N(2)  =     4000
 
 POSCAR: Al                                      
  positions in direct lattice
  No initial velocities read in
 


--------------------------------------------------------------------------------------------------------


 ion  position               nearest neighbor table
   1  0.251  0.250  0.000-  18 2.79  22 2.79  26 2.79  28 2.79   9 2.80  11 2.80  13 2.80  15 2.80
                            25 2.80  21 2.80  27 2.80  17 2.80
   2  0.750  0.250  0.000-  10 2.80  12 2.80  14 2.80  16 2.80  17 2.80  18 2.80  21 2.80  22 2.80
                            25 2.80  26 2.80  27 2.80  28 2.80
   3  0.250  0.750  0.000-   9 2.80  11 2.80  13 2.80  15 2.80  19 2.80  20 2.80  23 2.80  24 2.80
                            25 2.80  26 2.80  27 2.80  28 2.80
   4  0.750  0.750  0.000-  10 2.80  12 2.80  14 2.80  16 2.80  19 2.80  20 2.80  23 2.80  24 2.80
                            25 2.80  26 2.80  27 2.80  28 2.80
   5  0.250  0.250  0.500-   9 2.80  11 2.80  13 2.80  15 2.80  17 2.80  18 2.80  21 2.80  22 2.80
                            29 2.80  30 2.80  31 2.80  32 2.80
   6  0.750  0.250  0.500-  10 2.80  12 2.80  14 2.80  16 2.80  17 2.80  18 2.80  21 2.80  22 2.80
                            29 2.80  30 2.80  31 2.80  32 2.80
   7  0.250  0.750  0.500-   9 2.80  11 2.80  13 2.80  15 2.80  19 2.80  20 2.80  23 2.80  24 2.80
                            29 2.80  30 2.80  31 2.80  32 2.80
   8  0.750  0.750  0.500-  10 2.80  12 2.80  14 2.80  16 2.80  19 2.80  20 2.80  23 2.80  24 2.80
                            29 2.80  30 2.80  31 2.80  32 2.80
   9  0.250  0.000  0.250-   3 2.80   5 2.80   7 2.80  17 2.80  18 2.80  19 2.80  20 2.80  25 2.80
                            26 2.80  29 2.80  30 2.80   1 2.80
  10  0.750  0.000  0.250-   2 2.80   4 2.80   6 2.80   8 2.80  17 2.80  18 2.80  19 2.80  20 2.80
                            25 2.80  26 2.80  29 2.80  30 2.80
  11  0.250  0.500  0.250-   3 2.80   5 2.80   7 2.80  17 2.80  18 2.80  19 2.80  20 2.80  27 2.80
                            28 2.80  31 2.80  32 2.80   1 2.80
  12  0.750  0.500  0.250-   2 2.80   4 2.80   6 2.80   8 2.80  17 2.80  18 2.80  19 2.80  20 2.80
                            27 2.80  28 2.80  31 2.80  32 2.80
  13  0.250  0.000  0.750-   3 2.80   5 2.80   7 2.80  21 2.80  22 2.80  23 2.80  24 2.80  25 2.80
                            26 2.80  29 2.80  30 2.80   1 2.80
  14  0.750  0.000  0.750-   2 2.80   4 2.80   6 2.80   8 2.80  21 2.80  22 2.80  23 2.80  24 2.80
                            25 2.80  26 2.80  29 2.80  30 2.80
  15  0.250  0.500  0.750-   3 2.80   5 2.80   7 2.80  21 2.80  22 2.80  23 2.80  24 2.80  27 2.80
                            28 2.80  31 2.80  32 2.80   1 2.80
  16  0.750  0.500  0.750-   2 2.80   4 2.80   6 2.80   8 2.80  21 2.80  22 2.80  23 2.80  24 2.80
                            27 2.80  28 2.80  31 2.80  32 2.80
  17  0.000  0.250  0.250-   2 2.80   5 2.80   6 2.80   9 2.80  10 2.80  11 2.80  12 2.80  25 2.80
                            27 2.80  29 2.80  31 2.80   1 2.80
  18  0.500  0.250  0.250-   1 2.79   2 2.80   5 2.80   6 2.80   9 2.80  10 2.80  11 2.80  12 2.80
                            26 2.80  28 2.80  30 2.80  32 2.80
  19  0.000  0.750  0.250-   3 2.80   4 2.80   7 2.80   8 2.80   9 2.80  10 2.80  11 2.80  12 2.80
                            25 2.80  27 2.80  29 2.80  31 2.80
  20  0.500  0.750  0.250-   3 2.80   4 2.80   7 2.80   8 2.80   9 2.80  10 2.80  11 2.80  12 2.80
                            26 2.80  28 2.80  30 2.80  32 2.80
  21  0.000  0.250  0.750-   2 2.80   5 2.80   6 2.80  13 2.80  14 2.80  15 2.80  16 2.80  25 2.80
                            27 2.80  29 2.80  31 2.80   1 2.80
  22  0.500  0.250  0.750-   1 2.79   2 2.80   5 2.80   6 2.80  13 2.80  14 2.80  15 2.80  16 2.80
                            26 2.80  28 2.80  30 2.80  32 2.80
  23  0.000  0.750  0.750-   3 2.80   4 2.80   7 2.80   8 2.80  13 2.80  14 2.80  15 2.80  16 2.80
                            25 2.80  27 2.80  29 2.80  31 2.80
  24  0.500  0.750  0.750-   3 2.80   4 2.80   7 2.80   8 2.80  13 2.80  14 2.80  15 2.80  16 2.80
                            26 2.80  28 2.80  30 2.80  32 2.80
  25  0.000  0.000  0.000-   2 2.80   3 2.80   4 2.80   9 2.80  10 2.80  13 2.80  14 2.80  17 2.80
                            19 2.80  21 2.80  23 2.80   1 2.80
  26  0.500  0.000  0.000-   1 2.79   2 2.80   3 2.80   4 2.80   9 2.80  10 2.80  13 2.80  14 2.80
                            18 2.80  20 2.80  22 2.80  24 2.80
  27  0.000  0.500  0.000-   2 2.80   3 2.80   4 2.80  11 2.80  12 2.80  15 2.80  16 2.80  17 2.80
                            19 2.80  21 2.80  23 2.80   1 2.80
  28  0.500  0.500  0.000-   1 2.79   2 2.80   3 2.80   4 2.80  11 2.80  12 2.80  15 2.80  16 2.80
                            18 2.80  20 2.80  22 2.80  24 2.80
  29  0.000  0.000  0.500-   5 2.80   6 2.80   7 2.80   8 2.80   9 2.80  10 2.80  13 2.80  14 2.80
                            17 2.80  19 2.80  21 2.80  23 2.80
  30  0.500  0.000  0.500-   5 2.80   6 2.80   7 2.80   8 2.80   9 2.80  10 2.80  13 2.80  14 2.80
                            18 2.80  20 2.80  22 2.80  24 2.80
  31  0.000  0.500  0.500-   5 2.80   6 2.80   7 2.80   8 2.80  11 2.80  12 2.80  15 2.80  16 2.80
                            17 2.80  19 2.80  21 2.80  23 2.80
  32  0.500  0.500  0.500-   5 2.80   6 2.80   7 2.80   8 2.80  11 2.80  12 2.80  15 2.80  16 2.80
                            18 2.80  20 2.80  22 2.80  24 2.80
 
  LATTYP: Found a simple cubic cell.
 ALAT       =     7.9131204846
  
  Lattice vectors:
  
 A1 = (   7.9131204846,   0.0000000000,   0.0000000000)
 A2 = (   0.0000000000,   7.9131204846,   0.0000000000)
 A3 = (   0.0000000000,   0.0000000000,   7.9131204846)
 Subroutine PRICEL returns:
 Original cell was already a primitive cell.
 

Analysis of symmetry for initial positions (statically):

 Routine SETGRP: Setting up the symmetry group for a 
 simple cubic supercell.


 Subroutine GETGRP returns: Found  8 space group operations
 (whereof  2 operations were pure point group operations)
 out of a pool of 48 trial point group operations.


The static configuration has the point symmetry C_1h.
 The point group associated with its full space group is C_4v.

Analysis of symmetry for dynamics (positions and initial velocities):

 Subroutine DYNSYM returns: Found  8 space group operations
 (whereof  2 operations were pure point group operations)
 out of a pool of  8 trial space group operations
 (whereof  2 operations were pure point group operations)
 and found also     1 'primitive' translations


The dynamic configuration has the point symmetry C_1h.
 The point group associated with its full space group is C_4v.
 
 
 KPOINTS: Automatic mesh                          

Automatic generation of k-mesh.
 generate k-points for:   6   6   6
 
 Subroutine IBZKPT returns following result:
 ===========================================
 
 Found     40 irreducible k-points:
 
 Following reciprocal coordinates:
            Coordinates               Weight
  0.000000  0.000000  0.000000      1.000000
  0.166667  0.000000  0.000000      2.000000
  0.333333  0.000000  0.000000      2.000000
  0.500000  0.000000  0.000000      1.000000
  0.000000  0.166667  0.000000      4.000000
  0.166667  0.166667  0.000000      8.000000
  0.333333  0.166667  0.000000      8.000000
  0.500000  0.166667  0.000000      4.000000
  0.000000  0.333333  0.000000      4.000000
  0.166667  0.333333  0.000000      8.000000
  0.333333  0.333333  0.000000      8.000000
  0.500000  0.333333  0.000000      4.000000
  0.000000  0.500000  0.000000      2.000000
  0.166667  0.500000  0.000000      4.000000
  0.333333  0.500000  0.000000      4.000000
  0.500000  0.500000  0.000000      2.000000
  0.000000  0.166667  0.166667      4.000000
  0.166667  0.166667  0.166667      8.000000
  0.333333  0.166667  0.166667      8.000000
  0.500000  0.166667  0.166667      4.000000
  0.000000  0.333333  0.166667      8.000000
  0.166667  0.333333  0.166667     16.000000
  0.333333  0.333333  0.166667     16.000000
  0.500000  0.333333  0.166667      8.000000
  0.000000  0.500000  0.166667      4.000000
  0.166667  0.500000  0.166667      8.000000
  0.333333  0.500000  0.166667      8.000000
  0.500000  0.500000  0.166667      4.000000
  0.000000  0.333333  0.333333      4.000000
  0.166667  0.333333  0.333333      8.000000
  0.333333  0.333333  0.333333      8.000000
  0.500000  0.333333  0.333333      4.000000
  0.000000  0.500000  0.333333      4.000000
  0.166667  0.500000  0.333333      8.000000
  0.333333  0.500000  0.333333      8.000000
  0.500000  0.500000  0.333333      4.000000
  0.000000  0.500000  0.500000      1.000000
  0.166667  0.500000  0.500000      2.000000
  0.333333  0.500000  0.500000      2.000000
  0.500000  0.500000  0.500000      1.000000
 
 Following cartesian coordinates:
            Coordinates               Weight
  0.000000  0.000000  0.000000      1.000000
  0.021062  0.000000  0.000000      2.000000
  0.042124  0.000000  0.000000      2.000000
  0.063186  0.000000  0.000000      1.000000
  0.000000  0.021062  0.000000      4.000000
  0.021062  0.021062  0.000000      8.000000
  0.042124  0.021062  0.000000      8.000000
  0.063186  0.021062  0.000000      4.000000
  0.000000  0.042124  0.000000      4.000000
  0.021062  0.042124  0.000000      8.000000
  0.042124  0.042124  0.000000      8.000000
  0.063186  0.042124  0.000000      4.000000
  0.000000  0.063186  0.000000      2.000000
  0.021062  0.063186  0.000000      4.000000
  0.042124  0.063186  0.000000      4.000000
  0.063186  0.063186  0.000000      2.000000
  0.000000  0.021062  0.021062      4.000000
  0.021062  0.021062  0.021062      8.000000
  0.042124  0.021062  0.021062      8.000000
  0.063186  0.021062  0.021062      4.000000
  0.000000  0.042124  0.021062      8.000000
  0.021062  0.042124  0.021062     16.000000
  0.042124  0.042124  0.021062     16.000000
  0.063186  0.042124  0.021062      8.000000
  0.000000  0.063186  0.021062      4.000000
  0.021062  0.063186  0.021062      8.000000
  0.042124  0.063186  0.021062      8.000000
  0.063186  0.063186  0.021062      4.000000
  0.000000  0.042124  0.042124      4.000000
  0.021062  0.042124  0.042124      8.000000
  0.042124  0.042124  0.042124      8.000000
  0.063186  0.042124  0.042124      4.000000
  0.000000  0.063186  0.042124      4.000000
  0.021062  0.063186  0.042124      8.000000
  0.042124  0.063186  0.042124      8.000000
  0.063186  0.063186  0.042124      4.000000
  0.000000  0.063186  0.063186      1.000000
  0.021062  0.063186  0.063186      2.000000
  0.042124  0.063186  0.063186      2.000000
  0.063186  0.063186  0.063186      1.000000
 


--------------------------------------------------------------------------------------------------------




 Dimension of arrays:
   k-Points           NKPTS =     40   number of bands    NBANDS=     72
   number of dos      NEDOS =    301   number of ions     NIONS =     32
   non local maximal  LDIM  =      4   non local SUM 2l+1 LMDIM =      8
   total plane-waves  NPLWV = 216000
   max r-space proj   IRMAX =      1   max aug-charges    IRDMAX=  17164
   dimension x,y,z NGX =    60 NGY =   60 NGZ =   60
   dimension x,y,z NGXF=   120 NGYF=  120 NGZF=  120
   support grid    NGXF=   120 NGYF=  120 NGZF=  120
   ions per type =              32
 NGX,Y,Z   is equivalent  to a cutoff of  12.61, 12.61, 12.61 a.u.
 NGXF,Y,Z  is equivalent  to a cutoff of  25.21, 25.21, 25.21 a.u.


 I would recommend the setting:
   dimension x,y,z NGX =    58 NGY =   58 NGZ =   58
 SYSTEM =  unknown system                          
 POSCAR =  Al                                      

 Startparameter for this run:
   NWRITE =      2    write-flag & timer
   PREC   = accura    medium, high low
   ISTART =      0    job   : 0-new  1-cont  2-samecut
   ICHARG =      2    charge: 1-file 2-atom 10-const
   ISPIN  =      1    spin polarized calculation?
   LNONCOLLINEAR =      F non collinear calculations
   LSORBIT =      F    spin-orbit coupling
   INIWAV =      1    electr: 0-lowe 1-rand  2-diag
   LASPH  =      F    aspherical Exc in radial PAW
   METAGGA=      F    non-selfconsistent MetaGGA calc.

 Electronic Relaxation 1
   ENCUT  =  500.0 eV  36.75 Ry    6.06 a.u.  14.43 14.43 14.43*2*pi/ulx,y,z
   ENINI  =  500.0     initial cutoff
   ENAUG  =  291.1 eV  augmentation charge cutoff
   NELM   =     60;   NELMIN=  2; NELMDL=  0     # of ELM steps 
   EDIFF  = 0.1E-07   stopping-criterion for ELM
   LREAL  =      F    real-space projection
   LCOMPAT=      F    compatible to vasp.4.4
   LREAL_COMPAT= F    compatible to vasp.4.5.1-3
   GGA_COMPAT  = T    GGA compatible to vasp.4.4-vasp.4.6
   LMAXPAW     = -100 max onsite density
   LMAXMIX     =    2 max onsite mixed and CHGCAR
   VOSKOWN=      0    Vosko Wilk Nusair interpolation
   ROPT   =    0.00000
 Ionic relaxation
   EDIFFG = 0.1E-06   stopping-criterion for IOM
   NSW    =      0    number of steps for IOM
   NBLOCK =      1;   KBLOCK =      1    inner block; outer block 
   IBRION =     -1    ionic relax: 0-MD 1-quasi-New 2-CG
   NFREE  =      0    steps in history (QN), initial steepest desc. (CG)
   ISIF   =      2    stress and relaxation
   IWAVPR =     10    prediction:  0-non 1-charg 2-wave 3-comb
   ISYM   =      2    0-nonsym 1-usesym 2-fastsym
   LCORR  =      T    Harris-Foulkes like correction to forces

   POTIM  =   0.50    time-step for ionic-motion
   TEIN   =    0.0    initial temperature
   TEBEG  =    0.0;   TEEND  =   0.0 temperature during run
   SMASS  =  -3.00    Nose mass-parameter (am)
   estimated Nose-frequenzy (Omega)   =  0.10E-29 period in steps =****** mass=  -0.143E-26a.u.
   NPACO  =    256;   APACO  = 16.0  distance and # of slots for P.C.
   PSTRESS=    0.0 pullay stress

  Mass of Ions in am
   POMASS =  26.98
  Ionic Valenz
   ZVAL   =   3.00
  Atomic Wigner-Seitz radii
   RWIGS  =  -1.00
   NELECT =      96.0000    total number of electrons
   NUPDOWN=      -1.0000    fix difference up-down

 DOS related values:
   EMIN   =  10.00;   EMAX   =-10.00  energy-range for DOS
   ISMEAR =     0;   SIGMA  =   0.01  broadening in eV -4-tet -1-fermi 0-gaus

 Electronic relaxation 2 (details)
   IALGO  =     38    algorithm
   LDIAG  =      T    sub-space diagonalisation
   IMIX   =      4    mixing-type and parameters
     AMIX     =   0.40;   BMIX     =  1.00
     AMIX_MAG =   1.60;   BMIX_MAG =  1.00
     AMIN     =   0.10
     WC   =   100.;   INIMIX=   1;  MIXPRE=   1

 Intra band minimization:
   WEIMIN = 0.0000     energy-eigenvalue tresh-hold
   EBREAK =  0.38E-10  absolut break condition
   DEPER  =   0.30     relativ break condition  

   TIME   =   0.10     timestep for ELM

  volume/ion in A,a.u.               =      15.48       104.49
  Fermi-wavevector in a.u.,eV,Ry     =   0.947293 12.209368  0.897363

 Second variation
   LSECVAR=     F    do a second variation
 
 Write flags
   LWAVE  =      F    write WAVECAR
   LCHARG =      F    write CHGCAR
   LVTOT  =      F    write LOCPOT, local potential
   LELF   =      F    write electronic localiz. function (ELF)
   LORBIT =      0    0 simple, 1 ext, 2 COOP (PROOUT)


 Dipole corrections
   IDIPOL =      0    1-x, 2-y, 3-z
   LDIPOL =      F    correct potential



--------------------------------------------------------------------------------------------------------


 Static calculation
 charge density will be updated during run
 non-spin polarized calculation
 Variant of blocked Davidson
 Davidson routine will perform the subspace rotation
 performe sub-space diagonalisation
    after iterative eigenvector-optimisation
 modified Broyden-mixing scheme, WC =      100.0
 initial mixing is a Kerker type mixing with AMIX =  0.4000 and BMIX =      1.0000
 Hartree-type preconditioning will be used
 using additional bands           24
 reciprocal scheme for non local part
 use partial core corrections
 calculate Harris-corrections to forces 
   (improved forces if not selfconsistent)
 use gradient corrections 
 use of overlap-Matrix (Vanderbilt PP)
 Gauss-broadening in eV      SIGMA  =   0.01


--------------------------------------------------------------------------------------------------------


  energy-cutoff  :      500.00
  volume of cell :      495.50
      direct lattice vectors                 reciprocal lattice vectors
     7.913120485  0.000000000  0.000000000     0.126372397  0.000000000  0.000000000
     0.000000000  7.913120485  0.000000000     0.000000000  0.126372397  0.000000000
     0.000000000  0.000000000  7.913120485     0.000000000  0.000000000  0.126372397

  length of vectors
     7.913120485  7.913120485  7.913120485     0.126372397  0.126372397  0.126372397


 
 k-points in units of 2pi/SCALE and weight: Automatic mesh                          
   0.00000000  0.00000000  0.00000000       0.005
   0.02106207  0.00000000  0.00000000       0.009
   0.04212413  0.00000000  0.00000000       0.009
   0.06318620  0.00000000  0.00000000       0.005
   0.00000000  0.02106207  0.00000000       0.019
   0.02106207  0.02106207  0.00000000       0.037
   0.04212413  0.02106207  0.00000000       0.037
   0.06318620  0.02106207  0.00000000       0.019
   0.00000000  0.04212413  0.00000000       0.019
   0.02106207  0.04212413  0.00000000       0.037
   0.04212413  0.04212413  0.00000000       0.037
   0.06318620  0.04212413  0.00000000       0.019
   0.00000000  0.06318620  0.00000000       0.009
   0.02106207  0.06318620  0.00000000       0.019
   0.04212413  0.06318620  0.00000000       0.019
   0.06318620  0.06318620  0.00000000       0.009
   0.00000000  0.02106207  0.02106207       0.019
   0.02106207  0.02106207  0.02106207       0.037
   0.04212413  0.02106207  0.02106207       0.037
   0.06318620  0.02106207  0.02106207       0.019
   0.00000000  0.04212413  0.02106207       0.037
   0.02106207  0.04212413  0.02106207       0.074
   0.04212413  0.04212413  0.02106207       0.074
   0.06318620  0.04212413  0.02106207       0.037
   0.00000000  0.06318620  0.02106207       0.019
   0.02106207  0.06318620  0.02106207       0.037
   0.04212413  0.06318620  0.02106207       0.037
   0.06318620  0.06318620  0.02106207       0.019
   0.00000000  0.04212413  0.04212413       0.019
   0.02106207  0.04212413  0.04212413       0.037
   0.04212413  0.04212413  0.04212413       0.037
   0.06318620  0.04212413  0.04212413       0.019
   0.00000000  0.06318620  0.04212413       0.019
   0.02106207  0.06318620  0.04212413       0.037
   0.04212413  0.06318620  0.04212413       0.037
   0.06318620  0.06318620  0.04212413       0.019
   0.00000000  0.06318620  0.06318620       0.005
   0.02106207  0.06318620  0.06318620       0.009
   0.04212413  0.06318620  0.06318620       0.009
   0.06318620  0.06318620  0.06318620       0.005
 
 k-points in reciprocal lattice and weights: Automatic mesh                          
   0.00000000  0.00000000  0.00000000       0.005
   0.16666667  0.00000000  0.00000000       0.009
   0.33333333  0.00000000  0.00000000       0.009
   0.50000000  0.00000000  0.00000000       0.005
   0.00000000  0.16666667  0.00000000       0.019
   0.16666667  0.16666667  0.00000000       0.037
   0.33333333  0.16666667  0.00000000       0.037
   0.50000000  0.16666667  0.00000000       0.019
   0.00000000  0.33333333  0.00000000       0.019
   0.16666667  0.33333333  0.00000000       0.037
   0.33333333  0.33333333  0.00000000       0.037
   0.50000000  0.33333333  0.00000000       0.019
   0.00000000  0.50000000  0.00000000       0.009
   0.16666667  0.50000000  0.00000000       0.019
   0.33333333  0.50000000  0.00000000       0.019
   0.50000000  0.50000000  0.00000000       0.009
   0.00000000  0.16666667  0.16666667       0.019
   0.16666667  0.16666667  0.16666667       0.037
   0.33333333  0.16666667  0.16666667       0.037
   0.50000000  0.16666667  0.16666667       0.019
   0.00000000  0.33333333  0.16666667       0.037
   0.16666667  0.33333333  0.16666667       0.074
   0.33333333  0.33333333  0.16666667       0.074
   0.50000000  0.33333333  0.16666667       0.037
   0.00000000  0.50000000  0.16666667       0.019
   0.16666667  0.50000000  0.16666667       0.037
   0.33333333  0.50000000  0.16666667       0.037
   0.50000000  0.50000000  0.16666667       0.019
   0.00000000  0.33333333  0.33333333       0.019
   0.16666667  0.33333333  0.33333333       0.037
   0.33333333  0.33333333  0.33333333       0.037
   0.50000000  0.33333333  0.33333333       0.019
   0.00000000  0.50000000  0.33333333       0.019
   0.16666667  0.50000000  0.33333333       0.037
   0.33333333  0.50000000  0.33333333       0.037
   0.50000000  0.50000000  0.33333333       0.019
   0.00000000  0.50000000  0.50000000       0.005
   0.16666667  0.50000000  0.50000000       0.009
   0.33333333  0.50000000  0.50000000       0.009
   0.50000000  0.50000000  0.50000000       0.005
 
 position of ions in fractional coordinates (direct lattice) 
   0.25126372  0.25000000  0.00000000
   0.75000000  0.25000000  0.00000000
   0.25000000  0.75000000  0.00000000
   0.75000000  0.75000000  0.00000000
   0.25000000  0.25000000  0.50000000
   0.75000000  0.25000000  0.50000000
   0.25000000  0.75000000  0.50000000
   0.75000000  0.75000000  0.50000000
   0.25000000  0.00000000  0.25000000
   0.75000000  0.00000000  0.25000000
   0.25000000  0.50000000  0.25000000
   0.75000000  0.50000000  0.25000000
   0.25000000  0.00000000  0.75000000
   0.75000000  0.00000000  0.75000000
   0.25000000  0.50000000  0.75000000
   0.75000000  0.50000000  0.75000000
   0.00000000  0.25000000  0.25000000
   0.50000000  0.25000000  0.25000000
   0.00000000  0.75000000  0.25000000
   0.50000000  0.75000000  0.25000000
   0.00000000  0.25000000  0.75000000
   0.50000000  0.25000000  0.75000000
   0.00000000  0.75000000  0.75000000
   0.50000000  0.75000000  0.75000000
   0.00000000  0.00000000  0.00000000
   0.50000000  0.00000000  0.00000000
   0.00000000  0.50000000  0.00000000
   0.50000000  0.50000000  0.00000000
   0.00000000  0.00000000  0.50000000
   0.50000000  0.00000000  0.50000000
   0.00000000  0.50000000  0.50000000
   0.50000000  0.50000000  0.50000000
 
 position of ions in cartesian coordinates  (Angst):
   1.98828012  1.97828012  0.00000000
   5.93484036  1.97828012  0.00000000
   1.97828012  5.93484036  0.00000000
   5.93484036  5.93484036  0.00000000
   1.97828012  1.97828012  3.95656024
   5.93484036  1.97828012  3.95656024
   1.97828012  5.93484036  3.95656024
   5.93484036  5.93484036  3.95656024
   1.97828012  0.00000000  1.97828012
   5.93484036  0.00000000  1.97828012
   1.97828012  3.95656024  1.97828012
   5.93484036  3.95656024  1.97828012
   1.97828012  0.00000000  5.93484036
   5.93484036  0.00000000  5.93484036
   1.97828012  3.95656024  5.93484036
   5.93484036  3.95656024  5.93484036
   0.00000000  1.97828012  1.97828012
   3.95656024  1.97828012  1.97828012
   0.00000000  5.93484036  1.97828012
   3.95656024  5.93484036  1.97828012
   0.00000000  1.97828012  5.93484036
   3.95656024  1.97828012  5.93484036
   0.00000000  5.93484036  5.93484036
   3.95656024  5.93484036  5.93484036
   0.00000000  0.00000000  0.00000000
   3.95656024  0.00000000  0.00000000
   0.00000000  3.95656024  0.00000000
   3.95656024  3.95656024  0.00000000
   0.00000000  0.00000000  3.95656024
   3.95656024  0.00000000  3.95656024
   0.00000000  3.95656024  3.95656024
   3.95656024  3.95656024  3.95656024
 


--------------------------------------------------------------------------------------------------------


 k-point  1 :  0.00000.00000.0000  plane waves:  12557
 k-point  2 :  0.16670.00000.0000  plane waves:  12621
 k-point  3 :  0.33330.00000.0000  plane waves:  12609
 k-point  4 :  0.50000.00000.0000  plane waves:  12556
 k-point  5 :  0.00000.16670.0000  plane waves:  12621
 k-point  6 :  0.16670.16670.0000  plane waves:  12615
 k-point  7 :  0.33330.16670.0000  plane waves:  12606
 k-point  8 :  0.50000.16670.0000  plane waves:  12582
 k-point  9 :  0.00000.33330.0000  plane waves:  12609
 k-point 10 :  0.16670.33330.0000  plane waves:  12606
 k-point 11 :  0.33330.33330.0000  plane waves:  12532
 k-point 12 :  0.50000.33330.0000  plane waves:  12564
 k-point 13 :  0.00000.50000.0000  plane waves:  12556
 k-point 14 :  0.16670.50000.0000  plane waves:  12582
 k-point 15 :  0.33330.50000.0000  plane waves:  12564
 k-point 16 :  0.50000.50000.0000  plane waves:  12536
 k-point 17 :  0.00000.16670.1667  plane waves:  12615
 k-point 18 :  0.16670.16670.1667  plane waves:  12593
 k-point 19 :  0.33330.16670.1667  plane waves:  12574
 k-point 20 :  0.50000.16670.1667  plane waves:  12574
 k-point 21 :  0.00000.33330.1667  plane waves:  12606
 k-point 22 :  0.16670.33330.1667  plane waves:  12574
 k-point 23 :  0.33330.33330.1667  plane waves:  12570
 k-point 24 :  0.50000.33330.1667  plane waves:  12568
 k-point 25 :  0.00000.50000.1667  plane waves:  12582
 k-point 26 :  0.16670.50000.1667  plane waves:  12574
 k-point 27 :  0.33330.50000.1667  plane waves:  12568
 k-point 28 :  0.50000.50000.1667  plane waves:  12556
 k-point 29 :  0.00000.33330.3333  plane waves:  12532
 k-point 30 :  0.16670.33330.3333  plane waves:  12570
 k-point 31 :  0.33330.33330.3333  plane waves:  12577
 k-point 32 :  0.50000.33330.3333  plane waves:  12588
 k-point 33 :  0.00000.50000.3333  plane waves:  12564
 k-point 34 :  0.16670.50000.3333  plane waves:  12568
 k-point 35 :  0.33330.50000.3333  plane waves:  12588
 k-point 36 :  0.50000.50000.3333  plane waves:  12592
 k-point 37 :  0.00000.50000.5000  plane waves:  12536
 k-point 38 :  0.16670.50000.5000  plane waves:  12556
 k-point 39 :  0.33330.50000.5000  plane waves:  12592
 k-point 40 :  0.50000.50000.5000  plane waves:  12568

 maximum and minimum number of plane-waves per node :  12621 12532

 maximum number of plane-waves:  12621
 maximal index in each direction: 
   IXMAX= 14   IYMAX= 14   IZMAX= 14
   IXMIN=-14   IYMIN=-14   IZMIN=-14

 NGX is ok and might be reduce to  58
 NGY is ok and might be reduce to  58
 NGZ is ok and might be reduce to  58

 parallel 3dFFT wavefunction:
    minimum data exchange during FFTs selected (reduces bandwidth)
 parallel 3dFFT charge:
    minimum data exchange during FFTs selected (reduces bandwidth)

 For storing wavefunctions  579.57 MBYTES are necessary
 For predicting wavefunctions   32.25 MBYTES are necessary
Broyden mixing: mesh for mixing (old mesh)
   NGX = 29   NGY = 29   NGZ = 29
  (NGX  =120   NGY  =120   NGZ  =120)
 gives a total of  24389 points
 initial charge density was supplied:
 charge density of overlapping atoms calculated
 number of electron   96.0000000 magnetization 
 keeping initial charge density in first step


--------------------------------------------------------------------------------------------------------


 Maximum index for augmentation-charges         2148 (set IRDMAX)


--------------------------------------------------------------------------------------------------------


 First call to EWALD:  gamma=   0.224
 Maximum number of real-space cells 3x 3x 3
 Maximum number of reciprocal cells 3x 3x 3

    FEWALD:  VPU time    0.00: CPU time    0.00


----------------------------------------- Iteration    1(   1)  ---------------------------------------


    POTLOK:  VPU time    0.13: CPU time    0.13
    SETDIJ:  VPU time    0.01: CPU time    0.01
    EDDAV :  VPU time   18.93: CPU time   18.97
    DOS   :  VPU time    0.00: CPU time   -0.00
    ------------------------------------------
      LOOP:  VPU time   19.07: CPU time   19.12

 eigenvalue-minimisations  :  5760
 total energy-change (2. order) : 0.1273134E+03  (-0.3312393E+04)
 number of electron   96.0000000 magnetization 
 augmentation part    96.0000000 magnetization 

 Free energy of the ion-electron system (eV)
  ---------------------------------------------------
  alpha Z        PSCENC =        -6.94132402
  Ewald energy   TEWEN  =     -2402.85078487
  -1/2 Hartree   DENC   =        -2.61509261
  -V(xc)+E(xc)   XCENC  =      -835.96870915
  PAW double counting   =      1137.73615723     -115.16745734
  entropy T*S    EENTRO =        -0.00040067
  eigenvalues    EBANDS =       639.89184956
  atomic energy  EATOM  =      1713.22913220
  ---------------------------------------------------
  free energy    TOTEN  =       127.31337032 eV

  energy without entropy =      127.31377099  energy(sigma->0) =      127.31357065


--------------------------------------------------------------------------------------------------------




----------------------------------------- Iteration    1(   2)  ---------------------------------------


    EDDAV :  VPU time   21.38: CPU time   21.42
    DOS   :  VPU time    0.00: CPU time   -0.00
    ------------------------------------------
      LOOP:  VPU time   21.38: CPU time   21.43

 eigenvalue-minimisations  :  6808
 total energy-change (2. order) :-0.2340914E+03  (-0.2173240E+03)
 number of electron   96.0000000 magnetization 
 augmentation part    96.0000000 magnetization 

 Free energy of the ion-electron system (eV)
  ---------------------------------------------------
  alpha Z        PSCENC =        -6.94132402
  Ewald energy   TEWEN  =     -2402.85078487
  -1/2 Hartree   DENC   =        -2.61509261
  -V(xc)+E(xc)   XCENC  =      -835.96870915
  PAW double counting   =      1137.73615723     -115.16745734
  entropy T*S    EENTRO =        -0.00063984
  eigenvalues    EBANDS =       405.80069511
  atomic energy  EATOM  =      1713.22913220
  ---------------------------------------------------
  free energy    TOTEN  =      -106.77802330 eV

  energy without entropy =     -106.77738346  energy(sigma->0) =     -106.77770338


--------------------------------------------------------------------------------------------------------




----------------------------------------- Iteration    1(   3)  ---------------------------------------


    EDDAV :  VPU time   22.11: CPU time   22.16
    DOS   :  VPU time    0.00: CPU time   -0.00
    ------------------------------------------
      LOOP:  VPU time   22.12: CPU time   22.17

 eigenvalue-minimisations  :  7160
 total energy-change (2. order) :-0.1300836E+02  (-0.1242224E+02)
 number of electron   96.0000000 magnetization 
 augmentation part    96.0000000 magnetization 

 Free energy of the ion-electron system (eV)
  ---------------------------------------------------
  alpha Z        PSCENC =        -6.94132402
  Ewald energy   TEWEN  =     -2402.85078487
  -1/2 Hartree   DENC   =        -2.61509261
  -V(xc)+E(xc)   XCENC  =      -835.96870915
  PAW double counting   =      1137.73615723     -115.16745734
  entropy T*S    EENTRO =        -0.00105622
  eigenvalues    EBANDS =       392.79274679
  atomic energy  EATOM  =      1713.22913220
  ---------------------------------------------------
  free energy    TOTEN  =      -119.78638800 eV

  energy without entropy =     -119.78533178  energy(sigma->0) =     -119.78585989


--------------------------------------------------------------------------------------------------------




----------------------------------------- Iteration    1(   4)  ---------------------------------------


    EDDAV :  VPU time   21.02: CPU time   21.06
    DOS   :  VPU time    0.00: CPU time   -0.00
    ------------------------------------------
      LOOP:  VPU time   21.03: CPU time   21.06

 eigenvalue-minimisations  :  6680
 total energy-change (2. order) :-0.2342307E+00  (-0.2324484E+00)
 number of electron   96.0000000 magnetization 
 augmentation part    96.0000000 magnetization 

 Free energy of the ion-electron system (eV)
  ---------------------------------------------------
  alpha Z        PSCENC =        -6.94132402
  Ewald energy   TEWEN  =     -2402.85078487
  -1/2 Hartree   DENC   =        -2.61509261
  -V(xc)+E(xc)   XCENC  =      -835.96870915
  PAW double counting   =      1137.73615723     -115.16745734
  entropy T*S    EENTRO =        -0.00124623
  eigenvalues    EBANDS =       392.55870611
  atomic energy  EATOM  =      1713.22913220
  ---------------------------------------------------
  free energy    TOTEN  =      -120.02061869 eV

  energy without entropy =     -120.01937246  energy(sigma->0) =     -120.01999558


--------------------------------------------------------------------------------------------------------




----------------------------------------- Iteration    1(   5)  ---------------------------------------


    EDDAV :  VPU time   21.22: CPU time   21.25
    DOS   :  VPU time    0.00: CPU time   -0.00
    CHARGE:  VPU time    1.29: CPU time    1.29
    MIXING:  VPU time    0.00: CPU time    0.00
    ------------------------------------------
      LOOP:  VPU time   22.51: CPU time   22.55

 eigenvalue-minimisations  :  6768
 total energy-change (2. order) :-0.2743921E-02  (-0.2741852E-02)
 number of electron   96.0000001 magnetization 
 augmentation part    -1.1465037 magnetization 

 Broyden mixing:
  rms(total) = 0.54483E+00    rms(broyden)= 0.54483E+00
  rms(prec ) = 0.78538E+00
  weight for this iteration     100.00

 Free energy of the ion-electron system (eV)
  ---------------------------------------------------
  alpha Z        PSCENC =        -6.94132402
  Ewald energy   TEWEN  =     -2402.85078487
  -1/2 Hartree   DENC   =        -2.61509261
  -V(xc)+E(xc)   XCENC  =      -835.96870915
  PAW double counting   =      1137.73615723     -115.16745734
  entropy T*S    EENTRO =        -0.00124687
  eigenvalues    EBANDS =       392.55596282
  atomic energy  EATOM  =      1713.22913220
  ---------------------------------------------------
  free energy    TOTEN  =      -120.02336262 eV

  energy without entropy =     -120.02211575  energy(sigma->0) =     -120.02273918


--------------------------------------------------------------------------------------------------------




----------------------------------------- Iteration    1(   6)  ---------------------------------------


    POTLOK:  VPU time    0.13: CPU time    0.13
    SETDIJ:  VPU time    0.01: CPU time    0.01
    EDDAV :  VPU time   20.92: CPU time   20.96
    DOS   :  VPU time    0.00: CPU time   -0.00
    CHARGE:  VPU time    1.28: CPU time    1.28
    MIXING:  VPU time    0.00: CPU time    0.00
    ------------------------------------------
      LOOP:  VPU time   22.34: CPU time   22.38

 eigenvalue-minimisations  :  6600
 total energy-change (2. order) : 0.4475376E+00  (-0.4266222E-02)
 number of electron   96.0000002 magnetization 
 augmentation part    -1.1618549 magnetization 

 Broyden mixing:
  rms(total) = 0.33857E+00    rms(broyden)= 0.33857E+00
  rms(prec ) = 0.49000E+00
  weight for this iteration     100.00

 eigenvalues of (default mixing * dielectric matrix)
  average eigenvalue GAMMA=   2.6327
  2.6327

 Free energy of the ion-electron system (eV)
  ---------------------------------------------------
  alpha Z        PSCENC =        -6.94132402
  Ewald energy   TEWEN  =     -2402.85078487
  -1/2 Hartree   DENC   =        -2.45454014
  -V(xc)+E(xc)   XCENC  =      -834.67701935
  PAW double counting   =      1141.66565868     -119.33889304
  entropy T*S    EENTRO =        -0.00128006
  eigenvalues    EBANDS =       391.79322556
  atomic energy  EATOM  =      1713.22913220
  ---------------------------------------------------
  free energy    TOTEN  =      -119.57582504 eV

  energy without entropy =     -119.57454499  energy(sigma->0) =     -119.57518501


--------------------------------------------------------------------------------------------------------




----------------------------------------- Iteration    1(   7)  ---------------------------------------


    POTLOK:  VPU time    0.13: CPU time    0.13
    SETDIJ:  VPU time    0.01: CPU time    0.01
    EDDAV :  VPU time   20.00: CPU time   20.04
    DOS   :  VPU time   -0.00: CPU time   -0.00
    CHARGE:  VPU time    1.27: CPU time    1.27
    MIXING:  VPU time    0.00: CPU time    0.00
    ------------------------------------------
      LOOP:  VPU time   21.42: CPU time   21.45

 eigenvalue-minimisations  :  6248
 total energy-change (2. order) : 0.3249937E+00  (-0.1303332E-01)
 number of electron   96.0000002 magnetization 
 augmentation part    -1.1939144 magnetization 

 Broyden mixing:
  rms(total) = 0.13867E-01    rms(broyden)= 0.13867E-01
  rms(prec ) = 0.16525E-01
  weight for this iteration     100.00

 eigenvalues of (default mixing * dielectric matrix)
  average eigenvalue GAMMA=   2.5169
  2.5169  2.5169

 Free energy of the ion-electron system (eV)
  ---------------------------------------------------
  alpha Z        PSCENC =        -6.94132402
  Ewald energy   TEWEN  =     -2402.85078487
  -1/2 Hartree   DENC   =        -3.61424801
  -V(xc)+E(xc)   XCENC  =      -832.10394060
  PAW double counting   =      1147.41300187     -125.54349814
  entropy T*S    EENTRO =        -0.00161776
  eigenvalues    EBANDS =       391.16244797
  atomic energy  EATOM  =      1713.22913220
  ---------------------------------------------------
  free energy    TOTEN  =      -119.25083136 eV

  energy without entropy =     -119.24921360  energy(sigma->0) =     -119.25002248


--------------------------------------------------------------------------------------------------------




----------------------------------------- Iteration    1(   8)  ---------------------------------------


    POTLOK:  VPU time    0.13: CPU time    0.13
    SETDIJ:  VPU time    0.01: CPU time    0.01
    EDDAV :  VPU time   21.42: CPU time   21.45
    DOS   :  VPU time    0.00: CPU time   -0.00
    CHARGE:  VPU time    1.27: CPU time    1.27
    MIXING:  VPU time    0.00: CPU time    0.00
    ------------------------------------------
      LOOP:  VPU time   22.83: CPU time   22.87

 eigenvalue-minimisations  :  6832
 total energy-change (2. order) :-0.2098637E-03  (-0.1188467E-03)
 number of electron   96.0000002 magnetization 
 augmentation part    -1.1962407 magnetization 

 Broyden mixing:
  rms(total) = 0.49668E-02    rms(broyden)= 0.49668E-02
  rms(prec ) = 0.65003E-02
  weight for this iteration     100.00

 eigenvalues of (default mixing * dielectric matrix)
  average eigenvalue GAMMA=   2.0785
  0.9980  2.6828  2.5546

 Free energy of the ion-electron system (eV)
  ---------------------------------------------------
  alpha Z        PSCENC =        -6.94132402
  Ewald energy   TEWEN  =     -2402.85078487
  -1/2 Hartree   DENC   =        -3.64848476
  -V(xc)+E(xc)   XCENC  =      -832.06763482
  PAW double counting   =      1147.89786719     -126.06331219
  entropy T*S    EENTRO =        -0.00161761
  eigenvalues    EBANDS =       391.19511765
  atomic energy  EATOM  =      1713.22913220
  ---------------------------------------------------
  free energy    TOTEN  =      -119.25104123 eV

  energy without entropy =     -119.24942362  energy(sigma->0) =     -119.25023242


--------------------------------------------------------------------------------------------------------




----------------------------------------- Iteration    1(   9)  ---------------------------------------


    POTLOK:  VPU time    0.13: CPU time    0.13
    SETDIJ:  VPU time    0.01: CPU time    0.01
    EDDAV :  VPU time   20.73: CPU time   20.76
    DOS   :  VPU time    0.00: CPU time   -0.00
    CHARGE:  VPU time    1.31: CPU time    1.31
    MIXING:  VPU time    0.00: CPU time    0.00
    ------------------------------------------
      LOOP:  VPU time   22.18: CPU time   22.22

 eigenvalue-minimisations  :  6568
 total energy-change (2. order) :-0.2694180E-04  (-0.5767125E-05)
 number of electron   96.0000002 magnetization 
 augmentation part    -1.1971275 magnetization 

 Broyden mixing:
  rms(total) = 0.43482E-03    rms(broyden)= 0.43481E-03
  rms(prec ) = 0.68464E-03
  weight for this iteration     100.00

 eigenvalues of (default mixing * dielectric matrix)
  average eigenvalue GAMMA=   1.8777
  2.7119  2.5294  1.3770  0.8925

 Free energy of the ion-electron system (eV)
  ---------------------------------------------------
  alpha Z        PSCENC =        -6.94132402
  Ewald energy   TEWEN  =     -2402.85078487
  -1/2 Hartree   DENC   =        -3.68573704
  -V(xc)+E(xc)   XCENC  =      -832.02242150
  PAW double counting   =      1148.11928917     -126.30609089
  entropy T*S    EENTRO =        -0.00161702
  eigenvalues    EBANDS =       391.20848581
  atomic energy  EATOM  =      1713.22913220
  ---------------------------------------------------
  free energy    TOTEN  =      -119.25106817 eV

  energy without entropy =     -119.24945114  energy(sigma->0) =     -119.25025966


--------------------------------------------------------------------------------------------------------




----------------------------------------- Iteration    1(  10)  ---------------------------------------


    POTLOK:  VPU time    0.13: CPU time    0.13
    SETDIJ:  VPU time    0.01: CPU time    0.01
    EDDAV :  VPU time   21.29: CPU time   21.34
    DOS   :  VPU time    0.00: CPU time   -0.00
    CHARGE:  VPU time    1.30: CPU time    1.30
    MIXING:  VPU time    0.00: CPU time    0.00
    ------------------------------------------
      LOOP:  VPU time   22.74: CPU time   22.80

 eigenvalue-minimisations  :  6816
 total energy-change (2. order) :-0.9122214E-06  (-0.3800434E-06)
 number of electron   96.0000002 magnetization 
 augmentation part    -1.1972653 magnetization 

 Broyden mixing:
  rms(total) = 0.20955E-03    rms(broyden)= 0.20954E-03
  rms(prec ) = 0.28676E-03
  weight for this iteration     100.00

 eigenvalues of (default mixing * dielectric matrix)
  average eigenvalue GAMMA=   1.8744
  2.6382  2.6382  2.2626  1.0221  0.8108

 Free energy of the ion-electron system (eV)
  ---------------------------------------------------
  alpha Z        PSCENC =        -6.94132402
  Ewald energy   TEWEN  =     -2402.85078487
  -1/2 Hartree   DENC   =        -3.68864226
  -V(xc)+E(xc)   XCENC  =      -832.01892200
  PAW double counting   =      1148.09270581     -126.27981485
  entropy T*S    EENTRO =        -0.00161703
  eigenvalues    EBANDS =       391.20819794
  atomic energy  EATOM  =      1713.22913220
  ---------------------------------------------------
  free energy    TOTEN  =      -119.25106908 eV

  energy without entropy =     -119.24945205  energy(sigma->0) =     -119.25026056


--------------------------------------------------------------------------------------------------------




----------------------------------------- Iteration    1(  11)  ---------------------------------------


    POTLOK:  VPU time    0.13: CPU time    0.13
    SETDIJ:  VPU time    0.01: CPU time    0.01
    EDDAV :  VPU time   20.96: CPU time   21.00
    DOS   :  VPU time    0.00: CPU time   -0.00
    CHARGE:  VPU time    1.28: CPU time    1.28
    MIXING:  VPU time    0.00: CPU time    0.00
    ------------------------------------------
      LOOP:  VPU time   22.38: CPU time   22.43

 eigenvalue-minimisations  :  6672
 total energy-change (2. order) : 0.2399070E-05  (-0.2468495E-07)
 number of electron   96.0000002 magnetization 
 augmentation part    -1.1972869 magnetization 

 Broyden mixing:
  rms(total) = 0.81088E-04    rms(broyden)= 0.81088E-04
  rms(prec ) = 0.10036E-03
  weight for this iteration     100.00

 eigenvalues of (default mixing * dielectric matrix)
  average eigenvalue GAMMA=   1.8165
  2.7042  2.6294  2.5340  1.0086  1.2243  0.7983

 Free energy of the ion-electron system (eV)
  ---------------------------------------------------
  alpha Z        PSCENC =        -6.94132402
  Ewald energy   TEWEN  =     -2402.85078487
  -1/2 Hartree   DENC   =        -3.68833545
  -V(xc)+E(xc)   XCENC  =      -832.01958761
  PAW double counting   =      1148.04967608     -126.23573012
  entropy T*S    EENTRO =        -0.00161707
  eigenvalues    EBANDS =       391.20750418
  atomic energy  EATOM  =      1713.22913220
  ---------------------------------------------------
  free energy    TOTEN  =      -119.25106668 eV

  energy without entropy =     -119.24944961  energy(sigma->0) =     -119.25025815


--------------------------------------------------------------------------------------------------------




----------------------------------------- Iteration    1(  12)  ---------------------------------------


    POTLOK:  VPU time    0.13: CPU time    0.13
    SETDIJ:  VPU time    0.01: CPU time    0.01
    EDDAV :  VPU time   16.36: CPU time   16.40
    DOS   :  VPU time    0.00: CPU time   -0.00
    CHARGE:  VPU time    1.28: CPU time    1.28
    MIXING:  VPU time    0.00: CPU time    0.00
    ------------------------------------------
      LOOP:  VPU time   17.79: CPU time   17.83

 eigenvalue-minimisations  :  4632
 total energy-change (2. order) : 0.1055437E-05  (-0.2169908E-08)
 number of electron   96.0000002 magnetization 
 augmentation part    -1.1972932 magnetization 

 Broyden mixing:
  rms(total) = 0.13734E-04    rms(broyden)= 0.13734E-04
  rms(prec ) = 0.22232E-04
  weight for this iteration     100.00

 eigenvalues of (default mixing * dielectric matrix)
  average eigenvalue GAMMA=   1.7434
  2.6688  2.6688  2.4912  1.5018  1.0051  1.0774  0.7907

 Free energy of the ion-electron system (eV)
  ---------------------------------------------------
  alpha Z        PSCENC =        -6.94132402
  Ewald energy   TEWEN  =     -2402.85078487
  -1/2 Hartree   DENC   =        -3.68862796
  -V(xc)+E(xc)   XCENC  =      -832.01930935
  PAW double counting   =      1148.03250299     -126.21823330
  entropy T*S    EENTRO =        -0.00161708
  eigenvalues    EBANDS =       391.20719574
  atomic energy  EATOM  =      1713.22913220
  ---------------------------------------------------
  free energy    TOTEN  =      -119.25106563 eV

  energy without entropy =     -119.24944855  energy(sigma->0) =     -119.25025709


--------------------------------------------------------------------------------------------------------




----------------------------------------- Iteration    1(  13)  ---------------------------------------


    POTLOK:  VPU time    0.13: CPU time    0.14
    SETDIJ:  VPU time    0.01: CPU time    0.01
    EDDAV :  VPU time   14.29: CPU time   14.31
    DOS   :  VPU time    0.00: CPU time   -0.00
    CHARGE:  VPU time    1.27: CPU time    1.28
    MIXING:  VPU time    0.00: CPU time    0.00
    ------------------------------------------
      LOOP:  VPU time   15.71: CPU time   15.74

 eigenvalue-minimisations  :  3712
 total energy-change (2. order) : 0.1508633E-06  (-0.2846189E-09)
 number of electron   96.0000002 magnetization 
 augmentation part    -1.1972927 magnetization 

 Broyden mixing:
  rms(total) = 0.34669E-05    rms(broyden)= 0.34669E-05
  rms(prec ) = 0.50992E-05
  weight for this iteration     100.00

 eigenvalues of (default mixing * dielectric matrix)
  average eigenvalue GAMMA=   1.7084
  2.6996  2.6996  2.5039  1.6466  1.3376  1.0563  0.9338  0.7901

 Free energy of the ion-electron system (eV)
  ---------------------------------------------------
  alpha Z        PSCENC =        -6.94132402
  Ewald energy   TEWEN  =     -2402.85078487
  -1/2 Hartree   DENC   =        -3.68856829
  -V(xc)+E(xc)   XCENC  =      -832.01941328
  PAW double counting   =      1148.03034034     -126.21600999
  entropy T*S    EENTRO =        -0.00161708
  eigenvalues    EBANDS =       391.20717951
  atomic energy  EATOM  =      1713.22913220
  ---------------------------------------------------
  free energy    TOTEN  =      -119.25106548 eV

  energy without entropy =     -119.24944840  energy(sigma->0) =     -119.25025694


--------------------------------------------------------------------------------------------------------




----------------------------------------- Iteration    1(  14)  ---------------------------------------


    POTLOK:  VPU time    0.13: CPU time    0.13
    SETDIJ:  VPU time    0.01: CPU time    0.01
    EDDAV :  VPU time   14.11: CPU time   14.14
    DOS   :  VPU time    0.00: CPU time   -0.00
    ------------------------------------------
      LOOP:  VPU time   14.25: CPU time   14.28

 eigenvalue-minimisations  :  3632
 total energy-change (2. order) : 0.9230007E-08  (-0.4830259E-10)
 number of electron   96.0000002 magnetization 
 augmentation part    -1.1972927 magnetization 

 Free energy of the ion-electron system (eV)
  ---------------------------------------------------
  alpha Z        PSCENC =        -6.94132402
  Ewald energy   TEWEN  =     -2402.85078487
  -1/2 Hartree   DENC   =        -3.68858459
  -V(xc)+E(xc)   XCENC  =      -832.01939931
  PAW double counting   =      1148.03019279     -126.21586460
  entropy T*S    EENTRO =        -0.00161707
  eigenvalues    EBANDS =       391.20718400
  atomic energy  EATOM  =      1713.22913220
  ---------------------------------------------------
  free energy    TOTEN  =      -119.25106547 eV

  energy without entropy =     -119.24944839  energy(sigma->0) =     -119.25025693


--------------------------------------------------------------------------------------------------------




 average (electrostatic) potential at core
  the test charge radii are     1.0406
  (the norm of the test charge is              1.0000)
       1 -71.8614       2 -71.8614       3 -71.8614       4 -71.8614       5 -71.8614
       6 -71.8614       7 -71.8614       8 -71.8614       9 -71.8614      10 -71.8614
      11 -71.8614      12 -71.8614      13 -71.8614      14 -71.8614      15 -71.8614
      16 -71.8614      17 -71.8619      18 -71.8610      19 -71.8614      20 -71.8614
      21 -71.8619      22 -71.8610      23 -71.8614      24 -71.8614      25 -71.8619
      26 -71.8610      27 -71.8619      28 -71.8610      29 -71.8614      30 -71.8614
      31 -71.8614      32 -71.8614
 
 
 
 E-fermi :   8.6804     XC(G=0): -10.4291     alpha+bet :-15.8521
   add alpha+bet to get absolut eigen values

 k-point   1 :       0.0000    0.0000    0.0000
  band No.  band energies     occupation 
      1      -2.9021      2.00000
      2      -0.5633      2.00000
      3      -0.5594      2.00000
      4      -0.5594      2.00000
      5      -0.5594      2.00000
      6      -0.5594      2.00000
      7      -0.5555      2.00000
      8       1.7358      2.00000
      9       1.7402      2.00000
     10       1.7402      2.00000
     11       1.7420      2.00000
     12       1.7422      2.00000
     13       1.7422      2.00000
     14       1.7422      2.00000
     15       1.7422      2.00000
     16       1.7424      2.00000
     17       1.7442      2.00000
     18       1.7442      2.00000
     19       1.7486      2.00000
     20       3.8296      2.00000
     21       3.8296      2.00000
     22       3.8296      2.00000
     23       3.8296      2.00000
     24       4.2110      2.00000
     25       4.2110      2.00000
     26       4.2111      2.00000
     27       4.2111      2.00000
     28       5.6011      2.00000
     29       5.6011      2.00000
     30       5.6011      2.00000
     31       7.0599      2.00000
     32       7.0600      2.00000
     33       7.0600      2.00000
     34       7.7473      2.00000
     35       7.7473      2.00000
     36       7.7518      2.00000
     37       7.7518      2.00000
     38       7.7520      2.00000
     39       7.7520      2.00000
     40       7.7520      2.00000
     41       7.7521      2.00000
     42       7.7522      2.00000
     43       7.7522      2.00000
     44       7.7567      2.00000
     45       7.7567      2.00000
     46       8.7296      0.00000
     47       8.7340      0.00000
     48       8.7340      0.00000
     49       8.7340      0.00000
     50       8.7340      0.00000
     51       8.7384      0.00000
     52       9.9084      0.00000
     53       9.9084      0.00000
     54       9.9099      0.00000
     55       9.9125      0.00000
     56       9.9126      0.00000
     57       9.9126      0.00000
     58       9.9126      0.00000
     59       9.9127      0.00000
     60       9.9128      0.00000
     61       9.9154      0.00000
     62       9.9169      0.00000
     63       9.9169      0.00000
     64      10.1477      0.00000
     65      10.1489      0.00000
     66      10.1489      0.00000
     67      10.1489      0.00000
     68      10.1489      0.00000
     69      10.1501      0.00000
     70      11.6256      0.00000
     71      11.6279      0.00000
     72      11.6288      0.00000

 k-point   2 :       0.1667    0.0000    0.0000
  band No.  band energies     occupation 
      1      -2.8364      2.00000
      2      -1.2707      2.00000
      3      -0.4949      2.00000
      4      -0.4949      2.00000
      5      -0.4949      2.00000
      6      -0.4949      2.00000
      7       0.2759      2.00000
      8       1.0434      2.00000
      9       1.0434      2.00000
     10       1.0434      2.00000
     11       1.0434      2.00000
     12       1.8055      2.00000
     13       1.8055      2.00000
     14       1.8055      2.00000
     15       1.8055      2.00000
     16       2.5626      2.00000
     17       2.5626      2.00000
     18       2.5626      2.00000
     19       2.5626      2.00000
     20       3.3058      2.00000
     21       3.3058      2.00000
     22       3.3058      2.00000
     23       3.3058      2.00000
     24       4.7241      2.00000
     25       4.8556      2.00000
     26       4.8556      2.00000
     27       4.8557      2.00000
     28       4.8557      2.00000
     29       5.6607      2.00000
     30       5.6607      2.00000
     31       6.8991      2.00000
     32       6.8991      2.00000
     33       6.8991      2.00000
     34       6.8991      2.00000
     35       7.0938      2.00000
     36       7.0938      2.00000
     37       7.1220      2.00000
     38       7.1221      2.00000
     39       7.8119      2.00000
     40       7.8119      2.00000
     41       7.8119      2.00000
     42       7.8119      2.00000
     43       8.0491      2.00000
     44       8.4666      2.00000
     45       8.4666      2.00000
     46       8.5309      2.00000
     47       8.5309      2.00000
     48       9.1310      0.00000
     49       9.1310      0.00000
     50       9.1310      0.00000
     51       9.1311      0.00000
     52       9.2204      0.00000
     53       9.2204      0.00000
     54       9.2205      0.00000
     55       9.2205      0.00000
     56       9.2518      0.00000
     57       9.2518      0.00000
     58       9.2519      0.00000
     59       9.2519      0.00000
     60      10.5274      0.00000
     61      10.5274      0.00000
     62      10.6881      0.00000
     63      10.6881      0.00000
     64      10.6886      0.00000
     65      10.6886      0.00000
     66      10.6943      0.00000
     67      10.6943      0.00000
     68      10.6948      0.00000
     69      10.6948      0.00000
     70      10.9585      0.00000
     71      10.9585      0.00000
     72      10.9585      0.00000

 k-point   3 :       0.3333    0.0000    0.0000
  band No.  band energies     occupation 
      1      -2.6397      2.00000
      2      -1.8556      2.00000
      3      -0.3017      2.00000
      4      -0.3016      2.00000
      5      -0.3016      2.00000
      6      -0.3016      2.00000
      7       0.4686      2.00000
      8       0.4686      2.00000
      9       0.4686      2.00000
     10       0.4686      2.00000
     11       1.2322      2.00000
     12       1.9953      2.00000
     13       1.9953      2.00000
     14       1.9953      2.00000
     15       1.9954      2.00000
     16       2.7499      2.00000
     17       2.7499      2.00000
     18       2.7499      2.00000
     19       2.7499      2.00000
     20       3.4816      2.00000
     21       3.5009      2.00000
     22       3.5009      2.00000
     23       3.5009      2.00000
     24       3.5009      2.00000
     25       5.6985      2.00000
     26       5.6985      2.00000
     27       5.6985      2.00000
     28       5.6985      2.00000
     29       5.7730      2.00000
     30       5.7730      2.00000
     31       5.7730      2.00000
     32       5.7730      2.00000
     33       5.8396      2.00000
     34       5.8396      2.00000
     35       6.5558      2.00000
     36       6.5558      2.00000
     37       7.3068      2.00000
     38       7.3068      2.00000
     39       7.9472      2.00000
     40       7.9472      2.00000
     41       7.9472      2.00000
     42       7.9473      2.00000
     43       7.9917      2.00000
     44       7.9918      2.00000
     45       7.9919      2.00000
     46       7.9919      2.00000
     47       8.0128      2.00000
     48       8.0129      2.00000
     49       8.7115      0.00001
     50       8.7115      0.00001
     51       8.7115      0.00001
     52       8.7115      0.00001
     53       9.4306      0.00000
     54       9.4306      0.00000
     55       9.5889      0.00000
     56       9.5889      0.00000
     57       9.5889      0.00000
     58       9.5889      0.00000
     59       9.6277      0.00000
     60      10.3985      0.00000
     61      10.3985      0.00000
     62      10.3985      0.00000
     63      10.3985      0.00000
     64      11.3105      0.00000
     65      11.3105      0.00000
     66      11.5904      0.00000
     67      11.5904      0.00000
     68      11.5966      0.00000
     69      11.5966      0.00000
     70      11.5969      0.00000
     71      11.5969      0.00000
     72      12.0387      0.00000

 k-point   4 :       0.5000    0.0000    0.0000
  band No.  band energies     occupation 
      1      -2.3139      2.00000
      2      -2.3109      2.00000
      3       0.0157      2.00000
      4       0.0190      2.00000
      5       0.0190      2.00000
      6       0.0198      2.00000
      7       0.0199      2.00000
      8       0.0207      2.00000
      9       0.0207      2.00000
     10       0.0240      2.00000
     11       2.3020      2.00000
     12       2.3043      2.00000
     13       2.3091      2.00000
     14       2.3095      2.00000
     15       2.3095      2.00000
     16       2.3103      2.00000
     17       2.3113      2.00000
     18       2.3121      2.00000
     19       2.3121      2.00000
     20       2.3147      2.00000
     21       4.5499      2.00000
     22       4.5499      2.00000
     23       4.5503      2.00000
     24       4.5506      2.00000
     25       4.5508      2.00000
     26       4.5512      2.00000
     27       4.5515      2.00000
     28       4.5515      2.00000
     29       6.1362      2.00000
     30       6.1362      2.00000
     31       6.1395      2.00000
     32       6.1395      2.00000
     33       6.8091      2.00000
     34       6.8091      2.00000
     35       6.8095      2.00000
     36       6.8100      2.00000
     37       6.8100      2.00000
     38       6.8106      2.00000
     39       6.8110      2.00000
     40       6.8110      2.00000
     41       7.6068      2.00000
     42       7.6080      2.00000
     43       7.6097      2.00000
     44       7.6109      2.00000
     45       8.2891      2.00000
     46       8.2891      2.00000
     47       8.2900      2.00000
     48       8.2915      2.00000
     49       8.2916      2.00000
     50       8.2931      2.00000
     51       8.2940      2.00000
     52       8.2940      2.00000
     53       9.9455      0.00000
     54       9.9464      0.00000
     55       9.9464      0.00000
     56       9.9466      0.00000
     57       9.9489      0.00000
     58       9.9491      0.00000
     59       9.9491      0.00000
     60       9.9500      0.00000
     61      10.4500      0.00000
     62      10.4500      0.00000
     63      10.4521      0.00000
     64      10.4521      0.00000
     65      11.3644      0.00000
     66      11.3655      0.00000
     67      12.2451      0.00000
     68      12.2453      0.00000
     69      12.2471      0.00000
     70      12.2473      0.00000
     71      12.6194      0.00000
     72      12.6207      0.00000

 k-point   5 :       0.0000    0.1667    0.0000
  band No.  band energies     occupation 
      1      -2.8364      2.00000
      2      -1.2707      2.00000
      3      -0.4979      2.00000
      4      -0.4949      2.00000
      5      -0.4949      2.00000
      6      -0.4919      2.00000
      7       0.2759      2.00000
      8       1.0403      2.00000
      9       1.0434      2.00000
     10       1.0434      2.00000
     11       1.0464      2.00000
     12       1.8034      2.00000
     13       1.8043      2.00000
     14       1.8068      2.00000
     15       1.8077      2.00000
     16       2.5595      2.00000
     17       2.5626      2.00000
     18       2.5626      2.00000
     19       2.5657      2.00000
     20       3.3037      2.00000
     21       3.3046      2.00000
     22       3.3070      2.00000
     23       3.3079      2.00000
     24       4.7241      2.00000
     25       4.8535      2.00000
     26       4.8544      2.00000
     27       4.8569      2.00000
     28       4.8578      2.00000
     29       5.6607      2.00000
     30       5.6607      2.00000
     31       6.8958      2.00000
     32       6.8991      2.00000
     33       6.8991      2.00000
     34       6.9024      2.00000
     35       7.0937      2.00000
     36       7.0938      2.00000
     37       7.1220      2.00000
     38       7.1221      2.00000
     39       7.8091      2.00000
     40       7.8119      2.00000
     41       7.8120      2.00000
     42       7.8148      2.00000
     43       8.0491      2.00000
     44       8.4666      2.00000
     45       8.4666      2.00000
     46       8.5309      2.00000
     47       8.5309      2.00000
     48       9.1285      0.00000
     49       9.1298      0.00000
     50       9.1323      0.00000
     51       9.1336      0.00000
     52       9.2176      0.00000
     53       9.2205      0.00000
     54       9.2205      0.00000
     55       9.2232      0.00000
     56       9.2489      0.00000
     57       9.2518      0.00000
     58       9.2519      0.00000
     59       9.2547      0.00000
     60      10.5274      0.00000
     61      10.5274      0.00000
     62      10.6869      0.00000
     63      10.6877      0.00000
     64      10.6886      0.00000
     65      10.6901      0.00000
     66      10.6919      0.00000
     67      10.6943      0.00000
     68      10.6946      0.00000
     69      10.6975      0.00000
     70      10.9565      0.00000
     71      10.9585      0.00000
     72      10.9593      0.00000

 k-point   6 :       0.1667    0.1667    0.0000
  band No.  band energies     occupation 
      1      -2.7708      2.00000
      2      -1.2071      2.00000
      3      -1.2046      2.00000
      4      -0.4305      2.00000
      5      -0.4305      2.00000
      6       0.3383      2.00000
      7       0.3403      2.00000
      8       0.3421      2.00000
      9       1.1053      2.00000
     10       1.1063      2.00000
     11       1.1079      2.00000
     12       1.1088      2.00000
     13       1.8680      2.00000
     14       1.8689      2.00000
     15       2.6226      2.00000
     16       2.6237      2.00000
     17       2.6250      2.00000
     18       2.6251      2.00000
     19       2.6265      2.00000
     20       2.6278      2.00000
     21       3.3772      2.00000
     22       3.9505      2.00000
     23       3.9505      2.00000
     24       4.3385      2.00000
     25       4.3385      2.00000
     26       4.7849      2.00000
     27       4.7857      2.00000
     28       5.6511      2.00000
     29       5.6511      2.00000
     30       5.7203      2.00000
     31       6.2423      2.00000
     32       6.2448      2.00000
     33       6.8178      2.00000
     34       6.8178      2.00000
     35       7.1422      2.00000
     36       7.1424      2.00000
     37       7.1523      2.00000
     38       7.1551      2.00000
     39       7.1834      2.00000
     40       7.6298      2.00000
     41       7.6319      2.00000
     42       8.1086      2.00000
     43       8.1095      2.00000
     44       8.4623      2.00000
     45       8.4633      2.00000
     46       8.4649      2.00000
     47       8.4659      2.00000
     48       8.5887      2.00000
     49       8.5912      2.00000
     50       8.5935      2.00000
     51       8.7603      0.00000
     52       8.7620      0.00000
     53       9.3137      0.00000
     54       9.3164      0.00000
     55       9.9122      0.00000
     56       9.9133      0.00000
     57       9.9165      0.00000
     58       9.9170      0.00000
     59       9.9175      0.00000
     60       9.9190      0.00000
     61      10.0319      0.00000
     62      10.0337      0.00000
     63      10.2879      0.00000
     64      10.7023      0.00000
     65      10.7030      0.00000
     66      10.9794      0.00000
     67      10.9794      0.00000
     68      11.3040      0.00000
     69      11.3062      0.00000
     70      11.4763      0.00000
     71      11.7354      0.00000
     72      11.7354      0.00000

 k-point   7 :       0.3333    0.1667    0.0000
  band No.  band energies     occupation 
      1      -2.5742      2.00000
      2      -1.7905      2.00000
      3      -1.0116      2.00000
      4      -0.2387      2.00000
      5      -0.2373      2.00000
      6      -0.2358      2.00000
      7       0.5309      2.00000
      8       0.5326      2.00000
      9       0.5338      2.00000
     10       1.2945      2.00000
     11       1.2974      2.00000
     12       1.2980      2.00000
     13       1.2992      2.00000
     14       2.0585      2.00000
     15       2.0585      2.00000
     16       2.8121      2.00000
     17       2.8135      2.00000
     18       2.8138      2.00000
     19       3.5437      2.00000
     20       3.5540      2.00000
     21       3.5540      2.00000
     22       3.5629      2.00000
     23       3.5631      2.00000
     24       4.3081      2.00000
     25       4.9687      2.00000
     26       5.0278      2.00000
     27       5.1028      2.00000
     28       5.1028      2.00000
     29       5.6996      2.00000
     30       5.7507      2.00000
     31       5.7507      2.00000
     32       5.8992      2.00000
     33       6.4764      2.00000
     34       6.5718      2.00000
     35       6.5718      2.00000
     36       6.6156      2.00000
     37       7.1964      2.00000
     38       7.1965      2.00000
     39       7.2755      2.00000
     40       7.2755      2.00000
     41       7.3332      2.00000
     42       7.3651      2.00000
     43       7.9177      2.00000
     44       7.9177      2.00000
     45       7.9738      2.00000
     46       8.0519      2.00000
     47       8.2874      2.00000
     48       8.7387      0.00000
     49       8.7388      0.00000
     50       8.7711      0.00000
     51       8.8081      0.00000
     52       8.9563      0.00000
     53       8.9728      0.00000
     54       9.4895      0.00000
     55       9.4931      0.00000
     56       9.6849      0.00000
     57       9.7310      0.00000
     58      10.2084      0.00000
     59      10.4677      0.00000
     60      10.4677      0.00000
     61      10.8201      0.00000
     62      10.8202      0.00000
     63      10.8267      0.00000
     64      10.9347      0.00000
     65      11.1699      0.00000
     66      11.3007      0.00000
     67      11.3007      0.00000
     68      11.3963      0.00000
     69      11.5442      0.00000
     70      11.6512      0.00000
     71      12.1355      0.00000
     72      12.1380      0.00000

 k-point   8 :       0.5000    0.1667    0.0000
  band No.  band energies     occupation 
      1      -2.2485      2.00000
      2      -2.2456      2.00000
      3      -0.6898      2.00000
      4      -0.6868      2.00000
      5       0.0820      2.00000
      6       0.0832      2.00000
      7       0.0849      2.00000
      8       0.0861      2.00000
      9       0.8500      2.00000
     10       0.8530      2.00000
     11       1.6135      2.00000
     12       1.6147      2.00000
     13       1.6165      2.00000
     14       1.6177      2.00000
     15       2.3667      2.00000
     16       2.3678      2.00000
     17       3.1231      2.00000
     18       3.1244      2.00000
     19       3.1262      2.00000
     20       3.1275      2.00000
     21       3.8690      2.00000
     22       3.8701      2.00000
     23       4.6098      2.00000
     24       4.6104      2.00000
     25       4.6109      2.00000
     26       4.6115      2.00000
     27       5.2723      2.00000
     28       5.2754      2.00000
     29       5.3467      2.00000
     30       5.3478      2.00000
     31       6.1349      2.00000
     32       6.1352      2.00000
     33       6.1362      2.00000
     34       6.1364      2.00000
     35       6.1960      2.00000
     36       6.1992      2.00000
     37       7.4913      2.00000
     38       7.4926      2.00000
     39       7.4945      2.00000
     40       7.4957      2.00000
     41       7.6052      2.00000
     42       7.6055      2.00000
     43       7.6065      2.00000
     44       7.6067      2.00000
     45       7.6309      2.00000
     46       7.6342      2.00000
     47       7.6538      2.00000
     48       7.6567      2.00000
     49       8.5759      2.00000
     50       8.5789      2.00000
     51       9.0696      0.00000
     52       9.0729      0.00000
     53       9.2909      0.00000
     54       9.2938      0.00000
     55       9.7218      0.00000
     56       9.7235      0.00000
     57      10.5102      0.00000
     58      10.5124      0.00000
     59      10.6912      0.00000
     60      10.6945      0.00000
     61      10.8484      0.00000
     62      10.8491      0.00000
     63      10.8516      0.00000
     64      10.8523      0.00000
     65      11.4162      0.00000
     66      11.4173      0.00000
     67      11.8356      0.00000
     68      11.8357      0.00000
     69      11.8374      0.00000
     70      11.8374      0.00000
     71      11.9563      0.00000
     72      11.9586      0.00000

 k-point   9 :       0.0000    0.3333    0.0000
  band No.  band energies     occupation 
      1      -2.6397      2.00000
      2      -1.8556      2.00000
      3      -0.3047      2.00000
      4      -0.3016      2.00000
      5      -0.3016      2.00000
      6      -0.2986      2.00000
      7       0.4656      2.00000
      8       0.4686      2.00000
      9       0.4686      2.00000
     10       0.4717      2.00000
     11       1.2321      2.00000
     12       1.9932      2.00000
     13       1.9941      2.00000
     14       1.9966      2.00000
     15       1.9975      2.00000
     16       2.7478      2.00000
     17       2.7487      2.00000
     18       2.7512      2.00000
     19       2.7521      2.00000
     20       3.4816      2.00000
     21       3.4978      2.00000
     22       3.5009      2.00000
     23       3.5009      2.00000
     24       3.5039      2.00000
     25       5.6953      2.00000
     26       5.6985      2.00000
     27       5.6985      2.00000
     28       5.7017      2.00000
     29       5.7708      2.00000
     30       5.7717      2.00000
     31       5.7743      2.00000
     32       5.7752      2.00000
     33       5.8396      2.00000
     34       5.8396      2.00000
     35       6.5558      2.00000
     36       6.5558      2.00000
     37       7.3068      2.00000
     38       7.3068      2.00000
     39       7.9449      2.00000
     40       7.9460      2.00000
     41       7.9486      2.00000
     42       7.9496      2.00000
     43       7.9889      2.00000
     44       7.9916      2.00000
     45       7.9917      2.00000
     46       7.9946      2.00000
     47       8.0128      2.00000
     48       8.0130      2.00000
     49       8.7086      0.00006
     50       8.7115      0.00001
     51       8.7115      0.00001
     52       8.7144      0.00000
     53       9.4306      0.00000
     54       9.4306      0.00000
     55       9.5863      0.00000
     56       9.5889      0.00000
     57       9.5889      0.00000
     58       9.5914      0.00000
     59       9.6278      0.00000
     60      10.3961      0.00000
     61      10.3985      0.00000
     62      10.3985      0.00000
     63      10.4010      0.00000
     64      11.3105      0.00000
     65      11.3105      0.00000
     66      11.5906      0.00000
     67      11.5907      0.00000
     68      11.5937      0.00000
     69      11.5966      0.00000
     70      11.5967      0.00000
     71      11.5996      0.00000
     72      12.0385      0.00000

 k-point  10 :       0.1667    0.3333    0.0000
  band No.  band energies     occupation 
      1      -2.5742      2.00000
      2      -1.7905      2.00000
      3      -1.0116      2.00000
      4      -0.2387      2.00000
      5      -0.2373      2.00000
      6      -0.2358      2.00000
      7       0.5309      2.00000
      8       0.5326      2.00000
      9       0.5338      2.00000
     10       1.2947      2.00000
     11       1.2969      2.00000
     12       1.2980      2.00000
     13       1.2996      2.00000
     14       2.0585      2.00000
     15       2.0585      2.00000
     16       2.8114      2.00000
     17       2.8135      2.00000
     18       2.8145      2.00000
     19       3.5437      2.00000
     20       3.5541      2.00000
     21       3.5542      2.00000
     22       3.5628      2.00000
     23       3.5629      2.00000
     24       4.3080      2.00000
     25       4.9687      2.00000
     26       5.0278      2.00000
     27       5.1028      2.00000
     28       5.1028      2.00000
     29       5.6996      2.00000
     30       5.7507      2.00000
     31       5.7507      2.00000
     32       5.8992      2.00000
     33       6.4764      2.00000
     34       6.5718      2.00000
     35       6.5718      2.00000
     36       6.6156      2.00000
     37       7.1965      2.00000
     38       7.1965      2.00000
     39       7.2755      2.00000
     40       7.2755      2.00000
     41       7.3331      2.00000
     42       7.3651      2.00000
     43       7.9177      2.00000
     44       7.9177      2.00000
     45       7.9738      2.00000
     46       8.0519      2.00000
     47       8.2874      2.00000
     48       8.7388      0.00000
     49       8.7388      0.00000
     50       8.7710      0.00000
     51       8.8081      0.00000
     52       8.9562      0.00000
     53       8.9729      0.00000
     54       9.4903      0.00000
     55       9.4923      0.00000
     56       9.6849      0.00000
     57       9.7310      0.00000
     58      10.2084      0.00000
     59      10.4677      0.00000
     60      10.4677      0.00000
     61      10.8202      0.00000
     62      10.8202      0.00000
     63      10.8265      0.00000
     64      10.9347      0.00000
     65      11.1698      0.00000
     66      11.3007      0.00000
     67      11.3007      0.00000
     68      11.3963      0.00000
     69      11.5442      0.00000
     70      11.6512      0.00000
     71      12.1355      0.00000
     72      12.1363      0.00000

 k-point  11 :       0.3333    0.3333    0.0000
  band No.  band energies     occupation 
      1      -2.3778      2.00000
[...]
      6      -0.1084      2.00000
      7      -0.1084      2.00000
      8      -0.1084      2.00000
      9       1.4245      2.00000
     10       1.4245      2.00000
     11       1.4245      2.00000
     12       1.4245      2.00000
     13       2.9328      2.00000
     14       2.9328      2.00000
     15       2.9328      2.00000
     16       2.9329      2.00000
     17       2.9329      2.00000
     18       2.9329      2.00000
     19       2.9329      2.00000
     20       2.9329      2.00000
     21       4.4140      2.00000
     22       4.4140      2.00000
     23       4.4143      2.00000
     24       4.4143      2.00000
     25       4.4143      2.00000
     26       4.4143      2.00000
     27       4.4147      2.00000
     28       4.4147      2.00000
     29       5.8109      2.00000
     30       5.8109      2.00000
     31       5.8109      2.00000
     32       5.8109      2.00000
     33       5.9603      2.00000
     34       5.9603      2.00000
     35       5.9609      2.00000
     36       5.9609      2.00000
     37       5.9609      2.00000
     38       5.9609      2.00000
     39       5.9616      2.00000
     40       5.9616      2.00000
     41       7.3698      2.00000
     42       7.3698      2.00000
     43       7.3698      2.00000
     44       7.3698      2.00000
     45       8.8730      0.00000
     46       8.8730      0.00000
     47       8.8730      0.00000
     48       8.8730      0.00000
     49       9.2652      0.00000
     50       9.2652      0.00000
     51       9.2652      0.00000
     52       9.2652      0.00000
     53      10.1814      0.00000
     54      10.1814      0.00000
     55      10.1821      0.00000
     56      10.1821      0.00000
     57      10.1821      0.00000
     58      10.1821      0.00000
     59      10.1828      0.00000
     60      10.1828      0.00000
     61      10.3319      0.00000
     62      10.3319      0.00000
     63      10.3319      0.00000
     64      10.3319      0.00000
     65      11.9565      0.00000
     66      11.9565      0.00000
     67      11.9576      0.00000
     68      11.9576      0.00000
     69      11.9576      0.00000
     70      11.9577      0.00000
     71      11.9588      0.00000
     72      11.9588      0.00000

 k-point  39 :       0.3333    0.5000    0.5000
  band No.  band energies     occupation 
      1      -1.4654      2.00000
      2      -1.4654      2.00000
      3      -1.4654      2.00000
      4      -1.4654      2.00000
      5      -0.6883      2.00000
      6      -0.6883      2.00000
      7      -0.6883      2.00000
      8      -0.6883      2.00000
      9       2.3718      2.00000
     10       2.3718      2.00000
     11       2.3718      2.00000
     12       2.3718      2.00000
     13       3.1206      2.00000
     14       3.1206      2.00000
     15       3.1206      2.00000
     16       3.1206      2.00000
     17       3.1206      2.00000
     18       3.1206      2.00000
     19       3.1207      2.00000
     20       3.1207      2.00000
     21       3.8665      2.00000
     22       3.8665      2.00000
     23       3.8666      2.00000
     24       3.8666      2.00000
     25       3.8666      2.00000
     26       3.8666      2.00000
     27       3.8667      2.00000
     28       3.8667      2.00000
     29       4.5943      2.00000
     30       4.5943      2.00000
     31       4.5943      2.00000
     32       4.5943      2.00000
     33       6.8657      2.00000
     34       6.8657      2.00000
     35       6.8661      2.00000
     36       6.8661      2.00000
     37       6.8661      2.00000
     38       6.8661      2.00000
     39       6.8665      2.00000
     40       6.8665      2.00000
     41       7.5780      2.00000
     42       7.5780      2.00000
     43       7.5780      2.00000
     44       7.5780      2.00000
     45       8.3219      2.00000
     46       8.3219      2.00000
     47       8.3219      2.00000
     48       8.3219      2.00000
     49       9.0128      0.00000
     50       9.0128      0.00000
     51       9.0133      0.00000
     52       9.0133      0.00000
     53       9.0133      0.00000
     54       9.0133      0.00000
     55       9.0138      0.00000
     56       9.0138      0.00000
     57      10.7916      0.00000
     58      10.7916      0.00000
     59      10.7916      0.00000
     60      10.7916      0.00000
     61      11.2351      0.00000
     62      11.2351      0.00000
     63      11.2351      0.00000
     64      11.2351      0.00000
     65      12.1915      0.00000
     66      12.1915      0.00000
     67      12.1922      0.00000
     68      12.1923      0.00000
     69      12.1923      0.00000
     70      12.1923      0.00000
     71      12.1931      0.00000
     72      12.1931      0.00000

 k-point  40 :       0.5000    0.5000    0.5000
  band No.  band energies     occupation 
      1      -1.1461      2.00000
      2      -1.1415      2.00000
      3      -1.1415      2.00000
      4      -1.1411      2.00000
      5      -1.1410      2.00000
      6      -1.1406      2.00000
      7      -1.1406      2.00000
      8      -1.1361      2.00000
      9       3.4222      2.00000
     10       3.4283      2.00000
     11       3.4283      2.00000
     12       3.4316      2.00000
     13       3.4320      2.00000
     14       3.4321      2.00000
     15       3.4325      2.00000
     16       3.4325      2.00000
     17       3.4325      2.00000
     18       3.4326      2.00000
     19       3.4326      2.00000
     20       3.4326      2.00000
     21       3.4326      2.00000
     22       3.4326      2.00000
     23       3.4327      2.00000
     24       3.4327      2.00000
     25       3.4327      2.00000
     26       3.4327      2.00000
     27       3.4331      2.00000
     28       3.4332      2.00000
     29       3.4336      2.00000
     30       3.4369      2.00000
     31       3.4369      2.00000
     32       3.4430      2.00000
     33       7.8844      2.00000
     34       7.8844      2.00000
     35       7.8867      2.00000
     36       7.8883      2.00000
     37       7.8900      2.00000
     38       7.8903      2.00000
     39       7.8904      2.00000
     40       7.8904      2.00000
     41       7.8907      2.00000
     42       7.8907      2.00000
     43       7.8907      2.00000
     44       7.8907      2.00000
     45       7.8907      2.00000
     46       7.8907      2.00000
     47       7.8908      2.00000
     48       7.8908      2.00000
     49       7.8911      2.00000
     50       7.8911      2.00000
     51       7.8912      2.00000
     52       7.8915      2.00000
     53       7.8932      2.00000
     54       7.8948      2.00000
     55       7.8970      2.00000
     56       7.8970      2.00000
     57      12.2465      0.00000
     58      12.2469      0.00000
     59      12.2469      0.00000
     60      12.2471      0.00000
     61      12.2490      0.00000
     62      12.2493      0.00000
     63      12.2493      0.00000
     64      12.2498      0.00000
     65      12.4974      0.00000
     66      12.4981      0.00000
     67      12.4993      0.00000
     68      12.5000      0.00000
     69      12.5008      0.00000
     70      12.5012      0.00000
     71      12.5015      0.00000
     72      12.5021      0.00000


--------------------------------------------------------------------------------------------------------


 soft charge-density along one line, spin component           1
         0         1         2         3         4         5         6         7         8         9
 total charge-density along one line
 
 pseudopotential strength for first ion, spin component:           1
  8.423  -0.007  -0.000   0.000  -0.000  -0.000   0.000  -0.000
 -0.007   0.000  -0.000   0.000  -0.000   0.000  -0.000   0.000
 -0.000  -0.000   1.991  -0.000  -0.000  -0.029   0.000   0.000
  0.000   0.000  -0.000   1.991   0.000   0.000  -0.029  -0.000
 -0.000  -0.000  -0.000   0.000   1.991   0.000  -0.000  -0.029
 -0.000   0.000  -0.029   0.000   0.000  -0.011   0.000   0.000
  0.000  -0.000   0.000  -0.029  -0.000   0.000  -0.011  -0.000
 -0.000   0.000   0.000  -0.000  -0.029   0.000  -0.000  -0.011
 total augmentation occupancy for first ion, spin component:           1
  1.308  -0.551  -0.000   0.000   0.003   0.000  -0.000  -0.002
 -0.551   0.549  -0.000   0.000  -0.004   0.000  -0.000   0.001
 -0.000  -0.000   0.783   0.006   0.009  -0.165  -0.001  -0.001
  0.000   0.000   0.006   0.784   0.003  -0.001  -0.162  -0.001
  0.003  -0.004   0.009   0.003   0.783  -0.001  -0.001  -0.163
  0.000   0.000  -0.165  -0.001  -0.001   0.040   0.000   0.000
 -0.000  -0.000  -0.001  -0.162  -0.001   0.000   0.039   0.000
 -0.002   0.001  -0.001  -0.001  -0.163   0.000   0.000   0.039


------------------------ aborting loop because EDIFF is reached ----------------------------------------




--------------------------------------------------------------------------------------------------------


    CHARGE:  VPU time    1.29: CPU time    1.29
    FORLOC:  VPU time    0.02: CPU time    0.02
    FORNL :  VPU time    5.06: CPU time    5.07
    STRESS:  VPU time   11.32: CPU time   11.33
    FORCOR:  VPU time    0.15: CPU time    0.15
    FORHAR:  VPU time    0.05: CPU time    0.05
    MIXING:  VPU time    0.00: CPU time    0.00


--------------------------------------------------------------------------------------------------------



  FREE ENERGIE OF THE ION-ELECTRON SYSTEM (eV)
  ---------------------------------------------------
  free  energy   TOTEN  =      -119.251065 eV

  energy  without entropy=     -119.249448  energy(sigma->0) =     -119.250257
 

  FORCE on cell =-STRESS in cart. coord.  units (eV/reduce length):
  Direction    X        Y        Z        XY       YZ       ZX
  --------------------------------------------------------------------------------------
  Alpha Z     -6.94     -6.94     -6.94
  Ewald     -800.96   -800.95   -800.95      0.00      0.00      0.00
  Hartree      1.23      1.23      1.23     -0.00     -0.00     -0.00
  E(xc)     -279.71   -279.71   -279.71     -0.00      0.00      0.00
  Local       19.80     19.79     19.79     -0.00      0.00      0.00
  n-local    614.72    614.32    615.12     -1.37     -0.42      0.54
  augment    -31.89    -31.89    -31.89      0.00      0.00      0.00
  Kinetic    500.76    495.05    506.48      7.98      2.64     -2.70
  -------------------------------------------------------------------------------------
  Total       17.01     17.01     17.01      0.00      0.00      0.00
  in kB       55.00     55.00     55.00      0.00      0.00      0.00
  external pressure =       55.00 kB  Pullay stress =        0.00 kB


 VOLUME and BASIS-vectors are now :
 -----------------------------------------------------------------------------
  energy-cutoff  :      500.00
  volume of cell :      495.50
      direct lattice vectors                 reciprocal lattice vectors
     7.913120485  0.000000000  0.000000000     0.126372397  0.000000000  0.000000000
     0.000000000  7.913120485  0.000000000     0.000000000  0.126372397  0.000000000
     0.000000000  0.000000000  7.913120485     0.000000000  0.000000000  0.126372397

  length of vectors
     7.913120485  7.913120485  7.913120485     0.126372397  0.126372397  0.126372397


 FORCES acting on ions
    electron-ion (+dipol)            ewald-force                    non-local-force                 convergence-correction
 -----------------------------------------------------------------------------------------------
   0.418E+00 -.273E-14 -.101E-07   -.340E+00 -.133E-14 -.160E-14   -.137E+00 -.133E-19 0.232E-19   -.174E-05 0.429E-14 -.185E-13
   -.890E-01 0.247E-12 -.102E-12   0.896E-01 -.444E-15 0.413E-14   0.309E-02 -.947E-19 -.577E-19   0.293E-05 0.623E-14 -.252E-13
   0.318E-01 0.473E-14 -.169E-13   -.284E-01 -.444E-15 0.324E-14   -.275E-02 -.438E-19 -.398E-19   0.368E-06 -.508E-14 -.169E-13
   -.236E-01 -.355E-12 -.305E-13   0.223E-01 -.444E-15 -.310E-15   0.149E-02 0.535E-19 0.789E-20   -.186E-05 -.707E-14 -.217E-13
   0.318E-01 0.899E-14 -.755E-13   -.284E-01 0.000E+00 -.851E-15   -.275E-02 -.421E-19 -.137E-20   0.377E-06 0.206E-14 0.189E-13
   -.236E-01 -.656E-13 -.253E-14   0.223E-01 0.000E+00 -.851E-15   0.149E-02 -.529E-19 0.144E-19   -.186E-05 0.226E-14 0.256E-13
   0.147E-01 -.198E-13 -.355E-13   -.117E-01 0.000E+00 0.359E-14   -.191E-02 0.907E-19 0.600E-19   -.337E-05 -.283E-14 0.173E-13
   -.115E-01 0.133E-12 0.346E-12   0.110E-01 0.000E+00 0.359E-14   -.477E-03 0.481E-19 -.896E-20   0.328E-05 -.310E-14 0.221E-13
   0.512E-01 -.209E-03 0.209E-03   -.535E-01 0.213E-03 -.213E-03   0.570E-03 0.299E-04 -.299E-04   -.189E-05 -.163E-06 0.163E-06
   -.350E-01 0.122E-03 -.122E-03   0.301E-01 -.637E-04 0.637E-04   0.364E-02 -.462E-04 0.462E-04   0.722E-06 -.110E-06 0.110E-06
   0.512E-01 0.209E-03 0.209E-03   -.535E-01 -.213E-03 -.213E-03   0.570E-03 -.299E-04 -.299E-04   -.189E-05 0.163E-06 0.163E-06
   -.350E-01 -.122E-03 -.122E-03   0.301E-01 0.637E-04 0.637E-04   0.364E-02 0.462E-04 0.462E-04   0.722E-06 0.110E-06 0.110E-06
   0.512E-01 -.209E-03 -.209E-03   -.535E-01 0.213E-03 0.213E-03   0.570E-03 0.299E-04 0.299E-04   -.189E-05 -.163E-06 -.163E-06
   -.350E-01 0.122E-03 0.122E-03   0.301E-01 -.637E-04 -.637E-04   0.364E-02 -.462E-04 -.462E-04   0.722E-06 -.110E-06 -.110E-06
   0.512E-01 0.209E-03 -.209E-03   -.535E-01 -.213E-03 0.213E-03   0.570E-03 -.299E-04 0.299E-04   -.189E-05 0.163E-06 -.163E-06
   -.350E-01 -.122E-03 0.122E-03   0.301E-01 0.637E-04 -.637E-04   0.364E-02 0.462E-04 -.462E-04   0.722E-06 0.110E-06 -.110E-06
   -.513E-01 0.687E-15 0.894E-01   0.433E-01 -.444E-15 -.821E-01   0.159E-01 0.334E-19 -.162E-01   0.235E-06 0.308E-14 -.158E-05
   -.512E-01 -.314E-12 -.904E-01   0.431E-01 0.000E+00 0.828E-01   0.162E-01 -.663E-20 0.167E-01   0.303E-06 0.257E-14 0.186E-05
   -.460E-03 -.112E-13 0.753E-02   0.145E-02 0.000E+00 -.679E-02   -.774E-03 0.511E-19 -.516E-03   0.581E-06 -.391E-14 0.231E-05
   -.361E-03 -.550E-13 -.762E-02   0.131E-02 0.000E+00 0.680E-02   -.740E-03 -.610E-20 0.576E-03   0.536E-06 -.339E-14 -.212E-05
   -.513E-01 -.815E-15 -.894E-01   0.433E-01 -.444E-15 0.821E-01   0.159E-01 -.424E-19 0.162E-01   0.235E-06 0.444E-14 0.158E-05
   -.512E-01 0.732E-13 0.904E-01   0.431E-01 0.000E+00 -.828E-01   0.162E-01 -.506E-19 -.167E-01   0.303E-06 0.469E-14 -.186E-05
   -.460E-03 -.139E-13 -.753E-02   0.145E-02 0.000E+00 0.679E-02   -.774E-03 -.140E-19 0.516E-03   0.581E-06 -.524E-14 -.231E-05
   -.361E-03 0.129E-12 0.762E-02   0.131E-02 0.000E+00 -.680E-02   -.740E-03 0.303E-19 -.576E-03   0.536E-06 -.547E-14 0.212E-05
   -.513E-01 -.894E-01 0.435E-14   0.433E-01 0.821E-01 -.836E-15   0.159E-01 0.162E-01 -.138E-19   0.236E-06 0.157E-05 -.205E-13
   -.512E-01 0.904E-01 0.351E-13   0.431E-01 -.828E-01 0.608E-16   0.162E-01 -.167E-01 0.222E-19   0.304E-06 -.185E-05 -.189E-13
   -.513E-01 0.894E-01 -.868E-16   0.433E-01 -.821E-01 -.349E-14   0.159E-01 -.162E-01 -.281E-20   0.236E-06 -.157E-05 -.219E-13
   -.512E-01 -.904E-01 0.418E-13   0.431E-01 0.828E-01 -.348E-14   0.162E-01 0.167E-01 -.192E-19   0.304E-06 0.185E-05 -.210E-13
   -.460E-03 -.753E-02 -.875E-14   0.145E-02 0.679E-02 -.948E-15   -.774E-03 0.516E-03 0.113E-19   0.581E-06 -.231E-05 0.209E-13
   -.361E-03 0.762E-02 -.963E-13   0.131E-02 -.680E-02 -.360E-14   -.740E-03 -.576E-03 0.327E-19   0.535E-06 0.212E-05 0.193E-13
   -.460E-03 0.753E-02 -.399E-14   0.145E-02 -.679E-02 0.173E-14   -.774E-03 -.516E-03 0.116E-19   0.581E-06 0.231E-05 0.223E-13
   -.361E-03 -.762E-02 0.993E-13   0.131E-02 0.680E-02 -.182E-14   -.740E-03 0.576E-03 0.291E-19   0.535E-06 -.212E-05 0.214E-13
 -----------------------------------------------------------------------------------------------
   -.439E-06 0.194E-12 -.101E-07   0.600E-14 0.522E-14 -.322E-14   -.364E-05 0.108E-18 -.688E-18   0.775E-07 -.786E-16 -.805E-17
 
 
 POSITION                                       TOTAL-FORCE (eV/Angst)
 -----------------------------------------------------------------------------------
      1.98828      1.97828      0.00000        -0.058729      0.000000      0.000000
      5.93484      1.97828      0.00000         0.003773     -0.000000      0.000000
      1.97828      5.93484      0.00000         0.000679     -0.000000      0.000000
      5.93484      5.93484      0.00000         0.000146      0.000000     -0.000000
      1.97828      1.97828      3.95656         0.000679      0.000000      0.000000
      5.93484      1.97828      3.95656         0.000146      0.000000     -0.000000
      1.97828      5.93484      3.95656         0.001028     -0.000000     -0.000000
      5.93484      5.93484      3.95656        -0.001041      0.000000      0.000000
      1.97828      0.00000      1.97828        -0.001742      0.000033     -0.000033
      5.93484      0.00000      1.97828        -0.001282      0.000012     -0.000012
      1.97828      3.95656      1.97828        -0.001742     -0.000033     -0.000033
      5.93484      3.95656      1.97828        -0.001282     -0.000012     -0.000012
      1.97828      0.00000      5.93484        -0.001742      0.000033      0.000033
      5.93484      0.00000      5.93484        -0.001282      0.000012      0.000012
      1.97828      3.95656      5.93484        -0.001742     -0.000033      0.000033
      5.93484      3.95656      5.93484        -0.001282     -0.000012      0.000012
      0.00000      1.97828      1.97828         0.007873     -0.000000     -0.008892
      3.95656      1.97828      1.97828         0.008058     -0.000000      0.009126
      0.00000      5.93484      1.97828         0.000214      0.000000      0.000220
      3.95656      5.93484      1.97828         0.000209     -0.000000     -0.000239
      0.00000      1.97828      5.93484         0.007873      0.000000      0.008892
      3.95656      1.97828      5.93484         0.008058     -0.000000     -0.009126
      0.00000      5.93484      5.93484         0.000214     -0.000000     -0.000220
      3.95656      5.93484      5.93484         0.000209     -0.000000      0.000239
      0.00000      0.00000      0.00000         0.007873      0.008892      0.000000
      3.95656      0.00000      0.00000         0.008058     -0.009126     -0.000000
      0.00000      3.95656      0.00000         0.007873     -0.008892     -0.000000
      3.95656      3.95656      0.00000         0.008058      0.009126      0.000000
      0.00000      0.00000      3.95656         0.000214     -0.000220     -0.000000
      3.95656      0.00000      3.95656         0.000209      0.000239     -0.000000
      0.00000      3.95656      3.95656         0.000214      0.000220      0.000000
      3.95656      3.95656      3.95656         0.000209     -0.000239      0.000000
 -----------------------------------------------------------------------------------
    total drift:                               -0.000004      0.000000     -0.000000


--------------------------------------------------------------------------------------------------------



 mean value of Nose-termostat <S>:     1.000 mean value of <T> :     0.000
 mean temperature <T/S>/<1/S>  :     0.000

     LOOP+:  VPU time  305.67: CPU time  306.27
  
  
 General timing and accounting informations for this job:
 ========================================================
  
                  Total CPU time used (sec):      310.791
                            User time (sec):      296.876
                          System time (sec):       13.915
                         Elapsed time (sec):      311.398
  
                   Maximum memory used (kb):      908472.
                   Average memory used (kb):           0.
  
                          Minor page faults:       211425
                          Major page faults:            0
                 Voluntary context switches:          918
