<?xml version="1.0" encoding="ISO-8859-1"?>
<modeling>
 <generator>
  <i name="program" type="string">vasp</i>
  <i name="version" type="string">4.6.28 </i>
  <i name="subversion" type="string">25Jul05 complex  parallel</i>
  <i name="platform" type="string">LinuxIFC</i>
  <i name="date" type="string">2016 10 19</i>
  <i name="time" type="string">17:38:55</i>
 </generator>
 <incar>
  <i type="string" name="PREC">accurate</i>
  <i type="int" name="IALGO">    38</i>
  <i name="EDIFF">      0.00000001</i>
  <i type="int" name="IBRION">    -1</i>
  <i name="ENCUT">    500.00000000</i>
  <i type="logical" name="LREAL"> F  </i>
  <i type="int" name="ISMEAR">     0</i>
  <i name="SIGMA">      0.01000000</i>
  <i type="logical" name="LWAVE"> F  </i>
  <i type="logical" name="LCHARG"> F  </i>
 </incar>
 <kpoints>
  <generation param="Auto">
   <i name="subdivisionlength">     50.00000000</i>
   <v type="int" name="divisions">       6       6       6</v>
   <v name="usershift">      0.00000000      0.00000000      0.00000000</v>
   <v name="genvec1">      0.16666667      0.00000000      0.00000000</v>
   <v name="genvec2">      0.00000000      0.16666667      0.00000000</v>
   <v name="genvec3">      0.00000000      0.00000000      0.16666667</v>
   <v name="shift">      0.00000000      0.00000000      0.00000000</v>
  </generation>
  <varray name="kpointlist" >
   <v>       0.00000000      0.00000000      0.00000000</v>
   <v>       0.16666667      0.00000000      0.00000000</v>
   <v>       0.33333333      0.00000000      0.00000000</v>
   <v>       0.50000000      0.00000000      0.00000000</v>
   <v>       0.00000000      0.16666667      0.00000000</v>
   <v>       0.16666667      0.16666667      0.00000000</v>
   <v>       0.33333333      0.16666667      0.00000000</v>
   <v>       0.50000000      0.16666667      0.00000000</v>
   <v>       0.00000000      0.33333333      0.00000000</v>
   <v>       0.16666667      0.33333333      0.00000000</v>
   <v>       0.33333333      0.33333333      0.00000000</v>
   <v>       0.50000000      0.33333333      0.00000000</v>
   <v>       0.00000000      0.50000000      0.00000000</v>
   <v>       0.16666667      0.50000000      0.00000000</v>
   <v>       0.33333333      0.50000000      0.00000000</v>
   <v>       0.50000000      0.50000000      0.00000000</v>
   <v>       0.00000000      0.16666667      0.16666667</v>
   <v>       0.16666667      0.16666667      0.16666667</v>
   <v>       0.33333333      0.16666667      0.16666667</v>
   <v>       0.50000000      0.16666667      0.16666667</v>
   <v>       0.00000000      0.33333333      0.16666667</v>
   <v>       0.16666667      0.33333333      0.16666667</v>
   <v>       0.33333333      0.33333333      0.16666667</v>
   <v>       0.50000000      0.33333333      0.16666667</v>
   <v>       0.00000000      0.50000000      0.16666667</v>
   <v>       0.16666667      0.50000000      0.16666667</v>
   <v>       0.33333333      0.50000000      0.16666667</v>
   <v>       0.50000000      0.50000000      0.16666667</v>
   <v>       0.00000000      0.33333333      0.33333333</v>
   <v>       0.16666667      0.33333333      0.33333333</v>
   <v>       0.33333333      0.33333333      0.33333333</v>
   <v>       0.50000000      0.33333333      0.33333333</v>
   <v>       0.00000000      0.50000000      0.33333333</v>
   <v>       0.16666667      0.50000000      0.33333333</v>
   <v>       0.33333333      0.50000000      0.33333333</v>
   <v>       0.50000000      0.50000000      0.33333333</v>
   <v>       0.00000000      0.50000000      0.50000000</v>
   <v>       0.16666667      0.50000000      0.50000000</v>
   <v>       0.33333333      0.50000000      0.50000000</v>
   <v>       0.50000000      0.50000000      0.50000000</v>
  </varray>
  <varray name="weights" >
   <v>       0.00462963</v>
   <v>       0.00925926</v>
   <v>       0.00925926</v>
   <v>       0.00462963</v>
   <v>       0.01851852</v>
   <v>       0.03703704</v>
   <v>       0.03703704</v>
   <v>       0.01851852</v>
   <v>       0.01851852</v>
   <v>       0.03703704</v>
   <v>       0.03703704</v>
   <v>       0.01851852</v>
   <v>       0.00925926</v>
   <v>       0.01851852</v>
   <v>       0.01851852</v>
   <v>       0.00925926</v>
   <v>       0.01851852</v>
   <v>       0.03703704</v>
   <v>       0.03703704</v>
   <v>       0.01851852</v>
   <v>       0.03703704</v>
   <v>       0.07407407</v>
   <v>       0.07407407</v>
   <v>       0.03703704</v>
   <v>       0.01851852</v>
   <v>       0.03703704</v>
   <v>       0.03703704</v>
   <v>       0.01851852</v>
   <v>       0.01851852</v>
   <v>       0.03703704</v>
   <v>       0.03703704</v>
   <v>       0.01851852</v>
   <v>       0.01851852</v>
   <v>       0.03703704</v>
   <v>       0.03703704</v>
   <v>       0.01851852</v>
   <v>       0.00462963</v>
   <v>       0.00925926</v>
   <v>       0.00925926</v>
   <v>       0.00462963</v>
  </varray>
 </kpoints>
 <parameters>
  <separator name="general" >
   <i type="string" name="SYSTEM">unknown system</i>
   <i type="logical" name="LCOMPAT"> F  </i>
  </separator>
  <separator name="electronic" >
   <i type="string" name="PREC">accura</i>
   <i name="ENMAX">    500.00000000</i>
   <i name="ENAUG">    291.05200000</i>
   <i name="EDIFF">      0.00000001</i>
   <i type="int" name="IALGO">    38</i>
   <i type="int" name="IWAVPR">    10</i>
   <i type="int" name="NBANDS">    65</i>
   <i name="NELECT">     96.00000000</i>
   <separator name="electronic smearing" >
    <i type="int" name="ISMEAR">     0</i>
    <i name="SIGMA">      0.01000000</i>
   </separator>
   <separator name="electronic projectors" >
    <i type="logical" name="LREAL"> F  </i>
    <v name="ROPT">      0.00000000</v>
    <i type="int" name="LMAXPAW">  -100</i>
    <i type="int" name="LMAXMIX">     2</i>
   </separator>
   <separator name="electronic startup" >
    <i type="int" name="ISTART">     0</i>
    <i type="int" name="ICHARG">     2</i>
    <i type="int" name="INIWAV">     1</i>
   </separator>
   <separator name="electronic spin" >
    <i type="int" name="ISPIN">     1</i>
    <i type="logical" name="LNONCOLLINEAR"> F  </i>
    <v name="MAGMOM">      1.00000000      1.00000000      1.00000000      1.00000000      1.00000000      1.00000000      1.00000000      1.00000000      1.00000000      1.00000000      1.00000000      1.00000000      1.00000000      1.00000000      1.00000000      1.00000000      1.00000000      1.00000000      1.00000000      1.00000000
      1.00000000      1.00000000      1.00000000      1.00000000      1.00000000      1.00000000      1.00000000      1.00000000      1.00000000      1.00000000      1.00000000      1.00000000</v>
    <i name="NUPDOWN">     -1.00000000</i>
    <i type="logical" name="LSORBIT"> F  </i>
    <v name="SAXIS">      0.00000000      0.00000000      1.00000000</v>
    <i type="logical" name="LSPIRAL"> F  </i>
    <v name="QSPIRAL">      0.00000000      0.00000000      0.00000000</v>
    <i type="logical" name="LZEROZ"> F  </i>
   </separator>
   <separator name="electronic exchange-correlation" >
    <i type="string" name="GGA">--</i>
    <i type="int" name="VOSKOWN">     0</i>
    <i type="logical" name="LASPH"> F  </i>
    <i type="logical" name="LMETAGGA"> F  </i>
    <i type="string" name="GGA2">--</i>
   </separator>
   <separator name="electronic convergence" >
    <i type="int" name="NELM">    60</i>
    <i type="int" name="NELMDL">     0</i>
    <i type="int" name="NELMIN">     2</i>
    <i name="ENINI">    500.00000000</i>
    <separator name="electronic convergence detail" >
     <i type="logical" name="LDIAG"> T  </i>
     <i name="WEIMIN">      0.00000000</i>
     <i name="EBREAK">      0.00000000</i>
     <i name="DEPER">      0.30000000</i>
     <i type="int" name="NRMM">     4</i>
     <i name="TIME">      0.10000000</i>
    </separator>
   </separator>
   <separator name="electronic mixer" >
    <i name="AMIX">      0.40000000</i>
    <i name="BMIX">      1.00000000</i>
    <i name="AMIN">      0.10000000</i>
    <i name="AMIX_MAG">      1.60000000</i>
    <i name="BMIX_MAG">      1.00000000</i>
    <separator name="electronic mixer details" >
     <i type="int" name="IMIX">     4</i>
     <i type="int" name="MAXMIX">   -45</i>
     <i name="WC">    100.00000000</i>
     <i type="int" name="INIMIX">     1</i>
     <i type="int" name="MIXPRE">     1</i>
     <i type="int" name="MREMOVE">     5</i>
    </separator>
   </separator>
   <separator name="electronic dipolcorrection" >
    <i type="int" name="IDIPOL">     0</i>
    <i type="logical" name="LDIPOL"> F  </i>
    <v name="DIPOL">   -100.00000000</v>
    <i name="EFIELD">      0.00000000</i>
   </separator>
  </separator>
  <separator name="grids" >
   <i type="int" name="NGX">    60</i>
   <i type="int" name="NGY">    60</i>
   <i type="int" name="NGZ">    60</i>
   <i type="int" name="NGXF">   120</i>
   <i type="int" name="NGYF">   120</i>
   <i type="int" name="NGZF">   120</i>
   <i type="logical" name="ADDGRID"> F  </i>
  </separator>
  <separator name="ionic" >
   <i type="int" name="NSW">     0</i>
   <i type="int" name="IBRION">    -1</i>
   <i type="int" name="ISIF">     2</i>
   <i name="PSTRESS">      0.00000000</i>
   <i name="EDIFFG">      0.00000010</i>
   <i type="int" name="NFREE">     0</i>
   <i name="POTIM">      0.50000000</i>
   <i name="SMASS">     -3.00000000</i>
  </separator>
  <separator name="ionic md" >
   <i name="TEBEG">      0.00010000</i>
   <i name="TEEND">      0.00010000</i>
   <i type="int" name="NBLOCK">     1</i>
   <i type="int" name="KBLOCK">     1</i>
   <i type="int" name="NPACO">   256</i>
   <i name="APACO">     16.00000000</i>
  </separator>
  <separator name="symmetry" >
   <i type="int" name="ISYM">     2</i>
   <i name="SYMPREC">      0.00001000</i>
  </separator>
  <separator name="dos" >
   <i type="logical" name="LORBIT"> F  </i>
   <v name="RWIGS">     -1.00000000</v>
   <i type="int" name="NEDOS">   301</i>
   <i name="EMIN">     10.00000000</i>
   <i name="EMAX">    -10.00000000</i>
  </separator>
  <separator name="writing" >
   <i type="int" name="NWRITE">     2</i>
   <i type="logical" name="LWAVE"> F  </i>
   <i type="logical" name="LCHARG"> F  </i>
   <i type="logical" name="LPARD"> F  </i>
   <i type="logical" name="LVTOT"> F  </i>
   <i type="logical" name="LELF"> F  </i>
   <i type="logical" name="LOPTICS"> F  </i>
   <i name="STM">      0.00000000</i>
  </separator>
  <separator name="performance" >
   <i type="int" name="NPAR">     8</i>
   <i type="int" name="NSIM">     4</i>
   <i type="int" name="NBLK">   256</i>
   <i type="logical" name="LPLANE"> T  </i>
   <i type="logical" name="LCRITICAL_MEM"> F  </i>
   <i type="logical" name="LSCALAPACK"> F  </i>
   <i type="logical" name="LSCALU"> F  </i>
   <i type="logical" name="LASYNC"> F  </i>
  </separator>
  <separator name="miscellaneous" >
   <i type="int" name="IDIOT">     3</i>
   <i type="logical" name="LMUSIC"> F  </i>
   <v name="POMASS">     26.98200000</v>
   <i type="logical" name="LCORR"> T  </i>
  </separator>
  <i type="logical" name="LREAL_COMPAT"> F  </i>
  <i type="logical" name="GGA_COMPAT"> T  </i>
  <i type="logical" name="LBERRY"> F  </i>
  <i type="int" name="ICORELEVEL">     0</i>
  <i type="logical" name="LDAU"> F  </i>
  <i type="int" name="I_CONSTRAINED_M">     0</i>
 </parameters>
 <atominfo>
  <atoms>      32</atoms>
  <types>       1</types>
  <array name="atoms" >
   <dimension dim="1">ion</dimension>
   <field type="string">element</field>
   <field type="int">atomtype</field>
   <set>
    <rc><c>Al</c><c>   1</c></rc>
    <rc><c>Al</c><c>   1</c></rc>
    <rc><c>Al</c><c>   1</c></rc>
    <rc><c>Al</c><c>   1</c></rc>
    <rc><c>Al</c><c>   1</c></rc>
    <rc><c>Al</c><c>   1</c></rc>
    <rc><c>Al</c><c>   1</c></rc>
    <rc><c>Al</c><c>   1</c></rc>
    <rc><c>Al</c><c>   1</c></rc>
    <rc><c>Al</c><c>   1</c></rc>
    <rc><c>Al</c><c>   1</c></rc>
    <rc><c>Al</c><c>   1</c></rc>
    <rc><c>Al</c><c>   1</c></rc>
    <rc><c>Al</c><c>   1</c></rc>
    <rc><c>Al</c><c>   1</c></rc>
    <rc><c>Al</c><c>   1</c></rc>
    <rc><c>Al</c><c>   1</c></rc>
    <rc><c>Al</c><c>   1</c></rc>
    <rc><c>Al</c><c>   1</c></rc>
    <rc><c>Al</c><c>   1</c></rc>
    <rc><c>Al</c><c>   1</c></rc>
    <rc><c>Al</c><c>   1</c></rc>
    <rc><c>Al</c><c>   1</c></rc>
    <rc><c>Al</c><c>   1</c></rc>
    <rc><c>Al</c><c>   1</c></rc>
    <rc><c>Al</c><c>   1</c></rc>
    <rc><c>Al</c><c>   1</c></rc>
    <rc><c>Al</c><c>   1</c></rc>
    <rc><c>Al</c><c>   1</c></rc>
    <rc><c>Al</c><c>   1</c></rc>
    <rc><c>Al</c><c>   1</c></rc>
    <rc><c>Al</c><c>   1</c></rc>
   </set>
  </array>
  <array name="atomtypes" >
   <dimension dim="1">type</dimension>
   <field type="int">atomspertype</field>
   <field type="string">element</field>
   <field>mass</field>
   <field>valence</field>
   <field type="string">pseudopotential</field>
   <set>
    <rc><c>  32</c><c>Al</c><c>     26.98200000</c><c>      3.00000000</c><c> PAW_PBE Al 04Jan2001                   </c></rc>
   </set>
  </array>
 </atominfo>
 <structure name="initialpos" >
  <crystal>
   <varray name="basis" >
    <v>       7.91312048      0.00000000      0.00000000</v>
    <v>       0.00000000      7.91312048      0.00000000</v>
    <v>       0.00000000      0.00000000      7.91312048</v>
   </varray>
   <i name="volume">    495.49963047</i>
   <varray name="rec_basis" >
    <v>       0.12637240      0.00000000      0.00000000</v>
    <v>       0.00000000      0.12637240      0.00000000</v>
    <v>       0.00000000      0.00000000      0.12637240</v>
   </varray>
  </crystal>
  <varray name="positions" >
   <v>       0.25126372      0.25000000      0.00000000</v>
   <v>       0.75000000      0.25000000      0.00000000</v>
   <v>       0.25000000      0.75000000      0.00000000</v>
   <v>       0.75000000      0.75000000      0.00000000</v>
   <v>       0.25000000      0.25000000      0.50000000</v>
   <v>       0.75000000      0.25000000      0.50000000</v>
   <v>       0.25000000      0.75000000      0.50000000</v>
   <v>       0.75000000      0.75000000      0.50000000</v>
   <v>       0.25000000      0.00000000      0.25000000</v>
   <v>       0.75000000      0.00000000      0.25000000</v>
   <v>       0.25000000      0.50000000      0.25000000</v>
   <v>       0.75000000      0.50000000      0.25000000</v>
   <v>       0.25000000      0.00000000      0.75000000</v>
   <v>       0.75000000      0.00000000      0.75000000</v>
   <v>       0.25000000      0.50000000      0.75000000</v>
   <v>       0.75000000      0.50000000      0.75000000</v>
   <v>       0.00000000      0.25000000      0.25000000</v>
   <v>       0.50000000      0.25000000      0.25000000</v>
   <v>       0.00000000      0.75000000      0.25000000</v>
   <v>       0.50000000      0.75000000      0.25000000</v>
   <v>       0.00000000      0.25000000      0.75000000</v>
   <v>       0.50000000      0.25000000      0.75000000</v>
   <v>       0.00000000      0.75000000      0.75000000</v>
   <v>       0.50000000      0.75000000      0.75000000</v>
   <v>       0.00000000      0.00000000      0.00000000</v>
   <v>       0.50000000      0.00000000      0.00000000</v>
   <v>       0.00000000      0.50000000      0.00000000</v>
   <v>       0.50000000      0.50000000      0.00000000</v>
   <v>       0.00000000      0.00000000      0.50000000</v>
   <v>       0.50000000      0.00000000      0.50000000</v>
   <v>       0.00000000      0.50000000      0.50000000</v>
   <v>       0.50000000      0.50000000      0.50000000</v>
  </varray>
 </structure>
 <calculation>
  <scstep>
   <time name="dav">   18.93   18.97</time>
   <time name="total">   19.07   19.12</time>
   <energy>
    <i name="alphaZ">     -6.94132402</i>
    <i name="ewald">  -2402.85078487</i>
    <i name="hartreedc">     -2.61509261</i>
    <i name="XCdc">   -835.96870915</i>
    <i name="pawpsdc">   1137.73615723</i>
    <i name="pawaedc">   -115.16745734</i>
    <i name="eentropy">     -0.00040067</i>
    <i name="bandstr">    639.89184956</i>
    <i name="atom">   1713.22913220</i>
    <i name="e_fr_energy">    127.31337032</i>
    <i name="e_wo_entrp">    127.31377099</i>
    <i name="e_0_energy">    127.31357065</i>
   </energy>
  </scstep>
  <scstep>
   <time name="dav">   21.38   21.42</time>
   <time name="total">   21.38   21.43</time>
   <energy>
    <i name="e_fr_energy">   -106.77802330</i>
    <i name="e_wo_entrp">   -106.77738346</i>
    <i name="e_0_energy">   -106.77770338</i>
   </energy>
  </scstep>
  <scstep>
   <time name="dav">   22.11   22.16</time>
   <time name="total">   22.12   22.17</time>
   <energy>
    <i name="e_fr_energy">   -119.78638800</i>
    <i name="e_wo_entrp">   -119.78533178</i>
    <i name="e_0_energy">   -119.78585989</i>
   </energy>
  </scstep>
  <scstep>
   <time name="dav">   21.02   21.06</time>
   <time name="total">   21.03   21.06</time>
   <energy>
    <i name="e_fr_energy">   -120.02061869</i>
    <i name="e_wo_entrp">   -120.01937246</i>
    <i name="e_0_energy">   -120.01999558</i>
   </energy>
  </scstep>
  <scstep>
   <time name="dav">   21.22   21.25</time>
   <time name="total">   22.51   22.55</time>
   <energy>
    <i name="e_fr_energy">   -120.02336262</i>
    <i name="e_wo_entrp">   -120.02211575</i>
    <i name="e_0_energy">   -120.02273918</i>
   </energy>
  </scstep>
  <scstep>
   <time name="dav">   20.92   20.96</time>
   <time name="total">   22.34   22.38</time>
   <energy>
    <i name="e_fr_energy">   -119.57582504</i>
    <i name="e_wo_entrp">   -119.57454499</i>
    <i name="e_0_energy">   -119.57518501</i>
   </energy>
  </scstep>
  <scstep>
   <time name="dav">   20.00   20.04</time>
   <time name="total">   21.42   21.45</time>
   <energy>
    <i name="e_fr_energy">   -119.25083136</i>
    <i name="e_wo_entrp">   -119.24921360</i>
    <i name="e_0_energy">   -119.25002248</i>
   </energy>
  </scstep>
  <scstep>
   <time name="dav">   21.42   21.45</time>
   <time name="total">   22.83   22.87</time>
   <energy>
    <i name="e_fr_energy">   -119.25104123</i>
    <i name="e_wo_entrp">   -119.24942362</i>
    <i name="e_0_energy">   -119.25023242</i>
   </energy>
  </scstep>
  <scstep>
   <time name="dav">   20.73   20.76</time>
   <time name="total">   22.18   22.22</time>
   <energy>
    <i name="e_fr_energy">   -119.25106817</i>
    <i name="e_wo_entrp">   -119.24945114</i>
    <i name="e_0_energy">   -119.25025966</i>
   </energy>
  </scstep>
  <scstep>
   <time name="dav">   21.29   21.34</time>
   <time name="total">   22.74   22.80</time>
   <energy>
    <i name="e_fr_energy">   -119.25106908</i>
    <i name="e_wo_entrp">   -119.24945205</i>
    <i name="e_0_energy">   -119.25026056</i>
   </energy>
  </scstep>
  <scstep>
   <time name="dav">   20.96   21.00</time>
   <time name="total">   22.38   22.43</time>
   <energy>
    <i name="e_fr_energy">   -119.25106668</i>
    <i name="e_wo_entrp">   -119.24944961</i>
    <i name="e_0_energy">   -119.25025815</i>
   </energy>
  </scstep>
  <scstep>
   <time name="dav">   16.36   16.40</time>
   <time name="total">   17.79   17.83</time>
   <energy>
    <i name="e_fr_energy">   -119.25106563</i>
    <i name="e_wo_entrp">   -119.24944855</i>
    <i name="e_0_energy">   -119.25025709</i>
   </energy>
  </scstep>
  <scstep>
   <time name="dav">   14.29   14.31</time>
   <time name="total">   15.71   15.74</time>
   <energy>
    <i name="e_fr_energy">   -119.25106548</i>
    <i name="e_wo_entrp">   -119.24944840</i>
    <i name="e_0_energy">   -119.25025694</i>
   </energy>
  </scstep>
  <scstep>
   <time name="dav">   14.11   14.14</time>
   <time name="total">   14.25   14.28</time>
   <energy>
    <i name="alphaZ">     -6.94132402</i>
    <i name="ewald">  -2402.85078487</i>
    <i name="hartreedc">     -3.68858459</i>
    <i name="XCdc">   -832.01939931</i>
    <i name="pawpsdc">   1148.03019279</i>
    <i name="pawaedc">   -126.21586460</i>
    <i name="eentropy">     -0.00161707</i>
    <i name="bandstr">    391.20718400</i>
    <i name="atom">   1713.22913220</i>
    <i name="e_fr_energy">   -119.25106547</i>
    <i name="e_wo_entrp">   -119.24944839</i>
    <i name="e_0_energy">   -119.25025693</i>
   </energy>
  </scstep>
  <structure>
   <crystal>
    <varray name="basis" >
     <v>       7.91312048      0.00000000      0.00000000</v>
     <v>       0.00000000      7.91312048      0.00000000</v>
     <v>       0.00000000      0.00000000      7.91312048</v>
    </varray>
    <i name="volume">    495.49963047</i>
    <varray name="rec_basis" >
     <v>       0.12637240      0.00000000      0.00000000</v>
     <v>       0.00000000      0.12637240      0.00000000</v>
     <v>       0.00000000      0.00000000      0.12637240</v>
    </varray>
   </crystal>
   <varray name="positions" >
    <v>       0.25126372      0.25000000      0.00000000</v>
    <v>       0.75000000      0.25000000      0.00000000</v>
    <v>       0.25000000      0.75000000      0.00000000</v>
    <v>       0.75000000      0.75000000      0.00000000</v>
    <v>       0.25000000      0.25000000      0.50000000</v>
    <v>       0.75000000      0.25000000      0.50000000</v>
    <v>       0.25000000      0.75000000      0.50000000</v>
    <v>       0.75000000      0.75000000      0.50000000</v>
    <v>       0.25000000      0.00000000      0.25000000</v>
    <v>       0.75000000      0.00000000      0.25000000</v>
    <v>       0.25000000      0.50000000      0.25000000</v>
    <v>       0.75000000      0.50000000      0.25000000</v>
    <v>       0.25000000      0.00000000      0.75000000</v>
    <v>       0.75000000      0.00000000      0.75000000</v>
    <v>       0.25000000      0.50000000      0.75000000</v>
    <v>       0.75000000      0.50000000      0.75000000</v>
    <v>       0.00000000      0.25000000      0.25000000</v>
    <v>       0.50000000      0.25000000      0.25000000</v>
    <v>       0.00000000      0.75000000      0.25000000</v>
    <v>       0.50000000      0.75000000      0.25000000</v>
    <v>       0.00000000      0.25000000      0.75000000</v>
    <v>       0.50000000      0.25000000      0.75000000</v>
    <v>       0.00000000      0.75000000      0.75000000</v>
    <v>       0.50000000      0.75000000      0.75000000</v>
    <v>       0.00000000      0.00000000      0.00000000</v>
    <v>       0.50000000      0.00000000      0.00000000</v>
    <v>       0.00000000      0.50000000      0.00000000</v>
    <v>       0.50000000      0.50000000      0.00000000</v>
    <v>       0.00000000      0.00000000      0.50000000</v>
    <v>       0.50000000      0.00000000      0.50000000</v>
    <v>       0.00000000      0.50000000      0.50000000</v>
    <v>       0.50000000      0.50000000      0.50000000</v>
   </varray>
  </structure>
  <varray name="forces" >
   <v>      -0.05872858      0.00000000      0.00000000</v>
   <v>       0.00377335     -0.00000000      0.00000000</v>
   <v>       0.00067910     -0.00000000      0.00000000</v>
   <v>       0.00014589      0.00000000     -0.00000000</v>
   <v>       0.00067910      0.00000000      0.00000000</v>
   <v>       0.00014589      0.00000000     -0.00000000</v>
   <v>       0.00102776     -0.00000000     -0.00000000</v>
   <v>      -0.00104138      0.00000000      0.00000000</v>
   <v>      -0.00174163      0.00003308     -0.00003308</v>
   <v>      -0.00128233      0.00001159     -0.00001159</v>
   <v>      -0.00174163     -0.00003308     -0.00003308</v>
   <v>      -0.00128233     -0.00001159     -0.00001159</v>
   <v>      -0.00174163      0.00003308      0.00003308</v>
   <v>      -0.00128233      0.00001159      0.00001159</v>
   <v>      -0.00174163     -0.00003308      0.00003308</v>
   <v>      -0.00128233     -0.00001159      0.00001159</v>
   <v>       0.00787283     -0.00000000     -0.00889237</v>
   <v>       0.00805813     -0.00000000      0.00912590</v>
   <v>       0.00021354      0.00000000      0.00021991</v>
   <v>       0.00020918     -0.00000000     -0.00023873</v>
   <v>       0.00787283      0.00000000      0.00889237</v>
   <v>       0.00805813     -0.00000000     -0.00912590</v>
   <v>       0.00021354     -0.00000000     -0.00021991</v>
   <v>       0.00020918     -0.00000000      0.00023873</v>
   <v>       0.00787283      0.00889237      0.00000000</v>
   <v>       0.00805813     -0.00912590     -0.00000000</v>
   <v>       0.00787283     -0.00889237     -0.00000000</v>
   <v>       0.00805813      0.00912590      0.00000000</v>
   <v>       0.00021354     -0.00021991     -0.00000000</v>
   <v>       0.00020918      0.00023873     -0.00000000</v>
   <v>       0.00021354      0.00021991      0.00000000</v>
   <v>       0.00020918     -0.00023873      0.00000000</v>
  </varray>
  <varray name="stress" >
   <v>      55.00127739      0.00000000      0.00000000</v>
   <v>       0.00000000     55.00219124      0.00000000</v>
   <v>       0.00000000      0.00000000     55.00219124</v>
  </varray>
  <energy>
   <i name="e_fr_energy">   -119.25106547</i>
   <i name="e_wo_entrp">   -119.25025693</i>
   <i name="e_0_energy">     -0.00161707</i>
  </energy>
  <eigenvalues>
   <array>
    <dimension dim="1">band</dimension>
    <dimension dim="2">kpoint</dimension>
    <dimension dim="3">spin</dimension>
    <field>eigene</field>
    <field>occ</field>
    <set>
     <set comment="spin 1">
      <set comment="kpoint 1">
       <r>  -2.9021  1.0000</r>
       <r>  -0.5633  1.0000</r>
       <r>  -0.5594  1.0000</r>
       <r>  -0.5594  1.0000</r>
       <r>  -0.5594  1.0000</r>
       <r>  -0.5594  1.0000</r>
       <r>  -0.5555  1.0000</r>
       <r>   1.7358  1.0000</r>
       <r>   1.7402  1.0000</r>
       <r>   1.7402  1.0000</r>
       <r>   1.7420  1.0000</r>
       <r>   1.7422  1.0000</r>
       <r>   1.7422  1.0000</r>
       <r>   1.7422  1.0000</r>
       <r>   1.7422  1.0000</r>
       <r>   1.7424  1.0000</r>
       <r>   1.7442  1.0000</r>
       <r>   1.7442  1.0000</r>
       <r>   1.7486  1.0000</r>
       <r>   3.8296  1.0000</r>
       <r>   3.8296  1.0000</r>
       <r>   3.8296  1.0000</r>
       <r>   3.8296  1.0000</r>
       <r>   4.2110  1.0000</r>
       <r>   4.2110  1.0000</r>
       <r>   4.2111  1.0000</r>
       <r>   4.2111  1.0000</r>
       <r>   5.6011  1.0000</r>
       <r>   5.6011  1.0000</r>
       <r>   5.6011  1.0000</r>
       <r>   7.0599  1.0000</r>
       <r>   7.0600  1.0000</r>
       <r>   7.0600  1.0000</r>
       <r>   7.7473  1.0000</r>
       <r>   7.7473  1.0000</r>
       <r>   7.7518  1.0000</r>
       <r>   7.7518  1.0000</r>
       <r>   7.7520  1.0000</r>
       <r>   7.7520  1.0000</r>
       <r>   7.7520  1.0000</r>
       <r>   7.7521  1.0000</r>
       <r>   7.7522  1.0000</r>
       <r>   7.7522  1.0000</r>
       <r>   7.7567  1.0000</r>
       <r>   7.7567  1.0000</r>
       <r>   8.7296  0.0000</r>
       <r>   8.7340  0.0000</r>
       <r>   8.7340  0.0000</r>
       <r>   8.7340  0.0000</r>
       <r>   8.7340  0.0000</r>
       <r>   8.7384  0.0000</r>
       <r>   9.9084  0.0000</r>
       <r>   9.9084  0.0000</r>
       <r>   9.9099  0.0000</r>
       <r>   9.9125  0.0000</r>
       <r>   9.9126  0.0000</r>
       <r>   9.9126  0.0000</r>
       <r>   9.9126  0.0000</r>
       <r>   9.9127  0.0000</r>
       <r>   9.9128  0.0000</r>
       <r>   9.9154  0.0000</r>
       <r>   9.9169  0.0000</r>
       <r>   9.9169  0.0000</r>
       <r>  10.1477  0.0000</r>
       <r>  10.1489  0.0000</r>
       <r>  10.1489  0.0000</r>
       <r>  10.1489  0.0000</r>
       <r>  10.1489  0.0000</r>
       <r>  10.1501  0.0000</r>
       <r>  11.6256  0.0000</r>
       <r>  11.6279  0.0000</r>
       <r>  11.6288  0.0000</r>
      </set>
      <set comment="kpoint 2">
       <r>  -2.8364  1.0000</r>
       <r>  -1.2707  1.0000</r>
       <r>  -0.4949  1.0000</r>
       <r>  -0.4949  1.0000</r>
       <r>  -0.4949  1.0000</r>
       <r>  -0.4949  1.0000</r>
       <r>   0.2759  1.0000</r>
       <r>   1.0434  1.0000</r>
       <r>   1.0434  1.0000</r>
       <r>   1.0434  1.0000</r>
       <r>   1.0434  1.0000</r>
       <r>   1.8055  1.0000</r>
       <r>   1.8055  1.0000</r>
       <r>   1.8055  1.0000</r>
       <r>   1.8055  1.0000</r>
       <r>   2.5626  1.0000</r>
       <r>   2.5626  1.0000</r>
       <r>   2.5626  1.0000</r>
       <r>   2.5626  1.0000</r>
       <r>   3.3058  1.0000</r>
       <r>   3.3058  1.0000</r>
       <r>   3.3058  1.0000</r>
       <r>   3.3058  1.0000</r>
       <r>   4.7241  1.0000</r>
       <r>   4.8556  1.0000</r>
       <r>   4.8556  1.0000</r>
       <r>   4.8557  1.0000</r>
       <r>   4.8557  1.0000</r>
       <r>   5.6607  1.0000</r>
       <r>   5.6607  1.0000</r>
       <r>   6.8991  1.0000</r>
       <r>   6.8991  1.0000</r>
       <r>   6.8991  1.0000</r>
       <r>   6.8991  1.0000</r>
       <r>   7.0938  1.0000</r>
       <r>   7.0938  1.0000</r>
       <r>   7.1220  1.0000</r>
       <r>   7.1221  1.0000</r>
       <r>   7.8119  1.0000</r>
       <r>   7.8119  1.0000</r>
       <r>   7.8119  1.0000</r>
       <r>   7.8119  1.0000</r>
       <r>   8.0491  1.0000</r>
       <r>   8.4666  1.0000</r>
       <r>   8.4666  1.0000</r>
       <r>   8.5309  1.0000</r>
       <r>   8.5309  1.0000</r>
       <r>   9.1310  0.0000</r>
       <r>   9.1310  0.0000</r>
       <r>   9.1310  0.0000</r>
       <r>   9.1311  0.0000</r>
       <r>   9.2204  0.0000</r>
       <r>   9.2204  0.0000</r>
       <r>   9.2205  0.0000</r>
       <r>   9.2205  0.0000</r>
       <r>   9.2518  0.0000</r>
       <r>   9.2518  0.0000</r>
       <r>   9.2519  0.0000</r>
       <r>   9.2519  0.0000</r>
       <r>  10.5274  0.0000</r>
       <r>  10.5274  0.0000</r>
       <r>  10.6881  0.0000</r>
       <r>  10.6881  0.0000</r>
       <r>  10.6886  0.0000</r>
       <r>  10.6886  0.0000</r>
       <r>  10.6943  0.0000</r>
       <r>  10.6943  0.0000</r>
       <r>  10.6948  0.0000</r>
       <r>  10.6948  0.0000</r>
       <r>  10.9585  0.0000</r>
       <r>  10.9585  0.0000</r>
       <r>  10.9585  0.0000</r>
      </set>
      <set comment="kpoint 3">
       <r>  -2.6397  1.0000</r>
       <r>  -1.8556  1.0000</r>
       <r>  -0.3017  1.0000</r>
       <r>  -0.3016  1.0000</r>
       <r>  -0.3016  1.0000</r>
       <r>  -0.3016  1.0000</r>
       <r>   0.4686  1.0000</r>
       <r>   0.4686  1.0000</r>
       <r>   0.4686  1.0000</r>
       <r>   0.4686  1.0000</r>
       <r>   1.2322  1.0000</r>
       <r>   1.9953  1.0000</r>
       <r>   1.9953  1.0000</r>
       <r>   1.9953  1.0000</r>
       <r>   1.9954  1.0000</r>
       <r>   2.7499  1.0000</r>
       <r>   2.7499  1.0000</r>
       <r>   2.7499  1.0000</r>
       <r>   2.7499  1.0000</r>
       <r>   3.4816  1.0000</r>
       <r>   3.5009  1.0000</r>
       <r>   3.5009  1.0000</r>
       <r>   3.5009  1.0000</r>
       <r>   3.5009  1.0000</r>
       <r>   5.6985  1.0000</r>
       <r>   5.6985  1.0000</r>
       <r>   5.6985  1.0000</r>
       <r>   5.6985  1.0000</r>
       <r>   5.7730  1.0000</r>
       <r>   5.7730  1.0000</r>
       <r>   5.7730  1.0000</r>
       <r>   5.7730  1.0000</r>
       <r>   5.8396  1.0000</r>
       <r>   5.8396  1.0000</r>
       <r>   6.5558  1.0000</r>
       <r>   6.5558  1.0000</r>
       <r>   7.3068  1.0000</r>
       <r>   7.3068  1.0000</r>
       <r>   7.9472  1.0000</r>
       <r>   7.9472  1.0000</r>
       <r>   7.9472  1.0000</r>
       <r>   7.9473  1.0000</r>
       <r>   7.9917  1.0000</r>
       <r>   7.9918  1.0000</r>
       <r>   7.9919  1.0000</r>
       <r>   7.9919  1.0000</r>
       <r>   8.0128  1.0000</r>
       <r>   8.0129  1.0000</r>
       <r>   8.7115  0.0000</r>
       <r>   8.7115  0.0000</r>
       <r>   8.7115  0.0000</r>
       <r>   8.7115  0.0000</r>
       <r>   9.4306  0.0000</r>
       <r>   9.4306  0.0000</r>
       <r>   9.5889  0.0000</r>
       <r>   9.5889  0.0000</r>
       <r>   9.5889  0.0000</r>
       <r>   9.5889  0.0000</r>
       <r>   9.6277  0.0000</r>
       <r>  10.3985  0.0000</r>
       <r>  10.3985  0.0000</r>
       <r>  10.3985  0.0000</r>
       <r>  10.3985  0.0000</r>
       <r>  11.3105  0.0000</r>
       <r>  11.3105  0.0000</r>
       <r>  11.5904  0.0000</r>
       <r>  11.5904  0.0000</r>
       <r>  11.5966  0.0000</r>
       <r>  11.5966  0.0000</r>
       <r>  11.5969  0.0000</r>
       <r>  11.5969  0.0000</r>
       <r>  12.0387  0.0000</r>
      </set>
      <set comment="kpoint 4">
       <r>  -2.3139  1.0000</r>
       <r>  -2.3109  1.0000</r>
       <r>   0.0157  1.0000</r>
       <r>   0.0190  1.0000</r>
       <r>   0.0190  1.0000</r>
       <r>   0.0198  1.0000</r>
       <r>   0.0199  1.0000</r>
       <r>   0.0207  1.0000</r>
       <r>   0.0207  1.0000</r>
       <r>   0.0240  1.0000</r>
       <r>   2.3020  1.0000</r>
       <r>   2.3043  1.0000</r>
       <r>   2.3091  1.0000</r>
       <r>   2.3095  1.0000</r>
       <r>   2.3095  1.0000</r>
       <r>   2.3103  1.0000</r>
       <r>   2.3113  1.0000</r>
       <r>   2.3121  1.0000</r>
       <r>   2.3121  1.0000</r>
       <r>   2.3147  1.0000</r>
       <r>   4.5499  1.0000</r>
       <r>   4.5499  1.0000</r>
       <r>   4.5503  1.0000</r>
       <r>   4.5506  1.0000</r>
       <r>   4.5508  1.0000</r>
       <r>   4.5512  1.0000</r>
       <r>   4.5515  1.0000</r>
       <r>   4.5515  1.0000</r>
       <r>   6.1362  1.0000</r>
       <r>   6.1362  1.0000</r>
       <r>   6.1395  1.0000</r>
       <r>   6.1395  1.0000</r>
       <r>   6.8091  1.0000</r>
       <r>   6.8091  1.0000</r>
       <r>   6.8095  1.0000</r>
       <r>   6.8100  1.0000</r>
       <r>   6.8100  1.0000</r>
       <r>   6.8106  1.0000</r>
       <r>   6.8110  1.0000</r>
       <r>   6.8110  1.0000</r>
       <r>   7.6068  1.0000</r>
       <r>   7.6080  1.0000</r>
       <r>   7.6097  1.0000</r>
       <r>   7.6109  1.0000</r>
       <r>   8.2891  1.0000</r>
       <r>   8.2891  1.0000</r>
       <r>   8.2900  1.0000</r>
       <r>   8.2915  1.0000</r>
       <r>   8.2916  1.0000</r>
       <r>   8.2931  1.0000</r>
       <r>   8.2940  1.0000</r>
       <r>   8.2940  1.0000</r>
       <r>   9.9455  0.0000</r>
       <r>   9.9464  0.0000</r>
       <r>   9.9464  0.0000</r>
       <r>   9.9466  0.0000</r>
       <r>   9.9489  0.0000</r>
       <r>   9.9491  0.0000</r>
       <r>   9.9491  0.0000</r>
       <r>   9.9500  0.0000</r>
       <r>  10.4500  0.0000</r>
       <r>  10.4500  0.0000</r>
       <r>  10.4521  0.0000</r>
       <r>  10.4521  0.0000</r>
       <r>  11.3644  0.0000</r>
       <r>  11.3655  0.0000</r>
       <r>  12.2451  0.0000</r>
       <r>  12.2453  0.0000</r>
       <r>  12.2471  0.0000</r>
       <r>  12.2473  0.0000</r>
       <r>  12.6194  0.0000</r>
       <r>  12.6207  0.0000</r>
      </set>
      <set comment="kpoint 5">
       <r>  -2.8364  1.0000</r>
       <r>  -1.2707  1.0000</r>
       <r>  -0.4979  1.0000</r>
       <r>  -0.4949  1.0000</r>
       <r>  -0.4949  1.0000</r>
       <r>  -0.4919  1.0000</r>
       <r>   0.2759  1.0000</r>
       <r>   1.0403  1.0000</r>
       <r>   1.0434  1.0000</r>
       <r>   1.0434  1.0000</r>
       <r>   1.0464  1.0000</r>
       <r>   1.8034  1.0000</r>
       <r>   1.8043  1.0000</r>
       <r>   1.8068  1.0000</r>
       <r>   1.8077  1.0000</r>
       <r>   2.5595  1.0000</r>
       <r>   2.5626  1.0000</r>
       <r>   2.5626  1.0000</r>
       <r>   2.5657  1.0000</r>
       <r>   3.3037  1.0000</r>
       <r>   3.3046  1.0000</r>
       <r>   3.3070  1.0000</r>
       <r>   3.3079  1.0000</r>
       <r>   4.7241  1.0000</r>
       <r>   4.8535  1.0000</r>
       <r>   4.8544  1.0000</r>
       <r>   4.8569  1.0000</r>
       <r>   4.8578  1.0000</r>
       <r>   5.6607  1.0000</r>
       <r>   5.6607  1.0000</r>
       <r>   6.8958  1.0000</r>
       <r>   6.8991  1.0000</r>
       <r>   6.8991  1.0000</r>
       <r>   6.9024  1.0000</r>
       <r>   7.0937  1.0000</r>
       <r>   7.0938  1.0000</r>
       <r>   7.1220  1.0000</r>
       <r>   7.1221  1.0000</r>
       <r>   7.8091  1.0000</r>
       <r>   7.8119  1.0000</r>
       <r>   7.8120  1.0000</r>
       <r>   7.8148  1.0000</r>
       <r>   8.0491  1.0000</r>
       <r>   8.4666  1.0000</r>
       <r>   8.4666  1.0000</r>
       <r>   8.5309  1.0000</r>
       <r>   8.5309  1.0000</r>
       <r>   9.1285  0.0000</r>
       <r>   9.1298  0.0000</r>
       <r>   9.1323  0.0000</r>
       <r>   9.1336  0.0000</r>
       <r>   9.2176  0.0000</r>
       <r>   9.2205  0.0000</r>
       <r>   9.2205  0.0000</r>
       <r>   9.2232  0.0000</r>
       <r>   9.2489  0.0000</r>
       <r>   9.2518  0.0000</r>
       <r>   9.2519  0.0000</r>
       <r>   9.2547  0.0000</r>
       <r>  10.5274  0.0000</r>
       <r>  10.5274  0.0000</r>
       <r>  10.6869  0.0000</r>
       <r>  10.6877  0.0000</r>
       <r>  10.6886  0.0000</r>
       <r>  10.6901  0.0000</r>
       <r>  10.6919  0.0000</r>
       <r>  10.6943  0.0000</r>
       <r>  10.6946  0.0000</r>
       <r>  10.6975  0.0000</r>
       <r>  10.9565  0.0000</r>
       <r>  10.9585  0.0000</r>
       <r>  10.9593  0.0000</r>
      </set>
      <set comment="kpoint 6">
       <r>  -2.7708  1.0000</r>
       <r>  -1.2071  1.0000</r>
       <r>  -1.2046  1.0000</r>
       <r>  -0.4305  1.0000</r>
       <r>  -0.4305  1.0000</r>
       <r>   0.3383  1.0000</r>
       <r>   0.3403  1.0000</r>
       <r>   0.3421  1.0000</r>
       <r>   1.1053  1.0000</r>
       <r>   1.1063  1.0000</r>
       <r>   1.1079  1.0000</r>
       <r>   1.1088  1.0000</r>
       <r>   1.8680  1.0000</r>
       <r>   1.8689  1.0000</r>
       <r>   2.6226  1.0000</r>
       <r>   2.6237  1.0000</r>
       <r>   2.6250  1.0000</r>
       <r>   2.6251  1.0000</r>
       <r>   2.6265  1.0000</r>
       <r>   2.6278  1.0000</r>
       <r>   3.3772  1.0000</r>
       <r>   3.9505  1.0000</r>
       <r>   3.9505  1.0000</r>
       <r>   4.3385  1.0000</r>
       <r>   4.3385  1.0000</r>
       <r>   4.7849  1.0000</r>
       <r>   4.7857  1.0000</r>
       <r>   5.6511  1.0000</r>
       <r>   5.6511  1.0000</r>
       <r>   5.7203  1.0000</r>
       <r>   6.2423  1.0000</r>
       <r>   6.2448  1.0000</r>
       <r>   6.8178  1.0000</r>
       <r>   6.8178  1.0000</r>
       <r>   7.1422  1.0000</r>
       <r>   7.1424  1.0000</r>
       <r>   7.1523  1.0000</r>
       <r>   7.1551  1.0000</r>
       <r>   7.1834  1.0000</r>
       <r>   7.6298  1.0000</r>
       <r>   7.6319  1.0000</r>
       <r>   8.1086  1.0000</r>
       <r>   8.1095  1.0000</r>
       <r>   8.4623  1.0000</r>
       <r>   8.4633  1.0000</r>
       <r>   8.4649  1.0000</r>
       <r>   8.4659  1.0000</r>
       <r>   8.5887  1.0000</r>
       <r>   8.5912  1.0000</r>
       <r>   8.5935  1.0000</r>
       <r>   8.7603  0.0000</r>
       <r>   8.7620  0.0000</r>
       <r>   9.3137  0.0000</r>
       <r>   9.3164  0.0000</r>
       <r>   9.9122  0.0000</r>
       <r>   9.9133  0.0000</r>
       <r>   9.9165  0.0000</r>
       <r>   9.9170  0.0000</r>
       <r>   9.9175  0.0000</r>
       <r>   9.9190  0.0000</r>
       <r>  10.0319  0.0000</r>
       <r>  10.0337  0.0000</r>
       <r>  10.2879  0.0000</r>
       <r>  10.7023  0.0000</r>
       <r>  10.7030  0.0000</r>
       <r>  10.9794  0.0000</r>
       <r>  10.9794  0.0000</r>
       <r>  11.3040  0.0000</r>
       <r>  11.3062  0.0000</r>
       <r>  11.4763  0.0000</r>
       <r>  11.7354  0.0000</r>
       <r>  11.7354  0.0000</r>
      </set>
      <set comment="kpoint 7">
       <r>  -2.5742  1.0000</r>
       <r>  -1.7905  1.0000</r>
       <r>  -1.0116  1.0000</r>
       <r>  -0.2387  1.0000</r>
       <r>  -0.2373  1.0000</r>
       <r>  -0.2358  1.0000</r>
       <r>   0.5309  1.0000</r>
       <r>   0.5326  1.0000</r>
       <r>   0.5338  1.0000</r>
       <r>   1.2945  1.0000</r>
       <r>   1.2974  1.0000</r>
       <r>   1.2980  1.0000</r>
       <r>   1.2992  1.0000</r>
       <r>   2.0585  1.0000</r>
       <r>   2.0585  1.0000</r>
       <r>   2.8121  1.0000</r>
       <r>   2.8135  1.0000</r>
       <r>   2.8138  1.0000</r>
       <r>   3.5437  1.0000</r>
       <r>   3.5540  1.0000</r>
       <r>   3.5540  1.0000</r>
       <r>   3.5629  1.0000</r>
       <r>   3.5631  1.0000</r>
       <r>   4.3081  1.0000</r>
       <r>   4.9687  1.0000</r>
       <r>   5.0278  1.0000</r>
       <r>   5.1028  1.0000</r>
       <r>   5.1028  1.0000</r>
       <r>   5.6996  1.0000</r>
       <r>   5.7507  1.0000</r>
       <r>   5.7507  1.0000</r>
       <r>   5.8992  1.0000</r>
       <r>   6.4764  1.0000</r>
       <r>   6.5718  1.0000</r>
       <r>   6.5718  1.0000</r>
       <r>   6.6156  1.0000</r>
       <r>   7.1964  1.0000</r>
       <r>   7.1965  1.0000</r>
       <r>   7.2755  1.0000</r>
       <r>   7.2755  1.0000</r>
       <r>   7.3332  1.0000</r>
       <r>   7.3651  1.0000</r>
       <r>   7.9177  1.0000</r>
       <r>   7.9177  1.0000</r>
       <r>   7.9738  1.0000</r>
       <r>   8.0519  1.0000</r>
       <r>   8.2874  1.0000</r>
       <r>   8.7387  0.0000</r>
       <r>   8.7388  0.0000</r>
       <r>   8.7711  0.0000</r>
       <r>   8.8081  0.0000</r>
       <r>   8.9563  0.0000</r>
       <r>   8.9728  0.0000</r>
       <r>   9.4895  0.0000</r>
       <r>   9.4931  0.0000</r>
       <r>   9.6849  0.0000</r>
       <r>   9.7310  0.0000</r>
       <r>  10.2084  0.0000</r>
       <r>  10.4677  0.0000</r>
       <r>  10.4677  0.0000</r>
       <r>  10.8201  0.0000</r>
       <r>  10.8202  0.0000</r>
       <r>  10.8267  0.0000</r>
       <r>  10.9347  0.0000</r>
       <r>  11.1699  0.0000</r>
       <r>  11.3007  0.0000</r>
       <r>  11.3007  0.0000</r>
       <r>  11.3963  0.0000</r>
       <r>  11.5442  0.0000</r>
       <r>  11.6512  0.0000</r>
       <r>  12.1355  0.0000</r>
       <r>  12.1380  0.0000</r>
      </set>
      <set comment="kpoint 8">
       <r>  -2.2485  1.0000</r>
       <r>  -2.2456  1.0000</r>
       <r>  -0.6898  1.0000</r>
       <r>  -0.6868  1.0000</r>
       <r>   0.0820  1.0000</r>
       <r>   0.0832  1.0000</r>
       <r>   0.0849  1.0000</r>
       <r>   0.0861  1.0000</r>
       <r>   0.8500  1.0000</r>
       <r>   0.8530  1.0000</r>
       <r>   1.6135  1.0000</r>
       <r>   1.6147  1.0000</r>
       <r>   1.6165  1.0000</r>
       <r>   1.6177  1.0000</r>
       <r>   2.3667  1.0000</r>
       <r>   2.3678  1.0000</r>
       <r>   3.1231  1.0000</r>
       <r>   3.1244  1.0000</r>
       <r>   3.1262  1.0000</r>
       <r>   3.1275  1.0000</r>
       <r>   3.8690  1.0000</r>
       <r>   3.8701  1.0000</r>
       <r>   4.6098  1.0000</r>
       <r>   4.6104  1.0000</r>
       <r>   4.6109  1.0000</r>
       <r>   4.6115  1.0000</r>
       <r>   5.2723  1.0000</r>
       <r>   5.2754  1.0000</r>
       <r>   5.3467  1.0000</r>
       <r>   5.3478  1.0000</r>
       <r>   6.1349  1.0000</r>
       <r>   6.1352  1.0000</r>
       <r>   6.1362  1.0000</r>
       <r>   6.1364  1.0000</r>
       <r>   6.1960  1.0000</r>
       <r>   6.1992  1.0000</r>
       <r>   7.4913  1.0000</r>
       <r>   7.4926  1.0000</r>
       <r>   7.4945  1.0000</r>
       <r>   7.4957  1.0000</r>
       <r>   7.6052  1.0000</r>
       <r>   7.6055  1.0000</r>
       <r>   7.6065  1.0000</r>
       <r>   7.6067  1.0000</r>
       <r>   7.6309  1.0000</r>
       <r>   7.6342  1.0000</r>
       <r>   7.6538  1.0000</r>
       <r>   7.6567  1.0000</r>
       <r>   8.5759  1.0000</r>
       <r>   8.5789  1.0000</r>
       <r>   9.0696  0.0000</r>
       <r>   9.0729  0.0000</r>
       <r>   9.2909  0.0000</r>
       <r>   9.2938  0.0000</r>
       <r>   9.7218  0.0000</r>
       <r>   9.7235  0.0000</r>
       <r>  10.5102  0.0000</r>
       <r>  10.5124  0.0000</r>
       <r>  10.6912  0.0000</r>
       <r>  10.6945  0.0000</r>
       <r>  10.8484  0.0000</r>
       <r>  10.8491  0.0000</r>
       <r>  10.8516  0.0000</r>
       <r>  10.8523  0.0000</r>
       <r>  11.4162  0.0000</r>
       <r>  11.4173  0.0000</r>
       <r>  11.8356  0.0000</r>
       <r>  11.8357  0.0000</r>
       <r>  11.8374  0.0000</r>
       <r>  11.8374  0.0000</r>
       <r>  11.9563  0.0000</r>
       <r>  11.9586  0.0000</r>
      </set>
      <set comment="kpoint 9">
       <r>  -2.6397  1.0000</r>
       <r>  -1.8556  1.0000</r>
       <r>  -0.3047  1.0000</r>
       <r>  -0.3016  1.0000</r>
       <r>  -0.3016  1.0000</r>
       <r>  -0.2986  1.0000</r>
       <r>   0.4656  1.0000</r>
       <r>   0.4686  1.0000</r>
       <r>   0.4686  1.0000</r>
       <r>   0.4717  1.0000</r>
       <r>   1.2321  1.0000</r>
       <r>   1.9932  1.0000</r>
       <r>   1.9941  1.0000</r>
       <r>   1.9966  1.0000</r>
       <r>   1.9975  1.0000</r>
       <r>   2.7478  1.0000</r>
       <r>   2.7487  1.0000</r>
       <r>   2.7512  1.0000</r>
       <r>   2.7521  1.0000</r>
       <r>   3.4816  1.0000</r>
       <r>   3.4978  1.0000</r>
       <r>   3.5009  1.0000</r>
       <r>   3.5009  1.0000</r>
       <r>   3.5039  1.0000</r>
       <r>   5.6953  1.0000</r>
       <r>   5.6985  1.0000</r>
       <r>   5.6985  1.0000</r>
       <r>   5.7017  1.0000</r>
       <r>   5.7708  1.0000</r>
       <r>   5.7717  1.0000</r>
       <r>   5.7743  1.0000</r>
       <r>   5.7752  1.0000</r>
       <r>   5.8396  1.0000</r>
       <r>   5.8396  1.0000</r>
       <r>   6.5558  1.0000</r>
       <r>   6.5558  1.0000</r>
       <r>   7.3068  1.0000</r>
       <r>   7.3068  1.0000</r>
       <r>   7.9449  1.0000</r>
       <r>   7.9460  1.0000</r>
       <r>   7.9486  1.0000</r>
       <r>   7.9496  1.0000</r>
       <r>   7.9889  1.0000</r>
       <r>   7.9916  1.0000</r>
       <r>   7.9917  1.0000</r>
       <r>   7.9946  1.0000</r>
       <r>   8.0128  1.0000</r>
       <r>   8.0130  1.0000</r>
       <r>   8.7086  0.0000</r>
       <r>   8.7115  0.0000</r>
       <r>   8.7115  0.0000</r>
       <r>   8.7144  0.0000</r>
       <r>   9.4306  0.0000</r>
       <r>   9.4306  0.0000</r>
       <r>   9.5863  0.0000</r>
       <r>   9.5889  0.0000</r>
       <r>   9.5889  0.0000</r>
       <r>   9.5914  0.0000</r>
       <r>   9.6278  0.0000</r>
       <r>  10.3961  0.0000</r>
       <r>  10.3985  0.0000</r>
       <r>  10.3985  0.0000</r>
       <r>  10.4010  0.0000</r>
       <r>  11.3105  0.0000</r>
       <r>  11.3105  0.0000</r>
       <r>  11.5906  0.0000</r>
       <r>  11.5907  0.0000</r>
       <r>  11.5937  0.0000</r>
       <r>  11.5966  0.0000</r>
       <r>  11.5967  0.0000</r>
       <r>  11.5996  0.0000</r>
       <r>  12.0385  0.0000</r>
      </set>
      <set comment="kpoint 10">
       <r>  -2.5742  1.0000</r>
       <r>  -1.7905  1.0000</r>
       <r>  -1.0116  1.0000</r>
       <r>  -0.2387  1.0000</r>
       <r>  -0.2373  1.0000</r>
       <r>  -0.2358  1.0000</r>
       <r>   0.5309  1.0000</r>
       <r>   0.5326  1.0000</r>
       <r>   0.5338  1.0000</r>
       <r>   1.2947  1.0000</r>
       <r>   1.2969  1.0000</r>
       <r>   1.2980  1.0000</r>
       <r>   1.2996  1.0000</r>
       <r>   2.0585  1.0000</r>
       <r>   2.0585  1.0000</r>
       <r>   2.8114  1.0000</r>
       <r>   2.8135  1.0000</r>
       <r>   2.8145  1.0000</r>
       <r>   3.5437  1.0000</r>
       <r>   3.5541  1.0000</r>
       <r>   3.5542  1.0000</r>
       <r>   3.5628  1.0000</r>
       <r>   3.5629  1.0000</r>
       <r>   4.3080  1.0000</r>
       <r>   4.9687  1.0000</r>
       <r>   5.0278  1.0000</r>
       <r>   5.1028  1.0000</r>
       <r>   5.1028  1.0000</r>
       <r>   5.6996  1.0000</r>
       <r>   5.7507  1.0000</r>
       <r>   5.7507  1.0000</r>
       <r>   5.8992  1.0000</r>
       <r>   6.4764  1.0000</r>
       <r>   6.5718  1.0000</r>
       <r>   6.5718  1.0000</r>
       <r>   6.6156  1.0000</r>
       <r>   7.1965  1.0000</r>
       <r>   7.1965  1.0000</r>
       <r>   7.2755  1.0000</r>
       <r>   7.2755  1.0000</r>
       <r>   7.3331  1.0000</r>
       <r>   7.3651  1.0000</r>
       <r>   7.9177  1.0000</r>
       <r>   7.9177  1.0000</r>
       <r>   7.9738  1.0000</r>
       <r>   8.0519  1.0000</r>
       <r>   8.2874  1.0000</r>
       <r>   8.7388  0.0000</r>
       <r>   8.7388  0.0000</r>
       <r>   8.7710  0.0000</r>
       <r>   8.8081  0.0000</r>
       <r>   8.9562  0.0000</r>
       <r>   8.9729  0.0000</r>
       <r>   9.4903  0.0000</r>
       <r>   9.4923  0.0000</r>
       <r>   9.6849  0.0000</r>
       <r>   9.7310  0.0000</r>
       <r>  10.2084  0.0000</r>
       <r>  10.4677  0.0000</r>
       <r>  10.4677  0.0000</r>
       <r>  10.8202  0.0000</r>
       <r>  10.8202  0.0000</r>
       <r>  10.8265  0.0000</r>
       <r>  10.9347  0.0000</r>
       <r>  11.1698  0.0000</r>
       <r>  11.3007  0.0000</r>
       <r>  11.3007  0.0000</r>
       <r>  11.3963  0.0000</r>
       <r>  11.5442  0.0000</r>
       <r>  11.6512  0.0000</r>
       <r>  12.1355  0.0000</r>
       <r>  12.1363  0.0000</r>
      </set>
      <set comment="kpoint 11">
       <r>  -2.3778  1.0000</r>
       <r>  -1.5966  1.0000</r>
       <r>  -1.5941  1.0000</r>
       <r>  -0.8175  1.0000</r>
       <r>  -0.0444  1.0000</r>
       <r>  -0.0444  1.0000</r>
       <r>   0.7227  1.0000</r>
       <r>   0.7237  1.0000</r>
       <r>   0.7252  1.0000</r>
       <r>   0.7262  1.0000</r>
       <r>   1.4847  1.0000</r>
       <r>   1.4870  1.0000</r>
       <r>   1.4887  1.0000</r>
       <r>   1.4896  1.0000</r>
       <r>   2.2454  1.0000</r>
       <r>   2.2463  1.0000</r>
       <r>   3.7300  1.0000</r>
       <r>   3.7309  1.0000</r>
       <r>   3.7460  1.0000</r>
       <r>   3.7468  1.0000</r>
       <r>   3.7485  1.0000</r>
       <r>   3.7495  1.0000</r>
       <r>   4.3130  1.0000</r>
       <r>   4.3130  1.0000</r>
       <r>   4.4727  1.0000</r>
       <r>   4.4753  1.0000</r>
       <r>   4.7179  1.0000</r>
       <r>   4.7180  1.0000</r>
       <r>   5.2281  1.0000</r>
       <r>   5.7574  1.0000</r>
       <r>   5.7574  1.0000</r>
       <r>   6.0782  1.0000</r>
       <r>   6.1769  1.0000</r>
       <r>   6.1769  1.0000</r>
       <r>   6.7247  1.0000</r>
       <r>   6.7258  1.0000</r>
       <r>   6.7273  1.0000</r>
       <r>   6.7284  1.0000</r>
       <r>   6.7935  1.0000</r>
       <r>   6.7963  1.0000</r>
       <r>   7.3105  1.0000</r>
       <r>   7.3127  1.0000</r>
       <r>   7.4895  1.0000</r>
       <r>   7.4895  1.0000</r>
       <r>   7.5128  1.0000</r>
       <r>   7.5310  1.0000</r>
       <r>   8.5046  1.0000</r>
       <r>   8.5059  1.0000</r>
       <r>   9.1798  0.0000</r>
       <r>   9.6455  0.0000</r>
       <r>   9.6465  0.0000</r>
       <r>   9.6469  0.0000</r>
       <r>   9.6479  0.0000</r>
       <r>   9.6698  0.0000</r>
       <r>   9.6727  0.0000</r>
       <r>   9.6840  0.0000</r>
       <r>   9.8523  0.0000</r>
       <r>   9.8534  0.0000</r>
       <r>  10.3778  0.0000</r>
       <r>  10.3805  0.0000</r>
       <r>  10.3922  0.0000</r>
       <r>  10.3941  0.0000</r>
       <r>  11.7079  0.0000</r>
       <r>  11.7079  0.0000</r>
       <r>  11.7167  0.0000</r>
       <r>  11.7174  0.0000</r>
       <r>  11.7842  0.0000</r>
       <r>  11.7843  0.0000</r>
       <r>  11.8316  0.0000</r>
       <r>  11.8336  0.0000</r>
       <r>  12.0212  0.0000</r>
       <r>  12.0216  0.0000</r>
      </set>
      <set comment="kpoint 12">
       <r>  -2.0527  1.0000</r>
       <r>  -2.0497  1.0000</r>
       <r>  -1.2722  1.0000</r>
       <r>  -1.2692  1.0000</r>
       <r>   0.2744  1.0000</r>
       <r>   0.2756  1.0000</r>
       <r>   0.2774  1.0000</r>
       <r>   0.2786  1.0000</r>
       <r>   1.0414  1.0000</r>
       <r>   1.0426  1.0000</r>
       <r>   1.0444  1.0000</r>
       <r>   1.0456  1.0000</r>
       <r>   1.8018  1.0000</r>
       <r>   1.8048  1.0000</r>
       <r>   2.5555  1.0000</r>
       <r>   2.5567  1.0000</r>
       <r>   3.3080  1.0000</r>
       <r>   3.3091  1.0000</r>
       <r>   4.0394  1.0000</r>
       <r>   4.0425  1.0000</r>
       <r>   4.0464  1.0000</r>
       <r>   4.0478  1.0000</r>
       <r>   4.0494  1.0000</r>
       <r>   4.0508  1.0000</r>
       <r>   4.7838  1.0000</r>
       <r>   4.7845  1.0000</r>
       <r>   4.7848  1.0000</r>
       <r>   4.7855  1.0000</r>
       <r>   5.5915  1.0000</r>
       <r>   5.5916  1.0000</r>
       <r>   5.5927  1.0000</r>
       <r>   5.5928  1.0000</r>
       <r>   6.2471  1.0000</r>
       <r>   6.2481  1.0000</r>
       <r>   6.3069  1.0000</r>
       <r>   6.3078  1.0000</r>
       <r>   6.3098  1.0000</r>
       <r>   6.3108  1.0000</r>
       <r>   6.3751  1.0000</r>
       <r>   6.3783  1.0000</r>
       <r>   7.0923  1.0000</r>
       <r>   7.0955  1.0000</r>
       <r>   7.7220  1.0000</r>
       <r>   7.7243  1.0000</r>
       <r>   8.5184  1.0000</r>
       <r>   8.5187  1.0000</r>
       <r>   8.5197  1.0000</r>
       <r>   8.5200  1.0000</r>
       <r>   8.6836  0.3234</r>
       <r>   8.6844  0.2840</r>
       <r>   8.7559  0.0000</r>
       <r>   8.7587  0.0000</r>
       <r>   9.9703  0.0000</r>
       <r>   9.9736  0.0000</r>
       <r>  10.1128  0.0000</r>
       <r>  10.1159  0.0000</r>
       <r>  10.6651  0.0000</r>
       <r>  10.6653  0.0000</r>
       <r>  10.6666  0.0000</r>
       <r>  10.6667  0.0000</r>
       <r>  10.6911  0.0000</r>
       <r>  10.6932  0.0000</r>
       <r>  11.4142  0.0000</r>
       <r>  11.4164  0.0000</r>
       <r>  11.4291  0.0000</r>
       <r>  11.4323  0.0000</r>
       <r>  11.5606  0.0000</r>
       <r>  11.5614  0.0000</r>
       <r>  12.1331  0.0000</r>
       <r>  12.1365  0.0000</r>
       <r>  12.3356  0.0000</r>
       <r>  12.3386  0.0000</r>
      </set>
      <set comment="kpoint 13">
       <r>  -2.3124  1.0000</r>
       <r>  -2.3124  1.0000</r>
       <r>   0.0144  1.0000</r>
       <r>   0.0192  1.0000</r>
       <r>   0.0198  1.0000</r>
       <r>   0.0198  1.0000</r>
       <r>   0.0198  1.0000</r>
       <r>   0.0198  1.0000</r>
       <r>   0.0205  1.0000</r>
       <r>   0.0253  1.0000</r>
       <r>   2.3028  1.0000</r>
       <r>   2.3041  1.0000</r>
       <r>   2.3081  1.0000</r>
       <r>   2.3086  1.0000</r>
       <r>   2.3103  1.0000</r>
       <r>   2.3105  1.0000</r>
       <r>   2.3111  1.0000</r>
       <r>   2.3114  1.0000</r>
       <r>   2.3130  1.0000</r>
       <r>   2.3150  1.0000</r>
       <r>   4.5473  1.0000</r>
       <r>   4.5478  1.0000</r>
       <r>   4.5507  1.0000</r>
       <r>   4.5507  1.0000</r>
       <r>   4.5507  1.0000</r>
       <r>   4.5507  1.0000</r>
       <r>   4.5535  1.0000</r>
       <r>   4.5541  1.0000</r>
       <r>   6.1378  1.0000</r>
       <r>   6.1379  1.0000</r>
       <r>   6.1379  1.0000</r>
       <r>   6.1379  1.0000</r>
       <r>   6.8069  1.0000</r>
       <r>   6.8086  1.0000</r>
       <r>   6.8086  1.0000</r>
       <r>   6.8088  1.0000</r>
       <r>   6.8112  1.0000</r>
       <r>   6.8114  1.0000</r>
       <r>   6.8114  1.0000</r>
       <r>   6.8131  1.0000</r>
       <r>   7.6088  1.0000</r>
       <r>   7.6088  1.0000</r>
       <r>   7.6088  1.0000</r>
       <r>   7.6088  1.0000</r>
       <r>   8.2863  1.0000</r>
       <r>   8.2910  1.0000</r>
       <r>   8.2915  1.0000</r>
       <r>   8.2915  1.0000</r>
       <r>   8.2915  1.0000</r>
       <r>   8.2916  1.0000</r>
       <r>   8.2921  1.0000</r>
       <r>   8.2968  1.0000</r>
       <r>   9.9434  0.0000</r>
       <r>   9.9472  0.0000</r>
       <r>   9.9478  0.0000</r>
       <r>   9.9478  0.0000</r>
       <r>   9.9478  0.0000</r>
       <r>   9.9478  0.0000</r>
       <r>   9.9484  0.0000</r>
       <r>   9.9521  0.0000</r>
       <r>  10.4510  0.0000</r>
       <r>  10.4510  0.0000</r>
       <r>  10.4510  0.0000</r>
       <r>  10.4511  0.0000</r>
       <r>  11.3649  0.0000</r>
       <r>  11.3649  0.0000</r>
       <r>  12.2462  0.0000</r>
       <r>  12.2462  0.0000</r>
       <r>  12.2462  0.0000</r>
       <r>  12.2462  0.0000</r>
       <r>  12.6195  0.0000</r>
       <r>  12.6197  0.0000</r>
      </set>
      <set comment="kpoint 14">
       <r>  -2.2471  1.0000</r>
       <r>  -2.2471  1.0000</r>
       <r>  -0.6883  1.0000</r>
       <r>  -0.6883  1.0000</r>
       <r>   0.0840  1.0000</r>
       <r>   0.0841  1.0000</r>
       <r>   0.0841  1.0000</r>
       <r>   0.0841  1.0000</r>
       <r>   0.8515  1.0000</r>
       <r>   0.8515  1.0000</r>
       <r>   1.6156  1.0000</r>
       <r>   1.6156  1.0000</r>
       <r>   1.6156  1.0000</r>
       <r>   1.6156  1.0000</r>
       <r>   2.3672  1.0000</r>
       <r>   2.3672  1.0000</r>
       <r>   3.1253  1.0000</r>
       <r>   3.1253  1.0000</r>
       <r>   3.1253  1.0000</r>
       <r>   3.1253  1.0000</r>
       <r>   3.8696  1.0000</r>
       <r>   3.8696  1.0000</r>
       <r>   4.6106  1.0000</r>
       <r>   4.6106  1.0000</r>
       <r>   4.6106  1.0000</r>
       <r>   4.6106  1.0000</r>
       <r>   5.2739  1.0000</r>
       <r>   5.2739  1.0000</r>
       <r>   5.3472  1.0000</r>
       <r>   5.3472  1.0000</r>
       <r>   6.1356  1.0000</r>
       <r>   6.1357  1.0000</r>
       <r>   6.1357  1.0000</r>
       <r>   6.1357  1.0000</r>
       <r>   6.1976  1.0000</r>
       <r>   6.1976  1.0000</r>
       <r>   7.4935  1.0000</r>
       <r>   7.4936  1.0000</r>
       <r>   7.4936  1.0000</r>
       <r>   7.4936  1.0000</r>
       <r>   7.6059  1.0000</r>
       <r>   7.6060  1.0000</r>
       <r>   7.6060  1.0000</r>
       <r>   7.6060  1.0000</r>
       <r>   7.6325  1.0000</r>
       <r>   7.6327  1.0000</r>
       <r>   7.6553  1.0000</r>
       <r>   7.6553  1.0000</r>
       <r>   8.5774  1.0000</r>
       <r>   8.5774  1.0000</r>
       <r>   9.0713  0.0000</r>
       <r>   9.0713  0.0000</r>
       <r>   9.2923  0.0000</r>
       <r>   9.2923  0.0000</r>
       <r>   9.7226  0.0000</r>
       <r>   9.7226  0.0000</r>
       <r>  10.5113  0.0000</r>
       <r>  10.5113  0.0000</r>
       <r>  10.6928  0.0000</r>
       <r>  10.6928  0.0000</r>
       <r>  10.8503  0.0000</r>
       <r>  10.8503  0.0000</r>
       <r>  10.8504  0.0000</r>
       <r>  10.8504  0.0000</r>
       <r>  11.4168  0.0000</r>
       <r>  11.4168  0.0000</r>
       <r>  11.8365  0.0000</r>
       <r>  11.8365  0.0000</r>
       <r>  11.8365  0.0000</r>
       <r>  11.8366  0.0000</r>
       <r>  11.9575  0.0000</r>
       <r>  11.9575  0.0000</r>
      </set>
      <set comment="kpoint 15">
       <r>  -2.0512  1.0000</r>
       <r>  -2.0512  1.0000</r>
       <r>  -1.2707  1.0000</r>
       <r>  -1.2707  1.0000</r>
       <r>   0.2765  1.0000</r>
       <r>   0.2765  1.0000</r>
       <r>   0.2765  1.0000</r>
       <r>   0.2765  1.0000</r>
       <r>   1.0435  1.0000</r>
       <r>   1.0435  1.0000</r>
       <r>   1.0435  1.0000</r>
       <r>   1.0435  1.0000</r>
       <r>   1.8033  1.0000</r>
       <r>   1.8033  1.0000</r>
       <r>   2.5561  1.0000</r>
       <r>   2.5561  1.0000</r>
       <r>   3.3085  1.0000</r>
       <r>   3.3085  1.0000</r>
       <r>   4.0409  1.0000</r>
       <r>   4.0409  1.0000</r>
       <r>   4.0486  1.0000</r>
       <r>   4.0486  1.0000</r>
       <r>   4.0486  1.0000</r>
       <r>   4.0487  1.0000</r>
       <r>   4.7847  1.0000</r>
       <r>   4.7847  1.0000</r>
       <r>   4.7847  1.0000</r>
       <r>   4.7847  1.0000</r>
       <r>   5.5922  1.0000</r>
       <r>   5.5922  1.0000</r>
       <r>   5.5922  1.0000</r>
       <r>   5.5922  1.0000</r>
       <r>   6.2476  1.0000</r>
       <r>   6.2476  1.0000</r>
       <r>   6.3087  1.0000</r>
       <r>   6.3088  1.0000</r>
       <r>   6.3088  1.0000</r>
       <r>   6.3088  1.0000</r>
       <r>   6.3767  1.0000</r>
       <r>   6.3768  1.0000</r>
       <r>   7.0939  1.0000</r>
       <r>   7.0939  1.0000</r>
       <r>   7.7232  1.0000</r>
       <r>   7.7232  1.0000</r>
       <r>   8.5192  1.0000</r>
       <r>   8.5192  1.0000</r>
       <r>   8.5192  1.0000</r>
       <r>   8.5192  1.0000</r>
       <r>   8.6840  0.3033</r>
       <r>   8.6840  0.3033</r>
       <r>   8.7573  0.0000</r>
       <r>   8.7573  0.0000</r>
       <r>   9.9720  0.0000</r>
       <r>   9.9720  0.0000</r>
       <r>  10.1143  0.0000</r>
       <r>  10.1143  0.0000</r>
       <r>  10.6658  0.0000</r>
       <r>  10.6659  0.0000</r>
       <r>  10.6659  0.0000</r>
       <r>  10.6659  0.0000</r>
       <r>  10.6922  0.0000</r>
       <r>  10.6923  0.0000</r>
       <r>  11.4153  0.0000</r>
       <r>  11.4153  0.0000</r>
       <r>  11.4307  0.0000</r>
       <r>  11.4307  0.0000</r>
       <r>  11.5610  0.0000</r>
       <r>  11.5610  0.0000</r>
       <r>  12.1348  0.0000</r>
       <r>  12.1348  0.0000</r>
       <r>  12.3373  0.0000</r>
       <r>  12.3373  0.0000</r>
      </set>
      <set comment="kpoint 16">
       <r>  -1.7282  1.0000</r>
       <r>  -1.7257  1.0000</r>
       <r>  -1.7252  1.0000</r>
       <r>  -1.7227  1.0000</r>
       <r>   0.5928  1.0000</r>
       <r>   0.5950  1.0000</r>
       <r>   0.5963  1.0000</r>
       <r>   0.5965  1.0000</r>
       <r>   0.5968  1.0000</r>
       <r>   0.5970  1.0000</r>
       <r>   0.5983  1.0000</r>
       <r>   0.6005  1.0000</r>
       <r>   2.8662  1.0000</r>
       <r>   2.8680  1.0000</r>
       <r>   2.8698  1.0000</r>
       <r>   2.8702  1.0000</r>
       <r>   2.8702  1.0000</r>
       <r>   2.8706  1.0000</r>
       <r>   2.8724  1.0000</r>
       <r>   2.8742  1.0000</r>
       <r>   4.9133  1.0000</r>
       <r>   4.9150  1.0000</r>
       <r>   4.9157  1.0000</r>
       <r>   4.9163  1.0000</r>
       <r>   4.9164  1.0000</r>
       <r>   4.9170  1.0000</r>
       <r>   4.9177  1.0000</r>
       <r>   4.9194  1.0000</r>
       <r>   5.3371  1.0000</r>
       <r>   5.3375  1.0000</r>
       <r>   5.3383  1.0000</r>
       <r>   5.3393  1.0000</r>
       <r>   5.3394  1.0000</r>
       <r>   5.3404  1.0000</r>
       <r>   5.3412  1.0000</r>
       <r>   5.3416  1.0000</r>
       <r>   6.6724  1.0000</r>
       <r>   6.6752  1.0000</r>
       <r>   6.6756  1.0000</r>
       <r>   6.6784  1.0000</r>
       <r>   7.1966  1.0000</r>
       <r>   7.1971  1.0000</r>
       <r>   7.1988  1.0000</r>
       <r>   7.1993  1.0000</r>
       <r>   8.3979  1.0000</r>
       <r>   8.3992  1.0000</r>
       <r>   8.4001  1.0000</r>
       <r>   8.4013  1.0000</r>
       <r>   9.5418  0.0000</r>
       <r>   9.5426  0.0000</r>
       <r>   9.5429  0.0000</r>
       <r>   9.5429  0.0000</r>
       <r>   9.5442  0.0000</r>
       <r>   9.5442  0.0000</r>
       <r>   9.5445  0.0000</r>
       <r>   9.5453  0.0000</r>
       <r>  10.9877  0.0000</r>
       <r>  10.9914  0.0000</r>
       <r>  10.9931  0.0000</r>
       <r>  10.9935  0.0000</r>
       <r>  10.9935  0.0000</r>
       <r>  10.9939  0.0000</r>
       <r>  10.9956  0.0000</r>
       <r>  10.9993  0.0000</r>
       <r>  11.7105  0.0000</r>
       <r>  11.7124  0.0000</r>
       <r>  11.7141  0.0000</r>
       <r>  11.7142  0.0000</r>
       <r>  11.7145  0.0000</r>
       <r>  11.7146  0.0000</r>
       <r>  11.7163  0.0000</r>
       <r>  11.7181  0.0000</r>
      </set>
      <set comment="kpoint 17">
       <r>  -2.7708  1.0000</r>
       <r>  -1.2059  1.0000</r>
       <r>  -1.2059  1.0000</r>
       <r>  -0.4321  1.0000</r>
       <r>  -0.4288  1.0000</r>
       <r>   0.3400  1.0000</r>
       <r>   0.3400  1.0000</r>
       <r>   0.3407  1.0000</r>
       <r>   1.1044  1.0000</r>
       <r>   1.1064  1.0000</r>
       <r>   1.1078  1.0000</r>
       <r>   1.1098  1.0000</r>
       <r>   1.8684  1.0000</r>
       <r>   1.8684  1.0000</r>
       <r>   2.6223  1.0000</r>
       <r>   2.6232  1.0000</r>
       <r>   2.6247  1.0000</r>
       <r>   2.6261  1.0000</r>
       <r>   2.6262  1.0000</r>
       <r>   2.6282  1.0000</r>
       <r>   3.3772  1.0000</r>
       <r>   3.9505  1.0000</r>
       <r>   3.9505  1.0000</r>
       <r>   4.3385  1.0000</r>
       <r>   4.3385  1.0000</r>
       <r>   4.7853  1.0000</r>
       <r>   4.7853  1.0000</r>
       <r>   5.6494  1.0000</r>
       <r>   5.6529  1.0000</r>
       <r>   5.7204  1.0000</r>
       <r>   6.2435  1.0000</r>
       <r>   6.2435  1.0000</r>
       <r>   6.8178  1.0000</r>
       <r>   6.8178  1.0000</r>
       <r>   7.1422  1.0000</r>
       <r>   7.1424  1.0000</r>
       <r>   7.1536  1.0000</r>
       <r>   7.1538  1.0000</r>
       <r>   7.1834  1.0000</r>
       <r>   7.6308  1.0000</r>
       <r>   7.6309  1.0000</r>
       <r>   8.1091  1.0000</r>
       <r>   8.1091  1.0000</r>
       <r>   8.4612  1.0000</r>
       <r>   8.4633  1.0000</r>
       <r>   8.4650  1.0000</r>
       <r>   8.4671  1.0000</r>
       <r>   8.5909  1.0000</r>
       <r>   8.5909  1.0000</r>
       <r>   8.5916  1.0000</r>
       <r>   8.7611  0.0000</r>
       <r>   8.7611  0.0000</r>
       <r>   9.3150  0.0000</r>
       <r>   9.3150  0.0000</r>
       <r>   9.9133  0.0000</r>
       <r>   9.9134  0.0000</r>
       <r>   9.9150  0.0000</r>
       <r>   9.9155  0.0000</r>
       <r>   9.9187  0.0000</r>
       <r>   9.9194  0.0000</r>
       <r>  10.0328  0.0000</r>
       <r>  10.0329  0.0000</r>
       <r>  10.2879  0.0000</r>
       <r>  10.7027  0.0000</r>
       <r>  10.7027  0.0000</r>
       <r>  10.9794  0.0000</r>
       <r>  10.9794  0.0000</r>
       <r>  11.3050  0.0000</r>
       <r>  11.3051  0.0000</r>
       <r>  11.4763  0.0000</r>
       <r>  11.7354  0.0000</r>
       <r>  11.7360  0.0000</r>
      </set>
      <set comment="kpoint 18">
       <r>  -2.7052  1.0000</r>
       <r>  -1.1428  1.0000</r>
       <r>  -1.1411  1.0000</r>
       <r>  -1.1393  1.0000</r>
       <r>   0.4007  1.0000</r>
       <r>   0.4039  1.0000</r>
       <r>   0.4040  1.0000</r>
       <r>   0.4048  1.0000</r>
       <r>   0.4050  1.0000</r>
       <r>   0.4081  1.0000</r>
       <r>   1.9283  1.0000</r>
       <r>   1.9305  1.0000</r>
       <r>   1.9313  1.0000</r>
       <r>   1.9317  1.0000</r>
       <r>   1.9325  1.0000</r>
       <r>   1.9329  1.0000</r>
       <r>   1.9353  1.0000</r>
       <r>   3.4290  1.0000</r>
       <r>   3.4297  1.0000</r>
       <r>   3.4303  1.0000</r>
       <r>   3.4377  1.0000</r>
       <r>   3.4394  1.0000</r>
       <r>   3.4413  1.0000</r>
       <r>   4.8459  1.0000</r>
       <r>   4.8464  1.0000</r>
       <r>   4.8470  1.0000</r>
       <r>   4.9792  1.0000</r>
       <r>   4.9799  1.0000</r>
       <r>   4.9805  1.0000</r>
       <r>   6.2945  1.0000</r>
       <r>   6.2961  1.0000</r>
       <r>   6.2975  1.0000</r>
       <r>   6.2975  1.0000</r>
       <r>   6.2990  1.0000</r>
       <r>   6.3005  1.0000</r>
       <r>   6.4509  1.0000</r>
       <r>   7.7687  1.0000</r>
       <r>   7.7691  1.0000</r>
       <r>   7.7707  1.0000</r>
       <r>   7.7707  1.0000</r>
       <r>   7.7723  1.0000</r>
       <r>   7.7727  1.0000</r>
       <r>   7.7956  1.0000</r>
       <r>   7.7975  1.0000</r>
       <r>   7.7993  1.0000</r>
       <r>   8.1674  1.0000</r>
       <r>   8.1681  1.0000</r>
       <r>   8.1687  1.0000</r>
       <r>   9.2484  0.0000</r>
       <r>   9.2493  0.0000</r>
       <r>   9.2506  0.0000</r>
       <r>   9.2506  0.0000</r>
       <r>   9.2518  0.0000</r>
       <r>   9.2527  0.0000</r>
       <r>   9.6097  0.0000</r>
       <r>   9.6110  0.0000</r>
       <r>   9.6121  0.0000</r>
       <r>   9.6121  0.0000</r>
       <r>   9.6132  0.0000</r>
       <r>   9.6145  0.0000</r>
       <r>  10.7012  0.0000</r>
       <r>  10.7022  0.0000</r>
       <r>  10.7032  0.0000</r>
       <r>  11.1918  0.0000</r>
       <r>  11.1927  0.0000</r>
       <r>  11.1937  0.0000</r>
       <r>  11.4019  0.0000</r>
       <r>  11.4024  0.0000</r>
       <r>  11.4036  0.0000</r>
       <r>  11.4036  0.0000</r>
       <r>  11.4048  0.0000</r>
       <r>  11.4052  0.0000</r>
      </set>
      <set comment="kpoint 19">
       <r>  -2.5087  1.0000</r>
       <r>  -1.7254  1.0000</r>
       <r>  -0.9469  1.0000</r>
       <r>  -0.9468  1.0000</r>
       <r>  -0.1728  1.0000</r>
       <r>  -0.1728  1.0000</r>
       <r>   0.5960  1.0000</r>
       <r>   0.5960  1.0000</r>
       <r>   0.5968  1.0000</r>
       <r>   1.3579  1.0000</r>
       <r>   1.3610  1.0000</r>
       <r>   1.3616  1.0000</r>
       <r>   1.3626  1.0000</r>
       <r>   2.1213  1.0000</r>
       <r>   2.1213  1.0000</r>
       <r>   2.8734  1.0000</r>
       <r>   2.8740  1.0000</r>
       <r>   2.8759  1.0000</r>
       <r>   2.8766  1.0000</r>
       <r>   3.6061  1.0000</r>
       <r>   3.6245  1.0000</r>
       <r>   4.1921  1.0000</r>
       <r>   4.3682  1.0000</r>
       <r>   4.3682  1.0000</r>
       <r>   4.5919  1.0000</r>
       <r>   5.0297  1.0000</r>
       <r>   5.0297  1.0000</r>
       <r>   5.0874  1.0000</r>
       <r>   5.0874  1.0000</r>
       <r>   5.7589  1.0000</r>
       <r>   5.7589  1.0000</r>
       <r>   5.8959  1.0000</r>
       <r>   5.8959  1.0000</r>
       <r>   6.3467  1.0000</r>
       <r>   6.3467  1.0000</r>
       <r>   6.6047  1.0000</r>
       <r>   6.7225  1.0000</r>
       <r>   6.7225  1.0000</r>
       <r>   7.2528  1.0000</r>
       <r>   7.2528  1.0000</r>
       <r>   7.3696  1.0000</r>
       <r>   7.9687  1.0000</r>
       <r>   7.9687  1.0000</r>
       <r>   8.0678  1.0000</r>
       <r>   8.0678  1.0000</r>
       <r>   8.3414  1.0000</r>
       <r>   8.3414  1.0000</r>
       <r>   8.5610  1.0000</r>
       <r>   8.5610  1.0000</r>
       <r>   8.7036  0.0005</r>
       <r>   8.7036  0.0005</r>
       <r>   9.2405  0.0000</r>
       <r>   9.2405  0.0000</r>
       <r>   9.5286  0.0000</r>
       <r>   9.7391  0.0000</r>
       <r>   9.8771  0.0000</r>
       <r>   9.8771  0.0000</r>
       <r>  10.1543  0.0000</r>
       <r>  10.1543  0.0000</r>
       <r>  10.6425  0.0000</r>
       <r>  10.6425  0.0000</r>
       <r>  10.8716  0.0000</r>
       <r>  10.8716  0.0000</r>
       <r>  10.8914  0.0000</r>
       <r>  10.8914  0.0000</r>
       <r>  11.6039  0.0000</r>
       <r>  11.6039  0.0000</r>
       <r>  11.8549  0.0000</r>
       <r>  11.8549  0.0000</r>
       <r>  12.0598  0.0000</r>
       <r>  12.0599  0.0000</r>
       <r>  12.2265  0.0000</r>
      </set>
      <set comment="kpoint 20">
       <r>  -2.1832  1.0000</r>
       <r>  -2.1803  1.0000</r>
       <r>  -0.6263  1.0000</r>
       <r>  -0.6242  1.0000</r>
       <r>  -0.6233  1.0000</r>
       <r>  -0.6213  1.0000</r>
       <r>   0.9125  1.0000</r>
       <r>   0.9148  1.0000</r>
       <r>   0.9149  1.0000</r>
       <r>   0.9158  1.0000</r>
       <r>   0.9170  1.0000</r>
       <r>   0.9184  1.0000</r>
       <r>   2.4288  1.0000</r>
       <r>   2.4304  1.0000</r>
       <r>   2.4350  1.0000</r>
       <r>   2.4353  1.0000</r>
       <r>   2.4376  1.0000</r>
       <r>   2.4386  1.0000</r>
       <r>   3.9244  1.0000</r>
       <r>   3.9274  1.0000</r>
       <r>   3.9307  1.0000</r>
       <r>   3.9308  1.0000</r>
       <r>   3.9317  1.0000</r>
       <r>   3.9320  1.0000</r>
       <r>   5.3327  1.0000</r>
       <r>   5.3330  1.0000</r>
       <r>   5.3358  1.0000</r>
       <r>   5.3361  1.0000</r>
       <r>   5.3987  1.0000</r>
       <r>   5.3989  1.0000</r>
       <r>   5.3997  1.0000</r>
       <r>   5.3999  1.0000</r>
       <r>   5.4680  1.0000</r>
       <r>   5.4692  1.0000</r>
       <r>   6.8347  1.0000</r>
       <r>   6.8368  1.0000</r>
       <r>   6.8377  1.0000</r>
       <r>   6.8399  1.0000</r>
       <r>   6.9307  1.0000</r>
       <r>   6.9314  1.0000</r>
       <r>   6.9320  1.0000</r>
       <r>   6.9326  1.0000</r>
       <r>   8.2747  1.0000</r>
       <r>   8.2754  1.0000</r>
       <r>   8.2779  1.0000</r>
       <r>   8.2786  1.0000</r>
       <r>   8.3995  1.0000</r>
       <r>   8.4008  1.0000</r>
       <r>   8.6025  1.0000</r>
       <r>   8.6032  1.0000</r>
       <r>   8.6053  1.0000</r>
       <r>   8.6061  1.0000</r>
       <r>   9.8053  0.0000</r>
       <r>   9.8059  0.0000</r>
       <r>   9.8069  0.0000</r>
       <r>   9.8074  0.0000</r>
       <r>  10.2040  0.0000</r>
       <r>  10.2050  0.0000</r>
       <r>  10.2071  0.0000</r>
       <r>  10.2081  0.0000</r>
       <r>  11.1700  0.0000</r>
       <r>  11.1706  0.0000</r>
       <r>  11.1717  0.0000</r>
       <r>  11.1723  0.0000</r>
       <r>  11.4527  0.0000</r>
       <r>  11.4535  0.0000</r>
       <r>  11.5609  0.0000</r>
       <r>  11.5632  0.0000</r>
       <r>  11.5643  0.0000</r>
       <r>  11.5666  0.0000</r>
       <r>  12.5785  0.0000</r>
       <r>  12.6098  0.0000</r>
      </set>
      <set comment="kpoint 21">
       <r>  -2.5742  1.0000</r>
       <r>  -1.7905  1.0000</r>
       <r>  -1.0116  1.0000</r>
       <r>  -0.2395  1.0000</r>
       <r>  -0.2372  1.0000</r>
       <r>  -0.2350  1.0000</r>
       <r>   0.5303  1.0000</r>
       <r>   0.5323  1.0000</r>
       <r>   0.5348  1.0000</r>
       <r>   1.2948  1.0000</r>
       <r>   1.2968  1.0000</r>
       <r>   1.2975  1.0000</r>
       <r>   1.3001  1.0000</r>
       <r>   2.0568  1.0000</r>
       <r>   2.0602  1.0000</r>
       <r>   2.8115  1.0000</r>
       <r>   2.8126  1.0000</r>
       <r>   2.8153  1.0000</r>
       <r>   3.5437  1.0000</r>
       <r>   3.5525  1.0000</r>
       <r>   3.5558  1.0000</r>
       <r>   3.5611  1.0000</r>
       <r>   3.5645  1.0000</r>
       <r>   4.3080  1.0000</r>
       <r>   4.9687  1.0000</r>
       <r>   5.0278  1.0000</r>
       <r>   5.1011  1.0000</r>
       <r>   5.1045  1.0000</r>
       <r>   5.6996  1.0000</r>
       <r>   5.7490  1.0000</r>
       <r>   5.7524  1.0000</r>
       <r>   5.8992  1.0000</r>
       <r>   6.4763  1.0000</r>
       <r>   6.5701  1.0000</r>
       <r>   6.5736  1.0000</r>
       <r>   6.6156  1.0000</r>
       <r>   7.1947  1.0000</r>
       <r>   7.1983  1.0000</r>
       <r>   7.2737  1.0000</r>
       <r>   7.2773  1.0000</r>
       <r>   7.3331  1.0000</r>
       <r>   7.3651  1.0000</r>
       <r>   7.9158  1.0000</r>
       <r>   7.9196  1.0000</r>
       <r>   7.9738  1.0000</r>
       <r>   8.0520  1.0000</r>
       <r>   8.2874  1.0000</r>
       <r>   8.7369  0.0000</r>
       <r>   8.7407  0.0000</r>
       <r>   8.7710  0.0000</r>
       <r>   8.8082  0.0000</r>
       <r>   8.9563  0.0000</r>
       <r>   8.9728  0.0000</r>
       <r>   9.4908  0.0000</r>
       <r>   9.4919  0.0000</r>
       <r>   9.6849  0.0000</r>
       <r>   9.7310  0.0000</r>
       <r>  10.2084  0.0000</r>
       <r>  10.4664  0.0000</r>
       <r>  10.4689  0.0000</r>
       <r>  10.8182  0.0000</r>
       <r>  10.8222  0.0000</r>
       <r>  10.8265  0.0000</r>
       <r>  10.9347  0.0000</r>
       <r>  11.1698  0.0000</r>
       <r>  11.2992  0.0000</r>
       <r>  11.3023  0.0000</r>
       <r>  11.3963  0.0000</r>
       <r>  11.5442  0.0000</r>
       <r>  11.6512  0.0000</r>
       <r>  12.1351  0.0000</r>
       <r>  12.1395  0.0000</r>
      </set>
      <set comment="kpoint 22">
       <r>  -2.5087  1.0000</r>
       <r>  -1.7254  1.0000</r>
       <r>  -0.9481  1.0000</r>
       <r>  -0.9456  1.0000</r>
       <r>  -0.1740  1.0000</r>
       <r>  -0.1715  1.0000</r>
       <r>   0.5943  1.0000</r>
       <r>   0.5963  1.0000</r>
       <r>   0.5982  1.0000</r>
       <r>   1.3587  1.0000</r>
       <r>   1.3597  1.0000</r>
       <r>   1.3614  1.0000</r>
       <r>   1.3633  1.0000</r>
       <r>   2.1208  1.0000</r>
       <r>   2.1217  1.0000</r>
       <r>   2.8735  1.0000</r>
       <r>   2.8745  1.0000</r>
       <r>   2.8752  1.0000</r>
       <r>   2.8765  1.0000</r>
       <r>   3.6061  1.0000</r>
       <r>   3.6244  1.0000</r>
       <r>   4.1921  1.0000</r>
       <r>   4.3669  1.0000</r>
       <r>   4.3695  1.0000</r>
       <r>   4.5919  1.0000</r>
       <r>   5.0293  1.0000</r>
       <r>   5.0301  1.0000</r>
       <r>   5.0860  1.0000</r>
       <r>   5.0887  1.0000</r>
       <r>   5.7585  1.0000</r>
       <r>   5.7594  1.0000</r>
       <r>   5.8954  1.0000</r>
       <r>   5.8963  1.0000</r>
       <r>   6.3454  1.0000</r>
       <r>   6.3480  1.0000</r>
       <r>   6.6047  1.0000</r>
       <r>   6.7211  1.0000</r>
       <r>   6.7238  1.0000</r>
       <r>   7.2515  1.0000</r>
       <r>   7.2540  1.0000</r>
       <r>   7.3696  1.0000</r>
       <r>   7.9680  1.0000</r>
       <r>   7.9694  1.0000</r>
       <r>   8.0672  1.0000</r>
       <r>   8.0683  1.0000</r>
       <r>   8.3410  1.0000</r>
       <r>   8.3419  1.0000</r>
       <r>   8.5602  1.0000</r>
       <r>   8.5618  1.0000</r>
       <r>   8.7029  0.0007</r>
       <r>   8.7043  0.0003</r>
       <r>   9.2405  0.0000</r>
       <r>   9.2405  0.0000</r>
       <r>   9.5286  0.0000</r>
       <r>   9.7391  0.0000</r>
       <r>   9.8763  0.0000</r>
       <r>   9.8779  0.0000</r>
       <r>  10.1529  0.0000</r>
       <r>  10.1556  0.0000</r>
       <r>  10.6418  0.0000</r>
       <r>  10.6432  0.0000</r>
       <r>  10.8702  0.0000</r>
       <r>  10.8731  0.0000</r>
       <r>  10.8911  0.0000</r>
       <r>  10.8918  0.0000</r>
       <r>  11.6032  0.0000</r>
       <r>  11.6046  0.0000</r>
       <r>  11.8540  0.0000</r>
       <r>  11.8559  0.0000</r>
       <r>  12.0585  0.0000</r>
       <r>  12.0612  0.0000</r>
       <r>  12.2132  0.0000</r>
      </set>
      <set comment="kpoint 23">
       <r>  -2.3124  1.0000</r>
       <r>  -1.5316  1.0000</r>
       <r>  -1.5291  1.0000</r>
       <r>  -0.7539  1.0000</r>
       <r>  -0.7519  1.0000</r>
       <r>   0.0188  1.0000</r>
       <r>   0.0213  1.0000</r>
       <r>   0.7875  1.0000</r>
       <r>   0.7888  1.0000</r>
       <r>   1.5478  1.0000</r>
       <r>   1.5502  1.0000</r>
       <r>   1.5510  1.0000</r>
       <r>   1.5535  1.0000</r>
       <r>   2.3080  1.0000</r>
       <r>   2.3090  1.0000</r>
       <r>   2.3111  1.0000</r>
       <r>   3.0614  1.0000</r>
       <r>   3.0639  1.0000</r>
       <r>   3.7921  1.0000</r>
       <r>   3.7929  1.0000</r>
       <r>   3.8004  1.0000</r>
       <r>   3.8012  1.0000</r>
       <r>   4.5339  1.0000</r>
       <r>   4.5365  1.0000</r>
       <r>   4.5417  1.0000</r>
       <r>   4.5443  1.0000</r>
       <r>   5.2123  1.0000</r>
       <r>   5.2600  1.0000</r>
       <r>   5.2608  1.0000</r>
       <r>   5.2803  1.0000</r>
       <r>   5.3501  1.0000</r>
       <r>   5.3510  1.0000</r>
       <r>   5.9313  1.0000</r>
       <r>   5.9341  1.0000</r>
       <r>   6.0632  1.0000</r>
       <r>   6.0658  1.0000</r>
       <r>   6.7166  1.0000</r>
       <r>   6.7911  1.0000</r>
       <r>   6.7921  1.0000</r>
       <r>   6.8145  1.0000</r>
       <r>   7.4774  1.0000</r>
       <r>   7.4789  1.0000</r>
       <r>   7.5162  1.0000</r>
       <r>   7.5188  1.0000</r>
       <r>   8.2845  1.0000</r>
       <r>   8.4815  1.0000</r>
       <r>   8.8546  0.0000</r>
       <r>   8.8575  0.0000</r>
       <r>   8.9764  0.0000</r>
       <r>   8.9778  0.0000</r>
       <r>   9.3701  0.0000</r>
       <r>   9.3721  0.0000</r>
       <r>   9.6060  0.0000</r>
       <r>   9.6074  0.0000</r>
       <r>   9.7719  0.0000</r>
       <r>   9.8850  0.0000</r>
       <r>   9.8863  0.0000</r>
       <r>  10.0969  0.0000</r>
       <r>  10.4336  0.0000</r>
       <r>  10.4350  0.0000</r>
       <r>  10.6392  0.0000</r>
       <r>  10.6411  0.0000</r>
       <r>  11.0982  0.0000</r>
       <r>  11.0993  0.0000</r>
       <r>  11.1178  0.0000</r>
       <r>  11.3676  0.0000</r>
       <r>  11.3682  0.0000</r>
       <r>  11.7339  0.0000</r>
       <r>  11.7369  0.0000</r>
       <r>  12.1713  0.0000</r>
       <r>  12.1726  0.0000</r>
       <r>  12.4380  0.0000</r>
      </set>
      <set comment="kpoint 24">
       <r>  -1.9875  1.0000</r>
       <r>  -1.9845  1.0000</r>
       <r>  -1.2073  1.0000</r>
       <r>  -1.2044  1.0000</r>
       <r>  -0.4318  1.0000</r>
       <r>  -0.4288  1.0000</r>
       <r>   0.3393  1.0000</r>
       <r>   0.3423  1.0000</r>
       <r>   1.1050  1.0000</r>
       <r>   1.1080  1.0000</r>
       <r>   1.8650  1.0000</r>
       <r>   1.8670  1.0000</r>
       <r>   1.8680  1.0000</r>
       <r>   1.8700  1.0000</r>
       <r>   2.6184  1.0000</r>
       <r>   2.6195  1.0000</r>
[...]
       <r>   7.7232  1.0000</r>
       <r>   8.5170  1.0000</r>
       <r>   8.5177  1.0000</r>
       <r>   8.5207  1.0000</r>
       <r>   8.5214  1.0000</r>
       <r>   8.6840  0.3037</r>
       <r>   8.6840  0.3032</r>
       <r>   8.7573  0.0000</r>
       <r>   8.7573  0.0000</r>
       <r>   9.9719  0.0000</r>
       <r>   9.9720  0.0000</r>
       <r>  10.1143  0.0000</r>
       <r>  10.1144  0.0000</r>
       <r>  10.6637  0.0000</r>
       <r>  10.6643  0.0000</r>
       <r>  10.6676  0.0000</r>
       <r>  10.6681  0.0000</r>
       <r>  10.6922  0.0000</r>
       <r>  10.6922  0.0000</r>
       <r>  11.4150  0.0000</r>
       <r>  11.4152  0.0000</r>
       <r>  11.4308  0.0000</r>
       <r>  11.4310  0.0000</r>
       <r>  11.5610  0.0000</r>
       <r>  11.5610  0.0000</r>
       <r>  12.1348  0.0000</r>
       <r>  12.1348  0.0000</r>
       <r>  12.3354  0.0000</r>
       <r>  12.3376  0.0000</r>
      </set>
      <set comment="kpoint 34">
       <r>  -1.9860  1.0000</r>
       <r>  -1.9860  1.0000</r>
       <r>  -1.2059  1.0000</r>
       <r>  -1.2059  1.0000</r>
       <r>  -0.4303  1.0000</r>
       <r>  -0.4303  1.0000</r>
       <r>   0.3408  1.0000</r>
       <r>   0.3408  1.0000</r>
       <r>   1.1065  1.0000</r>
       <r>   1.1065  1.0000</r>
       <r>   1.8661  1.0000</r>
       <r>   1.8666  1.0000</r>
       <r>   1.8684  1.0000</r>
       <r>   1.8689  1.0000</r>
       <r>   2.6190  1.0000</r>
       <r>   2.6190  1.0000</r>
       <r>   3.3707  1.0000</r>
       <r>   3.3708  1.0000</r>
       <r>   3.3735  1.0000</r>
       <r>   3.3737  1.0000</r>
       <r>   4.1027  1.0000</r>
       <r>   4.1028  1.0000</r>
       <r>   4.1152  1.0000</r>
       <r>   4.1152  1.0000</r>
       <r>   4.6751  1.0000</r>
       <r>   4.6751  1.0000</r>
       <r>   5.0924  1.0000</r>
       <r>   5.0924  1.0000</r>
       <r>   5.3973  1.0000</r>
       <r>   5.3973  1.0000</r>
       <r>   5.5152  1.0000</r>
       <r>   5.5153  1.0000</r>
       <r>   5.8221  1.0000</r>
       <r>   5.8221  1.0000</r>
       <r>   6.1070  1.0000</r>
       <r>   6.1070  1.0000</r>
       <r>   6.3805  1.0000</r>
       <r>   6.3805  1.0000</r>
       <r>   6.4938  1.0000</r>
       <r>   6.4938  1.0000</r>
       <r>   7.0902  1.0000</r>
       <r>   7.0902  1.0000</r>
       <r>   7.8464  1.0000</r>
       <r>   7.8464  1.0000</r>
       <r>   8.3480  1.0000</r>
       <r>   8.3480  1.0000</r>
       <r>   9.0927  0.0000</r>
       <r>   9.0928  0.0000</r>
       <r>   9.1766  0.0000</r>
       <r>   9.1766  0.0000</r>
       <r>   9.3106  0.0000</r>
       <r>   9.3106  0.0000</r>
       <r>   9.6705  0.0000</r>
       <r>   9.6706  0.0000</r>
       <r>   9.7674  0.0000</r>
       <r>   9.7675  0.0000</r>
       <r>   9.9979  0.0000</r>
       <r>   9.9979  0.0000</r>
       <r>  10.3805  0.0000</r>
       <r>  10.3805  0.0000</r>
       <r>  10.6218  0.0000</r>
       <r>  10.6219  0.0000</r>
       <r>  11.2146  0.0000</r>
       <r>  11.2146  0.0000</r>
       <r>  11.4508  0.0000</r>
       <r>  11.4508  0.0000</r>
       <r>  11.7316  0.0000</r>
       <r>  11.7316  0.0000</r>
       <r>  11.7972  0.0000</r>
       <r>  11.7972  0.0000</r>
       <r>  12.0864  0.0000</r>
       <r>  12.0864  0.0000</r>
      </set>
      <set comment="kpoint 35">
       <r>  -1.7905  1.0000</r>
       <r>  -1.7905  1.0000</r>
       <r>  -1.0138  1.0000</r>
       <r>  -1.0118  1.0000</r>
       <r>  -1.0113  1.0000</r>
       <r>  -1.0093  1.0000</r>
       <r>  -0.2370  1.0000</r>
       <r>  -0.2370  1.0000</r>
       <r>   2.0540  1.0000</r>
       <r>   2.0561  1.0000</r>
       <r>   2.0566  1.0000</r>
       <r>   2.0586  1.0000</r>
       <r>   2.8065  1.0000</r>
       <r>   2.8072  1.0000</r>
       <r>   2.8114  1.0000</r>
       <r>   2.8116  1.0000</r>
       <r>   2.8119  1.0000</r>
       <r>   2.8130  1.0000</r>
       <r>   3.5561  1.0000</r>
       <r>   3.5562  1.0000</r>
       <r>   3.5587  1.0000</r>
       <r>   3.5588  1.0000</r>
       <r>   4.2864  1.0000</r>
       <r>   4.2875  1.0000</r>
       <r>   4.2879  1.0000</r>
       <r>   4.2881  1.0000</r>
       <r>   4.2909  1.0000</r>
       <r>   4.2918  1.0000</r>
       <r>   5.0123  1.0000</r>
       <r>   5.0142  1.0000</r>
       <r>   5.0148  1.0000</r>
       <r>   5.0168  1.0000</r>
       <r>   5.8423  1.0000</r>
       <r>   5.8423  1.0000</r>
       <r>   6.5653  1.0000</r>
       <r>   6.5653  1.0000</r>
       <r>   6.5680  1.0000</r>
       <r>   6.5680  1.0000</r>
       <r>   7.2937  1.0000</r>
       <r>   7.2946  1.0000</r>
       <r>   7.2947  1.0000</r>
       <r>   7.2956  1.0000</r>
       <r>   7.9953  1.0000</r>
       <r>   7.9964  1.0000</r>
       <r>   7.9967  1.0000</r>
       <r>   7.9977  1.0000</r>
       <r>   8.6834  0.3327</r>
       <r>   8.6841  0.2970</r>
       <r>   8.6846  0.2722</r>
       <r>   8.6853  0.2398</r>
       <r>   9.4461  0.0000</r>
       <r>   9.4462  0.0000</r>
       <r>   9.4488  0.0000</r>
       <r>   9.4489  0.0000</r>
       <r>  10.1199  0.0000</r>
       <r>  10.1199  0.0000</r>
       <r>  10.2178  0.0000</r>
       <r>  10.2178  0.0000</r>
       <r>  10.4990  0.0000</r>
       <r>  10.4992  0.0000</r>
       <r>  10.4995  0.0000</r>
       <r>  10.4998  0.0000</r>
       <r>  11.2053  0.0000</r>
       <r>  11.2064  0.0000</r>
       <r>  11.2067  0.0000</r>
       <r>  11.2078  0.0000</r>
       <r>  11.9152  0.0000</r>
       <r>  11.9152  0.0000</r>
       <r>  12.3489  0.0000</r>
       <r>  12.3498  0.0000</r>
       <r>  12.3503  0.0000</r>
       <r>  12.3511  0.0000</r>
      </set>
      <set comment="kpoint 36">
       <r>  -1.4681  1.0000</r>
       <r>  -1.4656  1.0000</r>
       <r>  -1.4652  1.0000</r>
       <r>  -1.4627  1.0000</r>
       <r>  -0.6910  1.0000</r>
       <r>  -0.6885  1.0000</r>
       <r>  -0.6880  1.0000</r>
       <r>  -0.6855  1.0000</r>
       <r>   2.3690  1.0000</r>
       <r>   2.3716  1.0000</r>
       <r>   2.3720  1.0000</r>
       <r>   2.3746  1.0000</r>
       <r>   3.1167  1.0000</r>
       <r>   3.1184  1.0000</r>
       <r>   3.1202  1.0000</r>
       <r>   3.1206  1.0000</r>
       <r>   3.1206  1.0000</r>
       <r>   3.1211  1.0000</r>
       <r>   3.1228  1.0000</r>
       <r>   3.1246  1.0000</r>
       <r>   3.8626  1.0000</r>
       <r>   3.8644  1.0000</r>
       <r>   3.8661  1.0000</r>
       <r>   3.8666  1.0000</r>
       <r>   3.8666  1.0000</r>
       <r>   3.8670  1.0000</r>
       <r>   3.8688  1.0000</r>
       <r>   3.8706  1.0000</r>
       <r>   4.5914  1.0000</r>
       <r>   4.5941  1.0000</r>
       <r>   4.5945  1.0000</r>
       <r>   4.5971  1.0000</r>
       <r>   6.8620  1.0000</r>
       <r>   6.8637  1.0000</r>
       <r>   6.8658  1.0000</r>
       <r>   6.8661  1.0000</r>
       <r>   6.8661  1.0000</r>
       <r>   6.8665  1.0000</r>
       <r>   6.8685  1.0000</r>
       <r>   6.8702  1.0000</r>
       <r>   7.5767  1.0000</r>
       <r>   7.5779  1.0000</r>
       <r>   7.5781  1.0000</r>
       <r>   7.5793  1.0000</r>
       <r>   8.3206  1.0000</r>
       <r>   8.3219  1.0000</r>
       <r>   8.3219  1.0000</r>
       <r>   8.3232  1.0000</r>
       <r>   9.0088  0.0000</r>
       <r>   9.0109  0.0000</r>
       <r>   9.0130  0.0000</r>
       <r>   9.0133  0.0000</r>
       <r>   9.0133  0.0000</r>
       <r>   9.0137  0.0000</r>
       <r>   9.0157  0.0000</r>
       <r>   9.0178  0.0000</r>
       <r>  10.7889  0.0000</r>
       <r>  10.7912  0.0000</r>
       <r>  10.7919  0.0000</r>
       <r>  10.7942  0.0000</r>
       <r>  11.2337  0.0000</r>
       <r>  11.2351  0.0000</r>
       <r>  11.2352  0.0000</r>
       <r>  11.2365  0.0000</r>
       <r>  12.1897  0.0000</r>
       <r>  12.1907  0.0000</r>
       <r>  12.1909  0.0000</r>
       <r>  12.1921  0.0000</r>
       <r>  12.1924  0.0000</r>
       <r>  12.1937  0.0000</r>
       <r>  12.1938  0.0000</r>
       <r>  12.1948  0.0000</r>
      </set>
      <set comment="kpoint 37">
       <r>  -1.7255  1.0000</r>
       <r>  -1.7254  1.0000</r>
       <r>  -1.7254  1.0000</r>
       <r>  -1.7254  1.0000</r>
       <r>   0.5914  1.0000</r>
       <r>   0.5959  1.0000</r>
       <r>   0.5959  1.0000</r>
       <r>   0.5965  1.0000</r>
       <r>   0.5968  1.0000</r>
       <r>   0.5973  1.0000</r>
       <r>   0.5973  1.0000</r>
       <r>   0.6019  1.0000</r>
       <r>   2.8702  1.0000</r>
       <r>   2.8702  1.0000</r>
       <r>   2.8702  1.0000</r>
       <r>   2.8702  1.0000</r>
       <r>   2.8702  1.0000</r>
       <r>   2.8702  1.0000</r>
       <r>   2.8702  1.0000</r>
       <r>   2.8702  1.0000</r>
       <r>   4.9148  1.0000</r>
       <r>   4.9148  1.0000</r>
       <r>   4.9163  1.0000</r>
       <r>   4.9163  1.0000</r>
       <r>   4.9164  1.0000</r>
       <r>   4.9164  1.0000</r>
       <r>   4.9179  1.0000</r>
       <r>   4.9179  1.0000</r>
       <r>   5.3375  1.0000</r>
       <r>   5.3375  1.0000</r>
       <r>   5.3393  1.0000</r>
       <r>   5.3393  1.0000</r>
       <r>   5.3394  1.0000</r>
       <r>   5.3394  1.0000</r>
       <r>   5.3412  1.0000</r>
       <r>   5.3412  1.0000</r>
       <r>   6.6754  1.0000</r>
       <r>   6.6754  1.0000</r>
       <r>   6.6754  1.0000</r>
       <r>   6.6754  1.0000</r>
       <r>   7.1979  1.0000</r>
       <r>   7.1979  1.0000</r>
       <r>   7.1980  1.0000</r>
       <r>   7.1980  1.0000</r>
       <r>   8.3996  1.0000</r>
       <r>   8.3996  1.0000</r>
       <r>   8.3996  1.0000</r>
       <r>   8.3996  1.0000</r>
       <r>   9.5412  0.0000</r>
       <r>   9.5412  0.0000</r>
       <r>   9.5415  0.0000</r>
       <r>   9.5428  0.0000</r>
       <r>   9.5443  0.0000</r>
       <r>   9.5456  0.0000</r>
       <r>   9.5459  0.0000</r>
       <r>   9.5459  0.0000</r>
       <r>  10.9935  0.0000</r>
       <r>  10.9935  0.0000</r>
       <r>  10.9935  0.0000</r>
       <r>  10.9935  0.0000</r>
       <r>  10.9935  0.0000</r>
       <r>  10.9935  0.0000</r>
       <r>  10.9935  0.0000</r>
       <r>  10.9936  0.0000</r>
       <r>  11.7143  0.0000</r>
       <r>  11.7143  0.0000</r>
       <r>  11.7143  0.0000</r>
       <r>  11.7144  0.0000</r>
       <r>  11.7144  0.0000</r>
       <r>  11.7144  0.0000</r>
       <r>  11.7144  0.0000</r>
       <r>  11.7144  0.0000</r>
      </set>
      <set comment="kpoint 38">
       <r>  -1.6604  1.0000</r>
       <r>  -1.6604  1.0000</r>
       <r>  -1.6604  1.0000</r>
       <r>  -1.6604  1.0000</r>
       <r>  -0.1085  1.0000</r>
       <r>  -0.1084  1.0000</r>
       <r>  -0.1084  1.0000</r>
       <r>  -0.1084  1.0000</r>
       <r>   1.4245  1.0000</r>
       <r>   1.4245  1.0000</r>
       <r>   1.4245  1.0000</r>
       <r>   1.4245  1.0000</r>
       <r>   2.9328  1.0000</r>
       <r>   2.9328  1.0000</r>
       <r>   2.9328  1.0000</r>
       <r>   2.9329  1.0000</r>
       <r>   2.9329  1.0000</r>
       <r>   2.9329  1.0000</r>
       <r>   2.9329  1.0000</r>
       <r>   2.9329  1.0000</r>
       <r>   4.4140  1.0000</r>
       <r>   4.4140  1.0000</r>
       <r>   4.4143  1.0000</r>
       <r>   4.4143  1.0000</r>
       <r>   4.4143  1.0000</r>
       <r>   4.4143  1.0000</r>
       <r>   4.4147  1.0000</r>
       <r>   4.4147  1.0000</r>
       <r>   5.8109  1.0000</r>
       <r>   5.8109  1.0000</r>
       <r>   5.8109  1.0000</r>
       <r>   5.8109  1.0000</r>
       <r>   5.9603  1.0000</r>
       <r>   5.9603  1.0000</r>
       <r>   5.9609  1.0000</r>
       <r>   5.9609  1.0000</r>
       <r>   5.9609  1.0000</r>
       <r>   5.9609  1.0000</r>
       <r>   5.9616  1.0000</r>
       <r>   5.9616  1.0000</r>
       <r>   7.3698  1.0000</r>
       <r>   7.3698  1.0000</r>
       <r>   7.3698  1.0000</r>
       <r>   7.3698  1.0000</r>
       <r>   8.8730  0.0000</r>
       <r>   8.8730  0.0000</r>
       <r>   8.8730  0.0000</r>
       <r>   8.8730  0.0000</r>
       <r>   9.2652  0.0000</r>
       <r>   9.2652  0.0000</r>
       <r>   9.2652  0.0000</r>
       <r>   9.2652  0.0000</r>
       <r>  10.1814  0.0000</r>
       <r>  10.1814  0.0000</r>
       <r>  10.1821  0.0000</r>
       <r>  10.1821  0.0000</r>
       <r>  10.1821  0.0000</r>
       <r>  10.1821  0.0000</r>
       <r>  10.1828  0.0000</r>
       <r>  10.1828  0.0000</r>
       <r>  10.3319  0.0000</r>
       <r>  10.3319  0.0000</r>
       <r>  10.3319  0.0000</r>
       <r>  10.3319  0.0000</r>
       <r>  11.9565  0.0000</r>
       <r>  11.9565  0.0000</r>
       <r>  11.9576  0.0000</r>
       <r>  11.9576  0.0000</r>
       <r>  11.9576  0.0000</r>
       <r>  11.9577  0.0000</r>
       <r>  11.9588  0.0000</r>
       <r>  11.9588  0.0000</r>
      </set>
      <set comment="kpoint 39">
       <r>  -1.4654  1.0000</r>
       <r>  -1.4654  1.0000</r>
       <r>  -1.4654  1.0000</r>
       <r>  -1.4654  1.0000</r>
       <r>  -0.6883  1.0000</r>
       <r>  -0.6883  1.0000</r>
       <r>  -0.6883  1.0000</r>
       <r>  -0.6883  1.0000</r>
       <r>   2.3718  1.0000</r>
       <r>   2.3718  1.0000</r>
       <r>   2.3718  1.0000</r>
       <r>   2.3718  1.0000</r>
       <r>   3.1206  1.0000</r>
       <r>   3.1206  1.0000</r>
       <r>   3.1206  1.0000</r>
       <r>   3.1206  1.0000</r>
       <r>   3.1206  1.0000</r>
       <r>   3.1206  1.0000</r>
       <r>   3.1207  1.0000</r>
       <r>   3.1207  1.0000</r>
       <r>   3.8665  1.0000</r>
       <r>   3.8665  1.0000</r>
       <r>   3.8666  1.0000</r>
       <r>   3.8666  1.0000</r>
       <r>   3.8666  1.0000</r>
       <r>   3.8666  1.0000</r>
       <r>   3.8667  1.0000</r>
       <r>   3.8667  1.0000</r>
       <r>   4.5943  1.0000</r>
       <r>   4.5943  1.0000</r>
       <r>   4.5943  1.0000</r>
       <r>   4.5943  1.0000</r>
       <r>   6.8657  1.0000</r>
       <r>   6.8657  1.0000</r>
       <r>   6.8661  1.0000</r>
       <r>   6.8661  1.0000</r>
       <r>   6.8661  1.0000</r>
       <r>   6.8661  1.0000</r>
       <r>   6.8665  1.0000</r>
       <r>   6.8665  1.0000</r>
       <r>   7.5780  1.0000</r>
       <r>   7.5780  1.0000</r>
       <r>   7.5780  1.0000</r>
       <r>   7.5780  1.0000</r>
       <r>   8.3219  1.0000</r>
       <r>   8.3219  1.0000</r>
       <r>   8.3219  1.0000</r>
       <r>   8.3219  1.0000</r>
       <r>   9.0128  0.0000</r>
       <r>   9.0128  0.0000</r>
       <r>   9.0133  0.0000</r>
       <r>   9.0133  0.0000</r>
       <r>   9.0133  0.0000</r>
       <r>   9.0133  0.0000</r>
       <r>   9.0138  0.0000</r>
       <r>   9.0138  0.0000</r>
       <r>  10.7916  0.0000</r>
       <r>  10.7916  0.0000</r>
       <r>  10.7916  0.0000</r>
       <r>  10.7916  0.0000</r>
       <r>  11.2351  0.0000</r>
       <r>  11.2351  0.0000</r>
       <r>  11.2351  0.0000</r>
       <r>  11.2351  0.0000</r>
       <r>  12.1915  0.0000</r>
       <r>  12.1915  0.0000</r>
       <r>  12.1922  0.0000</r>
       <r>  12.1923  0.0000</r>
       <r>  12.1923  0.0000</r>
       <r>  12.1923  0.0000</r>
       <r>  12.1931  0.0000</r>
       <r>  12.1931  0.0000</r>
      </set>
      <set comment="kpoint 40">
       <r>  -1.1461  1.0000</r>
       <r>  -1.1415  1.0000</r>
       <r>  -1.1415  1.0000</r>
       <r>  -1.1411  1.0000</r>
       <r>  -1.1410  1.0000</r>
       <r>  -1.1406  1.0000</r>
       <r>  -1.1406  1.0000</r>
       <r>  -1.1361  1.0000</r>
       <r>   3.4222  1.0000</r>
       <r>   3.4283  1.0000</r>
       <r>   3.4283  1.0000</r>
       <r>   3.4316  1.0000</r>
       <r>   3.4320  1.0000</r>
       <r>   3.4321  1.0000</r>
       <r>   3.4325  1.0000</r>
       <r>   3.4325  1.0000</r>
       <r>   3.4325  1.0000</r>
       <r>   3.4326  1.0000</r>
       <r>   3.4326  1.0000</r>
       <r>   3.4326  1.0000</r>
       <r>   3.4326  1.0000</r>
       <r>   3.4326  1.0000</r>
       <r>   3.4327  1.0000</r>
       <r>   3.4327  1.0000</r>
       <r>   3.4327  1.0000</r>
       <r>   3.4327  1.0000</r>
       <r>   3.4331  1.0000</r>
       <r>   3.4332  1.0000</r>
       <r>   3.4336  1.0000</r>
       <r>   3.4369  1.0000</r>
       <r>   3.4369  1.0000</r>
       <r>   3.4430  1.0000</r>
       <r>   7.8844  1.0000</r>
       <r>   7.8844  1.0000</r>
       <r>   7.8867  1.0000</r>
       <r>   7.8883  1.0000</r>
       <r>   7.8900  1.0000</r>
       <r>   7.8903  1.0000</r>
       <r>   7.8904  1.0000</r>
       <r>   7.8904  1.0000</r>
       <r>   7.8907  1.0000</r>
       <r>   7.8907  1.0000</r>
       <r>   7.8907  1.0000</r>
       <r>   7.8907  1.0000</r>
       <r>   7.8907  1.0000</r>
       <r>   7.8907  1.0000</r>
       <r>   7.8908  1.0000</r>
       <r>   7.8908  1.0000</r>
       <r>   7.8911  1.0000</r>
       <r>   7.8911  1.0000</r>
       <r>   7.8912  1.0000</r>
       <r>   7.8915  1.0000</r>
       <r>   7.8932  1.0000</r>
       <r>   7.8948  1.0000</r>
       <r>   7.8970  1.0000</r>
       <r>   7.8970  1.0000</r>
       <r>  12.2465  0.0000</r>
       <r>  12.2469  0.0000</r>
       <r>  12.2469  0.0000</r>
       <r>  12.2471  0.0000</r>
       <r>  12.2490  0.0000</r>
       <r>  12.2493  0.0000</r>
       <r>  12.2493  0.0000</r>
       <r>  12.2498  0.0000</r>
       <r>  12.4974  0.0000</r>
       <r>  12.4981  0.0000</r>
       <r>  12.4993  0.0000</r>
       <r>  12.5000  0.0000</r>
       <r>  12.5008  0.0000</r>
       <r>  12.5012  0.0000</r>
       <r>  12.5015  0.0000</r>
       <r>  12.5021  0.0000</r>
      </set>
     </set>
    </set>
   </array>
  </eigenvalues>
 </calculation>
 <structure name="finalpos" >
  <crystal>
   <varray name="basis" >
    <v>       7.91312048      0.00000000      0.00000000</v>
    <v>       0.00000000      7.91312048      0.00000000</v>
    <v>       0.00000000      0.00000000      7.91312048</v>
   </varray>
   <i name="volume">    495.49963047</i>
   <varray name="rec_basis" >
    <v>       0.12637240      0.00000000      0.00000000</v>
    <v>       0.00000000      0.12637240      0.00000000</v>
    <v>       0.00000000      0.00000000      0.12637240</v>
   </varray>
  </crystal>
  <varray name="positions" >
   <v>       0.25126372      0.25000000      0.00000000</v>
   <v>       0.75000000      0.25000000      0.00000000</v>
   <v>       0.25000000      0.75000000      0.00000000</v>
   <v>       0.75000000      0.75000000      0.00000000</v>
   <v>       0.25000000      0.25000000      0.50000000</v>
   <v>       0.75000000      0.25000000      0.50000000</v>
   <v>       0.25000000      0.75000000      0.50000000</v>
   <v>       0.75000000      0.75000000      0.50000000</v>
   <v>       0.25000000      0.00000000      0.25000000</v>
   <v>       0.75000000      0.00000000      0.25000000</v>
   <v>       0.25000000      0.50000000      0.25000000</v>
   <v>       0.75000000      0.50000000      0.25000000</v>
   <v>       0.25000000      0.00000000      0.75000000</v>
   <v>       0.75000000      0.00000000      0.75000000</v>
   <v>       0.25000000      0.50000000      0.75000000</v>
   <v>       0.75000000      0.50000000      0.75000000</v>
   <v>       0.00000000      0.25000000      0.25000000</v>
   <v>       0.50000000      0.25000000      0.25000000</v>
   <v>       0.00000000      0.75000000      0.25000000</v>
   <v>       0.50000000      0.75000000      0.25000000</v>
   <v>       0.00000000      0.25000000      0.75000000</v>
   <v>       0.50000000      0.25000000      0.75000000</v>
   <v>       0.00000000      0.75000000      0.75000000</v>
   <v>       0.50000000      0.75000000      0.75000000</v>
   <v>       0.00000000      0.00000000      0.00000000</v>
   <v>       0.50000000      0.00000000      0.00000000</v>
   <v>       0.00000000      0.50000000      0.00000000</v>
   <v>       0.50000000      0.50000000      0.00000000</v>
   <v>       0.00000000      0.00000000      0.50000000</v>
   <v>       0.50000000      0.00000000      0.50000000</v>
   <v>       0.00000000      0.50000000      0.50000000</v>
   <v>       0.50000000      0.50000000      0.50000000</v>
  </varray>
 </structure>
</modeling>
