 running on    4 nodes
 distr:  one band on    1 nodes,    4 groups
 vasp.4.6.28 25Jul05 complex 
 POSCAR found :  1 types and   36 ions

 ----------------------------------------------------------------------------- 
|                                                                             |
|  ADVICE TO THIS USER RUNNING 'VASP/VAMP'   (HEAR YOUR MASTER'S VOICE ...):  |
|                                                                             |
|      You have a (more or less) 'large supercell' and for larger cells       |
|      it might be more efficient to use real space projection operators      |
|      So try LREAL= Auto  in the INCAR   file.                               |
|      Mind: If you want to do an extremely accurate calculations keep the    |
|      reciprocal projection scheme          (i.e. LREAL=.FALSE.)             |
|                                                                             |
 ----------------------------------------------------------------------------- 

 LDA part: xc-table for Pade appr. of Perdew
 generate k-points for:   7   7   5
 POSCAR, INCAR and KPOINTS ok, starting setup
 WARNING: wrap around errors must be expected
 FFT: planning ...           1
 reading WAVECAR
 WARNING: random wavefunctions but no delay for mixing, default for NELMDL
 entering main loop
       N       E                     dE             d eps       ncg     rms          rms(c)
DAV:   1     0.498061109098E+04    0.49806E+04   -0.17194E+05 53896   0.180E+03
DAV:   2     0.908154817786E+02   -0.48898E+04   -0.48145E+04 53136   0.638E+02
DAV:   3    -0.292362409836E+03   -0.38318E+03   -0.36052E+03 77704   0.161E+02
DAV:   4    -0.324006497643E+03   -0.31644E+02   -0.30741E+02 72648   0.403E+01
DAV:   5    -0.324951270388E+03   -0.94477E+00   -0.92282E+00 69456   0.624E+00    0.359E+01
DAV:   6    -0.286121496037E+03    0.38830E+02   -0.12108E+02 58024   0.373E+01    0.908E+00
DAV:   7    -0.284227215787E+03    0.18943E+01   -0.15492E+01 69984   0.115E+01    0.355E+00
DAV:   8    -0.284319319272E+03   -0.92103E-01   -0.28320E+00 70872   0.685E+00    0.392E+00
DAV:   9    -0.284132605046E+03    0.18671E+00   -0.10476E+00 74840   0.463E+00    0.175E+00
DAV:  10    -0.284070993292E+03    0.61612E-01   -0.15676E-01 71640   0.148E+00    0.103E+00
DAV:  11    -0.284038856294E+03    0.32137E-01   -0.21617E-01 62832   0.159E+00    0.230E-01
DAV:  12    -0.284039638431E+03   -0.78214E-03   -0.10247E-02 71744   0.371E-01    0.244E-01
DAV:  13    -0.284038559223E+03    0.10792E-02   -0.30158E-03 68752   0.206E-01    0.112E-01
DAV:  14    -0.284038335535E+03    0.22369E-03   -0.70406E-04 70744   0.117E-01    0.576E-02
DAV:  15    -0.284038298249E+03    0.37286E-04   -0.13810E-04 72720   0.562E-02    0.370E-02
DAV:  16    -0.284038280984E+03    0.17265E-04   -0.44787E-05 73320   0.315E-02    0.262E-02
DAV:  17    -0.284038247031E+03    0.33954E-04   -0.34139E-05 67600   0.215E-02    0.123E-02
DAV:  18    -0.284038233310E+03    0.13721E-04   -0.80706E-06 71864   0.123E-02    0.494E-03
DAV:  19    -0.284038225040E+03    0.82696E-05   -0.18419E-06 72272   0.554E-03    0.212E-03
DAV:  20    -0.284038222694E+03    0.23459E-05   -0.42189E-07 73328   0.301E-03    0.618E-04
DAV:  21    -0.284038222249E+03    0.44501E-06   -0.74022E-08 53704   0.108E-03    0.406E-04
DAV:  22    -0.284038222271E+03   -0.21719E-07   -0.13182E-08 37512   0.716E-04    0.218E-04
DAV:  23    -0.284038222580E+03   -0.30900E-06   -0.79960E-09 35128   0.388E-04    0.124E-04
DAV:  24    -0.284038222636E+03   -0.55879E-07   -0.36895E-09 34416   0.295E-04    0.900E-05
DAV:  25    -0.284038222702E+03   -0.65869E-07   -0.14226E-09 33816   0.176E-04    0.618E-05
DAV:  26    -0.284038222719E+03   -0.16931E-07   -0.71515E-10 33400   0.958E-05    0.551E-05
DAV:  27    -0.284038222731E+03   -0.12296E-07   -0.33143E-10 33112   0.712E-05    0.467E-05
DAV:  28    -0.284038222739E+03   -0.78144E-08   -0.15499E-10 32936   0.405E-05
   1 F= -.28403822E+03 E0= -.28403708E+03  d E =-.227709E-02
