  36  36   0   0
  0.1746205E+02  0.8820702E-09  0.8820702E-09  0.9299549E-09  0.5000000E-15
  1.000000000000000E-004
  CAR 
 unknown system                          
      8.71997663    -29.30858240  301      5.87008320      1.00000000
    -29.309  0.0000E+00  0.0000E+00
    -29.182  0.0000E+00  0.0000E+00
    -29.055  0.0000E+00  0.0000E+00
    -28.928  0.0000E+00  0.0000E+00
    -28.802  0.0000E+00  0.0000E+00
    -28.675  0.0000E+00  0.0000E+00
    -28.548  0.0000E+00  0.0000E+00
    -28.421  0.0000E+00  0.0000E+00
    -28.294  0.0000E+00  0.0000E+00
    -28.168  0.0000E+00  0.0000E+00
    -28.041  0.0000E+00  0.0000E+00
    -27.914  0.0000E+00  0.0000E+00
    -27.787  0.0000E+00  0.0000E+00
    -27.661  0.0000E+00  0.0000E+00
    -27.534  0.5374E+01  0.6812E+00
    -27.407  0.1460E+03  0.2061E+02
    -27.280  0.1401E+03  0.5492E+02
    -27.154  0.1325E+03  0.8180E+02
    -27.027  0.2909E+03  0.1316E+03
    -26.900  0.3682E+03  0.2049E+03
    -26.773  0.9531E+01  0.2160E+03
    -26.647  0.0000E+00  0.2160E+03
    -26.520  0.0000E+00  0.2160E+03
    -26.393  0.0000E+00  0.2160E+03
    -26.266  0.0000E+00  0.2160E+03
    -26.140  0.0000E+00  0.2160E+03
    -26.013  0.0000E+00  0.2160E+03
    -25.886  0.0000E+00  0.2160E+03
    -25.759  0.0000E+00  0.2160E+03
    -25.632  0.0000E+00  0.2160E+03
    -25.506  0.0000E+00  0.2160E+03
    -25.379  0.0000E+00  0.2160E+03
    -25.252  0.0000E+00  0.2160E+03
    -25.125  0.0000E+00  0.2160E+03
    -24.999  0.0000E+00  0.2160E+03
    -24.872  0.0000E+00  0.2160E+03
    -24.745  0.0000E+00  0.2160E+03
    -24.618  0.0000E+00  0.2160E+03
    -24.492  0.0000E+00  0.2160E+03
    -24.365  0.0000E+00  0.2160E+03
    -24.238  0.0000E+00  0.2160E+03
    -24.111  0.0000E+00  0.2160E+03
    -23.985  0.0000E+00  0.2160E+03
    -23.858  0.0000E+00  0.2160E+03
    -23.731  0.0000E+00  0.2160E+03
    -23.604  0.0000E+00  0.2160E+03
    -23.478  0.0000E+00  0.2160E+03
    -23.351  0.0000E+00  0.2160E+03
    -23.224  0.0000E+00  0.2160E+03
    -23.097  0.0000E+00  0.2160E+03
    -22.970  0.0000E+00  0.2160E+03
    -22.844  0.0000E+00  0.2160E+03
    -22.717  0.0000E+00  0.2160E+03
    -22.590  0.0000E+00  0.2160E+03
    -22.463  0.0000E+00  0.2160E+03
    -22.337  0.0000E+00  0.2160E+03
    -22.210  0.0000E+00  0.2160E+03
    -22.083  0.0000E+00  0.2160E+03
    -21.956  0.0000E+00  0.2160E+03
    -21.830  0.0000E+00  0.2160E+03
    -21.703  0.0000E+00  0.2160E+03
    -21.576  0.0000E+00  0.2160E+03
    -21.449  0.0000E+00  0.2160E+03
    -21.323  0.0000E+00  0.2160E+03
    -21.196  0.0000E+00  0.2160E+03
    -21.069  0.0000E+00  0.2160E+03
    -20.942  0.0000E+00  0.2160E+03
    -20.816  0.0000E+00  0.2160E+03
    -20.689  0.0000E+00  0.2160E+03
    -20.562  0.0000E+00  0.2160E+03
    -20.435  0.0000E+00  0.2160E+03
    -20.308  0.0000E+00  0.2160E+03
    -20.182  0.0000E+00  0.2160E+03
    -20.055  0.0000E+00  0.2160E+03
    -19.928  0.0000E+00  0.2160E+03
    -19.801  0.0000E+00  0.2160E+03
    -19.675  0.0000E+00  0.2160E+03
    -19.548  0.0000E+00  0.2160E+03
    -19.421  0.0000E+00  0.2160E+03
    -19.294  0.0000E+00  0.2160E+03
    -19.168  0.0000E+00  0.2160E+03
    -19.041  0.0000E+00  0.2160E+03
    -18.914  0.0000E+00  0.2160E+03
    -18.787  0.0000E+00  0.2160E+03
    -18.661  0.0000E+00  0.2160E+03
    -18.534  0.0000E+00  0.2160E+03
    -18.407  0.0000E+00  0.2160E+03
    -18.280  0.0000E+00  0.2160E+03
    -18.154  0.0000E+00  0.2160E+03
    -18.027  0.0000E+00  0.2160E+03
    -17.900  0.0000E+00  0.2160E+03
    -17.773  0.0000E+00  0.2160E+03
    -17.646  0.0000E+00  0.2160E+03
    -17.520  0.0000E+00  0.2160E+03
    -17.393  0.0000E+00  0.2160E+03
    -17.266  0.0000E+00  0.2160E+03
    -17.139  0.0000E+00  0.2160E+03
    -17.013  0.0000E+00  0.2160E+03
    -16.886  0.0000E+00  0.2160E+03
    -16.759  0.0000E+00  0.2160E+03
    -16.632  0.0000E+00  0.2160E+03
    -16.506  0.0000E+00  0.2160E+03
    -16.379  0.0000E+00  0.2160E+03
    -16.252  0.0000E+00  0.2160E+03
    -16.125  0.0000E+00  0.2160E+03
    -15.999  0.0000E+00  0.2160E+03
    -15.872  0.0000E+00  0.2160E+03
    -15.745  0.0000E+00  0.2160E+03
    -15.618  0.0000E+00  0.2160E+03
    -15.492  0.0000E+00  0.2160E+03
    -15.365  0.0000E+00  0.2160E+03
    -15.238  0.0000E+00  0.2160E+03
    -15.111  0.0000E+00  0.2160E+03
    -14.984  0.0000E+00  0.2160E+03
    -14.858  0.0000E+00  0.2160E+03
    -14.731  0.0000E+00  0.2160E+03
    -14.604  0.0000E+00  0.2160E+03
    -14.477  0.0000E+00  0.2160E+03
    -14.351  0.0000E+00  0.2160E+03
    -14.224  0.0000E+00  0.2160E+03
    -14.097  0.0000E+00  0.2160E+03
    -13.970  0.0000E+00  0.2160E+03
    -13.844  0.0000E+00  0.2160E+03
    -13.717  0.0000E+00  0.2160E+03
    -13.590  0.0000E+00  0.2160E+03
    -13.463  0.0000E+00  0.2160E+03
    -13.337  0.0000E+00  0.2160E+03
    -13.210  0.0000E+00  0.2160E+03
    -13.083  0.0000E+00  0.2160E+03
    -12.956  0.0000E+00  0.2160E+03
    -12.830  0.0000E+00  0.2160E+03
    -12.703  0.0000E+00  0.2160E+03
    -12.576  0.0000E+00  0.2160E+03
    -12.449  0.0000E+00  0.2160E+03
    -12.322  0.0000E+00  0.2160E+03
    -12.196  0.0000E+00  0.2160E+03
    -12.069  0.0000E+00  0.2160E+03
    -11.942  0.0000E+00  0.2160E+03
    -11.815  0.0000E+00  0.2160E+03
    -11.689  0.0000E+00  0.2160E+03
    -11.562  0.0000E+00  0.2160E+03
    -11.435  0.0000E+00  0.2160E+03
    -11.308  0.0000E+00  0.2160E+03
    -11.182  0.0000E+00  0.2160E+03
    -11.055  0.0000E+00  0.2160E+03
    -10.928  0.0000E+00  0.2160E+03
    -10.801  0.0000E+00  0.2160E+03
    -10.675  0.0000E+00  0.2160E+03
    -10.548  0.0000E+00  0.2160E+03
    -10.421  0.0000E+00  0.2160E+03
    -10.294  0.0000E+00  0.2160E+03
    -10.168  0.0000E+00  0.2160E+03
    -10.041  0.0000E+00  0.2160E+03
     -9.914  0.0000E+00  0.2160E+03
     -9.787  0.0000E+00  0.2160E+03
     -9.660  0.0000E+00  0.2160E+03
     -9.534  0.0000E+00  0.2160E+03
     -9.407  0.0000E+00  0.2160E+03
     -9.280  0.0000E+00  0.2160E+03
     -9.153  0.0000E+00  0.2160E+03
     -9.027  0.0000E+00  0.2160E+03
     -8.900  0.0000E+00  0.2160E+03
     -8.773  0.0000E+00  0.2160E+03
     -8.646  0.0000E+00  0.2160E+03
     -8.520  0.0000E+00  0.2160E+03
     -8.393  0.0000E+00  0.2160E+03
     -8.266  0.0000E+00  0.2160E+03
     -8.139  0.0000E+00  0.2160E+03
     -8.013  0.0000E+00  0.2160E+03
     -7.886  0.0000E+00  0.2160E+03
     -7.759  0.0000E+00  0.2160E+03
     -7.632  0.0000E+00  0.2160E+03
     -7.506  0.0000E+00  0.2160E+03
     -7.379  0.0000E+00  0.2160E+03
     -7.252  0.0000E+00  0.2160E+03
     -7.125  0.0000E+00  0.2160E+03
     -6.998  0.0000E+00  0.2160E+03
     -6.872  0.0000E+00  0.2160E+03
     -6.745  0.0000E+00  0.2160E+03
     -6.618  0.0000E+00  0.2160E+03
     -6.491  0.0000E+00  0.2160E+03
     -6.365  0.0000E+00  0.2160E+03
     -6.238  0.0000E+00  0.2160E+03
     -6.111  0.0000E+00  0.2160E+03
     -5.984  0.0000E+00  0.2160E+03
     -5.858  0.0000E+00  0.2160E+03
     -5.731  0.0000E+00  0.2160E+03
     -5.604  0.0000E+00  0.2160E+03
     -5.477  0.0000E+00  0.2160E+03
     -5.351  0.0000E+00  0.2160E+03
     -5.224  0.0000E+00  0.2160E+03
     -5.097  0.0000E+00  0.2160E+03
     -4.970  0.0000E+00  0.2160E+03
     -4.844  0.0000E+00  0.2160E+03
     -4.717  0.0000E+00  0.2160E+03
     -4.590  0.0000E+00  0.2160E+03
     -4.463  0.0000E+00  0.2160E+03
     -4.336  0.0000E+00  0.2160E+03
     -4.210  0.0000E+00  0.2160E+03
     -4.083  0.0000E+00  0.2160E+03
     -3.956  0.0000E+00  0.2160E+03
     -3.829  0.0000E+00  0.2160E+03
     -3.703  0.0000E+00  0.2160E+03
     -3.576  0.0000E+00  0.2160E+03
     -3.449  0.0000E+00  0.2160E+03
     -3.322  0.0000E+00  0.2160E+03
     -3.196  0.0000E+00  0.2160E+03
     -3.069  0.0000E+00  0.2160E+03
     -2.942  0.0000E+00  0.2160E+03
     -2.815  0.0000E+00  0.2160E+03
     -2.689  0.0000E+00  0.2160E+03
     -2.562  0.0000E+00  0.2160E+03
     -2.435  0.0000E+00  0.2160E+03
     -2.308  0.0000E+00  0.2160E+03
     -2.182  0.0000E+00  0.2160E+03
     -2.055  0.0000E+00  0.2160E+03
     -1.928  0.0000E+00  0.2160E+03
     -1.801  0.0000E+00  0.2160E+03
     -1.674  0.0000E+00  0.2160E+03
     -1.548  0.0000E+00  0.2160E+03
     -1.421  0.0000E+00  0.2160E+03
     -1.294  0.0000E+00  0.2160E+03
     -1.167  0.0000E+00  0.2160E+03
     -1.041  0.0000E+00  0.2160E+03
     -0.914  0.0000E+00  0.2160E+03
     -0.787  0.0000E+00  0.2160E+03
     -0.660  0.0000E+00  0.2160E+03
     -0.534  0.0000E+00  0.2160E+03
     -0.407  0.0000E+00  0.2160E+03
     -0.280  0.1138E-01  0.2160E+03
     -0.153  0.5152E+00  0.2161E+03
     -0.027  0.4843E+00  0.2162E+03
      0.100  0.9024E+00  0.2165E+03
      0.227  0.8013E+00  0.2167E+03
      0.354  0.1255E+01  0.2171E+03
      0.480  0.1251E+01  0.2174E+03
      0.607  0.2910E+01  0.2180E+03
      0.734  0.1159E+01  0.2183E+03
      0.861  0.2538E+01  0.2188E+03
      0.988  0.3654E+01  0.2195E+03
      1.114  0.2322E+01  0.2198E+03
      1.241  0.3182E+01  0.2206E+03
      1.368  0.3630E+01  0.2213E+03
      1.495  0.3527E+01  0.2219E+03
      1.621  0.6118E+01  0.2228E+03
      1.748  0.2547E+01  0.2235E+03
      1.875  0.3347E+01  0.2242E+03
      2.002  0.5424E+01  0.2253E+03
      2.128  0.3348E+01  0.2264E+03
      2.255  0.6024E+01  0.2272E+03
      2.382  0.8779E+01  0.2286E+03
      2.509  0.6209E+01  0.2299E+03
      2.635  0.5492E+01  0.2312E+03
      2.762  0.8277E+01  0.2326E+03
      2.889  0.8394E+01  0.2345E+03
      3.016  0.1065E+02  0.2363E+03
      3.142  0.1572E+02  0.2396E+03
      3.269  0.1529E+02  0.2420E+03
      3.396  0.3336E+02  0.2479E+03
      3.523  0.2002E+02  0.2514E+03
      3.650  0.1597E+02  0.2553E+03
      3.776  0.2482E+02  0.2602E+03
      3.903  0.2667E+02  0.2659E+03
      4.030  0.3536E+02  0.2715E+03
      4.157  0.2785E+02  0.2772E+03
      4.283  0.4133E+02  0.2855E+03
      4.410  0.2113E+02  0.2906E+03
      4.537  0.2877E+02  0.2957E+03
      4.664  0.2495E+02  0.3006E+03
      4.790  0.3500E+02  0.3070E+03
      4.917  0.3242E+02  0.3133E+03
      5.044  0.4623E+02  0.3216E+03
      5.171  0.4402E+02  0.3298E+03
      5.297  0.4928E+02  0.3393E+03
      5.424  0.3073E+02  0.3463E+03
      5.551  0.1157E+02  0.3501E+03
      5.678  0.2109E+02  0.3544E+03
      5.804  0.1139E+02  0.3571E+03
      5.931  0.2269E+02  0.3620E+03
      6.058  0.4384E+02  0.3695E+03
      6.185  0.5074E+02  0.3798E+03
      6.312  0.5801E+02  0.3903E+03
      6.438  0.4240E+02  0.3989E+03
      6.565  0.5031E+02  0.4086E+03
      6.692  0.6150E+02  0.4201E+03
      6.819  0.4196E+02  0.4290E+03
      6.945  0.4480E+01  0.4318E+03
      7.072  0.0000E+00  0.4320E+03
      7.199  0.0000E+00  0.4320E+03
      7.326  0.0000E+00  0.4320E+03
      7.452  0.0000E+00  0.4320E+03
      7.579  0.0000E+00  0.4320E+03
      7.706  0.0000E+00  0.4320E+03
      7.833  0.0000E+00  0.4320E+03
      7.959  0.0000E+00  0.4320E+03
      8.086  0.0000E+00  0.4320E+03
      8.213  0.0000E+00  0.4320E+03
      8.340  0.0000E+00  0.4320E+03
      8.466  0.0000E+00  0.4320E+03
      8.593  0.0000E+00  0.4320E+03
      8.720  0.0000E+00  0.4320E+03
